Membrane in water
40344
    1TMC1    C1    1   2.149   4.735  11.452 -0.9251 -0.0153 -0.4176
    1TMC1    C2    2   2.204   0.033  11.333 -0.4099 -0.2050 -0.3581
    1TMC1    C3    3   2.242   0.163  11.330 -0.6332  0.0892  0.0366
    1TMC1    C4    4   2.126   0.072  11.558 -0.5976 -0.4799  0.4023
    1TMC1    C5    5   2.172   0.200  11.542 -0.4455 -0.7365 -0.3874
    1TMC1    C6    6   2.226   0.250  11.432 -0.4160  0.9627  0.3304
    1TMC1     C    7   2.113   4.598  11.471 -0.3130 -0.5422 -0.2679
    1TMC1     O    8   2.028   4.575  11.555  0.1584 -0.2860 -0.2228
    1TMC1     H    9   2.207   4.715  11.241 -0.8782  1.0464 -1.1376
    1TMC1    H1   10   2.090   0.031  11.651  0.7801 -2.1921  0.1773
    1TMC1    H2   11   2.265   0.350  11.445  0.3809  0.5032  1.4479
    1TMC1    C7   12   2.190   0.268  11.663  0.2309  0.7758  0.2079
    1TMC1    C8   13   2.324   0.213  11.215 -0.3534 -0.1752  0.7523
    1TMC1    O1   14   2.294   0.326  11.687 -0.1773  0.0582  0.0544
    1TMC1    O2   15   2.372   0.143  11.126 -0.5068  0.1791  0.4208
    1TMC1    O3   16   2.079   0.265  11.741 -0.0214 -0.6513 -0.1305
    1TMC1    H3   17   1.999   0.256  11.685  0.7802  0.6246 -1.5000
    1TMC1    O5   18   2.282   0.347  11.198  0.4545  0.5361  0.2338
    1TMC1    H5   19   2.277   0.381  11.107  0.7314  0.6437  0.2599
    2MPD2     C   20   2.212   4.094  11.452 -0.4997 -1.2089  0.0116
    2MPD2    C1   21   2.104   4.158  11.509 -0.7207 -0.4912  0.3255
    2MPD2    C2   22   2.085   4.295  11.491 -0.0351  0.5278  0.0169
    2MPD2    C3   23   2.188   4.368  11.427 -0.7854  0.8450  0.4325
    2MPD2    C4   24   2.292   4.296  11.366  0.0441  0.4537  0.4436
    2MPD2    C5   25   2.299   4.161  11.376  0.2084  0.1242 -0.0584
    2MPD2     H   26   2.007   4.354  11.536 -0.3669 -0.2798  0.4928
    2MPD2    H1   27   2.367   4.340  11.302  0.9724  0.6366  1.6407
    2MPD2    H2   28   2.228   3.987  11.454  2.7972 -0.7301  0.0266
    2MPD2    H3   29   2.376   4.112  11.317 -1.5301 -1.9773 -0.5661
    2MPD2     N   30   2.188   4.508  11.408 -0.3350  0.3355 -0.6663
    2MPD2    H5   31   2.257   4.539  11.340  1.1727  2.5852  1.9045
    2MPD2    N1   32   2.007   4.089  11.581  0.2419  0.4427  0.1795
    2MPD2    H7   33   1.949   4.146  11.642  0.8398  1.1681  0.0694
    3TMC1    C1   34   1.359   4.229  10.563 -0.1459 -0.7591  0.6885
    3TMC1    C2   35   1.414   4.110  10.519  0.0214  0.0695 -0.4587
    3TMC1    C3   36   1.529   4.120  10.440  0.4323 -0.4152 -0.5167
    3TMC1    C4   37   1.410   4.353  10.515 -0.2256 -0.0505  0.3262
    3TMC1    C5   38   1.523   4.353  10.439 -0.7117 -0.5168  0.2873
    3TMC1    C6   39   1.584   4.238  10.395 -0.5895  0.0007 -0.5207
    3TMC1     C   40   1.222   4.226  10.610 -0.4751  0.0086  0.2752
    3TMC1     O   41   1.156   4.137  10.557 -0.3594  0.1539 -0.1012
    3TMC1     H   42   1.363   4.024  10.561 -0.3189 -0.4409 -1.9076
    3TMC1    H1   43   1.367   4.446  10.551 -0.8893 -0.4008  0.4468
    3TMC1    H2   44   1.675   4.225  10.338 -0.5344 -2.2602  0.0990
    3TMC1    C7   45   1.586   4.481  10.417  0.4285  0.4817  0.7252
    3TMC1    C8   46   1.599   4.007  10.410  0.4337 -0.1596  0.5309
    3TMC1    O1   47   1.593   4.563  10.508 -0.3663 -0.5808 -0.1890
    3TMC1    O2   48   1.544   3.908  10.366 -0.5034 -0.1790  0.2965
    3TMC1    O3   49   1.679   4.467  10.318  0.1910  0.0330  0.1533
    3TMC1    H3   50   1.670   4.388  10.261 -0.2022 -0.8888  1.4803
    3TMC1    O5   51   1.687   4.012  10.508 -0.2818 -0.2192 -0.3340
    3TMC1    H5   52   1.693   4.102  10.545 -0.3837 -0.7871  1.0531
    4MPD2     C   53   0.831   4.421  10.877 -0.1795  0.2136 -0.6067
    4MPD2    C1   54   0.945   4.492  10.914 -0.5701 -0.0049  0.3707
    4MPD2    C2   55   1.060   4.447  10.858  0.6662 -0.1918  0.3097
    4MPD2    C3   56   1.066   4.349  10.764  0.3386 -0.5814 -0.2122
    4MPD2    C4   57   0.950   4.284  10.724 -0.7921 -0.0890 -0.6497
    4MPD2    C5   58   0.840   4.312  10.794 -0.0154 -0.6748 -0.6596
    4MPD2     H   59   1.153   4.499  10.882  0.5459  0.3420 -0.3617
    4MPD2    H1   60   0.938   4.210  10.646 -0.3360 -1.1628  0.2895
    4MPD2    H2   61   0.737   4.457  10.916  0.4084 -0.8018  1.7650
    4MPD2    H3   62   0.755   4.248  10.773 -0.1614 -0.8403  0.4042
    4MPD2     N   63   1.194   4.319  10.708  0.0350 -0.1979  0.4349
    4MPD2    H5   64   1.279   4.361  10.745 -0.7516  2.3331 -0.6112
    4MPD2    N1   65   0.939   4.612  10.992 -0.2984  0.6548  0.5838
    4MPD2    H7   66   1.025   4.664  11.010 -0.1254  0.1952  1.0925
    5TCq1    O1   67   1.859   2.015  11.873 -0.4192 -0.1513 -0.3024
    5TCq1    C1   68   1.819   1.937  11.774  0.1605  0.3516 -0.4677
    5TCq1    O2   69   1.865   1.828  11.752  0.6374  0.5172  0.2144
    5TCq1    C2   70   1.698   1.984  11.704 -0.4748  0.5702 -0.0945
    5TCq1    C3   71   1.599   2.039  11.786  0.1401  0.3494  0.1849
    5TCq1    C4   72   1.467   2.042  11.743 -0.0217 -0.0288 -0.4893
    5TCq1    C5   73   1.437   1.982  11.620 -0.4280 -0.3578  0.2543
    5TCq1    C6   74   1.539   1.915  11.542 -0.5159  0.1418  0.0015
    5TCq1    C7   75   1.667   1.907  11.588 -0.4954 -0.1219  0.3427
    5TCq1    C8   76   1.521   1.882  11.405 -0.6880 -0.0091 -0.4891
    5TCq1    O4   77   1.625   1.868  11.342  0.1494  0.2401  0.0363
    5TCq1    C9   78   1.371   2.100  11.831  0.1346 -0.3599  0.5584
    5TCq1    O5   79   1.253   2.106  11.799  0.1864  0.4461  1.2394
    5TCq1    O6   80   1.415   2.147  11.935  0.3841  0.3740  0.6236
    5TCq1    H1   81   1.827   2.105  11.850 -1.5385 -0.6260 -0.5903
    5TCq1    H2   82   1.624   2.075  11.886 -0.7845  1.2054  0.0997
    5TCq1    H3   83   1.333   1.977  11.592 -0.9313  1.9175  1.6943
    5TCq1    H4   84   1.739   1.842  11.540 -0.8539  0.9243 -1.6101
    6MPD2     C   85   1.214   1.874  11.193  0.2335  0.5050  0.0838
    6MPD2    C1   86   1.349   1.862  11.226 -0.5258 -0.3035  0.6772
    6MPD2    C2   87   1.438   1.817  11.125 -0.5431 -0.6653  0.1404
    6MPD2    C3   88   1.385   1.780  11.003  0.1051  0.0543  0.4891
    6MPD2    C4   89   1.248   1.798  10.976  0.2750 -0.4414  0.2134
    6MPD2    C5   90   1.159   1.839  11.074 -0.3286  0.1052  0.4850
    6MPD2     H   91   1.541   1.787  11.139  0.1411  1.8268  0.4826
    6MPD2    H1   92   1.205   1.770  10.880  0.6646  0.2025 -0.1530
    6MPD2    H2   93   1.140   1.890  11.271 -0.2717  0.1801 -0.3306
    6MPD2    H3   94   1.062   1.871  11.038 -1.3430 -1.7530  1.5325
    6MPD2     N   95   1.475   1.724  10.897  0.2129  0.3223  0.0159
    6MPD2    H5   96   1.573   1.748  10.912  1.4523 -2.9052 -2.6994
    6MPD2    N1   97   1.392   1.890  11.354 -0.5444  0.1654 -0.6135
    6MPD2    H7   98   1.322   1.932  11.414  0.8935 -0.7113  1.7092
    7TCq1    O1   99   3.502   1.014  13.366 -0.3832 -0.5088  0.2021
    7TCq1    C1  100   3.401   0.926  13.320 -0.0281  0.2553 -0.7382
    7TCq1    O2  101   3.302   0.962  13.258  0.3453 -0.0720  0.1296
    7TCq1    C2  102   3.453   0.791  13.295 -0.2402  0.2953  0.3707
    7TCq1    C3  103   3.388   0.719  13.195  0.1580  0.6154  0.0016
    7TCq1    C4  104   3.422   0.597  13.170 -0.3830  0.1365  0.0969
    7TCq1    C5  105   3.543   0.550  13.220  0.5133 -0.4414 -0.3549
    7TCq1    C6  106   3.601   0.614  13.320  0.0018  0.2343 -0.1867
    7TCq1    C7  107   3.561   0.741  13.357 -0.3387  0.2105 -0.0661
    7TCq1    C8  108   3.727   0.569  13.360  0.1449  0.1964 -0.0323
    7TCq1    O4  109   3.778   0.477  13.296  0.0287  0.0491 -0.2875
    7TCq1    C9  110   3.358   0.522  13.066  0.1164  0.0765 -0.0512
    7TCq1    O5  111   3.403   0.404  13.046 -0.2418 -0.4046  0.5303
    7TCq1    O6  112   3.246   0.566  13.025  0.6103 -0.1946  0.1847
    7TCq1    H1  113   3.587   0.977  13.395  0.7639  1.7776 -0.2423
    7TCq1    H2  114   3.294   0.748  13.151  0.7504  1.4124 -0.7430
    7TCq1    H3  115   3.570   0.446  13.204  0.6856 -0.3763 -0.4845
    7TCq1    H4  116   3.613   0.794  13.436  0.9029  1.5724 -1.8079
    8MPD2     C  117   4.130   0.579  13.688  0.2812 -0.2576  0.1436
    8MPD2    C1  118   4.124   0.532  13.554 -0.0083  0.2414  0.0943
    8MPD2    C2  119   4.003   0.547  13.486  0.0072 -0.9330  0.8517
    8MPD2    C3  120   3.887   0.604  13.541 -0.4764 -0.5651 -0.0216
    8MPD2    C4  121   3.904   0.662  13.664 -0.4214  0.4994 -0.6444
    8MPD2    C5  122   4.023   0.643  13.737 -0.6163  0.4434 -0.1957
    8MPD2     H  123   3.987   0.510  13.386 -1.2424 -0.0930  0.7567
    8MPD2    H1  124   3.823   0.720  13.708  0.8217  1.4445  0.4309
    8MPD2    H2  125   4.220   0.576  13.748  0.2364  0.7566  0.2592
    8MPD2    H3  126   4.032   0.687  13.835 -2.0798 -1.5038  0.8243
    8MPD2     N  127   3.768   0.624  13.481 -0.2996  0.1530 -0.1930
    8MPD2    H5  128   3.701   0.685  13.527  2.3282  1.6219  1.7694
    8MPD2    N1  129   4.246   0.480  13.495  0.1003  0.4796  0.0876
    8MPD2    H7  130   4.328   0.503  13.551 -1.2964  2.2678  1.3883
    9TMC1    C1  131   1.176   0.738  11.237 -0.6327 -0.5680 -0.1225
    9TMC1    C2  132   1.181   0.822  11.131  0.1147 -0.6146  0.0174
    9TMC1    C3  133   1.065   0.844  11.061 -0.3481  0.8343 -0.7915
    9TMC1    C4  134   1.063   0.680  11.293 -0.2082 -0.1709 -0.3657
    9TMC1    C5  135   0.950   0.704  11.218 -0.7463 -0.4308 -0.1158
    9TMC1    C6  136   0.950   0.793  11.103 -0.5285 -0.9607 -0.2697
    9TMC1     C  137   1.300   0.686  11.290 -0.4567 -0.2607  0.9856
    9TMC1     O  138   1.405   0.752  11.265  0.3957 -0.3899 -0.0501
    9TMC1     H  139   1.268   0.873  11.090  0.1907 -1.8897 -1.4320
    9TMC1    H1  140   1.048   0.628  11.387 -1.4391  2.6061  0.9608
    9TMC1    H2  141   0.860   0.815  11.046 -0.5206 -0.8908 -0.2561
    9TMC1    C7  142   0.820   0.676  11.276 -0.3175  0.1239  0.4958
    9TMC1    C8  143   1.053   0.976  11.006 -0.7241  0.6389  0.3989
    9TMC1    O1  144   0.797   0.572  11.347  0.0246 -0.3844 -0.8947
    9TMC1    O2  145   1.108   1.076  11.048 -0.1359  0.3407  0.2369
    9TMC1    O3  146   0.736   0.781  11.268  0.0803 -0.2153  0.1818
    9TMC1    H3  147   0.791   0.860  11.251 -0.2253  0.5275  2.6176
    9TMC1    O5  148   0.981   0.971  10.891 -0.5126  0.2840  0.9505
    9TMC1    H5  149   0.981   0.877  10.862 -1.4326  0.1495  1.4027
   10MPD2     C  150   1.505   0.534  11.429 -0.3593 -0.1618  0.1306
   10MPD2    C1  151   1.375   0.491  11.416  0.3931  0.0959 -0.3795
   10MPD2    C2  152   1.330   0.378  11.490  0.5647 -0.7544 -0.4708
   10MPD2    C3  153   1.416   0.315  11.574 -0.3543 -0.7177 -0.4365
   10MPD2    C4  154   1.541   0.368  11.597  0.1666  0.7380 -0.4002
   10MPD2    C5  155   1.586   0.471  11.527  0.1724 -0.8122  0.1477
   10MPD2     H  156   1.226   0.353  11.479  0.1376 -0.1140  2.1167
   10MPD2    H1  157   1.615   0.322  11.662  0.9931  1.5272 -0.7884
   10MPD2    H2  158   1.545   0.620  11.376 -1.1850 -0.5756 -1.1637
   10MPD2    H3  159   1.690   0.497  11.536  0.4040 -2.3635  2.0122
   10MPD2     N  160   1.375   0.211  11.661  0.0424 -0.2241 -0.4032
   10MPD2    H5  161   1.443   0.192  11.733  0.1715 -2.6581 -1.1551
   10MPD2    N1  162   1.279   0.555  11.335  0.0028 -0.3108  0.0942
   10MPD2    H7  163   1.187   0.512  11.329 -0.4361  0.6589 -0.1526
   11TCq1    O1  164   2.072   3.842  14.515  0.0882  1.8759  0.3430
   11TCq1    C1  165   2.062   3.785  14.638 -0.8778  0.2067 -0.3580
   11TCq1    O2  166   2.141   3.798  14.729 -0.0517 -0.1989 -0.2715
   11TCq1    C2  167   1.915   3.768  14.656  0.4519  0.5548 -0.8260
   11TCq1    C3  168   1.846   3.839  14.754  0.3691  0.0837 -0.0299
   11TCq1    C4  169   1.711   3.840  14.744 -0.1419 -0.8086  0.9660
   11TCq1    C5  170   1.640   3.781  14.643  0.4291 -0.4543  0.0108
   11TCq1    C6  171   1.712   3.718  14.545  0.0571  0.1988 -0.0392
   11TCq1    C7  172   1.856   3.712  14.547  0.1795  0.2187 -0.4810
   11TCq1    C8  173   1.639   3.675  14.431 -0.0656  0.2826  0.0915
   11TCq1    O4  174   1.537   3.736  14.404 -0.1027 -0.7899  0.2617
   11TCq1    C9  175   1.637   3.899  14.845  0.0164 -0.1468  0.1214
   11TCq1    O5  176   1.515   3.924  14.809  0.4976  0.0937 -0.3113
   11TCq1    O6  177   1.697   3.921  14.952 -0.4263 -0.6869 -0.0419
   11TCq1    H1  178   1.986   3.846  14.468 -0.9461 -2.1628  1.8964
   11TCq1    H2  179   1.894   3.896  14.833  1.2693  2.2468 -2.1423
   11TCq1    H3  180   1.532   3.778  14.645  0.4216 -1.2084 -1.1325
   11TCq1    H4  181   1.913   3.660  14.471  1.2704 -1.0087  1.1586
   12MPD2     C  182   1.615   3.619  14.138 -0.5243  0.2399 -0.2897
   12MPD2    C1  183   1.688   3.540  14.223 -0.2184 -0.2099 -0.2352
   12MPD2    C2  184   1.771   3.444  14.168  0.8007 -0.0706  0.1753
   12MPD2    C3  185   1.772   3.415  14.034  0.0829  0.5186  0.5003
   12MPD2    C4  186   1.683   3.487  13.956 -0.2769 -0.1394  0.3464
   12MPD2    C5  187   1.615   3.589  14.008  0.3292 -0.0461 -0.4057
   12MPD2     H  188   1.840   3.391  14.233 -0.7073 -1.5090  0.6052
   12MPD2    H1  189   1.675   3.475  13.849 -2.5528  0.0903  0.4957
   12MPD2    H2  190   1.565   3.713  14.159 -0.7470  0.1274 -0.3188
   12MPD2    H3  191   1.568   3.659  13.940  1.7643  1.1072 -0.1998
   12MPD2     N  192   1.860   3.319  13.968  0.6025  1.1262  0.2183
   12MPD2    H5  193   1.848   3.322  13.867 -2.3721 -1.1547  0.4826
   12MPD2    N1  194   1.710   3.577  14.362 -0.4559  0.2304  0.2595
   12MPD2    H7  195   1.772   3.519  14.417 -1.0335 -2.1539 -1.5840
   13TCq1    O1  196   2.753   0.256  10.598  0.4573 -0.1948  0.6703
   13TCq1    C1  197   2.645   0.209  10.529  0.6576  0.2840 -0.5515
   13TCq1    O2  198   2.645   0.132  10.436  0.8138  0.1910 -0.5444
   13TCq1    C2  199   2.530   0.231  10.611  0.4851 -0.3139  0.7931
   13TCq1    C3  200   2.508   0.357  10.676 -0.3244  0.1619 -0.7333
   13TCq1    C4  201   2.409   0.362  10.780  0.3647  0.6104  0.0629
   13TCq1    C5  202   2.347   0.240  10.814  0.2582 -0.1377  0.2755
   13TCq1    C6  203   2.357   0.133  10.738  0.2501  0.7545  0.4336
   13TCq1    C7  204   2.451   0.120  10.640 -0.8988 -0.5237  0.0715
   13TCq1    C8  205   2.274   0.020  10.791  0.2019 -0.4554  0.0451
   13TCq1    O4  206   2.154   0.038  10.797 -0.0358 -0.1213 -0.0348
   13TCq1    C9  207   2.400   0.481  10.862  0.1490  0.4956  0.1333
   13TCq1    O5  208   2.459   0.587  10.825 -0.0701  0.3213 -0.3632
   13TCq1    O6  209   2.317   0.470  10.960 -0.3109 -0.4890 -0.4613
   13TCq1    H1  210   2.719   0.302  10.678  1.4616  2.5810 -0.5004
   13TCq1    H2  211   2.575   0.441  10.659 -0.8964  0.9399  0.8749
   13TCq1    H3  212   2.277   0.234  10.896 -0.3054  0.8078 -0.1396
   13TCq1    H4  213   2.465   0.030  10.583  1.0553  1.1308 -2.0355
   14MPD2     C  214   2.394   4.417  10.856  0.5647 -0.0668  0.6398
   14MPD2    C1  215   2.311   4.525  10.872  0.0591  0.3860  0.2264
   14MPD2    C2  216   2.198   4.518  10.956  0.1950  0.4640 -0.8935
   14MPD2    C3  217   2.163   4.404  11.013 -0.3374 -0.1660 -0.2475
   14MPD2    C4  218   2.248   4.290  10.990  0.7153  0.0182 -0.1071
   14MPD2    C5  219   2.350   4.299  10.905  0.3179  0.1476  0.2777
   14MPD2     H  220   2.131   4.601  10.978 -0.5308 -0.3483 -0.0279
   14MPD2    H1  221   2.227   4.189  11.024 -0.1611 -0.0618 -0.8816
   14MPD2    H2  222   2.490   4.422  10.806  1.7224 -1.2483  2.7272
   14MPD2    H3  223   2.402   4.204  10.898 -1.5872 -0.8475 -0.3827
   14MPD2     N  224   2.047   4.400  11.090  0.4550 -0.0800  0.0225
   14MPD2    H5  225   2.006   4.489  11.115  2.6876  0.8950  0.2618
   14MPD2    N1  226   2.352   4.647  10.815  0.1542 -0.4986  0.0729
   14MPD2    H7  227   2.431   4.639  10.752 -0.1154 -1.6572 -0.1096
   15TCq1    O1  228   3.344   3.309   2.283  0.5591 -0.0616 -0.6123
   15TCq1    C1  229   3.457   3.263   2.230 -0.3766  0.1843  0.2059
   15TCq1    O2  230   3.479   3.141   2.224  0.4079  0.0937  0.9595
   15TCq1    C2  231   3.466   3.343   2.105  0.3811 -1.1532  0.1541
   15TCq1    C3  232   3.434   3.474   2.119 -0.2578  0.2712  0.4535
   15TCq1    C4  233   3.423   3.546   2.001 -0.0588  0.3970  0.9019
   15TCq1    C5  234   3.415   3.481   1.883 -0.5409  0.3179  0.1506
   15TCq1    C6  235   3.430   3.345   1.875 -0.9232 -0.4621 -0.4237
   15TCq1    C7  236   3.453   3.272   1.987 -0.3828  0.3041 -0.4837
   15TCq1    C8  237   3.460   3.276   1.750 -0.4591  0.0902 -0.1393
   15TCq1    O4  238   3.496   3.159   1.762 -0.4701  0.2950 -0.1876
   15TCq1    C9  239   3.433   3.695   1.999  0.6694  0.5468 -0.6915
   15TCq1    O5  240   3.429   3.754   2.109  0.0069 -0.2980  0.1688
   15TCq1    O6  241   3.433   3.754   1.884  0.1323  0.1040  0.2430
   15TCq1    H1  242   3.329   3.400   2.252  0.3103  0.6471  1.6014
   15TCq1    H2  243   3.447   3.531   2.210 -1.6024  0.7246  0.3568
   15TCq1    H3  244   3.422   3.545   1.796  2.8014  1.5774  1.3171
   15TCq1    H4  245   3.455   3.165   2.001 -0.7578  0.4994  1.1166
   16MPD2     C  246   3.437   3.401   1.404 -0.2348  0.2506  0.0714
   16MPD2    C1  247   3.431   3.305   1.503  0.0466  0.7623 -1.0028
   16MPD2    C2  248   3.443   3.166   1.458  0.3954 -0.1211 -0.0187
   16MPD2    C3  249   3.453   3.131   1.327 -0.0660  0.3190  0.9540
   16MPD2    C4  250   3.464   3.230   1.228 -0.0031 -0.0630  0.1697
   16MPD2    C5  251   3.451   3.356   1.270 -0.4490 -0.0021  0.0190
   16MPD2     H  252   3.433   3.092   1.537  0.9537 -1.5822 -1.3113
   16MPD2    H1  253   3.469   3.204   1.123  1.1799 -1.1855  0.5086
   16MPD2    H2  254   3.450   3.504   1.434 -1.1080  1.0737 -2.3814
   16MPD2    H3  255   3.457   3.435   1.196 -0.1271 -0.8673 -0.8829
   16MPD2     N  256   3.451   2.999   1.305  0.0559  0.1554 -0.0086
   16MPD2    H5  257   3.446   2.934   1.382 -0.2482  0.5685  0.3158
   16MPD2    N1  258   3.424   3.345   1.638 -0.0967  0.3253  0.0818
   16MPD2    H7  259   3.389   3.438   1.656  1.6487  0.5534  2.2471
   17TMC1    C1  260   1.158   3.472   9.433 -0.0913  0.0591  0.6976
   17TMC1    C2  261   1.089   3.379   9.358  0.0435 -1.2294  0.2892
   17TMC1    C3  262   1.085   3.410   9.225 -0.0930 -0.1571 -0.1878
   17TMC1    C4  263   1.214   3.588   9.386 -0.6660 -0.2833  0.6120
   17TMC1    C5  264   1.203   3.610   9.253 -0.2630  0.0410 -0.2233
   17TMC1    C6  265   1.137   3.524   9.170 -0.4928 -0.2197  0.2477
   17TMC1     C  266   1.141   3.463   9.582  0.1810  0.1720  0.3774
   17TMC1     O  267   1.041   3.412   9.631 -0.2441 -0.2707 -0.0822
   17TMC1     H  268   1.054   3.281   9.387 -0.6890 -0.7864  0.9158
   17TMC1    H1  269   1.245   3.667   9.453  0.5135 -0.1473 -0.0856
   17TMC1    H2  270   1.127   3.540   9.063  0.7155  2.7255  0.5941
   17TMC1    C7  271   1.225   3.737   9.199 -0.1416  0.3765  0.4547
   17TMC1    C8  272   0.979   3.346   9.154 -0.2286  0.3001 -0.3885
   17TMC1    O1  273   1.155   3.789   9.109 -0.3651  0.7794  0.3217
   17TMC1    O2  274   0.870   3.304   9.195 -1.0600 -0.3996  0.5156
   17TMC1    O3  275   1.310   3.810   9.267 -0.2488  0.2677 -0.4142
   17TMC1    H3  276   1.366   3.754   9.325  0.5684  0.7312 -0.7629
   17TMC1    O5  277   1.031   3.311   9.041 -0.5693  0.5936 -0.2355
   17TMC1    H5  278   1.113   3.360   9.017 -0.9288  1.0798 -0.4661
   18MPD2     C  279   1.176   3.484   9.895  0.0636  0.1955  0.6510
   18MPD2    C1  280   1.265   3.524   9.795 -0.4660  0.4819  0.0274
   18MPD2    C2  281   1.389   3.581   9.833 -0.0389 -0.8249  0.0339
   18MPD2    C3  282   1.430   3.577   9.961 -0.2967 -0.0735  0.1402
   18MPD2    C4  283   1.348   3.541  10.058  0.6957  0.0815  0.4801
   18MPD2    C5  284   1.223   3.497  10.023 -0.1647 -0.7298  0.4907
   18MPD2     H  285   1.449   3.616   9.750 -0.5731 -1.0942 -0.4707
   18MPD2    H1  286   1.366   3.550  10.165 -1.2124  0.8630  0.7472
   18MPD2    H2  287   1.072   3.458   9.881 -0.1758  0.9279  1.0347
   18MPD2    H3  288   1.162   3.471  10.109 -1.0519 -0.2859  0.0035
   18MPD2     N  289   1.556   3.620   9.994 -0.2913  0.0510 -0.1617
   18MPD2    H5  290   1.569   3.616  10.095 -1.6778  0.2892  0.0305
   18MPD2    N1  291   1.246   3.524   9.651 -0.2402  0.2696 -0.5887
   18MPD2    H7  292   1.308   3.570   9.585 -1.0624 -1.0168 -2.2622
   19TMC2    C1  293   3.027   4.142  13.708 -0.1381  0.4691 -0.2434
   19TMC2    C2  294   2.904   4.190  13.669 -0.5583  0.7152  0.8522
   19TMC2    C3  295   2.798   4.125  13.722  0.1102  0.1828 -0.3020
   19TMC2    C4  296   3.045   4.047  13.796  0.2248  0.1172  0.5105
   19TMC2    C5  297   2.932   3.992  13.857 -0.8081  0.0297 -0.2292
   19TMC2    C6  298   2.806   4.015  13.807  0.7991 -0.6125  0.4391
   19TMC2     C  299   3.145   4.202  13.639  0.1838  0.4004 -0.9299
   19TMC2     O  300   3.124   4.252  13.530 -0.4233 -0.4865 -0.1629
   19TMC2     H  301   2.895   4.268  13.595 -2.6804 -0.4195 -0.0811
   19TMC2    H1  302   3.145   4.017  13.826  0.1963  0.5145  1.0081
   19TMC2    H2  303   2.714   3.966  13.839 -0.1702  0.7902 -0.2075
   19TMC2    C7  304   2.957   3.886  13.954 -0.6594  0.1398  0.1204
   19TMC2    C8  305   2.666   4.159  13.671  0.3083 -0.3125  0.6886
   19TMC2    O1  306   2.878   3.798  13.978  0.6771  0.1926  0.4656
   19TMC2    O2  307   2.569   4.133  13.740 -0.0897  0.1642  0.2721
   19TMC2    O5  308   2.675   4.173  13.535  0.0040 -0.2477  0.2391
   19TMC2    H5  309   2.760   4.195  13.493  1.5788 -0.9067  3.0997
   20MPD2     C  310   3.418   4.241  13.538 -0.2790  0.3924  0.2686
   20MPD2    C1  311   3.381   4.213  13.672 -0.1414 -0.2477 -0.0430
   20MPD2    C2  312   3.474   4.196  13.771 -0.1993 -0.2093  0.0636
   20MPD2    C3  313   3.608   4.185  13.736  0.3964 -0.2260 -0.0690
   20MPD2    C4  314   3.641   4.199  13.599 -0.2868  0.2759 -0.2610
   20MPD2    C5  315   3.549   4.232  13.502 -0.2027  0.3816  0.2991
   20MPD2     H  316   3.449   4.189  13.877 -0.0749 -0.2210  0.0921
   20MPD2    H1  317   3.747   4.202  13.577  0.0193 -3.9804  0.5956
   20MPD2    H2  318   3.349   4.256  13.455  0.7835  1.0112 -0.5037
   20MPD2    H3  319   3.583   4.245  13.400 -2.4783 -0.4523 -0.5678
   20MPD2     N  320   3.711   4.147  13.819 -0.1956 -0.1538 -0.2782
   20MPD2    H5  321   3.798   4.137  13.768 -1.0904 -0.8844 -1.6823
   20MPD2    N1  322   3.251   4.194  13.717  0.4514  0.2011 -0.0006
   20MPD2    H7  323   3.243   4.162  13.813 -0.1637  0.1706 -0.0637
   21TMC2    C1  324   0.834   4.194  14.199  0.0149 -0.5151 -0.5455
   21TMC2    C2  325   0.875   4.061  14.218 -0.5462 -0.1113 -0.7827
   21TMC2    C3  326   0.833   3.964  14.124  0.6299  0.2021  0.3639
   21TMC2    C4  327   0.775   4.236  14.080 -0.4212 -0.0812  0.1622
   21TMC2    C5  328   0.734   4.133  13.997 -0.1469 -0.1658 -0.1839
   21TMC2    C6  329   0.769   4.008  14.009 -0.1455 -0.1053 -0.4926
   21TMC2     C  330   0.889   4.303  14.279  0.2386 -0.4603 -0.2888
   21TMC2     O  331   0.834   4.410  14.267  0.2932 -0.4692 -0.1304
   21TMC2     H  332   0.940   4.030  14.298  0.1203 -0.6155 -1.5222
   21TMC2    H1  333   0.757   4.342  14.061  1.2617  0.1243 -0.2629
   21TMC2    H2  334   0.736   3.927  13.944  0.7093 -1.7171  1.0799
   21TMC2    C7  335   0.667   4.162  13.879  0.1246  0.0304  0.2592
   21TMC2    C8  336   0.866   3.823  14.143  0.2579 -0.0631  0.1608
   21TMC2    O1  337   0.677   4.080  13.786  0.0527 -1.0080 -0.0741
   21TMC2    O2  338   0.904   3.747  14.055 -0.5459 -0.3559  0.3681
   21TMC2    O5  339   0.871   3.785  14.271  0.0073  0.0984  0.4023
   21TMC2    H5  340   0.829   3.847  14.334 -0.1286  0.0650  0.3443
   22MPD2     C  341   1.243   4.506  14.563  0.2706 -0.3530  0.0457
   22MPD2    C1  342   1.247   4.375  14.587 -0.7979  0.0510  0.2849
   22MPD2    C2  343   1.170   4.297  14.515 -0.2894  0.2772 -0.5713
   22MPD2    C3  344   1.078   4.355  14.425  0.0216  0.6767  0.0436
   22MPD2    C4  345   1.077   4.491  14.398 -0.2981  0.3260  0.0899
   22MPD2    C5  346   1.163   4.568  14.467  0.2853 -0.4593 -0.3049
   22MPD2     H  347   1.179   4.190  14.526  1.1951  0.3872 -0.6158
   22MPD2    H1  348   1.025   4.537  14.316 -1.7800 -0.6094  0.5076
   22MPD2    H2  349   1.298   4.578  14.623 -1.6803  1.9436 -0.8894
   22MPD2    H3  350   1.178   4.673  14.443 -2.6181  0.3154  1.2527
   22MPD2     N  351   1.002   4.266  14.347 -0.5413 -0.2755 -0.3915
   22MPD2    H5  352   1.022   4.167  14.354  0.3248 -0.0788 -0.0324
   22MPD2    N1  353   1.329   4.319  14.687  0.2409  0.0802  0.3038
   22MPD2    H7  354   1.332   4.218  14.702 -2.0911 -0.0558 -0.1693
   23TMC2    C1  355   2.327   0.782  14.571 -0.5641 -0.0505 -0.6500
   23TMC2    C2  356   2.328   0.794  14.431 -0.1131  0.2714  1.0510
   23TMC2    C3  357   2.230   0.740  14.356 -0.3825 -0.4783 -0.5670
   23TMC2    C4  358   2.247   0.685  14.624  0.9272  0.1592  0.4099
   23TMC2    C5  359   2.161   0.620  14.544 -0.0075 -0.2809  0.6066
   23TMC2    C6  360   2.145   0.654  14.413  0.3453 -0.4729  0.3528
   23TMC2     C  361   2.428   0.848  14.655 -0.5565 -0.3186  0.0496
   23TMC2     O  362   2.451   0.780  14.752  0.0101  0.4551  0.6988
   23TMC2     H  363   2.390   0.866  14.378 -1.9042 -0.1738 -1.6443
   23TMC2    H1  364   2.234   0.677  14.731 -1.0650  1.5805  0.2661
   23TMC2    H2  365   2.066   0.603  14.360 -0.3622  1.9180 -0.8732
   23TMC2    C7  366   2.049   0.564  14.614  0.3902 -0.5095  0.0233
   23TMC2    C8  367   2.203   0.798  14.228  0.0906 -0.0087  0.3117
   23TMC2    O1  368   2.074   0.495  14.704 -0.0120 -0.0678  0.0553
   23TMC2    O2  369   2.289   0.846  14.149  0.3998  0.1664  0.0412
   23TMC2    O5  370   2.080   0.760  14.190  0.0300  0.0015  0.0394
   23TMC2    H5  371   2.021   0.747  14.268  1.6278  1.3536  1.4953
   24MPD2     C  372   2.850   1.118  14.727  0.0565  0.1574 -0.0245
   24MPD2    C1  373   2.796   1.017  14.805 -0.2058 -0.1387  0.2447
   24MPD2    C2  374   2.683   0.961  14.751  0.3692 -0.6352 -0.1119
   24MPD2    C3  375   2.615   1.010  14.641  0.2213  0.6200 -0.2739
   24MPD2    C4  376   2.669   1.111  14.567 -0.6581  0.1909  0.6300
   24MPD2    C5  377   2.788   1.156  14.613 -0.6069  0.0406 -0.4742
   24MPD2     H  378   2.640   0.894  14.825  0.1580 -0.4472 -0.0659
   24MPD2    H1  379   2.632   1.146  14.472 -0.8228  0.1430  0.6765
   24MPD2    H2  380   2.944   1.170  14.745  0.1246 -0.8719  2.6589
   24MPD2    H3  381   2.847   1.230  14.561  0.5079 -0.3404  0.2499
   24MPD2     N  382   2.493   0.956  14.591  0.6813  0.0742  0.2945
   24MPD2    H5  383   2.461   0.989  14.500  0.3603  1.6274  0.9567
   24MPD2    N1  384   2.857   0.954  14.922  0.1662  0.2714  0.0522
   24MPD2    H7  385   2.800   0.878  14.958  0.0362  0.9900  1.3418
   25TMC2    C1  386   1.236   3.122  11.136 -0.5826 -0.8337  0.3195
   25TMC2    C2  387   1.253   3.258  11.150  0.1001  0.3447  0.6837
   25TMC2    C3  388   1.210   3.318  11.264  0.7549 -0.0016  0.5162
   25TMC2    C4  389   1.176   3.050  11.239 -0.2694  0.2447 -0.2763
   25TMC2    C5  390   1.107   3.123  11.334  0.6981 -0.3638 -0.2977
   25TMC2    C6  391   1.120   3.258  11.351 -0.3789  0.2121  0.4382
   25TMC2     C  392   1.323   3.057  11.048  0.1474  0.3529 -0.3432
   25TMC2     O  393   1.414   3.120  10.996 -0.0081  0.2358 -0.4369
   25TMC2     H  394   1.293   3.319  11.069 -0.9806  0.4076  0.2072
   25TMC2    H1  395   1.169   2.942  11.229  1.1482  0.1728 -0.4151
   25TMC2    H2  396   1.054   3.318  11.413  0.9607  2.4879 -0.3354
   25TMC2    C7  397   1.051   3.061  11.452 -0.3888  0.3992  0.0280
   25TMC2    C8  398   1.229   3.461  11.256 -0.5954 -0.2152 -0.1121
   25TMC2    O1  399   1.014   3.140  11.538 -0.3016 -0.0797 -0.4901
   25TMC2    O2  400   1.238   3.517  11.145 -0.4215 -0.2000  0.0729
   25TMC2    O5  401   1.246   3.504  11.384  0.1791 -0.3209 -0.5027
   25TMC2    H5  402   1.254   3.427  11.444 -0.8510  0.4811  0.6532
   26MPD2     C  403   1.499   2.658  10.794 -0.0326  0.0973  0.5222
   26MPD2    C1  404   1.365   2.630  10.817  0.9126  0.2903  0.2964
   26MPD2    C2  405   1.293   2.713  10.899 -0.3562 -0.2904 -0.7364
   26MPD2    C3  406   1.351   2.838  10.941 -0.7511  0.4762  0.2361
   26MPD2    C4  407   1.493   2.856  10.923 -0.0305  0.5621 -0.4044
   26MPD2    C5  408   1.553   2.769  10.841  0.2226  0.1379 -0.1067
   26MPD2     H  409   1.188   2.711  10.924 -0.9174  1.6752 -2.9447
   26MPD2    H1  410   1.548   2.947  10.943 -1.3844  1.0451  1.1503
   26MPD2    H2  411   1.568   2.595  10.739 -2.0419 -2.2260  0.6921
   26MPD2    H3  412   1.658   2.791  10.821 -1.2793  4.3767 -3.3331
   26MPD2     N  413   1.275   2.934  11.012 -0.4149  0.0742  0.7780
   26MPD2    H5  414   1.181   2.914  11.043 -0.9660 -0.5316 -1.2842
   26MPD2    N1  415   1.305   2.530  10.743 -0.1462 -0.3278  0.2396
   26MPD2    H7  416   1.373   2.471  10.696 -1.7274 -2.0693  0.1457
   27TMC2    C1  417   4.683   1.002  12.049  0.1735  0.2202  0.9830
   27TMC2    C2  418   0.016   1.114  12.003 -0.1674  0.1859  0.5697
   27TMC2    C3  419   0.147   1.096  11.990  0.1635 -0.2950 -0.1516
   27TMC2    C4  420   0.008   0.880  12.079 -0.2791 -0.3007  0.6253
   27TMC2    C5  421   0.142   0.873  12.071 -0.5134 -0.1603 -0.1791
   27TMC2    C6  422   0.219   0.985  12.034 -0.0273  0.6055  0.2201
   27TMC2     C  423   4.537   1.016  12.052  0.0519  0.1206 -0.4805
   27TMC2     O  424   4.494   1.102  11.977  0.4244 -0.1405 -0.2493
   27TMC2     H  425   4.704   1.209  11.989  1.3396  0.8433 -0.4852
   27TMC2    H1  426   4.685   0.796  12.106 -0.7903 -0.1677 -0.1408
   27TMC2    H2  427   0.326   0.976  12.022  0.2594  1.8772  1.8255
   27TMC2    C7  428   0.200   0.743  12.097  0.5331  0.3151  0.6866
   27TMC2    C8  429   0.218   1.213  11.938 -0.1955  0.3532  0.2347
   27TMC2    O1  430   0.123   0.651  12.097 -0.8735 -0.4554 -0.7477
   27TMC2    O2  431   0.183   1.330  11.959 -0.0334 -0.5091  0.1815
   27TMC2    O5  432   0.277   1.161  11.829 -0.3265  0.1673 -0.1377
   27TMC2    H5  433   0.233   1.080  11.796 -0.7847  0.6385 -0.6907
   28MPD2     C  434   4.058   0.860  12.210  0.2709 -0.5574 -1.0379
   28MPD2    C1  435   4.154   0.774  12.250  0.4035 -0.2020 -0.3710
   28MPD2    C2  436   4.282   0.800  12.215 -0.0016 -0.4532 -0.3312
   28MPD2    C3  437   4.320   0.903  12.133 -0.7184 -0.3360  0.6501
   28MPD2    C4  438   4.222   0.999  12.097  0.0224 -0.5996 -0.1209
   28MPD2    C5  439   4.091   0.976  12.136 -0.4805 -0.0823 -0.2842
   28MPD2     H  440   4.362   0.735  12.248 -1.6940 -1.2664  2.2441
   28MPD2    H1  441   4.252   1.089  12.044  0.7488  0.4593  2.1145
   28MPD2    H2  442   3.954   0.834  12.228  0.7562  0.0936  2.6432
   28MPD2    H3  443   4.011   1.046  12.114 -1.6817 -1.5658 -0.6715
   28MPD2     N  444   4.463   0.909  12.104 -0.1522  0.3639 -1.3301
   28MPD2    H5  445   4.512   0.824  12.129  1.4123  1.5702 -0.2641
   28MPD2    N1  446   4.110   0.665  12.325  0.0997 -0.9744  0.0336
   28MPD2    H7  447   4.012   0.655  12.348  0.1847  0.9399  1.1889
   29TMC2    C1  448   4.157   2.736  14.654 -0.4117 -0.5986  0.0928
   29TMC2    C2  449   4.194   2.769  14.782 -0.4512 -0.1698  0.2285
   29TMC2    C3  450   4.210   2.900  14.801 -0.2979  0.0499  0.0293
   29TMC2    C4  451   4.137   2.826  14.552  0.2890  0.0256 -0.1976
   29TMC2    C5  452   4.152   2.962  14.582 -0.0390  0.4171  0.1696
   29TMC2    C6  453   4.191   2.998  14.709  0.4345 -0.1053 -0.1830
   29TMC2     C  454   4.193   2.599  14.615 -0.1682 -0.2182  0.0296
   29TMC2     O  455   4.262   2.533  14.692 -0.3996  0.3193  0.1018
   29TMC2     H  456   4.194   2.702  14.867 -0.5382  0.6828  0.8961
   29TMC2    H1  457   4.115   2.802  14.448 -2.2619 -0.0900  0.3793
   29TMC2    H2  458   4.196   3.103  14.739 -0.8728 -0.5342  1.5352
   29TMC2    C7  459   4.146   3.073  14.482  0.0491  0.1157 -0.5187
   29TMC2    C8  460   4.205   2.940  14.939  1.2204  0.3455 -0.4523
   29TMC2    O1  461   4.066   3.049  14.389 -0.4594  0.0634  0.2265
   29TMC2    O2  462   4.158   3.044  14.979 -0.1317  0.3737 -0.1318
   29TMC2    O5  463   4.313   2.880  14.990 -0.2894 -0.1362  0.6497
   29TMC2    H5  464   4.368   2.827  14.929  0.2240 -0.2253  1.1841
   30MPD2     C  465   4.303   2.286  14.210  0.1409  0.1130 -0.1027
   30MPD2    C1  466   4.294   2.258  14.347  0.1516  0.2766 -0.0887
   30MPD2    C2  467   4.248   2.353  14.439  0.1516 -0.5315  0.3218
   30MPD2    C3  468   4.211   2.476  14.394  0.0391  0.3708  0.3886
   30MPD2    C4  469   4.211   2.504  14.262  0.4171 -0.7236 -0.5463
   30MPD2    C5  470   4.263   2.409  14.171  0.0652 -1.3056  0.7340
   30MPD2     H  471   4.258   2.334  14.545  0.9580  3.2878  0.9217
   30MPD2    H1  472   4.174   2.599  14.223  1.1461 -1.0748 -2.0925
   30MPD2    H2  473   4.339   2.209  14.143  0.2729 -0.9417  1.1638
   30MPD2    H3  474   4.271   2.440  14.067  1.2792 -1.6625  0.7120
   30MPD2     N  475   4.165   2.577  14.483 -0.6071  0.0013  0.0632
   30MPD2    H5  476   4.105   2.643  14.436  1.7430  1.5455 -0.7836
   30MPD2    N1  477   4.348   2.136  14.379  0.2533 -0.3704 -0.6541
   30MPD2    H7  478   4.408   2.088  14.313  0.0518 -2.9474  1.0250
   31TMC2    C1  479   2.026   1.539  15.297 -0.0944 -0.8440  0.2539
   31TMC2    C2  480   1.921   1.598  15.350 -0.7039  0.1124 -0.1099
   31TMC2    C3  481   1.940   1.637  15.478  0.1633 -0.3433  0.4864
   31TMC2    C4  482   2.127   1.492  15.374  0.4224 -0.0629  0.3708
   31TMC2    C5  483   2.134   1.522  15.506  0.2077  0.0538  0.0362
   31TMC2    C6  484   2.050   1.612  15.563 -0.2204 -0.4429 -0.6050
   31TMC2     C  485   2.054   1.566  15.159 -0.4801 -0.3223 -0.4012
   31TMC2     O  486   1.957   1.601  15.094  0.4818  0.3408  0.0100
   31TMC2     H  487   1.835   1.626  15.290 -0.0475  1.5957 -0.3732
   31TMC2    H1  488   2.207   1.431  15.336  0.7420  0.9940 -0.6547
   31TMC2    H2  489   2.041   1.628  15.670  2.0134 -0.1379 -0.4780
   31TMC2    C7  490   2.222   1.451  15.593  0.8930 -0.4592 -0.6041
   31TMC2    C8  491   1.814   1.656  15.555 -0.4064 -1.0316 -0.2286
   31TMC2    O1  492   2.260   1.340  15.570 -0.2390  0.0559  0.3584
   31TMC2    O2  493   1.800   1.572  15.640  0.1991  0.3062 -0.1765
   31TMC2    O5  494   1.736   1.732  15.478  0.2185  0.0589 -0.7382
   31TMC2    H5  495   1.784   1.805  15.435  0.9734  0.5486  0.9046
   32MPD2     C  496   2.399   1.684  14.800  0.3255  0.5489  0.4979
   32MPD2    C1  497   2.264   1.693  14.789 -0.8573 -0.2749 -0.0199
   32MPD2    C2  498   2.185   1.661  14.903 -0.1651  1.0165  0.2097
   32MPD2    C3  499   2.257   1.606  15.016 -0.4980 -0.7433 -0.0372
   32MPD2    C4  500   2.386   1.605  15.024  0.3332  0.3306 -0.2472
   32MPD2    C5  501   2.461   1.649  14.919 -0.4623 -0.5888 -0.0524
   32MPD2     H  502   2.079   1.684  14.910 -0.5086 -0.9407  1.6346
   32MPD2    H1  503   2.431   1.588  15.121  0.1169  1.2125  0.0005
   32MPD2    H2  504   2.458   1.707  14.713  0.6370 -1.1540  0.2561
   32MPD2    H3  505   2.569   1.637  14.924 -0.4667  0.5581  3.4581
   32MPD2     N  506   2.186   1.566  15.138  0.6074 -0.6021  0.6205
   32MPD2    H5  507   2.246   1.530  15.212 -0.3387 -3.0227  0.2213
   32MPD2    N1  508   2.220   1.734  14.658 -0.4081  0.0753  0.0740
   32MPD2    H7  509   2.295   1.773  14.601 -0.1111 -3.9029 -2.2623
   33TMC2    C1  510   1.975   4.614  10.176  0.2626  0.2202 -0.3832
   33TMC2    C2  511   1.933   4.694  10.281  0.1215  0.0128  0.2812
   33TMC2    C3  512   1.921   0.088  10.252  0.0045  0.2894 -0.1972
   33TMC2    C4  513   2.021   4.664  10.059 -0.3965 -0.0070  1.1066
   33TMC2    C5  514   2.012   0.064  10.039  0.1759 -0.0453  0.4549
   33TMC2    C6  515   1.964   0.147  10.141 -0.0266 -0.3625 -0.1923
   33TMC2     C  516   1.996   4.478  10.201  0.2752  0.1758 -0.5648
   33TMC2     O  517   2.012   4.406  10.106 -0.2958  0.4624  0.5852
   33TMC2     H  518   1.878   4.652  10.364  2.3437 -0.9685  1.2504
   33TMC2    H1  519   2.077   4.606   9.987 -0.4096 -0.9155  1.8168
   33TMC2    H2  520   1.955   0.255  10.147 -0.3939 -0.3146 -1.6326
   33TMC2    C7  521   2.127   0.120   9.968  0.1471  0.1983  1.1044
   33TMC2    C8  522   1.821   0.164  10.324 -0.6657  0.0312  0.1027
   33TMC2    O1  523   2.230   0.050   9.959  0.1264 -0.3629 -0.5971
   33TMC2    O2  524   1.763   0.257  10.272  0.1357  0.1331 -0.4520
   33TMC2    O5  525   1.817   0.122  10.455 -0.2870 -1.1585  0.0469
   33TMC2    H5  526   1.888   0.057  10.472 -0.7849 -2.1138 -1.4467
   34MPD2     C  527   2.084   4.069  10.485  0.7103  0.2369 -0.0812
   34MPD2    C1  528   2.019   4.086  10.363  1.0716  0.2001 -0.2419
   34MPD2    C2  529   1.993   4.219  10.322  0.4114 -0.2674 -0.7770
   34MPD2    C3  530   2.047   4.330  10.386  0.0474  0.0417  0.6535
   34MPD2    C4  531   2.112   4.314  10.507 -0.9173 -0.7411 -0.1014
   34MPD2    C5  532   2.138   4.182  10.547 -0.2868  0.6861 -0.3141
   34MPD2     H  533   1.930   4.236  10.237  0.3793 -0.9690 -0.8997
   34MPD2    H1  534   2.154   4.397  10.563 -1.2363  0.6210 -1.8647
   34MPD2    H2  535   2.099   3.975  10.537  3.3193  1.3820  1.2585
   34MPD2    H3  536   2.180   4.171  10.646 -0.5689 -2.5960 -0.5475
   34MPD2     N  537   2.026   4.458  10.333  0.2589 -0.0467  0.4292
   34MPD2    H5  538   2.041   4.536  10.397  1.5056 -0.0619  0.1521
   34MPD2    N1  539   1.968   3.968  10.296 -0.1806  0.7022 -0.3248
   34MPD2    H7  540   1.981   3.881  10.347 -1.9162 -1.0321 -2.8299
   35TMC2    C1  541   3.955   0.868  11.232 -0.0427  0.2060  0.2164
   35TMC2    C2  542   3.974   0.969  11.130  0.6822  0.3578 -0.1592
   35TMC2    C3  543   3.881   0.964  11.029 -0.2581  0.1952 -0.1797
   35TMC2    C4  544   3.876   0.757  11.212  0.3828 -0.0602 -0.1551
   35TMC2    C5  545   3.810   0.749  11.092 -0.3989 -0.1377  0.4874
   35TMC2    C6  546   3.800   0.856  11.007 -0.4825  0.5522  0.2727
   35TMC2     C  547   4.036   0.883  11.354  0.7182  0.1758 -0.4781
   35TMC2     O  548   4.119   0.970  11.353 -0.1751  0.2130 -0.3769
   35TMC2     H  549   4.032   1.058  11.154  0.2092  0.1377  1.8199
   35TMC2    H1  550   3.893   0.672  11.277  1.0410 -1.0043 -1.5686
   35TMC2    H2  551   3.776   0.847  10.901  2.7141 -0.3495 -0.3911
   35TMC2    C7  552   3.729   0.628  11.074  0.4364 -0.0906  0.0741
   35TMC2    C8  553   3.911   1.048  10.914  0.1431 -0.1751 -0.2521
   35TMC2    O1  554   3.758   0.538  11.147 -0.5090 -0.3753 -0.0885
   35TMC2    O2  555   3.875   1.011  10.802  0.0159  0.0403 -0.1532
   35TMC2    O5  556   3.923   1.176  10.958 -0.2865  0.2664  0.1977
   35TMC2    H5  557   3.936   1.187  11.055 -1.0163 -1.7730  0.5350
   36MPD2     C  558   3.938   0.910  11.858 -0.5984  0.3580  0.1042
   36MPD2    C1  559   3.914   0.778  11.821  0.7803 -0.7781  0.2896
   36MPD2    C2  560   3.927   0.741  11.688 -0.6978  0.6298  0.1858
   36MPD2    C3  561   3.974   0.838  11.599 -0.0855 -0.0506 -0.4769
   36MPD2    C4  562   4.015   0.964  11.644 -1.3628  0.4619 -0.0351
   36MPD2    C5  563   3.991   0.996  11.772 -0.1500  0.1880 -0.4987
   36MPD2     H  564   3.912   0.640  11.651  0.2979 -0.5498  2.9913
   36MPD2    H1  565   4.052   1.032  11.568 -0.9424 -0.7142 -0.8738
   36MPD2    H2  566   3.911   0.945  11.957  2.2430 -1.4577  1.5181
   36MPD2    H3  567   4.006   1.097  11.806  1.8422 -1.4246  3.3305
   36MPD2     N  568   3.973   0.812  11.460 -0.4508  0.4210  0.0008
   36MPD2    H5  569   3.923   0.731  11.425 -2.2255  2.5578 -2.5257
   36MPD2    N1  570   3.877   0.681  11.918 -0.2446 -0.0774  0.3825
   36MPD2    H7  571   3.858   0.717  12.011  0.2960 -2.2692  1.3360
   37TMC2    C1  572   1.384   1.488  11.177 -0.4177 -0.3671 -0.9618
   37TMC2    C2  573   1.247   1.482  11.194  0.5358 -0.0096 -0.6821
   37TMC2    C3  574   1.167   1.426  11.096 -0.2447 -0.2421 -0.1382
   37TMC2    C4  575   1.435   1.425  11.067 -0.2766  0.3561  0.9986
   37TMC2    C5  576   1.353   1.353  10.987 -1.0264  0.0088 -0.1034
   37TMC2    C6  577   1.219   1.349  10.993 -0.0400 -0.2104  0.0431
   37TMC2     C  578   1.471   1.461  11.285  0.2073 -0.1712  0.2219
   37TMC2     O  579   1.575   1.524  11.282 -0.0733  0.1456  0.5868
   37TMC2     H  580   1.207   1.525  11.285  0.1112 -1.0825 -0.3587
   37TMC2    H1  581   1.542   1.427  11.057 -0.0416  2.7322  4.1213
   37TMC2    H2  582   1.157   1.281  10.935 -1.7619  1.6144 -0.2376
   37TMC2    C7  583   1.418   1.238  10.927  0.5078  0.0834  0.9388
   37TMC2    C8  584   1.030   1.415  11.125 -0.4173  0.3384  0.0652
   37TMC2    O1  585   1.539   1.240  10.950  0.7255  0.2892  0.1393
   37TMC2    O2  586   0.995   1.439  11.240  0.1618 -0.0476  0.0862
   37TMC2    O5  587   0.955   1.421  11.011  0.5009 -0.2630  0.1383
   37TMC2    H5  588   1.011   1.428  10.931 -2.0049 -0.0850 -1.5797
   38MPD2     C  589   1.670   1.137  11.627 -0.1703  0.8102 -0.0721
   38MPD2    C1  590   1.527   1.112  11.617 -0.1869 -0.6420  0.1696
   38MPD2    C2  591   1.454   1.191  11.532 -0.2584 -0.0783  0.5346
   38MPD2    C3  592   1.508   1.299  11.468 -0.7639  0.3700  1.3148
   38MPD2    C4  593   1.640   1.332  11.496 -0.2819  0.0530 -0.0516
   38MPD2    C5  594   1.722   1.252  11.571 -0.2557  0.1895  0.0260
   38MPD2     H  595   1.348   1.172  11.517  0.0016 -1.1702  0.1570
   38MPD2    H1  596   1.692   1.414  11.447 -1.2411 -1.0753 -2.9397
   38MPD2    H2  597   1.734   1.074  11.688  0.1082  0.1681 -1.0307
   38MPD2    H3  598   1.815   1.304  11.590 -0.5635  1.7348 -2.8696
   38MPD2     N  599   1.428   1.359  11.370 -0.2328  0.2733 -0.0451
   38MPD2    H5  600   1.341   1.311  11.349 -1.7305  2.0642  2.0329
   38MPD2    N1  601   1.464   0.998  11.672  0.7039 -0.8416 -0.4279
   38MPD2    H7  602   1.365   0.986  11.649  0.3396  0.5816  0.3695
   39TMC2    C1  603   4.124   2.005   1.585  0.3078 -0.4075  0.7326
   39TMC2    C2  604   4.107   1.980   1.716 -0.2612  0.1761  0.0416
   39TMC2    C3  605   4.206   2.021   1.800  0.6758  0.4070 -0.1124
   39TMC2    C4  606   4.246   2.058   1.544  0.3536 -0.4025 -0.2480
   39TMC2    C5  607   4.342   2.089   1.635 -0.3738  0.3060  0.7729
   39TMC2    C6  608   4.327   2.066   1.767 -0.7444 -0.7437  0.2631
   39TMC2     C  609   4.008   1.979   1.494 -0.9102 -0.2678 -0.4261
   39TMC2     O  610   3.901   1.974   1.551  0.1592  0.1227 -0.1784
   39TMC2     H  611   4.010   1.946   1.750 -1.0643  1.4083 -1.0277
   39TMC2    H1  612   4.268   2.089   1.443 -1.8998 -0.8879 -0.8773
   39TMC2    H2  613   4.383   2.131   1.834  1.0008 -1.1868 -0.7573
   39TMC2    C7  614   4.439   2.187   1.605  0.4063 -0.1591  0.0997
   39TMC2    C8  615   4.154   2.038   1.937  0.2575 -0.4101  0.2746
   39TMC2    O1  616   4.560   2.169   1.625 -0.8002 -0.3148 -0.2476
   39TMC2    O2  617   4.034   2.015   1.956  0.2959 -0.0939 -0.2913
   39TMC2    O5  618   4.255   2.022   2.021  0.1182  0.0319  0.2461
   39TMC2    H5  619   4.339   2.000   1.975  1.0806  1.1037  1.4755
   40MPD2     C  620   4.017   1.887   1.136 -0.0581 -0.7963  0.3431
   40MPD2    C1  621   3.969   1.946   1.251 -0.1182  0.8185  0.5824
   40MPD2    C2  622   3.839   2.001   1.244  0.1496  0.3872  0.5126
   40MPD2    C3  623   3.771   2.011   1.131  0.7333  0.3628 -0.3851
   40MPD2    C4  624   3.827   1.960   1.016  0.4294 -0.0458  0.0652
   40MPD2    C5  625   3.940   1.889   1.021 -0.2235  0.2000  0.2647
   40MPD2     H  626   3.801   2.043   1.337  0.0028  1.8549 -0.2088
   40MPD2    H1  627   3.764   1.970   0.928 -0.8816  0.5835  1.0713
   40MPD2    H2  628   4.118   1.848   1.134  0.0539 -0.4128 -1.6193
   40MPD2    H3  629   3.970   1.841   0.928 -1.5903  0.6170 -0.3951
   40MPD2     N  630   3.645   2.070   1.127  0.3231 -0.2933 -0.1872
   40MPD2    H5  631   3.609   2.086   1.033 -1.3287  4.2573  1.1820
   40MPD2    N1  632   4.050   1.957   1.368  0.8862  0.7424 -0.1809
   40MPD2    H7  633   4.145   1.925   1.352  0.9048  1.4139 -1.4073
   41TMC2    C1  634   3.030   1.176  13.421 -0.4251 -0.7459 -0.5936
   41TMC2    C2  635   2.988   1.067  13.487 -0.3483 -0.2039  0.0311
   41TMC2    C3  636   2.955   0.955  13.423  0.7953 -1.1116  0.0440
   41TMC2    C4  637   3.026   1.177  13.280  0.1641 -0.6675 -0.1098
   41TMC2    C5  638   2.992   1.061  13.218  0.5137 -0.2666 -0.3562
   41TMC2    C6  639   2.950   0.946  13.285 -0.8873  0.6569 -0.5291
   41TMC2     C  640   3.114   1.276  13.485 -0.3756  0.1081  0.9899
   41TMC2     O  641   3.131   1.380  13.417 -0.4526 -0.3263  0.2405
   41TMC2     H  642   2.997   1.067  13.595  0.0539 -0.0236 -0.0001
   41TMC2    H1  643   3.046   1.267  13.223 -0.0013  0.3272  1.4107
   41TMC2    H2  644   2.924   0.853  13.234  0.5031  1.2345 -2.3096
   41TMC2    C7  645   3.016   1.055  13.072 -0.1545  0.3965  0.2562
   41TMC2    C8  646   2.914   0.844  13.503 -0.7578 -0.1136 -0.5217
   41TMC2    O1  647   3.061   1.159  13.022  0.1078  0.1580 -0.2203
   41TMC2    O2  648   2.978   0.812  13.605  0.1996 -0.1755 -0.3067
   41TMC2    O5  649   2.798   0.801  13.454 -0.6747  0.0820 -0.0300
   41TMC2    H5  650   2.753   0.856  13.387 -0.3461 -1.8949 -1.8931
   42MPD2     C  651   3.356   1.394  13.611  0.1460 -0.3749 -0.2695
   42MPD2    C1  652   3.283   1.292  13.661  0.0063  0.3855  0.3390
   42MPD2    C2  653   3.305   1.259  13.789 -0.5522  0.8544 -0.0456
   42MPD2    C3  654   3.392   1.327  13.875  0.4342  0.4127  0.0518
   42MPD2    C4  655   3.469   1.431  13.823  0.0406  0.1581  0.5187
   42MPD2    C5  656   3.448   1.459  13.685  0.1484 -0.7708 -0.6078
   42MPD2     H  657   3.251   1.170  13.818 -0.6273  0.9246  0.0278
   42MPD2    H1  658   3.539   1.490  13.881 -0.2329 -0.3824  1.3914
   42MPD2    H2  659   3.324   1.437  13.517 -1.1832  1.2487  0.9465
   42MPD2    H3  660   3.489   1.548  13.640 -1.0704  1.2847  2.3430
   42MPD2     N  661   3.412   1.292  14.010 -0.7589 -0.2875  0.1932
   42MPD2    H5  662   3.466   1.357  14.067  0.6946 -1.3115 -0.0255
   42MPD2    N1  663   3.177   1.230  13.595  0.6696  0.5002  0.1986
   42MPD2    H7  664   3.143   1.139  13.626 -1.0972  0.6970 -1.1757
   43TMC2    C1  665   4.129   3.174   1.054  0.7091  0.4608  0.3846
   43TMC2    C2  666   4.168   3.294   1.108  0.3562 -0.0058  0.3413
   43TMC2    C3  667   4.204   3.301   1.242 -0.3393 -1.2265 -0.5387
   43TMC2    C4  668   4.149   3.055   1.118 -0.3665 -0.1348 -0.1794
   43TMC2    C5  669   4.180   3.070   1.248 -0.2309  0.4299 -0.7425
   43TMC2    C6  670   4.203   3.183   1.317  0.0005 -0.3802 -0.3832
   43TMC2     C  671   4.053   3.165   0.928 -0.3285  0.6651  0.0314
   43TMC2     O  672   4.016   3.056   0.901  0.4624 -0.4845  0.2126
   43TMC2     H  673   4.160   3.384   1.047 -0.4798 -1.1222 -1.2154
   43TMC2    H1  674   4.133   2.958   1.073  1.7973 -1.3552  1.6914
   43TMC2    H2  675   4.237   3.195   1.419 -2.3733 -1.5633  0.5642
   43TMC2    C7  676   4.228   2.954   1.317 -0.4110  0.9647 -0.2541
   43TMC2    C8  677   4.201   3.424   1.319 -0.7920 -0.0111  0.7052
   43TMC2    O1  678   4.261   2.859   1.249  0.2599 -0.9582  0.2269
   43TMC2    O2  679   4.116   3.444   1.403 -0.0708  0.2600  0.0556
   43TMC2    O5  680   4.250   3.514   1.231 -0.1939 -0.6162  1.1546
   43TMC2    H5  681   4.317   3.474   1.172  1.1616  0.2166  2.1321
   44MPD2     C  682   3.903   3.363   0.491 -0.2228  0.3988  0.7379
   44MPD2    C1  683   3.954   3.242   0.523  1.0625 -0.6864  0.1771
   44MPD2    C2  684   3.983   3.217   0.653  0.4295  0.0100  0.0265
   44MPD2    C3  685   3.983   3.312   0.745  0.0444  0.0189  0.1901
   44MPD2    C4  686   3.936   3.439   0.713 -0.2488  0.1044 -0.4111
   44MPD2    C5  687   3.898   3.462   0.586 -0.5707  0.5746 -0.0721
   44MPD2     H  688   4.022   3.118   0.675  0.1308 -0.4135 -1.3660
   44MPD2    H1  689   3.923   3.520   0.785  2.1777 -0.0318  0.1749
   44MPD2    H2  690   3.868   3.387   0.391  2.1648 -1.1745 -0.4795
   44MPD2    H3  691   3.855   3.559   0.565 -0.2081  1.4252  3.1007
   44MPD2     N  692   4.027   3.286   0.878  0.1374 -0.2834 -0.4548
   44MPD2    H5  693   4.056   3.369   0.930 -1.0739  1.4231 -2.4954
   44MPD2    N1  694   3.962   3.136   0.429 -0.2284  0.0378  0.3772
   44MPD2    H7  695   3.991   3.047   0.469  0.6824 -0.1088 -0.6124
   45TMC2    C1  696   1.408   0.272   9.713  0.1521 -0.7354  0.1599
   45TMC2    C2  697   1.520   0.239   9.785 -0.6563  0.0054 -0.6228
   45TMC2    C3  698   1.608   0.341   9.813  0.8697 -0.5730 -0.2273
   45TMC2    C4  699   1.380   0.404   9.688  0.0343 -1.0354  0.1712
   45TMC2    C5  700   1.462   0.503   9.730 -0.9238  0.2643  0.4362
   45TMC2    C6  701   1.578   0.472   9.796  0.3204 -0.0109  0.0801
   45TMC2     C  702   1.304   0.168   9.676 -0.0193  0.0035  0.5418
   45TMC2     O  703   1.357   0.055   9.675  0.3121 -0.6013  0.6368
   45TMC2     H  704   1.544   0.135   9.802 -1.5173  0.2360  2.0199
   45TMC2    H1  705   1.290   0.432   9.634 -1.7788 -0.8057  3.2609
   45TMC2    H2  706   1.660   0.540   9.817 -1.1767  1.7121  0.3161
   45TMC2    C7  707   1.422   0.639   9.711  0.8245  0.0057 -0.0051
   45TMC2    C8  708   1.721   0.311   9.894 -0.5451  0.5299  0.3702
   45TMC2    O1  709   1.306   0.664   9.724  0.0735 -0.2300 -0.1488
   45TMC2    O2  710   1.795   0.400   9.937 -0.3355 -0.1406 -0.2955
   45TMC2    O5  711   1.771   0.202   9.834  0.6070  0.6013  0.4224
   45TMC2    H5  712   1.714   0.165   9.763  2.6289 -1.6807  0.0013
   46MPD2     C  713   1.087   0.007   9.556 -0.3039  0.7710 -0.1826
   46MPD2    C1  714   1.071   0.131   9.607  0.8741 -0.3534  0.1099
   46MPD2    C2  715   0.953   0.197   9.580  0.0277  1.0148  0.3463
   46MPD2    C3  716   0.850   0.133   9.515  0.0436  0.2448 -0.3559
   46MPD2    C4  717   0.866   0.005   9.467  0.1094  0.1313  0.3880
   46MPD2    C5  718   0.987   4.682   9.494  1.0276 -0.5628 -0.7008
   46MPD2     H  719   0.932   0.293   9.624 -0.7080  0.7816  0.5099
   46MPD2    H1  720   0.788   4.687   9.418 -0.5447  1.7695 -0.4557
   46MPD2    H2  721   1.184   4.698   9.559  0.2149  1.8259 -0.1498
   46MPD2    H3  722   1.008   4.585   9.450 -0.7858 -0.5718 -1.5556
   46MPD2     N  723   0.731   0.208   9.501  0.1245 -0.3176 -0.1137
   46MPD2    H5  724   0.727   0.302   9.539 -3.8299  0.5355 -2.6048
   46MPD2    N1  725   1.178   0.210   9.662 -0.2072  0.3312 -0.9579
   46MPD2    H7  726   1.156   0.308   9.679 -1.7962  0.1092 -1.8275
   47TMC2    C1  727   2.736   2.137   9.161 -0.2310 -0.5651 -1.0231
   47TMC2    C2  728   2.754   2.042   9.065 -0.0521 -0.5518  0.5383
   47TMC2    C3  729   2.639   1.994   9.004  1.0609  0.5503 -0.1951
   47TMC2    C4  730   2.611   2.172   9.209  0.2295 -0.0463 -0.0765
   47TMC2    C5  731   2.504   2.107   9.148 -0.1447  0.7078 -0.5351
   47TMC2    C6  732   2.515   2.013   9.050  0.0890  0.1456 -0.2372
   47TMC2     C  733   2.848   2.165   9.235  0.0800  1.0663  0.2472
   47TMC2     O  734   2.845   2.269   9.300 -0.0948  0.1591 -0.6880
   47TMC2     H  735   2.850   2.028   9.016  0.2080  2.1889  0.2679
   47TMC2    H1  736   2.599   2.239   9.294 -0.1941  0.6983 -0.7274
   47TMC2    H2  737   2.427   1.982   8.996 -0.4142 -0.2109  0.7942
   47TMC2    C7  738   2.374   2.125   9.213 -0.1155 -0.8302 -0.0034
   47TMC2    C8  739   2.659   1.911   8.883  0.8896  0.3901  0.0119
   47TMC2    O1  740   2.297   2.036   9.200  0.0052  0.3539 -0.3126
   47TMC2    O2  741   2.759   1.918   8.818  0.5026  0.1520  0.4635
   47TMC2    O5  742   2.593   1.798   8.899 -0.4517 -0.1649  0.1901
   47TMC2    H5  743   2.545   1.800   8.985 -0.0731 -1.8147  0.4393
   48MPD2     C  744   3.092   2.141   9.403 -0.0473  0.2525 -0.2767
   48MPD2    C1  745   3.042   2.040   9.325 -0.4515  0.2274 -0.6112
   48MPD2    C2  746   3.096   1.909   9.334 -0.1084 -0.3921 -0.2619
   48MPD2    C3  747   3.197   1.876   9.419 -0.0131 -0.2386 -0.7507
   48MPD2    C4  748   3.248   1.982   9.493 -0.2466 -0.1675 -0.0148
   48MPD2    C5  749   3.200   2.108   9.481 -0.0020  0.0238 -0.2165
   48MPD2     H  750   3.047   1.825   9.287  0.4780 -1.4892  1.0949
   48MPD2    H1  751   3.327   1.966   9.566 -1.4187  2.5331  1.8373
   48MPD2    H2  752   3.066   2.246   9.406  0.2224  0.3419 -1.0249
   48MPD2    H3  753   3.242   2.188   9.540  0.2432 -0.1672 -0.1313
   48MPD2     N  754   3.234   1.746   9.427 -0.3309  0.2564 -0.4256
   48MPD2    H5  755   3.197   1.683   9.356 -1.0227  1.4614 -1.1295
   48MPD2    N1  756   2.928   2.058   9.239  0.0504  0.1126  0.2012
   48MPD2    H7  757   2.896   1.979   9.184 -0.4057  1.4016 -1.3917
   49TMC2    C1  758   0.641   3.390   9.521  0.4704 -0.8676  0.0117
   49TMC2    C2  759   0.567   3.363   9.409 -0.0562 -0.4508 -0.4555
   49TMC2    C3  760   0.608   3.421   9.300  0.1266  0.6073  0.0086
   49TMC2    C4  761   0.753   3.471   9.524 -0.6765  0.1243 -0.0483
   49TMC2    C5  762   0.765   3.552   9.416 -0.2464  0.0939 -0.2286
   49TMC2    C6  763   0.700   3.524   9.296 -0.6720 -0.6508  0.0728
   49TMC2     C  764   0.597   3.299   9.629 -0.3353  0.5516  0.8958
   49TMC2     O  765   0.506   3.221   9.619 -0.2654 -0.1220  0.4249
   49TMC2     H  766   0.481   3.296   9.408 -0.6299  0.2469  3.2882
   49TMC2    H1  767   0.807   3.482   9.617  0.6874  3.1247 -1.2035
   49TMC2    H2  768   0.711   3.596   9.215  1.2820 -0.1808  0.7460
   49TMC2    C7  769   0.850   3.662   9.425  0.0819 -0.3880 -0.3732
   49TMC2    C8  770   0.540   3.386   9.179  0.1801  0.0300 -0.0915
   49TMC2    O1  771   0.880   3.715   9.318  0.1568 -0.0310 -0.2679
   49TMC2    O2  772   0.425   3.352   9.165  0.2506  0.0203 -0.4585
   49TMC2    O5  773   0.638   3.383   9.083  0.4738  0.2018  0.7542
   49TMC2    H5  774   0.724   3.375   9.129  0.3477  1.6061  1.2410
   50MPD2     C  775   0.617   3.107   9.854 -0.1781  0.2066 -0.3237
   50MPD2    C1  776   0.657   3.241   9.858 -0.0634  0.2359  0.1800
   50MPD2    C2  777   0.712   3.278   9.980  0.5645  0.9032 -0.0108
   50MPD2    C3  778   0.742   3.194  10.084 -0.2333 -0.5738 -0.7044
   50MPD2    C4  779   0.722   3.056  10.069 -0.6898 -0.6171  0.1769
   50MPD2    C5  780   0.661   3.013   9.951  0.4422  0.6295  0.7994
   50MPD2     H  781   0.747   3.381   9.992 -1.8206  1.6662  0.4310
   50MPD2    H1  782   0.752   2.992  10.150 -1.5185 -0.0974  0.9038
   50MPD2    H2  783   0.582   3.065   9.760  0.3359 -2.1551  0.5331
   50MPD2    H3  784   0.633   2.910   9.932  0.1862  0.5726  1.4842
   50MPD2     N  785   0.775   3.232  10.215  0.1838 -0.5230 -0.1519
   50MPD2    H5  786   0.788   3.158  10.283  0.0368  1.0945  1.6115
   50MPD2    N1  787   0.655   3.335   9.751 -0.1009  0.2111 -0.0326
   50MPD2    H7  788   0.722   3.411   9.755 -0.8775  0.8968 -0.0472
   51TMC2    C1  789   1.224   2.571   1.210 -0.4113 -0.8392 -0.9920
   51TMC2    C2  790   1.284   2.599   1.327 -0.8491  0.1367 -0.6412
   51TMC2    C3  791   1.389   2.683   1.335  0.9460  0.3897 -0.3188
   51TMC2    C4  792   1.278   2.613   1.088 -0.8248 -0.4866  0.1695
   51TMC2    C5  793   1.391   2.686   1.104  0.1723  0.2732 -0.4248
   51TMC2    C6  794   1.450   2.728   1.216  0.3014  0.0124 -0.3319
   51TMC2     C  795   1.167   2.442   1.193 -0.5877 -0.3766  0.3587
   51TMC2     O  796   1.183   2.394   1.082  0.4054 -0.2788  0.3946
   51TMC2     H  797   1.230   2.582   1.419 -0.8360 -2.1049 -1.0409
   51TMC2    H1  798   1.238   2.587   0.991  2.0594  1.0349 -1.4359
   51TMC2    H2  799   1.546   2.778   1.214  0.9692 -1.1921  1.2395
   51TMC2    C7  800   1.484   2.680   0.994  0.5893 -0.3133 -0.5422
   51TMC2    C8  801   1.400   2.760   1.451 -0.8351 -0.2173  0.1483
   51TMC2    O1  802   1.602   2.663   1.022 -0.4067  0.5260  0.1610
   51TMC2    O2  803   1.336   2.742   1.554  0.0607  0.1715  0.1479
   51TMC2    O5  804   1.462   2.883   1.432 -0.5314  0.0262 -0.2561
   51TMC2    H5  805   1.485   2.910   1.340  0.6947  0.8019  0.2836
   52MPD2     C  806   1.006   2.004   1.397  0.4153 -0.3502  0.6003
   52MPD2    C1  807   1.062   2.025   1.273 -0.2696  0.1090 -0.1101
   52MPD2    C2  808   1.091   2.156   1.244  0.7001  0.1129 -0.9522
   52MPD2    C3  809   1.053   2.265   1.326  0.5726 -0.8756 -0.0994
   52MPD2    C4  810   0.976   2.236   1.434  0.1073  0.3089  0.3859
   52MPD2    C5  811   0.956   2.109   1.471 -0.3561  0.3876 -0.0939
   52MPD2     H  812   1.137   2.175   1.148  2.8484  0.2763  0.0955
   52MPD2    H1  813   0.934   2.313   1.498  0.2190  1.5868 -1.0590
   52MPD2    H2  814   0.967   1.911   1.436  0.7966 -0.3130  1.0769
   52MPD2    H3  815   0.888   2.090   1.553  0.0106 -1.2365 -0.1707
   52MPD2     N  816   1.107   2.394   1.309  0.1444 -0.1839  0.6549
   52MPD2    H5  817   1.087   2.459   1.384  2.1516  2.2672 -0.9429
   52MPD2    N1  818   1.105   1.922   1.186 -0.2858  0.2004  0.5133
   52MPD2    H7  819   1.156   1.945   1.101 -1.2835  1.4388  0.2390
   53TMC2    C1  820   1.747   0.613  11.107 -0.0442  0.1629  0.1819
   53TMC2    C2  821   1.810   0.493  11.099  0.1385 -0.2427  0.3274
   53TMC2    C3  822   1.886   0.450  11.204  0.1805 -0.2061  0.6614
   53TMC2    C4  823   1.766   0.695  11.216  0.9103  0.6877 -0.6978
   53TMC2    C5  824   1.855   0.662  11.313  0.6304  0.6198 -0.3933
   53TMC2    C6  825   1.916   0.537  11.301  0.2392  0.5838  0.3502
   53TMC2     C  826   1.640   0.636  11.016 -0.2035  0.0708 -0.7091
   53TMC2     O  827   1.596   0.536  10.962 -0.3433 -0.0791  0.0855
   53TMC2     H  828   1.788   0.425  11.018 -0.1967  0.2958 -0.0325
   53TMC2    H1  829   1.713   0.787  11.238  2.0303  0.9717  0.8243
   53TMC2    H2  830   1.982   0.497  11.378 -0.0895 -0.2855  0.1779
   53TMC2    C7  831   1.863   0.739  11.436 -0.6048 -0.5405 -0.0414
   53TMC2    C8  832   1.918   0.305  11.218  0.0760  0.4421  0.1382
   53TMC2    O1  833   1.774   0.819  11.468  0.2112 -0.1330 -0.1781
   53TMC2    O2  834   1.918   0.248  11.323  0.2541 -0.1419  0.1597
   53TMC2    O5  835   1.999   0.279  11.115 -0.8484  0.2343 -0.6056
   53TMC2    H5  836   2.019   0.350  11.049  1.3443  0.1956  0.0182
   54MPD2     C  837   1.419   0.751  10.840 -0.0643  0.1755 -0.8681
   54MPD2    C1  838   1.506   0.827  10.917  0.0112  0.4493  0.2896
   54MPD2    C2  839   1.489   0.967  10.911 -0.0349 -0.2384 -0.2085
   54MPD2    C3  840   1.378   1.017  10.846 -0.2946  0.3317 -0.1794
   54MPD2    C4  841   1.301   0.939  10.770  0.6554 -0.4071 -0.5418
   54MPD2    C5  842   1.318   0.804  10.763 -0.5788 -0.5769  1.0098
   54MPD2     H  843   1.557   1.021  10.976 -1.3595 -0.0384  1.0031
   54MPD2    H1  844   1.222   0.993  10.719  1.2193  2.3964  1.5768
   54MPD2    H2  845   1.410   0.645  10.858 -0.3645  0.2403 -0.6372
   54MPD2    H3  846   1.253   0.741  10.703 -1.4426  1.5573 -0.3126
   54MPD2     N  847   1.334   1.148  10.868 -0.2630 -0.8385  0.1156
   54MPD2    H5  848   1.244   1.170  10.827 -1.0743 -0.2432  2.2066
   54MPD2    N1  849   1.613   0.771  10.999  0.4420  0.5028 -0.2575
   54MPD2    H7  850   1.673   0.839  11.046  0.7404 -0.9613  1.4925
   55TMC2    C1  851   2.756   3.256  17.430  0.6188 -0.1536  0.7600
   55TMC2    C2  852   2.788   3.246  17.297  0.2685 -0.1792 -0.0081
   55TMC2    C3  853   2.802   3.123  17.242 -0.0856  0.2090 -0.1303
   55TMC2    C4  854   2.720   3.149  17.505  0.4111  0.2384  0.1564
   55TMC2    C5  855   2.731   3.029  17.441 -0.1670  0.2922 -0.4215
   55TMC2    C6  856   2.774   3.009  17.316  0.4438  0.0612 -0.3144
   55TMC2     C  857   2.694   3.374  17.485 -0.5197  0.6252 -0.1449
   55TMC2     O  858   2.599   3.368  17.556  0.5724  0.0143 -0.0897
   55TMC2     H  859   2.778   3.337  17.239  1.5944 -0.1739 -0.2308
   55TMC2    H1  860   2.673   3.163  17.601  0.7775 -2.1594  0.6886
   55TMC2    H2  861   2.800   2.911  17.279 -1.9828  0.0871 -2.0588
   55TMC2    C7  862   2.663   2.910  17.505  0.1675 -0.4235  0.0735
   55TMC2    C8  863   2.880   3.112  17.124  0.4948 -0.2112  0.3449
   55TMC2    O1  864   2.663   2.803  17.445 -0.8823  0.0311  0.0317
   55TMC2    O2  865   2.898   3.003  17.074  0.0655  0.0857  0.0682
   55TMC2    O5  866   2.976   3.214  17.133  0.4229  0.0480 -0.1299
   55TMC2    H5  867   2.942   3.288  17.187  0.7252  0.9170 -1.1289
   56MPD2     C  868   2.772   3.722  17.387 -0.4655 -0.2577  0.0689
   56MPD2    C1  869   2.719   3.624  17.462 -0.4629  0.0269 -0.6318
   56MPD2    C2  870   2.626   3.658  17.563  0.1486  0.5604 -0.2952
   56MPD2    C3  871   2.582   3.788  17.589 -0.4509 -0.3908 -0.0456
   56MPD2    C4  872   2.654   3.882  17.522  0.8381  0.3156  0.9015
   56MPD2    C5  873   2.746   3.849  17.427  0.6343 -0.1624 -0.1983
   56MPD2     H  874   2.573   3.579  17.615  2.0195 -1.4290 -1.4240
   56MPD2    H1  875   2.641   3.987  17.547 -2.1753  0.7359 -2.3152
   56MPD2    H2  876   2.839   3.708  17.303 -2.8082 -1.0036 -1.6556
   56MPD2    H3  877   2.789   3.935  17.378  1.0935  0.5500  1.4445
   56MPD2     N  878   2.484   3.825  17.688  0.4063 -0.0994 -0.5334
   56MPD2    H5  879   2.443   3.747  17.738  0.1903  0.3919  0.0504
   56MPD2    N1  880   2.753   3.492  17.431 -0.2584  0.3914 -0.2705
   56MPD2    H7  881   2.826   3.477  17.363 -0.4412  1.8317 -0.7686
   57TMC2    C1  882   1.120   4.103  13.638 -0.2452  0.6554  0.6494
   57TMC2    C2  883   1.140   4.021  13.745  0.0818 -0.5001  0.0040
   57TMC2    C3  884   1.207   3.898  13.725  0.0893 -0.3879 -0.0315
   57TMC2    C4  885   1.173   4.064  13.515  0.1311  0.3539  0.7256
   57TMC2    C5  886   1.239   3.943  13.506 -0.2030  0.3615 -0.2439
   57TMC2    C6  887   1.260   3.859  13.606 -0.0980  0.0694 -0.1776
   57TMC2     C  888   1.044   4.227  13.640  0.3437 -0.6691  1.3002
   57TMC2     O  889   0.992   4.257  13.531  0.0169  0.4401 -0.7054
   57TMC2     H  890   1.105   4.028  13.847 -0.0139 -2.4658  0.1177
   57TMC2    H1  891   1.175   4.130  13.428 -1.2692 -0.8883 -0.2510
   57TMC2    H2  892   1.313   3.765  13.597 -0.7891 -0.1475 -2.1059
   57TMC2    C7  893   1.299   3.915  13.376 -0.5339  0.0367  0.4192
   57TMC2    C8  894   1.239   3.820  13.844 -0.0413  0.2297 -0.6979
   57TMC2    O1  895   1.231   3.947  13.277 -0.5324  0.0233  0.0195
   57TMC2    O2  896   1.248   3.875  13.959 -0.2705 -0.4280  0.0905
   57TMC2    O5  897   1.222   3.686  13.822 -0.5838 -0.2663 -0.3703
   57TMC2    H5  898   1.192   3.669  13.730 -0.0166 -0.0917 -0.5888
   58MPD2     C  899   0.785   4.616  13.865 -0.6942 -0.0017 -0.2470
   58MPD2    C1  900   0.775   4.555  13.736  0.2315 -0.5248  0.0130
   58MPD2    C2  901   0.857   4.451  13.702 -0.2662 -0.3112 -0.2863
   58MPD2    C3  902   0.939   4.392  13.796 -0.7181 -0.1143 -0.3538
   58MPD2    C4  903   0.944   4.449  13.922  0.2297 -0.1579 -0.4863
   58MPD2    C5  904   0.873   4.560  13.958  0.8360 -0.4263  0.7937
   58MPD2     H  905   0.864   4.428  13.597  0.4091  0.1098 -0.3363
   58MPD2    H1  906   1.003   4.402  14.000 -1.4561 -0.3541  0.6694
   58MPD2    H2  907   0.730   4.699  13.906  1.0939  1.4808 -0.8071
   58MPD2    H3  908   0.887   4.611  14.053 -0.5814  1.1357  0.1626
   58MPD2     N  909   1.023   4.279  13.762 -0.3420 -0.1427  0.2271
   58MPD2    H5  910   1.077   4.241  13.839  1.1236  2.1553  0.3121
   58MPD2    N1  911   0.693   4.603  13.638  0.2306  0.2292 -0.0858
   58MPD2    H7  912   0.689   4.559  13.547 -0.3290  1.0533 -0.4587
   59TMC2    C1  913   4.154   4.189  12.458 -0.0764 -0.2230  0.8549
   59TMC2    C2  914   4.108   4.205  12.587  0.0450 -0.0248 -0.2716
   59TMC2    C3  915   3.977   4.253  12.597 -0.2865 -0.1480  0.5140
   59TMC2    C4  916   4.089   4.229  12.346 -0.3604 -0.6859  0.0758
   59TMC2    C5  917   3.980   4.300  12.367 -0.1739 -0.2332  0.4612
   59TMC2    C6  918   3.923   4.316  12.489  0.1619 -0.0659 -0.3313
   59TMC2     C  919   4.271   4.113  12.424  0.2749  0.7445  0.9312
   59TMC2     O  920   4.302   4.072  12.316 -0.5018  0.3783  0.1329
   59TMC2     H  921   4.145   4.151  12.673 -0.1451 -0.0034 -0.1747
   59TMC2    H1  922   4.130   4.219  12.246  1.1847  1.1365  0.5200
   59TMC2    H2  923   3.823   4.357  12.501  0.1565 -0.5735  1.2882
   59TMC2    C7  924   3.913   4.333  12.244  0.1261  0.0024 -0.5219
   59TMC2    C8  925   3.934   4.288  12.735 -0.3150  0.2657  0.0967
   59TMC2    O1  926   3.922   4.256  12.148  0.2626 -0.0458  0.2645
   59TMC2    O2  927   4.003   4.321  12.830  0.2471 -0.2629  0.5147
   59TMC2    O5  928   3.813   4.340  12.735 -0.4006 -0.3118 -0.1796
   59TMC2    H5  929   3.764   4.297  12.662 -0.0935 -1.8413  0.5137
   60MPD2     C  930   4.571   4.036  12.442 -0.2109 -0.8610 -0.3891
   60MPD2    C1  931   4.499   4.125  12.529  0.2983 -0.0799 -0.5266
   60MPD2    C2  932   4.571   4.194  12.626  0.5324  0.5959  0.2168
   60MPD2    C3  933   4.710   4.192  12.629 -0.0565  0.1702 -0.3343
   60MPD2    C4  934   0.037   4.102  12.542 -0.3448  0.3808 -0.0747
   60MPD2    C5  935   4.704   4.023  12.455  0.0607 -0.2920  0.5727
   60MPD2     H  936   4.520   4.248  12.705 -3.9940 -2.2522 -0.7807
   60MPD2    H1  937   0.145   4.102  12.545 -0.3769 -1.2026  1.5637
   60MPD2    H2  938   4.526   3.975  12.364 -0.2217  1.2805 -2.0887
   60MPD2    H3  939   0.023   3.962  12.388 -1.6595 -2.1029  0.7435
   60MPD2     N  940   0.052   4.269  12.709  0.6505  0.4108 -0.0605
   60MPD2    H5  941   0.147   4.286  12.676  1.0391 -1.4228  0.1405
   60MPD2    N1  942   4.362   4.141  12.524 -0.1374  0.3784  0.2007
   60MPD2    H7  943   4.325   4.192  12.604  3.0371  1.4502  0.9895
   61TMC2    C1  944   3.469   0.610  15.029 -0.5048  0.4812  0.4679
   61TMC2    C2  945   3.387   0.503  15.039  0.0839 -0.0085 -0.6351
   61TMC2    C3  946   3.295   0.482  14.937 -0.2724  0.1048 -0.1152
   61TMC2    C4  947   3.459   0.698  14.927 -0.4804 -0.6914 -0.8662
   61TMC2    C5  948   3.365   0.677  14.828  0.7336  0.7256 -0.2594
   61TMC2    C6  949   3.276   0.574  14.838 -0.7782 -0.2353  0.1456
   61TMC2     C  950   3.567   0.633  15.136  0.5587  0.9749  0.2520
   61TMC2     O  951   3.628   0.540  15.188  0.5918  0.2194  0.0229
   61TMC2     H  952   3.403   0.421  15.107  0.1309  1.0869  0.6695
   61TMC2    H1  953   3.538   0.770  14.906 -0.7281 -0.0238  0.4620
   61TMC2    H2  954   3.200   0.573  14.760 -0.2001 -0.9645 -0.4073
   61TMC2    C7  955   3.326   0.800  14.770 -0.8145 -0.0371 -0.2286
   61TMC2    C8  956   3.237   0.349  14.923  0.1261 -0.1024 -0.1293
   61TMC2    O1  957   3.380   0.906  14.810  0.3463  0.3017 -0.5245
   61TMC2    O2  958   3.231   0.298  14.815  0.0568 -0.0655  0.0343
   61TMC2    O5  959   3.211   0.300  15.042  0.8607  0.2787 -0.2663
   61TMC2    H5  960   3.217   0.373  15.108  0.8741 -0.8238  0.9602
   62MPD2     C  961   3.764   0.774  15.319  0.2257  0.5683 -0.1158
   62MPD2    C1  962   3.703   0.838  15.213  0.1738  0.2758  0.0879
   62MPD2    C2  963   3.728   0.970  15.190 -0.1572  0.6860 -0.0574
   62MPD2    C3  964   3.836   1.035  15.254 -0.2451  0.4022 -0.2462
   62MPD2    C4  965   3.912   0.963  15.354  0.4365 -0.3112 -0.1385
   62MPD2    C5  966   3.863   0.837  15.392  0.4462  0.8234 -0.5033
   62MPD2     H  967   3.667   1.018  15.114  0.1905  1.1185 -0.0612
   62MPD2    H1  968   3.990   1.010  15.413  0.8138 -0.8293 -0.2252
   62MPD2    H2  969   3.744   0.671  15.346  0.8554  1.0536  2.2526
   62MPD2    H3  970   3.909   0.790  15.478 -0.5064 -0.2296 -0.5745
   62MPD2     N  971   3.866   1.161  15.213  0.9994  0.6246  0.1071
   62MPD2    H5  972   3.805   1.210  15.149  1.4069 -0.1646 -0.9008
   62MPD2    N1  973   3.597   0.771  15.147  0.2770  0.4129  0.1651
   62MPD2    H7  974   3.542   0.836  15.092  0.4861 -0.2971 -0.9027
   63TMC2    C1  975   3.238   1.706  10.362 -0.1360  0.4665 -0.2102
   63TMC2    C2  976   3.357   1.768  10.366 -0.6360 -0.3048  0.1807
   63TMC2    C3  977   3.370   1.870  10.275 -0.6035  0.5911  1.2180
   63TMC2    C4  978   3.133   1.737  10.278 -0.0885  0.4638 -0.3594
   63TMC2    C5  979   3.156   1.845  10.191 -0.1948  0.0903 -0.4360
   63TMC2    C6  980   3.270   1.912  10.189  0.5241  0.1086  0.1880
   63TMC2     C  981   3.207   1.598  10.457  0.3566 -0.1562 -0.0950
   63TMC2     O  982   3.290   1.577  10.543 -0.2977  0.1476  0.2684
   63TMC2     H  983   3.426   1.749  10.447 -0.1803 -0.9444 -0.3501
   63TMC2    H1  984   3.036   1.687  10.275 -0.0658  0.3009  1.4162
   63TMC2    H2  985   3.302   1.972  10.105  1.0104  0.3586  0.5486
   63TMC2    C7  986   3.060   1.875  10.085  0.4104 -0.8356  0.5930
   63TMC2    C8  987   3.468   1.964  10.297 -0.1100  0.2383 -0.8849
   63TMC2    O1  988   2.995   1.776  10.050  0.3977  0.1254  0.3187
   63TMC2    O2  989   3.472   2.049  10.212 -0.0531 -0.1434 -0.0773
   63TMC2    O5  990   3.523   1.966  10.420 -0.0833  0.0995  0.1951
   63TMC2    H5  991   3.524   1.881  10.471 -1.2970  0.3557  0.6529
   64MPD2     C  992   3.002   1.161  10.619  0.9094 -0.4133  0.4204
   64MPD2    C1  993   2.975   1.169  10.487  0.6121  0.6032  0.1240
   64MPD2    C2  994   3.005   1.287  10.419 -0.1627  0.8646  0.4831
   64MPD2    C3  995   3.063   1.399  10.482  0.3256 -0.3717  0.5013
   64MPD2    C4  996   3.078   1.390  10.614 -0.5321  0.0978  0.2609
   64MPD2    C5  997   3.052   1.272  10.678  0.4775 -0.4241 -0.2380
   64MPD2     H  998   3.002   1.301  10.312  2.4088  1.7543  0.5339
   64MPD2    H1  999   3.119   1.462  10.684 -3.0058 -0.5289  2.3518
   64MPD2    H2 1000   2.990   1.070  10.676  2.4973 -0.2660  0.9856
   64MPD2    H3 1001   3.077   1.262  10.783 -0.1179  1.0751  0.0399
   64MPD2     N 1002   3.114   1.507  10.408  0.1351  0.1499  0.6167
   64MPD2    H5 1003   3.082   1.520  10.313 -0.3205 -0.6941  0.6535
   64MPD2    N1 1004   2.938   1.058  10.409  0.8089 -0.3439  0.0938
   64MPD2    H7 1005   2.953   1.064  10.309  0.1002 -1.0960 -0.0613
   65TMC2    C1 1006   0.201   0.894  15.121  0.2797  0.7026 -0.3876
   65TMC2    C2 1007   0.189   0.853  14.989  0.4642  0.3436 -0.6275
   65TMC2    C3 1008   0.150   0.949  14.892  0.0267  0.3966 -0.6693
   65TMC2    C4 1009   0.195   1.026  15.153 -0.2967  0.2349  0.0571
   65TMC2    C5 1010   0.171   1.124  15.051 -0.3727 -0.6921  0.2588
   65TMC2    C6 1011   0.144   1.087  14.917 -0.2309  0.0417 -0.2332
   65TMC2     C 1012   0.186   0.808  15.230  0.1936  0.0511  0.5548
   65TMC2     O 1013   0.250   0.830  15.332 -0.3944  0.0871 -0.8300
   65TMC2     H 1014   0.208   0.749  14.964  0.7718  0.2452  0.0275
   65TMC2    H1 1015   0.208   1.056  15.257  0.3834  1.4087 -0.3629
   65TMC2    H2 1016   0.125   1.156  14.835  1.8161 -0.5719 -1.2174
   65TMC2    C7 1017   0.172   1.261  15.090  0.4350 -0.2067  0.6373
   65TMC2    C8 1018   0.145   0.909  14.754  0.9484  0.0072 -0.1331
   65TMC2    O1 1019   0.227   1.340  15.016  0.4663  0.9063 -0.4481
   65TMC2    O2 1020   0.211   0.815  14.712 -0.1537  0.0301 -0.0835
   65TMC2    O5 1021   0.028   0.960  14.699  0.0515  0.4446  0.1892
   65TMC2    H5 1022   4.710   1.001  14.766 -0.8265  1.1429 -0.9811
   66MPD2     C 1023   0.079   0.646  15.451 -0.4490  0.0383 -0.7395
   66MPD2    C1 1024   0.016   0.670  15.330  0.3296  0.9540 -0.0299
   66MPD2    C2 1025   4.627   0.626  15.306 -0.3618 -0.5820  0.4122
   66MPD2    C3 1026   4.552   0.557  15.398  0.2246 -0.2516 -0.7475
   66MPD2    C4 1027   4.613   0.537  15.519 -0.8314  1.1631 -0.2626
   66MPD2    C5 1028   4.738   0.579  15.545  1.3943  0.9125  0.1576
   66MPD2     H 1029   4.581   0.648  15.211 -0.4978 -1.9090  0.1741
   66MPD2    H1 1030   4.559   0.492  15.601  1.5015 -1.8003 -0.3889
   66MPD2    H2 1031   0.181   0.669  15.479  0.7806  0.2636 -5.3264
   66MPD2    H3 1032   0.029   0.572  15.649  2.6232 -0.3601 -0.2867
   66MPD2     N 1033   4.421   0.513  15.372  0.3626  0.5409  0.1525
   66MPD2    H5 1034   4.374   0.473  15.452  1.8826  0.1556  0.8485
   66MPD2    N1 1035   0.079   0.736  15.221 -0.3791 -0.2572  0.0908
   66MPD2    H7 1036   0.026   0.737  15.134 -0.6238  0.4991  0.2472
   67TMC2    C1 1037   4.447   0.039  14.127 -0.0568 -0.2316  0.7825
   67TMC2    C2 1038   4.386   0.160  14.146  0.0827 -0.0593 -0.0121
   67TMC2    C3 1039   4.408   0.221  14.267  0.2983  0.5008 -0.6091
   67TMC2    C4 1040   4.540   4.732  14.213 -0.3664  0.5015  0.8336
   67TMC2    C5 1041   4.563   0.059  14.325 -0.5085 -0.2348 -0.8522
   67TMC2    C6 1042   4.504   0.175  14.355 -0.4741 -0.2654  0.1799
   67TMC2     C 1043   4.415   4.690  14.016 -0.5478  0.1069  0.6527
   67TMC2     O 1044   4.503   4.611  13.977  0.6038 -0.1192 -0.1461
   67TMC2     H 1045   4.344   0.212  14.060  0.9417  1.9219  0.7902
   67TMC2    H1 1046   4.594   4.639  14.197 -1.1727  0.2492 -0.4074
   67TMC2    H2 1047   4.530   0.236  14.441  1.5059 -0.6410 -0.1419
   67TMC2    C7 1048   4.674   0.016  14.409  0.3426  0.6005 -0.4918
   67TMC2    C8 1049   4.342   0.349  14.304 -0.0115  0.2102 -0.1280
   67TMC2    O1 1050   0.027   4.683  14.366  0.8281 -0.0917 -0.5140
   67TMC2    O2 1051   4.388   0.419  14.395 -0.1836  0.0749  0.1018
   67TMC2    O5 1052   4.211   0.342  14.264 -0.1478 -0.1600 -0.1895
   67TMC2    H5 1053   4.191   0.264  14.209  0.3123  1.0544 -2.0752
   68MPD2     C 1054   4.329   4.616  13.736 -0.1593  0.6718 -0.2355
   68MPD2    C1 1055   4.265   4.708  13.818  0.2227  0.9605 -1.1275
   68MPD2    C2 1056   4.146   0.019  13.772 -0.0635  0.7568 -0.2884
   68MPD2    C3 1057   4.107   0.013  13.638 -0.5516 -0.1274 -0.3554
   68MPD2    C4 1058   4.171   4.660  13.554  0.1575  0.2883 -0.1013
   68MPD2    C5 1059   4.275   4.592  13.612  0.8524  0.2220  0.2213
   68MPD2     H 1060   4.098   0.091  13.836 -3.2777 -0.3557 -1.4238
   68MPD2    H1 1061   4.152   4.649  13.447  3.1960 -0.9830 -0.5262
   68MPD2    H2 1062   4.422   4.567  13.762  1.8068  3.8873 -1.1368
   68MPD2    H3 1063   4.321   4.512  13.556  1.0721  0.6597 -0.2212
   68MPD2     N 1064   3.990   0.079  13.584 -0.1108  0.9470  0.0699
   68MPD2    H5 1065   3.957   0.064  13.489 -0.1968  1.3770  0.0334
   68MPD2    N1 1066   4.313   0.000  13.946 -0.4187  0.2446 -0.1800
   68MPD2    H7 1067   4.257   0.076  13.982 -0.6118 -1.8372  3.8720
   69TMC2    C1 1068   2.107   0.765  12.442 -0.0402 -0.2900  0.2690
   69TMC2    C2 1069   2.061   0.857  12.529 -0.4897  0.5185 -0.0399
   69TMC2    C3 1070   2.074   0.990  12.495 -0.1852  0.2268 -0.2959
   69TMC2    C4 1071   2.167   0.796  12.321 -0.2780  0.0302  0.5183
   69TMC2    C5 1072   2.164   0.927  12.287 -0.2361  0.2134  0.3384
   69TMC2    C6 1073   2.123   1.032  12.375 -0.4354 -0.3219 -0.4158
   69TMC2     C 1074   2.064   0.630  12.466 -0.1022  0.3790 -0.4067
   69TMC2     O 1075   1.973   0.619  12.547 -0.0221  0.6745 -0.3153
   69TMC2     H 1076   2.024   0.834  12.628  0.3928  3.5399  0.9914
   69TMC2    H1 1077   2.200   0.718  12.253 -0.7178 -1.1789  1.6714
   69TMC2    H2 1078   2.127   1.137  12.351  0.5537 -0.0328  1.0130
   69TMC2    C7 1079   2.199   0.954  12.149 -0.9122  0.1491 -0.6271
   69TMC2    C8 1080   1.986   1.086  12.554  1.2804  0.6969 -0.8601
   69TMC2    O1 1081   2.269   0.872  12.091 -0.1080  0.4022  0.7423
   69TMC2    O2 1082   2.011   1.209  12.549 -0.0325 -0.1305  0.4794
   69TMC2    O5 1083   1.859   1.031  12.556  0.5825  0.1821 -0.1800
   69TMC2    H5 1084   1.851   0.938  12.527  2.9293  0.3717 -1.5058
   70MPD2     C 1085   2.240   0.335  12.356  0.1972  0.3210 -0.1612
   70MPD2    C1 1086   2.154   0.402  12.440  0.0534 -0.7000 -0.5065
   70MPD2    C2 1087   2.070   0.336  12.533  0.6841 -0.8687 -0.5451
   70MPD2    C3 1088   2.077   0.199  12.541 -0.4195  0.0989 -0.0306
   70MPD2    C4 1089   2.173   0.132  12.464 -0.0904  0.2106 -0.2848
   70MPD2    C5 1090   2.247   0.201  12.369  0.3079 -0.6214  0.1801
   70MPD2     H 1091   2.000   0.395  12.591 -0.0249 -1.2803 -0.9899
   70MPD2    H1 1092   2.202   0.027  12.470 -0.2980  0.0238 -2.7333
   70MPD2    H2 1093   2.324   0.381  12.305  1.4249 -0.3567  1.2344
   70MPD2    H3 1094   2.319   0.142  12.313  0.3198 -0.1325 -0.3195
   70MPD2     N 1095   2.008   0.120  12.629 -0.1227  0.0329  0.5575
   70MPD2    H5 1096   2.023   0.020  12.639  0.8231  0.0214 -1.0432
   70MPD2    N1 1097   2.155   0.537  12.423  0.1536  0.7343  0.0168
   70MPD2    H7 1098   2.213   0.568  12.346 -0.3994  0.4971 -0.4912
   71TMC2    C1 1099   3.159   1.923   1.438  0.7562  0.0050  0.1177
   71TMC2    C2 1100   3.250   1.954   1.534 -0.6063  0.4125  0.1200
   71TMC2    C3 1101   3.191   1.963   1.654 -0.1336 -0.1597 -0.1397
   71TMC2    C4 1102   3.022   1.908   1.447 -0.2470  0.2881  0.2703
   71TMC2    C5 1103   2.968   1.935   1.570 -0.1678 -0.4032  0.3672
   71TMC2    C6 1104   3.055   1.965   1.672  0.0788  0.5825  0.5613
   71TMC2     C 1105   3.209   1.882   1.304 -0.2292 -0.3096  0.8771
   71TMC2     O 1106   3.141   1.892   1.201 -0.8882  0.5150  0.2135
   71TMC2     H 1107   3.348   1.983   1.499 -0.9176  1.4957  0.1612
   71TMC2    H1 1108   2.951   1.867   1.376 -1.4260  3.9111 -0.6265
   71TMC2    H2 1109   3.013   1.982   1.771 -0.9223  0.1041  0.2137
   71TMC2    C7 1110   2.823   1.941   1.601 -0.5800  0.0830 -0.1529
   71TMC2    C8 1111   3.251   2.043   1.755 -0.6061  0.0412  0.8462
   71TMC2    O1 1112   2.790   1.940   1.718  0.3280  0.0849 -0.1668
   71TMC2    O2 1113   3.200   2.108   1.846 -0.4898 -0.1484 -0.1640
   71TMC2    O5 1114   3.379   2.003   1.763  0.0777 -0.1823  0.0736
   71TMC2    H5 1115   3.397   1.917   1.719 -2.1818 -0.3438 -0.5819
   72MPD2     C 1116   3.601   1.705   1.023  0.0909 -0.5352  0.5984
   72MPD2    C1 1117   3.491   1.768   0.987  0.8173  0.5951  0.0476
   72MPD2    C2 1118   3.398   1.797   1.085  1.0602  0.6107 -0.3087
   72MPD2    C3 1119   3.423   1.787   1.218  0.4095 -0.0741 -0.0684
   72MPD2    C4 1120   3.545   1.737   1.251 -0.2390  0.0483 -0.2940
   72MPD2    C5 1121   3.633   1.683   1.158 -0.0129 -0.3350 -0.5640
   72MPD2     H 1122   3.315   1.855   1.047  0.8899  0.9103  0.5272
   72MPD2    H1 1123   3.583   1.721   1.352 -2.2345  0.1810  0.4737
   72MPD2    H2 1124   3.679   1.681   0.951 -1.1085  3.0483 -1.9009
   72MPD2    H3 1125   3.735   1.660   1.186  0.0515 -0.7905 -1.1855
   72MPD2     N 1126   3.331   1.825   1.324  0.0592 -0.5154 -0.5067
   72MPD2    H5 1127   3.358   1.826   1.422  0.7321 -1.7325 -0.6830
   72MPD2    N1 1128   3.455   1.806   0.853  0.7085  0.2854 -0.6083
   72MPD2    H7 1129   3.381   1.874   0.840  1.4388  1.0806 -0.6018
   73TMC2    C1 1130   3.285   3.445  13.803  0.5183  0.5311 -0.9413
   73TMC2    C2 1131   3.285   3.513  13.918 -0.1568  0.0755  0.3290
   73TMC2    C3 1132   3.367   3.470  14.021 -0.2694  0.0712  0.1715
   73TMC2    C4 1133   3.361   3.331  13.785  0.1667  0.3637  0.9209
   73TMC2    C5 1134   3.451   3.298  13.879  0.3892 -0.2291 -0.8427
   73TMC2    C6 1135   3.462   3.370  13.997 -0.5136 -0.3434 -0.1429
   73TMC2     C 1136   3.297   3.521  13.678  0.7708 -0.1175 -0.5569
   73TMC2     O 1137   3.371   3.467  13.594  0.3165  0.5946  0.6189
   73TMC2     H 1138   3.236   3.607  13.939  2.1665  1.0509  1.3604
   73TMC2    H1 1139   3.346   3.259  13.706 -1.4795  0.3583  1.2419
   73TMC2    H2 1140   3.539   3.354  14.071  1.7226  2.1256 -1.9280
   73TMC2    C7 1141   3.577   3.256  13.822  0.5601  0.8682  0.2421
   73TMC2    C8 1142   3.405   3.574  14.112  0.0485 -0.0799 -0.5169
   73TMC2    O1 1143   3.641   3.169  13.877 -0.8326  0.2112 -0.0621
   73TMC2    O2 1144   3.414   3.689  14.074  0.1400 -0.2423 -0.2077
   73TMC2    O5 1145   3.468   3.522  14.221 -0.2624 -0.2897  0.3360
   73TMC2    H5 1146   3.449   3.427  14.232  0.6843 -0.2995  1.7500
   74MPD2     C 1147   3.235   3.911  13.386 -1.3155 -0.1467 -0.7129
   74MPD2    C1 1148   3.353   3.849  13.424  0.1683  0.3720  0.1637
   74MPD2    C2 1149   3.345   3.749  13.519 -0.6419  0.1729 -0.1710
   74MPD2    C3 1150   3.229   3.728  13.585  0.3477 -0.5980 -0.4386
   74MPD2    C4 1151   3.119   3.797  13.554  0.0688  0.5129 -0.3156
   74MPD2    C5 1152   3.121   3.881  13.450  0.8214 -0.3134 -0.4994
   74MPD2     H 1153   3.437   3.706  13.557  0.2097  0.3987 -1.9978
   74MPD2    H1 1154   3.026   3.789  13.608  0.7614  0.2018  0.8400
   74MPD2    H2 1155   3.227   3.991  13.314  2.7447  1.8596  1.1057
   74MPD2    H3 1156   3.031   3.931  13.418 -1.1442 -4.9689 -2.3071
   74MPD2     N 1157   3.217   3.634  13.686 -0.1714 -0.3873 -0.1765
   74MPD2    H5 1158   3.132   3.629  13.741  0.5099  1.3389  1.0422
   74MPD2    N1 1159   3.474   3.904  13.380  0.4301  0.2560 -0.0505
   74MPD2    H7 1160   3.458   3.979  13.314  0.8726  1.9012  1.7011
   75TMC2    C1 1161   3.776   0.176  13.588  0.4809 -0.3515 -0.0381
   75TMC2    C2 1162   3.701   0.290  13.620 -0.3465  0.3431  0.2252
   75TMC2    C3 1163   3.568   0.288  13.574 -0.0848 -0.6422 -0.6450
   75TMC2    C4 1164   3.728   0.073  13.516 -0.2448 -0.7034  0.0889
   75TMC2    C5 1165   3.597   0.084  13.466 -0.6079  0.3864  0.2553
   75TMC2    C6 1166   3.514   0.189  13.496  0.7599  0.2976  0.1430
   75TMC2     C 1167   3.904   0.163  13.652 -0.5683  0.1801 -0.1509
   75TMC2     O 1168   3.912   0.206  13.767  0.1115  0.8749  0.0775
   75TMC2     H 1169   3.750   0.380  13.655  0.4829 -0.1592  0.3671
   75TMC2    H1 1170   3.788   4.724  13.496  0.2896 -0.6371  1.4015
   75TMC2    H2 1171   3.410   0.179  13.467  0.4918 -0.3682  1.3280
   75TMC2    C7 1172   3.558   0.004  13.347  0.1281 -0.1751 -0.0899
   75TMC2    C8 1173   3.483   0.399  13.583  0.0802  0.0551  0.4606
   75TMC2    O1 1174   3.463   0.046  13.284 -0.4604  0.2144  0.2755
   75TMC2    O2 1175   3.389   0.426  13.510  0.7257 -0.1359  0.1730
   75TMC2    O5 1176   3.543   0.488  13.671  0.2566 -0.6300  0.3400
   75TMC2    H5 1177   3.609   0.450  13.733  1.2120  3.9679  2.1438
   76TMC2    C1 1178   3.279   0.458  11.598  0.2791 -0.1746 -0.0837
   76TMC2    C2 1179   3.408   0.498  11.580 -0.7201  1.1349  0.5369
   76TMC2    C3 1180   3.505   0.413  11.599  1.2711  0.3364 -0.1731
   76TMC2    C4 1181   3.251   0.342  11.663 -0.0127 -0.2243  0.0504
   76TMC2    C5 1182   3.353   0.254  11.685  0.0401 -0.2036 -0.0734
   76TMC2    C6 1183   3.482   0.289  11.655 -0.3064  0.1892 -0.0558
   76TMC2     C 1184   3.161   0.547  11.579  0.1900 -0.1622  0.2908
   76TMC2     O 1185   3.051   0.506  11.614  0.5249 -0.2363 -0.0623
   76TMC2     H 1186   3.436   0.594  11.539  2.7374 -0.4937 -0.9011
   76TMC2    H1 1187   3.147   0.313  11.674 -0.4186  1.4964  0.7021
   76TMC2    H2 1188   3.564   0.233  11.698  0.9766  1.4416 -0.8189
   76TMC2    C7 1189   3.345   0.171  11.807 -0.5381 -0.2100 -0.0417
   76TMC2    C8 1190   3.636   0.471  11.602 -0.0069 -0.2590 -0.7779
   76TMC2    O1 1191   3.430   0.090  11.827 -0.0679  0.1440 -0.5552
   76TMC2    O2 1192   3.661   0.587  11.626  0.0815 -0.4047  0.3254
   76TMC2    O5 1193   3.718   0.361  11.588 -0.3651  0.5166 -1.0583
   76TMC2    H5 1194   3.676   0.294  11.531  0.9145 -0.8479 -0.3921
   77MPD2     C 1195   2.959   0.953  11.329  0.3455 -0.0218 -0.2044
   77MPD2    C1 1196   2.894   0.861  11.407 -0.0382 -0.4967 -0.9244
   77MPD2    C2 1197   2.964   0.761  11.476  0.3412  0.0491  0.2792
   77MPD2    C3 1198   3.104   0.754  11.453  0.2565  0.1190  0.3338
   77MPD2    C4 1199   3.166   0.849  11.373 -0.1036  0.7613 -0.8089
   77MPD2    C5 1200   3.091   0.946  11.311  0.9752  0.2961  0.2391
   77MPD2     H 1201   2.914   0.692  11.542  0.1152  0.5509  0.6389
   77MPD2    H1 1202   3.272   0.856  11.354  0.3312  3.1266  2.6148
   77MPD2    H2 1203   2.905   1.029  11.275 -2.1604 -2.3296 -0.9371
   77MPD2    H3 1204   3.134   1.024  11.249  0.1521 -1.3705 -2.4100
   77MPD2     N 1205   3.189   0.654  11.509  0.1278  0.1332 -0.1032
   77MPD2    H5 1206   3.289   0.667  11.499  0.1386 -0.0969 -0.2931
   77MPD2    N1 1207   2.754   0.876  11.424 -0.6826  0.6237 -0.6653
   77MPD2    H7 1208   2.714   0.813  11.492  0.5536 -2.7569 -3.0717
   78TMC2    C1 1209   3.946   0.668   0.605  0.4420 -0.8652 -0.3677
   78TMC2    C2 1210   3.861   0.760   0.543  0.1529  0.4112 -0.6032
   78TMC2    C3 1211   3.887   0.892   0.578 -0.3544 -0.0016 -0.0121
   78TMC2    C4 1212   4.050   0.701   0.692 -0.5068  0.3279 -0.1289
   78TMC2    C5 1213   4.061   0.838   0.721 -0.1630 -0.4063  0.3979
   78TMC2    C6 1214   3.978   0.934   0.667 -0.7347  0.0778  0.1126
   78TMC2     C 1215   3.950   0.542   0.530 -0.1668 -0.0033 -0.4660
   78TMC2     O 1216   3.895   0.535   0.418 -0.0320  0.0526  0.0979
   78TMC2     H 1217   3.781   0.738   0.474 -1.6215  2.3957  0.8061
   78TMC2    H1 1218   4.122   0.626   0.722 -0.0230  0.7327 -0.2797
   78TMC2    H2 1219   3.980   1.041   0.687  1.8427 -0.1957  1.1816
   78TMC2    C7 1220   4.187   0.873   0.789  0.2730  0.0853  0.4816
   78TMC2    C8 1221   3.804   1.001   0.532 -0.0850  0.0645 -0.2632
   78TMC2    O1 1222   4.274   0.784   0.774 -0.4414 -0.9282  0.0690
   78TMC2    O2 1223   3.768   1.102   0.593 -0.0756 -0.4322  0.2313
   78TMC2    O5 1224   3.723   0.961   0.427  0.2029  0.1481 -0.2552
   78TMC2    H5 1225   3.751   0.884   0.374  2.5380 -1.8665  3.8579
   79MPD1     C 1226   4.169   0.084   0.511 -0.3303  0.1108  1.4443
   79MPD1    C1 1227   4.100   0.151   0.414  0.1963  0.4792  1.3824
   79MPD1    C2 1228   4.029   0.263   0.449 -0.5598 -0.3498 -0.1334
   79MPD1    C3 1229   4.051   0.320   0.578  0.5392 -0.4419  0.5531
   79MPD1    C4 1230   4.126   0.250   0.669  0.5624  0.2798  0.0812
   79MPD1    C5 1231   4.187   0.133   0.639 -0.8693 -0.1659 -0.3465
   79MPD1     H 1232   3.965   0.305   0.372 -0.2497  2.5408  1.2070
   79MPD1    H1 1233   4.136   0.287   0.770 -1.0023  3.5431 -0.9351
   79MPD1    H2 1234   4.232   0.004   0.474 -2.3451 -0.8132 -0.0074
   79MPD1    H3 1235   4.248   0.085   0.714 -0.7415  0.0885 -0.2862
   79MPD1     N 1236   3.996   0.444   0.614 -0.0560 -0.1692  0.1011
   79MPD1    H5 1237   4.014   0.475   0.709 -0.0252  1.2760 -0.3803
   79MPD1    N1 1238   4.076   0.072   0.302 -0.1833  0.5133 -0.6387
   79MPD1    H6 1239   4.041   0.117   0.218 -1.9601  1.1951  0.4619
   79MPD1    H7 1240   4.164   0.028   0.276  0.4155  2.0937 -1.2698
   80TMC2    C1 1241   0.416   0.482  11.852 -0.5531  0.3630  0.6295
   80TMC2    C2 1242   0.281   0.489  11.888  0.0360 -0.5486 -0.4476
   80TMC2    C3 1243   0.216   0.381  11.942  0.6296 -0.3814 -0.0751
   80TMC2    C4 1244   0.475   0.361  11.862 -0.5892 -0.7009 -0.2869
   80TMC2    C5 1245   0.410   0.259  11.920  0.1504 -0.4589 -0.4047
   80TMC2    C6 1246   0.285   0.268  11.970  0.2040  0.6554 -0.2685
   80TMC2     C 1247   0.488   0.602  11.808  0.3809 -0.0611 -0.0333
   80TMC2     O 1248   0.412   0.691  11.776 -0.1819 -0.0367 -0.2584
   80TMC2     H 1249   0.234   0.586  11.875 -1.6651 -1.7601 -3.3527
   80TMC2    H1 1250   0.579   0.344  11.836 -0.7994 -0.1497 -1.4813
   80TMC2    H2 1251   0.239   0.191  12.030 -0.4450  0.5096 -0.9634
   80TMC2    C7 1252   0.463   0.127  11.925 -0.5014  0.2554  0.2483
   80TMC2    C8 1253   0.071   0.358  11.923  0.3322 -0.3315 -0.5607
   80TMC2    O1 1254   0.380   0.041  11.906  0.3941  0.5642  0.0286
   80TMC2    O2 1255   0.037   0.257  11.862  0.2823  0.1270  0.0407
   80TMC2    O5 1256   0.009   0.478  11.926  0.3940  0.4998 -0.3281
   80TMC2    H5 1257   0.050   0.530  11.998  1.3276 -0.6579 -0.0323
   81MPD2     C 1258   0.650   0.791  11.654 -0.0266 -0.4982  0.0513
   81MPD2    C1 1259   0.699   0.679  11.716 -1.0714 -0.6376 -0.8238
   81MPD2    C2 1260   0.836   0.659  11.726 -0.2966 -0.2119 -0.0458
   81MPD2    C3 1261   0.926   0.748  11.666 -0.1197 -0.7609 -0.7595
   81MPD2    C4 1262   0.871   0.858  11.610 -0.0705 -0.0807 -0.6880
   81MPD2    C5 1263   0.737   0.882  11.606 -0.5778 -0.1980 -0.6782
   81MPD2     H 1264   0.866   0.571  11.783 -0.0252  0.3735  0.7070
   81MPD2    H1 1265   0.936   0.939  11.578  1.1658 -0.5994  0.5086
   81MPD2    H2 1266   0.544   0.810  11.653  0.1791  0.6390  0.1631
   81MPD2    H3 1267   0.700   0.971  11.556 -0.7686  0.2329  0.2142
   81MPD2     N 1268   1.068   0.742  11.673  0.4613  0.0893 -0.2441
   81MPD2    H5 1269   1.118   0.830  11.660 -0.5641  0.3978 -2.1393
   81MPD2    N1 1270   0.620   0.595  11.788 -0.3431 -0.5813 -0.0328
   81MPD2    H7 1271   0.669   0.525  11.843  0.0654 -1.4014 -1.4523
   82TMC2    C1 1272   4.670   3.787  10.773 -0.3243 -0.0090  0.2483
   82TMC2    C2 1273   0.060   3.796  10.737 -0.6480  0.0832 -0.1871
   82TMC2    C3 1274   0.142   3.691  10.771 -0.0922  0.5445  0.3629
   82TMC2    C4 1275   4.625   3.686  10.847 -0.1801  0.3886  0.4778
   82TMC2    C5 1276   4.701   3.580  10.863 -0.4287 -0.3182 -0.3438
   82TMC2    C6 1277   0.090   3.583  10.830 -0.2545  0.8343 -0.1141
   82TMC2     C 1278   4.584   3.902  10.759 -0.0135  0.6856  0.3247
   82TMC2     O 1279   4.463   3.886  10.741 -0.1137 -0.1977 -0.1351
   82TMC2     H 1280   0.103   3.879  10.682  2.9260 -1.8253 -0.2295
   82TMC2    H1 1281   4.522   3.694  10.881 -0.8697  3.7578 -2.4690
   82TMC2    H2 1282   0.152   3.495  10.843  1.2601  1.7850 -0.8696
   82TMC2    C7 1283   4.654   3.471  10.945  0.0332  0.0664 -0.2042
   82TMC2    C8 1284   0.278   3.698  10.753  0.4042  0.3338  0.3692
   82TMC2    O1 1285   4.543   3.430  10.922  0.9451 -0.5960  0.2890
   82TMC2    O2 1286   0.348   3.596  10.766 -0.1162 -0.2879 -0.0769
   82TMC2    O5 1287   0.321   3.828  10.753  0.5130  0.0104  0.1057
   82TMC2    H5 1288   0.258   3.890  10.795  0.0315 -0.4443  0.0510
   83MPD2     C 1289   4.489   4.410  10.790 -0.7802 -0.2650 -0.3437
   83MPD2    C1 1290   4.418   4.309  10.721 -0.4329 -0.3507 -0.2450
   83MPD2    C2 1291   4.460   4.181  10.742 -0.1964 -0.2521  0.7284
   83MPD2    C3 1292   4.584   4.149  10.808 -0.7020  0.2787  0.5502
   83MPD2    C4 1293   4.650   4.251  10.876 -0.0208 -0.1826 -0.0775
   83MPD2    C5 1294   4.597   4.376  10.865 -0.0608  0.1026 -0.2582
   83MPD2     H 1295   4.407   4.107  10.684  3.4108 -0.1037 -2.7432
   83MPD2    H1 1296   4.737   4.236  10.939 -0.1994 -0.4631  0.1033
   83MPD2    H2 1297   4.462   4.515  10.795 -1.6335 -0.4308 -1.5402
   83MPD2    H3 1298   4.634   4.449  10.936  1.6127 -1.6170  0.6244
   83MPD2     N 1299   4.647   4.022  10.792  0.2573 -0.4293  0.4296
   83MPD2    H5 1300   4.737   4.015  10.838  0.9786  0.1743 -0.8778
   83MPD2    N1 1301   4.307   4.340  10.645  0.1519 -0.1670  0.5714
   83MPD2    H7 1302   4.277   4.437  10.658 -0.3627 -0.3418  0.6798
   84TMC2    C1 1303   0.877   3.457  10.600 -0.3114  0.6205 -0.4068
   84TMC2    C2 1304   0.826   3.350  10.667 -0.4023 -0.5062  0.4925
   84TMC2    C3 1305   0.758   3.256  10.603 -0.3143  0.6037  0.3799
   84TMC2    C4 1306   0.877   3.459  10.465  0.4176 -0.1051 -0.4907
   84TMC2    C5 1307   0.798   3.366  10.404 -0.6242 -0.8980 -0.0184
   84TMC2    C6 1308   0.726   3.266  10.474 -0.2078  0.0286  0.1347
   84TMC2     C 1309   0.917   3.581  10.667  0.1943 -0.0363 -0.0318
   84TMC2     O 1310   0.864   3.599  10.776 -0.1676 -0.1248  0.3447
   84TMC2     H 1311   0.838   3.342  10.775 -1.3050  0.4419  0.6628
   84TMC2    H1 1312   0.919   3.545  10.414 -0.5804 -0.3711 -1.7538
   84TMC2    H2 1313   0.654   3.204  10.421 -0.8863 -0.2781  1.4218
   84TMC2    C7 1314   0.791   3.362  10.259  0.0540  0.7323  0.1504
   84TMC2    C8 1315   0.696   3.158  10.678  0.4638  0.5800 -0.2911
   84TMC2    O1 1316   0.812   3.459  10.186 -0.2611 -0.0613  0.2223
   84TMC2    O2 1317   0.761   3.088  10.757  0.0198  0.8045  0.2452
   84TMC2    O5 1318   0.564   3.197  10.684  0.1071 -0.2114 -0.4380
   84TMC2    H5 1319   0.537   3.270  10.623 -0.2428  0.0464  0.0271
   85TMC2    C1 1320   2.030   2.052  15.764 -0.5876 -0.4774 -0.0090
   85TMC2    C2 1321   1.902   2.085  15.794 -0.2456 -0.2179  0.2485
   85TMC2    C3 1322   1.849   2.188  15.727 -0.8592 -0.3726 -0.1113
   85TMC2    C4 1323   2.113   2.137  15.689 -0.1143 -0.4935 -0.1449
   85TMC2    C5 1324   2.054   2.235  15.617 -0.6230  0.1518 -0.3936
   85TMC2    C6 1325   1.922   2.261  15.638  0.1228 -0.1470  0.4137
   85TMC2     C 1326   2.092   1.933  15.816  0.6485  0.0104  0.2627
   85TMC2     O 1327   2.211   1.945  15.849 -0.2754 -0.1632 -0.2117
   85TMC2     H 1328   1.849   2.030  15.871 -1.0244  1.7334  1.0785
   85TMC2    H1 1329   2.216   2.112  15.667  0.4009  2.1172 -0.7024
   85TMC2    H2 1330   1.871   2.332  15.573  2.1202  0.4545 -0.4933
   85TMC2    C7 1331   2.112   2.259  15.488 -0.3769 -0.3064  0.1536
   85TMC2    C8 1332   1.769   2.272  15.817 -0.1960  0.1141 -0.4501
   85TMC2    O1 1333   2.211   2.198  15.458 -0.2532 -0.0511 -0.1597
   85TMC2    O2 1334   1.683   2.227  15.886 -0.4934  0.3712  0.3619
   85TMC2    O5 1335   1.786   2.407  15.784  0.6394 -0.3884  0.3320
   85TMC2    H5 1336   1.865   2.423  15.727  0.5114  4.0188  1.4260
   86MPD2     C 1337   2.052   1.474  16.069 -0.1352 -0.8244  0.3089
   86MPD2    C1 1338   1.928   1.518  16.018  0.2475 -1.0097 -0.3282
   86MPD2    C2 1339   1.914   1.631  15.942 -0.1809  0.1410 -0.5977
   86MPD2    C3 1340   2.020   1.717  15.912  0.4519  0.5588 -0.1321
   86MPD2    C4 1341   2.138   1.677  15.973 -0.3942 -0.3123  0.5730
   86MPD2    C5 1342   2.152   1.566  16.049 -0.0358  0.4450 -0.4708
   86MPD2     H 1343   1.817   1.654  15.901 -0.8174  1.0313  1.4052
   86MPD2    H1 1344   2.226   1.741  15.979 -0.9367  0.4312  0.5091
   86MPD2    H2 1345   2.073   1.379  16.116 -0.3120 -0.8125  0.4091
   86MPD2    H3 1346   2.248   1.544  16.095  0.6021  2.0701 -1.0020
   86MPD2     N 1347   1.994   1.841  15.846 -0.2108  0.1181  0.2765
   86MPD2    H5 1348   1.896   1.857  15.822  0.1694  0.9661 -0.7265
   86MPD2    N1 1349   1.813   1.439  16.043 -0.5944 -0.0195  0.1066
   86MPD2    H7 1350   1.730   1.471  15.993 -0.2487  1.6582  0.5862
   87TMC2    C1 1351   4.586   4.258   0.381  0.7019  0.0105  0.3446
   87TMC2    C2 1352   4.624   4.221   0.507 -0.2104  0.6024  0.2880
   87TMC2    C3 1353   4.717   4.297   0.573 -0.2170  0.6097 -0.1717
   87TMC2    C4 1354   4.627   4.374   0.335 -0.9632 -0.5282 -0.8101
   87TMC2    C5 1355   4.707   4.463   0.407 -0.1167 -0.2988  0.8814
   87TMC2    C6 1356   0.027   4.415   0.522  0.6829 -0.1274 -0.0855
   87TMC2     C 1357   4.478   4.188   0.310 -0.1762 -0.5864 -0.1219
   87TMC2     O 1358   4.444   4.244   0.209 -0.1018  0.2194  0.4994
   87TMC2     H 1359   4.577   4.131   0.547 -0.2251  0.3258 -0.3426
   87TMC2    H1 1360   4.603   4.403   0.234 -3.4176 -0.0911 -0.0996
   87TMC2    H2 1361   0.106   4.473   0.568 -1.3803  0.7508  2.3142
   87TMC2    C7 1362   4.675   4.604   0.404 -0.0200 -0.3461  0.2993
   87TMC2    C8 1363   0.037   4.251   0.699 -0.3354 -0.4504 -0.2274
   87TMC2    O1 1364   4.615   4.639   0.302  0.2654  0.2934  0.1739
   87TMC2    O2 1365   0.141   4.293   0.743  0.2488  0.6133  0.2762
   87TMC2    O5 1366   4.680   4.178   0.767 -0.4148  0.4492  0.4162
   87TMC2    H5 1367   4.590   4.176   0.729  0.3676  0.8960 -1.4961
   88MPD2     C 1368   4.621   0.102   0.671  0.4987  0.0658 -0.0591
   88MPD2    C1 1369   4.610   0.048   0.546 -0.3243 -0.1140  0.6799
   88MPD2    C2 1370   4.546   0.126   0.448 -0.9979  0.6376 -0.3279
   88MPD2    C3 1371   4.472   0.237   0.484  0.1581  0.5551 -0.7229
   88MPD2    C4 1372   4.479   0.284   0.614 -0.2347  0.0440  0.8540
   88MPD2    C5 1373   4.559   0.218   0.704 -0.5975  0.8469 -0.0491
   88MPD2     H 1374   4.543   0.098   0.344  0.5395 -0.5044 -0.0664
   88MPD2    H1 1375   4.419   0.369   0.645 -0.7864 -0.0002 -0.0982
   88MPD2    H2 1376   4.695   0.064   0.741  1.1091  1.1033 -0.1483
   88MPD2    H3 1377   4.562   0.264   0.802  0.4158 -0.4119  0.5061
   88MPD2     N 1378   4.387   0.302   0.395  0.2836 -0.1506  0.4805
   88MPD2    H5 1379   4.346   0.389   0.429  0.8074  0.2505  0.0840
   88MPD2    N1 1380   4.667   4.661   0.527  0.1670  0.4062  0.1056
   88MPD2    H7 1381   4.692   4.604   0.607  2.8674 -1.0229 -1.7456
   89TMC2    C1 1382   4.329   2.725   0.967 -0.7048 -0.2515  0.1284
   89TMC2    C2 1383   4.212   2.649   0.953  0.3424 -0.5622  0.0755
   89TMC2    C3 1384   4.143   2.671   0.837 -0.2255  0.1458  0.0034
   89TMC2    C4 1385   4.372   2.808   0.864  0.4639  0.8677  0.6520
   89TMC2    C5 1386   4.293   2.833   0.756 -0.0834 -0.5342 -0.2915
   89TMC2    C6 1387   4.171   2.767   0.737  0.1929 -0.6069  0.1917
   89TMC2     C 1388   4.431   2.674   1.059 -0.4754 -0.0369 -0.5840
   89TMC2     O 1389   4.548   2.699   1.037  0.4389  0.2233  0.7409
   89TMC2     H 1390   4.172   2.574   1.021  2.3729 -0.0664  1.8001
   89TMC2    H1 1391   4.451   2.877   0.892  0.7817  0.0999  1.6998
   89TMC2    H2 1392   4.109   2.791   0.652 -1.1446  0.8055  1.5411
   89TMC2    C7 1393   4.303   2.952   0.679  0.3449  0.2595  0.0576
   89TMC2    C8 1394   4.065   2.559   0.789  0.4660  0.3978 -0.4692
   89TMC2    O1 1395   4.218   2.978   0.592 -0.0823  0.6972 -0.1542
   89TMC2    O2 1396   4.049   2.456   0.855  0.0619  0.4069  0.2146
   89TMC2    O5 1397   4.027   2.578   0.659  0.2926 -0.1219  0.3013
   89TMC2    H5 1398   4.082   2.638   0.605 -1.6985 -1.3590 -3.0948
   90MPD2     C 1399   4.593   2.400   1.467  0.4095 -0.0170  0.8594
   90MPD2    C1 1400   4.457   2.376   1.443 -0.5475  0.0561 -0.9032
   90MPD2    C2 1401   4.389   2.437   1.339  0.5366 -0.3012  0.1229
   90MPD2    C3 1402   4.460   2.523   1.259 -0.1172  0.6332  0.3607
   90MPD2    C4 1403   4.591   2.546   1.280  0.1621 -0.3635  0.1314
   90MPD2    C5 1404   4.659   2.483   1.383  0.1568  0.6655 -0.6018
   90MPD2     H 1405   4.287   2.403   1.329  0.2105  0.5751  0.4141
   90MPD2    H1 1406   4.641   2.612   1.210  0.0329  0.4566  0.8129
   90MPD2    H2 1407   4.665   2.363   1.540 -0.7459  1.0010  2.5199
   90MPD2    H3 1408   0.023   2.508   1.402  0.4235  0.5000 -1.7917
   90MPD2     N 1409   4.391   2.579   1.151  0.4135  0.0419  0.2282
   90MPD2    H5 1410   4.291   2.566   1.163  0.1350  1.5730 -0.4601
   90MPD2    N1 1411   4.384   2.287   1.525 -0.5842  0.0281  0.4972
   90MPD2    H7 1412   4.282   2.286   1.516 -0.8419 -0.6190  3.5014
   91TMC2    C1 1413   1.501   2.909  16.259 -0.1448 -0.3538  0.9698
   91TMC2    C2 1414   1.574   2.910  16.376 -0.3625  0.3757 -0.6144
   91TMC2    C3 1415   1.502   2.943  16.490  0.0878 -0.1174  0.4741
   91TMC2    C4 1416   1.367   2.934  16.247  0.4123  0.7788  0.0246
   91TMC2    C5 1417   1.304   2.964  16.365  0.0963  0.1035  0.3232
   91TMC2    C6 1418   1.370   2.973  16.488  0.2520  0.1746  0.0512
   91TMC2     C 1419   1.577   2.869  16.137 -0.7298 -0.6873  0.2709
   91TMC2     O 1420   1.499   2.832  16.048 -0.3363  0.0474  0.1763
   91TMC2     H 1421   1.677   2.875  16.381 -1.1330 -2.0658 -1.9752
   91TMC2    H1 1422   1.309   2.915  16.157  0.0671 -1.1965  0.6544
   91TMC2    H2 1423   1.321   2.979  16.584 -1.2825  0.6618 -0.7726
   91TMC2    C7 1424   1.162   2.997  16.365  0.2903  0.4718  1.1523
   91TMC2    C8 1425   1.574   2.924  16.613  0.6177  0.8115  0.1288
   91TMC2    O1 1426   1.114   3.020  16.478 -0.3559 -0.0609 -0.0348
   91TMC2    O2 1427   1.680   2.870  16.618  0.5199  0.1038  0.1742
   91TMC2    O5 1428   1.526   3.005  16.715  0.6640 -0.0198  0.3495
   91TMC2    H5 1429   1.453   3.067  16.692  1.3237 -0.5239 -3.0656
   92MPD2     C 1430   1.756   2.790  15.925 -0.3882 -0.5708  0.5078
   92MPD2    C1 1431   1.798   2.828  16.050 -0.1563  0.0694 -0.0262
   92MPD2    C2 1432   1.934   2.834  16.079  0.0927  0.3532  0.6187
   92MPD2    C3 1433   2.035   2.789  16.000 -0.0746  0.3291 -0.0644
   92MPD2    C4 1434   1.993   2.748  15.877  0.0727 -0.2189 -0.1988
   92MPD2    C5 1435   1.855   2.747  15.841 -0.1471 -0.3354 -0.1895
   92MPD2     H 1436   1.959   2.865  16.180 -0.8101 -1.0607  1.2792
   92MPD2    H1 1437   2.061   2.692  15.814  1.0078  0.8125 -0.1029
   92MPD2    H2 1438   1.652   2.794  15.895 -0.2551  2.2363  0.3478
   92MPD2    H3 1439   1.831   2.703  15.745  1.6255 -2.5395  0.4016
   92MPD2     N 1440   2.166   2.802  16.039 -0.8178 -0.5703 -0.0571
   92MPD2    H5 1441   2.178   2.835  16.134 -2.6383 -0.8734  0.2653
   92MPD2    N1 1442   1.709   2.873  16.150 -0.3783 -0.3878  0.1501
   92MPD2    H7 1443   1.752   2.920  16.228 -1.1848 -0.8688  0.8759
   93TMC2    C1 1444   3.724   2.469  13.748 -0.2428  0.9827 -0.3691
   93TMC2    C2 1445   3.791   2.479  13.868  0.2096 -0.2075  0.4634
   93TMC2    C3 1446   3.913   2.540  13.870  0.0239  0.3454  0.1340
   93TMC2    C4 1447   3.778   2.526  13.633 -0.3012  0.2308  0.3309
   93TMC2    C5 1448   3.903   2.582  13.646  0.2259 -0.6317 -0.0619
   93TMC2    C6 1449   3.973   2.590  13.761 -0.4913 -0.3737  0.2373
   93TMC2     C 1450   3.627   2.365  13.726  0.3646  0.2258  0.0675
   93TMC2     O 1451   3.650   2.251  13.763  1.0030 -0.5440 -0.4163
   93TMC2     H 1452   3.753   2.439  13.962  0.9498  1.9172  1.6793
   93TMC2    H1 1453   3.734   2.510  13.535  0.0511  1.2597  0.0030
   93TMC2    H2 1454   4.069   2.640  13.762 -0.9476  0.5158 -1.1395
   93TMC2    C7 1455   3.965   2.630  13.527  1.1408  0.0783  0.4407
   93TMC2    C8 1456   3.953   2.588  13.999  0.3485 -0.4241  0.2337
   93TMC2    O1 1457   4.088   2.644  13.533  0.7227 -0.0084 -0.6902
   93TMC2    O2 1458   4.016   2.696  14.008  0.0028 -0.4218 -0.3800
   93TMC2    O5 1459   3.951   2.483  14.088 -0.0563 -0.1498  0.1915
   93TMC2    H5 1460   3.963   2.400  14.039 -2.2422 -0.0995 -0.4271
   94MPD2     C 1461   3.374   2.207  13.668  0.0149 -0.0582  0.0029
   94MPD2    C1 1462   3.388   2.350  13.657  0.3288  0.6997  0.2263
   94MPD2    C2 1463   3.282   2.429  13.622 -0.8059  0.3680 -1.0903
   94MPD2    C3 1464   3.161   2.369  13.605 -0.2220 -0.6771 -0.5549
   94MPD2    C4 1465   3.148   2.232  13.597 -0.2303 -0.2675  0.4506
   94MPD2    C5 1466   3.255   2.152  13.630 -0.9550  0.0754  0.6723
   94MPD2     H 1467   3.276   2.537  13.629 -0.0186  0.4235 -1.2492
   94MPD2    H1 1468   3.061   2.172  13.572  0.0818 -0.7009  0.4204
   94MPD2    H2 1469   3.458   2.140  13.682 -0.3083 -0.8391 -1.8285
   94MPD2    H3 1470   3.241   2.045  13.621 -1.5603  0.2029  0.0631
   94MPD2     N 1471   3.045   2.452  13.586  0.1199  0.2971  0.0983
   94MPD2    H5 1472   3.057   2.551  13.568 -1.0054  0.6649  1.3760
   94MPD2    N1 1473   3.509   2.419  13.685  0.0551 -0.1853  0.0611
   94MPD2    H7 1474   3.506   2.519  13.674  2.8844 -0.0885  0.3211
   95TMC2    C1 1475   3.690   0.297  16.097 -0.1585  0.3396 -0.0730
   95TMC2    C2 1476   3.648   0.184  16.154 -0.9187  0.4829  0.5065
   95TMC2    C3 1477   3.616   0.185  16.294 -0.4481  0.1414  0.5579
   95TMC2    C4 1478   3.704   0.416  16.169  0.0418 -1.0388 -0.1715
   95TMC2    C5 1479   3.653   0.417  16.300 -0.6192 -0.4073 -0.0615
   95TMC2    C6 1480   3.605   0.303  16.357 -0.0550  0.9982  0.5386
   95TMC2     C 1481   3.728   0.293  15.955 -0.3550 -0.6013 -0.7608
   95TMC2     O 1482   3.814   0.372  15.920  0.1286 -0.8003  0.3080
   95TMC2     H 1483   3.665   0.089  16.104  2.5919  1.0930  0.5977
   95TMC2    H1 1484   3.747   0.502  16.118 -1.3125 -1.0266 -1.2792
   95TMC2    H2 1485   3.563   0.306  16.457 -0.0476 -1.2725  0.6061
   95TMC2    C7 1486   3.671   0.531  16.384 -0.0317  0.7782  0.2405
   95TMC2    C8 1487   3.556   0.066  16.359  0.4217  0.2761  0.0089
   95TMC2    O1 1488   3.736   0.621  16.328 -0.0028 -0.4470 -0.5613
   95TMC2    O2 1489   3.493   0.078  16.462 -1.0201  0.0638 -0.0777
   95TMC2    O5 1490   3.638   4.700  16.337  0.4558 -0.2043 -0.2210
   95TMC2    H5 1491   3.704   4.714  16.266 -0.3820  3.0367 -0.3464
   96MPD2     C 1492   3.690   0.136  15.473  0.4417 -0.0744 -0.3540
   96MPD2    C1 1493   3.763   0.245  15.521 -0.1982  0.0341 -0.2641
   96MPD2    C2 1494   3.758   0.269  15.662 -1.0496  0.1323 -0.0327
   96MPD2    C3 1495   3.677   0.187  15.740 -1.0232 -0.2373 -0.4147
   96MPD2    C4 1496   3.592   0.091  15.688  0.0828  0.2527  0.1481
   96MPD2    C5 1497   3.605   0.064  15.556  0.2405 -0.7064  0.5649
   96MPD2     H 1498   3.821   0.350  15.698 -0.6455 -0.1039 -0.2224
   96MPD2    H1 1499   3.542   0.015  15.747  0.8254 -0.9533 -0.7533
   96MPD2    H2 1500   3.704   0.098  15.373  2.5949  1.0625 -0.4691
   96MPD2    H3 1501   3.551   4.720  15.512  1.3609  0.4782 -3.0794
   96MPD2     N 1502   3.658   0.199  15.881  0.0088  0.4264 -1.0475
   96MPD2    H5 1503   3.594   0.143  15.935  0.1150  0.7468 -0.5904
   96MPD2    N1 1504   3.850   0.306  15.432  0.4257 -0.5363  0.1898
   96MPD2    H7 1505   3.841   0.287  15.332 -0.4434 -0.9341  0.3386
   97TMC2    C1 1506   0.598   2.824   0.502  0.4593 -0.1158 -0.6770
   97TMC2    C2 1507   0.468   2.802   0.481  0.8716  0.2633  0.7286
   97TMC2    C3 1508   0.411   2.879   0.387 -0.1352 -0.8260  0.0528
   97TMC2    C4 1509   0.678   2.915   0.436 -0.1708 -0.1943  0.6289
   97TMC2    C5 1510   0.613   2.994   0.349  0.0515  0.6094 -0.0587
   97TMC2    C6 1511   0.475   2.980   0.328  0.1883 -1.1225 -0.3076
   97TMC2     C 1512   0.656   2.745   0.601  0.0941 -0.5839  0.2322
   97TMC2     O 1513   0.592   2.692   0.692  0.0386  0.0420 -0.1003
   97TMC2     H 1514   0.416   2.717   0.525 -1.0992  0.8392 -0.4952
   97TMC2    H1 1515   0.781   2.935   0.463  0.2534  0.9193 -1.8147
   97TMC2    H2 1516   0.419   3.045   0.261  0.3150 -0.3129  0.3730
   97TMC2    C7 1517   0.694   3.078   0.279 -0.0083 -0.2774  0.6053
   97TMC2    C8 1518   0.281   2.854   0.332 -0.4513 -0.5603 -0.0618
   97TMC2    O1 1519   0.814   3.064   0.291 -0.2795  0.4038  0.1561
   97TMC2    O2 1520   0.265   2.876   0.214  0.3475 -0.6701  0.1538
   97TMC2    O5 1521   0.229   2.755   0.406 -0.5530 -0.3695 -0.3693
   97TMC2    H5 1522   0.242   2.770   0.502 -0.9807 -1.7349 -0.0975
   98MPD2     C 1523   1.088   2.496   0.760  0.1865 -0.2671 -0.8344
   98MPD2    C1 1524   0.964   2.509   0.819  0.2195 -0.0417  0.2704
   98MPD2    C2 1525   0.857   2.578   0.756  0.3088 -0.1966  0.0014
   98MPD2    C3 1526   0.887   2.643   0.639 -0.5560  0.1060  0.1860
   98MPD2    C4 1527   1.011   2.639   0.587 -0.4826  0.3975 -0.2067
   98MPD2    C5 1528   1.115   2.569   0.649 -0.5721  0.4980  0.1659
   98MPD2     H 1529   0.752   2.569   0.782  0.2709 -0.0565 -0.1059
   98MPD2    H1 1530   1.035   2.682   0.491  0.6686 -0.9056 -0.5188
   98MPD2    H2 1531   1.166   2.438   0.809 -0.5478 -1.7133 -1.3719
   98MPD2    H3 1532   1.214   2.569   0.605  0.6631  1.6453  2.9895
   98MPD2     N 1533   0.789   2.715   0.566  0.4499  0.3805  0.2490
   98MPD2    H5 1534   0.822   2.757   0.480 -0.3251  1.0405  0.2718
   98MPD2    N1 1535   0.942   2.424   0.930 -0.2717 -0.2381 -0.5848
   98MPD2    H7 1536   1.025   2.381   0.972  0.0327  0.4539 -0.4752
   99TMC2    C1 1537   4.194   2.861   2.154  0.0841 -0.0612 -0.6071
   99TMC2    C2 1538   4.275   2.843   2.261  0.3175  0.7743 -0.2085
   99TMC2    C3 1539   4.251   2.922   2.368  0.7069  0.3982 -0.0687
   99TMC2    C4 1540   4.095   2.955   2.156  0.2535 -0.2620  0.8617
   99TMC2    C5 1541   4.086   3.037   2.262 -0.4053 -0.5568 -1.6077
   99TMC2    C6 1542   4.158   3.019   2.372 -0.4762 -0.2288 -0.1803
   99TMC2     C 1543   4.234   2.799   2.028  0.1189  0.7933 -0.1100
   99TMC2     O 1544   4.321   2.714   2.045 -0.0971  0.3693 -0.8325
   99TMC2     H 1545   4.360   2.775   2.264 -0.4008 -0.1104 -0.0168
   99TMC2    H1 1546   4.030   2.965   2.069  0.9981 -0.1643  0.3117
   99TMC2    H2 1547   4.157   3.085   2.458  0.5271 -0.8594  0.3112
   99TMC2    C7 1548   3.994   3.148   2.262 -0.1916 -0.6017  0.8118
   99TMC2    C8 1549   4.335   2.908   2.486 -0.2992  0.4454  0.6305
   99TMC2    O1 1550   3.970   3.195   2.373 -0.0817 -0.4433  0.0187
   99TMC2    O2 1551   4.456   2.910   2.488 -0.2217  0.1198 -0.1770
   99TMC2    O5 1552   4.259   2.838   2.570 -0.7627 -0.1260 -0.0022
   99TMC2    H5 1553   4.164   2.841   2.544 -1.0144  1.1098  1.0473
  100MPD2     C 1554   4.323   2.715   1.754  0.8080  0.0267  0.3818
  100MPD2    C1 1555   4.244   2.820   1.782 -0.5701 -0.4429  0.6480
  100MPD2    C2 1556   4.210   2.906   1.681  0.0976  0.0729  0.3407
  100MPD2    C3 1557   4.248   2.879   1.552  0.0282  0.2915  0.1659
  100MPD2    C4 1558   4.316   2.766   1.522  0.0460  0.4920  0.0013
  100MPD2    C5 1559   4.362   2.689   1.625 -0.0196 -0.2356  0.4965
  100MPD2     H 1560   4.148   2.993   1.705 -0.4671 -0.7369  1.8614
  100MPD2    H1 1561   4.342   2.733   1.422 -2.5247 -1.1353 -0.1128
  100MPD2    H2 1562   4.353   2.643   1.830 -1.2027 -2.1811 -0.9268
  100MPD2    H3 1563   4.425   2.604   1.604  1.3373  1.0069 -0.4329
  100MPD2     N 1564   4.206   2.963   1.449  0.1647  0.7315  0.2480
  100MPD2    H5 1565   4.159   3.048   1.478 -1.8088 -0.0782 -0.5582
  100MPD2    N1 1566   4.203   2.867   1.915  0.3019  0.1151  0.6750
  100MPD2    H7 1567   4.149   2.952   1.923  0.6966  0.5064 -0.9178
  101TMC2    C1 1568   0.620   0.578  12.559 -0.6221  0.6290 -0.0171
  101TMC2    C2 1569   0.531   0.680  12.517  0.6064 -0.4558 -0.5217
  101TMC2    C3 1570   0.589   0.794  12.471 -0.3419 -0.5642  0.1448
  101TMC2    C4 1571   0.752   0.603  12.575  0.8863 -0.2420 -0.2756
  101TMC2    C5 1572   0.802   0.728  12.533  0.4588  0.0952 -0.0235
  101TMC2    C6 1573   0.725   0.821  12.477  0.3743 -1.0759  0.4769
  101TMC2     C 1574   0.568   0.445  12.594  0.8912 -0.1667  0.6253
  101TMC2     O 1575   0.465   0.436  12.656  0.2310  0.3798 -0.2424
  101TMC2     H 1576   0.426   0.656  12.506  0.4769 -2.0859  4.6602
  101TMC2    H1 1577   0.818   0.528  12.618 -0.2436 -0.4030  1.1774
  101TMC2    H2 1578   0.762   0.919  12.449 -0.1987 -1.0915 -0.3212
  101TMC2    C7 1579   0.946   0.754  12.524  0.0333  0.2921 -0.3338
  101TMC2    C8 1580   0.499   0.880  12.400  0.0813  0.3269 -0.2976
  101TMC2    O1 1581   0.983   0.838  12.448  1.0070 -0.1442  0.0720
  101TMC2    O2 1582   0.374   0.874  12.400  0.0397 -0.2215 -0.1312
  101TMC2    O5 1583   0.560   0.959  12.315 -0.1877  0.2098  0.2376
  101TMC2    H5 1584   0.655   0.939  12.302 -0.7347 -1.9485 -0.4468
  102MPD2     C 1585   0.754   0.142  12.583 -0.2386  0.8577  0.0730
  102MPD2    C1 1586   0.644   0.215  12.602  0.5486  0.3501  0.4779
  102MPD2    C2 1587   0.532   0.160  12.667 -0.7471 -0.5571  0.1002
  102MPD2    C3 1588   0.537   0.026  12.706  0.1974 -0.0711 -1.3781
  102MPD2    C4 1589   0.655   4.691  12.686 -0.7258 -0.1562 -0.0173
  102MPD2    C5 1590   0.756   0.009  12.618  0.1576  0.6294 -0.4760
  102MPD2     H 1591   0.446   0.219  12.697  0.1066 -0.0445  1.5350
  102MPD2    H1 1592   0.680   4.602  12.743  1.9721 -0.2758 -1.4087
  102MPD2    H2 1593   0.830   0.198  12.530  0.5776  0.9787  1.3883
  102MPD2    H3 1594   0.849   4.693  12.613  0.9872  1.8367  1.5838
  102MPD2     N 1595   0.433   4.715  12.785  0.1697  0.8557 -0.2941
  102MPD2    H5 1596   0.386   0.047  12.839 -0.9866 -0.2922  0.2198
  102MPD2    N1 1597   0.660   0.347  12.565 -0.5060  0.0791  0.5512
  102MPD2    H7 1598   0.739   0.374  12.508 -0.1837 -2.3441 -0.1513
  103TMC2    C1 1599   2.802   0.349  12.384 -0.3373  0.1615 -0.1516
  103TMC2    C2 1600   2.728   0.239  12.422 -0.4408  0.4298  0.4461
  103TMC2    C3 1601   2.666   0.256  12.538  0.0753 -0.0861  0.5988
  103TMC2    C4 1602   2.831   0.462  12.459  0.4496 -0.7913 -0.1457
  103TMC2    C5 1603   2.768   0.471  12.578 -0.0569  0.1031  0.1362
  103TMC2    C6 1604   2.683   0.372  12.612 -1.0838  0.2420 -0.4484
  103TMC2     C 1605   2.898   0.333  12.273  0.0747  0.1868 -0.7082
  103TMC2     O 1606   2.942   0.435  12.220  0.1555  0.1352  0.2523
  103TMC2     H 1607   2.710   0.158  12.351  0.8201 -0.1377  0.7867
  103TMC2    H1 1608   2.899   0.538  12.423  0.2444  0.2653  1.6841
  103TMC2    H2 1609   2.640   0.383  12.711  0.1541 -0.7926  0.1986
  103TMC2    C7 1610   2.813   0.567  12.680 -0.0193 -0.4350 -0.6314
  103TMC2    C8 1611   2.544   0.179  12.554  0.4797 -0.3260  1.3048
  103TMC2    O1 1612   2.805   0.537  12.797 -0.8629 -0.0672 -0.4132
  103TMC2    O2 1613   2.523   0.089  12.469 -0.0853 -0.3596  1.1604
  103TMC2    O5 1614   2.451   0.249  12.617 -0.0163  0.1447  0.1826
  103TMC2    H5 1615   2.488   0.327  12.663 -0.3449 -0.2011  1.0302
  104MPD2     C 1616   3.053   0.007  12.194  0.5893  0.0515  0.1266
  104MPD2    C1 1617   3.026   0.145  12.175 -0.1844 -0.1135 -0.4867
  104MPD2    C2 1618   3.079   0.206  12.063 -0.0436 -0.2435 -1.0643
  104MPD2    C3 1619   3.173   0.140  11.983  0.2212  0.4608 -0.0637
  104MPD2    C4 1620   3.214   0.010  12.019  0.3159  0.0550 -0.3632
  104MPD2    C5 1621   3.146   4.683  12.123 -0.1263  0.3245  0.2439
  104MPD2     H 1622   3.061   0.311  12.043  1.4462  0.5456  1.8193
  104MPD2    H1 1623   3.288   4.700  11.957  1.4643  0.3945  0.7232
  104MPD2    H2 1624   3.015   4.695  12.281 -0.2125  0.4988  0.0406
  104MPD2    H3 1625   3.163   4.578  12.146  1.4978  0.5938  0.2982
  104MPD2     N 1626   3.229   0.209  11.881 -0.1654  0.4413 -0.4758
  104MPD2    H5 1627   3.182   0.295  11.857  0.7292  1.8191  2.7369
  104MPD2    N1 1628   2.936   0.203  12.265  0.0651 -0.0710 -0.3349
  104MPD2    H7 1629   2.897   0.146  12.340 -0.9772  1.7452  0.5020
  105TMC2    C1 1630   3.788   4.143  17.584  0.2576  0.5772 -0.4509
  105TMC2    C2 1631   3.659   4.186  17.590 -0.1422  0.0810  0.1250
  105TMC2    C3 1632   3.592   4.172  17.710 -1.4170  0.1849 -0.0666
  105TMC2    C4 1633   3.853   4.096  17.694  0.6533  0.2596  0.6304
  105TMC2    C5 1634   3.779   4.082   0.057 -0.4359 -0.2835 -0.1519
  105TMC2    C6 1635   3.645   4.109   0.069  0.6436 -0.4381  0.1730
  105TMC2     C 1636   3.857   4.125  17.459 -0.8008  0.3475 -0.1071
  105TMC2     O 1637   3.795   4.094  17.360 -0.3207 -0.0625 -0.0506
  105TMC2     H 1638   3.621   4.235  17.501 -0.6678 -1.9481 -0.7650
  105TMC2    H1 1639   3.957   4.065  17.686  0.8118  0.1908  2.9051
  105TMC2    H2 1640   3.594   4.095   0.164 -0.8056 -1.6960 -0.8075
  105TMC2    C7 1641   3.846   4.029   0.180  0.3444 -0.1103 -0.7342
  105TMC2    C8 1642   3.458   4.227  17.712  0.1150  0.4022 -0.0867
  105TMC2    O1 1643   3.775   3.993   0.277  0.0487 -0.5814 -0.2688
  105TMC2    O2 1644   3.414   4.317  17.644 -0.6910 -0.3183 -0.1911
  105TMC2    O5 1645   3.385   4.142   0.033  0.1769 -0.0094 -0.2446
  105TMC2    H5 1646   3.431   4.055   0.037  1.8842  0.8998  0.1985
  106MPD2     C 1647   4.258   4.209  17.151 -0.2359 -0.3235 -0.1590
  106MPD2    C1 1648   4.274   4.281  17.273  0.0066 -0.9077  0.4257
  106MPD2    C2 1649   4.186   4.261  17.380 -0.2111  0.2725 -0.0882
  106MPD2    C3 1650   4.073   4.188  17.368 -0.2269  1.2836  0.0831
  106MPD2    C4 1651   4.056   4.124  17.243 -0.2351  0.7369  0.2745
  106MPD2    C5 1652   4.146   4.139  17.138  0.1601  0.2554  0.9057
  106MPD2     H 1653   4.207   4.309  17.475  1.0019  0.1522 -0.2977
  106MPD2    H1 1654   3.978   4.053  17.218 -0.1121  0.6043  0.2674
  106MPD2    H2 1655   4.318   4.232  17.064 -2.7817  1.7571 -1.3994
  106MPD2    H3 1656   4.131   4.077  17.051  3.9283 -0.8628  1.0411
  106MPD2     N 1657   3.983   4.173  17.469 -0.3994 -0.3957  0.4608
  106MPD2    H5 1658   4.002   4.219  17.557  0.1655  0.5665 -0.1657
  106MPD2    N1 1659   4.365   4.390  17.291 -1.3476  0.5281 -0.4677
  106MPD2    H7 1660   4.358   4.440  17.379 -0.8964 -1.3732  0.6326
  107TMC2    C1 1661   0.895   4.237  11.179  0.3952  0.8685 -0.9786
  107TMC2    C2 1662   0.958   4.345  11.242  0.3610  0.1632 -0.0449
  107TMC2    C3 1663   1.092   4.368  11.220 -0.6786 -0.4540  0.0034
  107TMC2    C4 1664   0.965   4.147  11.109  0.3260  0.0371 -0.1989
  107TMC2    C5 1665   1.104   4.164  11.104  0.2818  0.2109  0.2901
  107TMC2    C6 1666   1.168   4.271  11.157  0.0190  0.2583  0.0174
  107TMC2     C 1667   0.760   4.202  11.217 -0.3840  0.6411  0.6363
  107TMC2     O 1668   0.724   4.083  11.221  0.3585 -0.3756 -0.2137
  107TMC2     H 1669   0.896   4.418  11.293  1.5155  0.4799  0.9066
  107TMC2    H1 1670   0.908   4.067  11.061  0.8895 -0.3455 -0.2239
  107TMC2    H2 1671   1.276   4.282  11.152  0.1372 -0.1026  1.6496
  107TMC2    C7 1672   1.176   4.103  10.999 -0.6382 -0.2384  0.1541
  107TMC2    C8 1673   1.149   4.479  11.292 -0.0024  0.4900  0.1258
  107TMC2    O1 1674   1.293   4.144  10.980 -0.0478  0.1516 -0.2841
  107TMC2    O2 1675   1.079   4.519  11.384 -0.6066  0.3802  0.9283
  107TMC2    O5 1676   1.273   4.443  11.324  0.2271 -0.3138 -0.0290
  107TMC2    H5 1677   1.326   4.431  11.242  1.3855  0.1623  0.6501
  108MPD2     C 1678   0.515   4.447  11.332 -0.7887 -0.2421  0.3869
  108MPD2    C1 1679   0.566   4.323  11.302 -0.8831  0.1685  0.5519
  108MPD2    C2 1680   0.499   4.212  11.349  0.3540  0.0948 -0.0636
  108MPD2    C3 1681   0.380   4.223  11.426  0.2963  0.0059 -0.0261
  108MPD2    C4 1682   0.332   4.346  11.445  0.4142 -0.8995  0.1618
  108MPD2    C5 1683   0.387   4.457  11.394  0.8991 -0.5279  0.4882
  108MPD2     H 1684   0.545   4.115  11.336 -1.6451 -0.9900  0.8386
  108MPD2    H1 1685   0.240   4.353  11.502  0.4082  1.0135 -0.0906
  108MPD2    H2 1686   0.565   4.537  11.297 -0.4986 -1.5934 -2.6440
  108MPD2    H3 1687   0.342   4.554  11.412  3.2915  0.5761  0.5201
  108MPD2     N 1688   0.320   4.113  11.491 -0.2985 -0.5915 -0.1927
  108MPD2    H5 1689   0.244   4.136  11.554  0.9556  1.1136  0.6950
  108MPD2    N1 1690   0.691   4.317  11.236  0.1888 -0.2412 -0.3444
  108MPD2    H7 1691   0.734   4.403  11.204  3.8896 -1.8838  0.2006
  109TMC2    C1 1692   0.590   1.400   0.271  0.9529 -0.6825 -0.3464
  109TMC2    C2 1693   0.666   1.452   0.168 -0.4432 -0.2514 -0.0187
  109TMC2    C3 1694   0.719   1.579   0.182 -0.3712  0.3144  0.2127
  109TMC2    C4 1695   0.592   1.454   0.394  0.2572  0.0377 -0.2327
  109TMC2    C5 1696   0.658   1.574   0.412 -0.1610 -0.2209 -0.3973
  109TMC2    C6 1697   0.711   1.644   0.301  0.1034 -0.5894  0.0723
  109TMC2     C 1698   0.514   1.286   0.241  0.6736  1.1056 -0.4805
  109TMC2     O 1699   0.480   1.270   0.126 -0.1004  0.3438 -0.5031
  109TMC2     H 1700   0.674   1.397   0.075  0.1340  0.7637 -0.5698
  109TMC2    H1 1701   0.525   1.424   0.474  0.0667 -1.8615 -1.0928
  109TMC2    H2 1702   0.779   1.726   0.324 -1.6500  0.5389  1.2127
  109TMC2    C7 1703   0.702   1.628   0.535  0.5115  0.6451  0.2725
  109TMC2    C8 1704   0.836   1.609   0.100  0.0942 -0.1316 -0.0617
  109TMC2    O1 1705   0.712   1.750   0.539  0.3795 -0.0502 -0.1922
  109TMC2    O2 1706   0.911   1.523   0.059 -0.3283 -0.7603  0.0007
  109TMC2    O5 1707   0.851   1.743   0.082  0.4355  0.3723  0.4478
  109TMC2    H5 1708   0.778   1.788   0.129 -2.3111 -3.3857 -0.2264
  110MPD2     C 1709   0.348   0.820   0.346  0.2881  0.2125 -0.7677
  110MPD2    C1 1710   0.378   0.880   0.468 -0.1483 -0.7720  0.5718
  110MPD2    C2 1711   0.441   1.006   0.464 -0.1902  0.2304  1.1012
  110MPD2    C3 1712   0.454   1.069   0.343 -0.1354 -0.3563  0.0259
  110MPD2    C4 1713   0.418   1.007   0.223  0.4704  0.1560 -0.1349
  110MPD2    C5 1714   0.372   0.876   0.226  0.1897 -0.2459 -0.6018
  110MPD2     H 1715   0.471   1.070   0.545 -0.4254  0.6440  0.8622
  110MPD2    H1 1716   0.426   1.049   0.124  1.4339 -0.7023 -0.4305
  110MPD2    H2 1717   0.306   0.720   0.342 -2.1197  1.1665  0.4189
  110MPD2    H3 1718   0.349   0.823   0.134  0.2543 -1.2774 -0.0345
  110MPD2     N 1719   0.496   1.200   0.351  1.0412 -0.7548 -0.7467
  110MPD2    H5 1720   0.539   1.215   0.442 -2.0841 -0.2628  0.6440
  110MPD2    N1 1721   0.336   0.818   0.585  0.1683 -0.0048  0.3625
  110MPD2    H7 1722   0.280   0.733   0.580 -1.1427  0.9616 -1.4684
  111TMC2    C1 1723   0.849   1.366  11.569 -0.4211 -0.1230 -0.6088
  111TMC2    C2 1724   0.778   1.455  11.641 -0.0505 -0.0443  0.3401
  111TMC2    C3 1725   0.854   1.544  11.707 -0.9680 -0.6789 -0.0484
  111TMC2    C4 1726   0.987   1.364  11.548 -0.2282  0.0135  0.5873
  111TMC2    C5 1727   1.050   1.461  11.616 -0.0276  0.0491  0.9429
  111TMC2    C6 1728   0.989   1.552  11.695  0.0158  0.2422  0.6962
  111TMC2     C 1729   0.774   1.276  11.488  0.2672  0.0314  0.3465
  111TMC2     O 1730   0.814   1.241  11.378  0.4695 -0.4893  0.0692
  111TMC2     H 1731   0.670   1.449  11.655 -0.1984  1.3325 -0.1512
  111TMC2    H1 1732   1.040   1.296  11.482  1.4513  2.5958 -0.7421
  111TMC2    H2 1733   1.048   1.611  11.764  0.0789 -0.4173  1.2050
  111TMC2    C7 1734   1.181   1.420  11.662  0.0739  0.0813 -0.5995
  111TMC2    C8 1735   0.808   1.627  11.821 -0.0874  0.2996 -0.8776
  111TMC2    O1 1736   1.191   1.305  11.708 -0.2407  0.4287  0.2741
  111TMC2    O2 1737   0.860   1.729  11.863 -0.1466 -0.1803 -0.3252
  111TMC2    O5 1738   0.704   1.567  11.881 -0.0726  0.1719 -0.0152
  111TMC2    H5 1739   0.678   1.480  11.844  0.0269 -0.9603  2.6243
  112MPD2     C 1740   0.325   1.081  11.322  0.4647  0.9152  0.1024
  112MPD2    C1 1741   0.436   1.117  11.254  1.1764 -0.8163  0.5539
  112MPD2    C2 1742   0.551   1.159  11.319  0.3015  0.7548 -0.7328
  112MPD2    C3 1743   0.547   1.183  11.455 -0.2896  0.1020  0.5085
  112MPD2    C4 1744   0.437   1.135  11.517 -0.2466 -0.5572 -0.4017
  112MPD2    C5 1745   0.323   1.099  11.458 -0.4459 -0.0836 -0.0642
  112MPD2     H 1746   0.635   1.191  11.258  2.2282  1.3518  2.2016
  112MPD2    H1 1747   0.428   1.154  11.623  1.4254  1.7594 -0.6634
  112MPD2    H2 1748   0.240   1.036  11.272  1.0733 -0.2549  0.1228
  112MPD2    H3 1749   0.234   1.073  11.515  0.3868  0.0123  1.2801
  112MPD2     N 1750   0.645   1.249  11.533 -0.3268  0.3392  0.1567
  112MPD2    H5 1751   0.621   1.278  11.627  0.8921  3.3284 -0.4315
  112MPD2    N1 1752   0.447   1.092  11.118  0.1932  0.6657  0.2959
  112MPD2    H7 1753   0.542   1.080  11.083 -0.9166 -1.2573 -2.0508
  113TMC2    C1 1754   3.377   4.067   0.825 -0.3302 -0.8337  0.0617
  113TMC2    C2 1755   3.378   4.193   0.762 -0.1525 -0.1482 -0.0252
  113TMC2    C3 1756   3.263   4.253   0.744  0.3831 -0.1376  0.1951
  113TMC2    C4 1757   3.256   4.007   0.863  0.7401  0.7935 -0.5025
  113TMC2    C5 1758   3.143   4.077   0.846 -0.6897 -0.3928  0.0956
  113TMC2    C6 1759   3.140   4.191   0.775  0.1408  0.1398  0.3183
  113TMC2     C 1760   3.504   4.004   0.845  0.6522 -0.0965  0.8351
  113TMC2     O 1761   3.601   4.061   0.799  0.0095  0.9428  0.8391
  113TMC2     H 1762   3.468   4.235   0.720  0.5150 -1.1088  0.4535
  113TMC2    H1 1763   3.253   3.908   0.907  3.3433  0.2287 -1.5854
  113TMC2    H2 1764   3.045   4.237   0.751  0.6066  0.5222 -0.7961
  113TMC2    C7 1765   3.018   4.029   0.902 -0.2980 -0.1197 -0.3553
  113TMC2    C8 1766   3.281   4.388   0.703  0.5158 -0.3693 -0.1481
  113TMC2    O1 1767   2.923   4.106   0.922  0.2598  0.1174 -0.1933
  113TMC2    O2 1768   3.381   4.424   0.648  0.2037  0.2364 -0.2907
  113TMC2    O5 1769   3.168   4.461   0.732 -0.7073 -0.5504  0.1816
  113TMC2    H5 1770   3.094   4.407   0.766 -0.3564 -0.0945  1.6542
  114MPD2     C 1771   3.812   3.619   0.987 -0.2688  0.3451  0.0856
  114MPD2    C1 1772   3.838   3.741   0.928 -0.1205  0.0545 -0.5094
  114MPD2    C2 1773   3.737   3.829   0.907 -0.6122  0.5039  0.9155
  114MPD2    C3 1774   3.604   3.803   0.950  0.1308 -0.1816 -0.1136
  114MPD2    C4 1775   3.577   3.681   1.007 -0.0096 -0.0288 -0.5931
  114MPD2    C5 1776   3.681   3.589   1.020 -0.6355  0.7812  0.3154
  114MPD2     H 1777   3.769   3.923   0.864  0.3322 -0.8911 -1.4304
  114MPD2    H1 1778   3.479   3.648   1.039  0.4896  0.3406  1.2868
  114MPD2    H2 1779   3.883   3.537   1.000 -0.5211 -0.0837 -1.3577
  114MPD2    H3 1780   3.661   3.491   1.062 -0.2884  1.7309  2.6727
  114MPD2     N 1781   3.497   3.895   0.923  0.0850  0.1295  0.2814
  114MPD2    H5 1782   3.405   3.868   0.957  0.5535 -1.3058  0.4414
  114MPD2    N1 1783   3.972   3.769   0.883 -0.3622  0.1622 -0.2859
  114MPD2    H7 1784   3.990   3.850   0.824  0.6969 -0.2975 -0.6007
  115TMC2    C1 1785   4.136   1.667   0.142  0.2033  0.5174 -0.4447
  115TMC2    C2 1786   4.199   1.598   0.247 -0.0134 -0.0106  0.3098
  115TMC2    C3 1787   4.249   1.674   0.354 -0.3766 -1.3972 -0.0821
  115TMC2    C4 1788   4.152   1.804   0.131  0.7854  0.1916 -0.3346
  115TMC2    C5 1789   4.205   1.872   0.235  0.0409  0.0529  0.0866
  115TMC2    C6 1790   4.257   1.811   0.348  0.0441 -0.1475 -0.3710
  115TMC2     C 1791   4.065   1.584   0.042  0.3487 -0.2926 -0.1129
  115TMC2     O 1792   4.032   1.471   0.075 -0.4506  0.1237  0.0389
  115TMC2     H 1793   4.171   1.494   0.254 -1.6372  0.2413 -2.7423
  115TMC2    H1 1794   4.161   1.855   0.035 -1.2813  1.0993 -0.0529
  115TMC2    H2 1795   4.283   1.870   0.435  0.1797  0.4812 -0.8368
  115TMC2    C7 1796   4.218   2.021   0.215 -0.3443 -0.1815  0.6224
  115TMC2    C8 1797   4.308   1.623   0.473  0.5464  0.4144  0.4806
  115TMC2    O1 1798   4.304   2.081   0.279  0.4845 -0.5162  0.2444
  115TMC2    O2 1799   4.393   1.690   0.527  0.6785  0.1953  0.2190
  115TMC2    O5 1800   4.295   1.494   0.471  0.5337 -0.3246 -0.4488
  115TMC2    H5 1801   4.204   1.481   0.437  0.2560  1.9689 -0.6199
  116MPD2     C 1802   3.737   1.581  17.404  0.3711 -0.2824  0.4346
  116MPD2    C1 1803   3.782   1.478  17.482 -0.6591  0.0281 -0.4609
  116MPD2    C2 1804   3.879   1.504  17.575 -0.6733 -0.3563 -0.1772
  116MPD2    C3 1805   3.930   1.630  17.591 -0.5659 -0.0188 -0.5041
  116MPD2    C4 1806   3.890   1.731  17.505  0.0497  0.1386 -0.0687
  116MPD2    C5 1807   3.787   1.707  17.419  0.1938 -0.1584  0.4101
  116MPD2     H 1808   3.907   1.423  17.641 -1.1899 -0.7890 -0.4945
  116MPD2    H1 1809   3.931   1.831  17.498  1.0589 -0.3892 -1.7204
  116MPD2    H2 1810   3.666   1.567  17.324  0.4859  2.3166 -0.1103
  116MPD2    H3 1811   3.754   1.785  17.351 -1.0589  1.4960  2.8911
  116MPD2     N 1812   4.025   1.659  17.688 -0.2003  0.0861  0.1517
  116MPD2    H5 1813   4.039   1.759  17.691  1.6480 -0.1420 -0.6686
  116MPD2    N1 1814   3.724   1.359  17.454  0.3457 -0.6622 -0.0957
  116MPD2    H7 1815   3.644   1.355  17.392 -0.1039 -1.8251  0.5488
  117TMC2    C1 1816   3.094   3.076  14.117  0.2469 -0.0373  0.3045
  117TMC2    C2 1817   3.213   3.050  14.174 -0.2947  0.4780  0.5752
  117TMC2    C3 1818   3.251   3.132  14.277 -0.2195 -0.0351 -0.5270
  117TMC2    C4 1819   3.035   3.200  14.137 -0.0858  0.3921 -0.0614
  117TMC2    C5 1820   3.075   3.284  14.233  1.5392  0.5633  0.1145
  117TMC2    C6 1821   3.186   3.249  14.302  0.2489 -0.0040  0.2630
  117TMC2     C 1822   3.024   2.973  14.054 -0.3579  0.0906  0.5391
  117TMC2     O 1823   3.085   2.872  14.030 -0.2967 -0.0328 -0.2167
  117TMC2     H 1824   3.241   2.945  14.174 -2.7709 -0.1704  1.3838
  117TMC2    H1 1825   2.960   3.248  14.075 -0.1469 -0.0621 -0.3376
  117TMC2    H2 1826   3.218   3.309  14.386 -1.6949 -1.6218  2.1788
  117TMC2    C7 1827   3.073   3.425  14.196 -0.1742  0.2922  0.0992
  117TMC2    C8 1828   3.390   3.156  14.284 -0.4883  0.2330 -0.7726
  117TMC2    O1 1829   3.026   3.449  14.086  0.0579  0.4234 -0.1206
  117TMC2    O2 1830   3.432   3.270  14.283 -0.6433  0.7508 -0.1961
  117TMC2    O5 1831   3.455   3.053  14.213 -0.1359 -0.3255 -0.0134
  117TMC2    H5 1832   3.449   2.963  14.251 -0.6467  0.0289  0.7469
  118MPD2     C 1833   3.169   3.717  14.389 -0.4145 -0.7928 -0.2607
  118MPD2    C1 1834   3.117   3.651  14.287 -0.4467 -0.1656 -0.0195
  118MPD2    C2 1835   3.076   3.720  14.174  0.4465 -0.2390  0.5533
  118MPD2    C3 1836   3.084   3.858  14.169 -0.1248 -0.5227 -0.0892
  118MPD2    C4 1837   3.129   3.920  14.281 -0.5145 -0.1631 -0.0935
  118MPD2    C5 1838   3.174   3.853  14.390 -0.9033  0.5021  0.2804
  118MPD2     H 1839   3.044   3.665  14.086 -2.3481 -0.0384  1.4366
  118MPD2    H1 1840   3.127   4.029  14.282 -0.9163 -0.1773  0.7983
  118MPD2    H2 1841   3.220   3.665  14.469  0.6308 -2.1071 -1.7870
  118MPD2    H3 1842   3.203   3.903  14.482  1.9130 -0.8706  0.1179
  118MPD2     N 1843   3.045   3.932  14.050 -0.0485  0.0516  0.0068
  118MPD2    H5 1844   3.076   4.028  14.042 -2.6493  0.9930  1.4633
  118MPD2    N1 1845   3.112   3.513  14.296  0.9817  0.3989 -0.0648
  118MPD2    H7 1846   3.131   3.464  14.383  0.0946 -0.8213 -0.5555
  119TMC2    C1 1847   0.587   4.192  12.726  0.0243  0.0246  0.6444
  119TMC2    C2 1848   0.599   4.214  12.595  0.1834  0.6490  0.0644
  119TMC2    C3 1849   0.523   4.145  12.502  0.6674  0.4326 -0.3230
  119TMC2    C4 1850   0.505   4.090  12.768  0.2353 -1.1747  0.2914
  119TMC2    C5 1851   0.435   4.011  12.679 -0.1493 -0.2794  0.1399
  119TMC2    C6 1852   0.444   4.042  12.546 -0.2944  0.9798 -0.1640
  119TMC2     C 1853   0.640   4.272  12.830 -0.0785  0.1027 -0.0720
  119TMC2     O 1854   0.583   4.270  12.935 -0.1559  0.3073  0.1016
  119TMC2     H 1855   0.661   4.298  12.568 -1.3626  1.8683  0.3311
  119TMC2    H1 1856   0.516   4.069  12.874  2.9865 -0.7012  0.1055
  119TMC2    H2 1857   0.390   3.987  12.470 -2.5919 -1.0802  2.9346
  119TMC2    C7 1858   0.327   3.926  12.721  0.4036  0.1012 -0.6215
  119TMC2    C8 1859   0.563   4.141  12.363  0.4545  0.2817  0.5157
  119TMC2    O1 1860   0.259   3.872  12.636 -0.6206  0.2725  0.6436
  119TMC2    O2 1861   0.575   4.034  12.308  0.8231  0.1916 -0.0693
  119TMC2    O5 1862   0.623   4.259  12.333  0.3767 -0.7178 -0.0051
  119TMC2    H5 1863   0.591   4.339  12.380 -2.8323 -1.3044 -1.2223
  120MPD2     C 1864   0.925   4.633  13.038  0.0732 -0.2806  0.0027
  120MPD2    C1 1865   0.789   4.611  13.056 -0.0669  0.5447 -0.1549
  120MPD2    C2 1866   0.735   4.508  12.982 -0.0709  0.7273 -0.0659
  120MPD2    C3 1867   0.811   4.437  12.887  0.1566 -0.1754  0.2417
  120MPD2    C4 1868   0.939   4.480  12.859 -0.0764  0.5867  0.0665
  120MPD2    C5 1869   1.002   4.568  12.944  0.3745 -0.3829  0.2624
  120MPD2     H 1870   0.630   4.488  12.995  0.3336 -0.0959  2.0468
  120MPD2    H1 1871   0.997   4.441  12.777 -1.7778 -3.2950  0.7139
  120MPD2    H2 1872   0.971   4.710  13.099  0.2766  0.5076 -1.1394
  120MPD2    H3 1873   1.102   4.607  12.928  0.0525 -0.4612 -1.8800
  120MPD2     N 1874   0.753   4.344  12.800  0.0303  0.8079 -0.3104
  120MPD2    H5 1875   0.808   4.303  12.725 -3.1209  0.5098 -2.4955
  120MPD2    N1 1876   0.720   4.686  13.161  0.2720  0.2974  0.0981
  120MPD2    H7 1877   0.774   0.018  13.210  1.7326 -1.0084  0.3842
  121TMC2    C1 1878   2.513   1.414  14.113  0.1583  0.2108 -0.1687
  121TMC2    C2 1879   2.455   1.300  14.154 -0.2406  0.3238  0.1000
  121TMC2    C3 1880   2.321   1.296  14.174  0.0098 -0.0030 -0.3070
  121TMC2    C4 1881   2.430   1.515  14.063  0.3305  0.5846  0.2643
  121TMC2    C5 1882   2.292   1.513  14.095  0.7653  0.1857  0.5759
  121TMC2    C6 1883   2.243   1.402  14.159  0.3717  0.3348  0.6879
  121TMC2     C 1884   2.649   1.402  14.048 -0.3252 -0.2873 -0.1141
  121TMC2     O 1885   2.726   1.318  14.090  0.8836 -0.2371 -0.2459
  121TMC2     H 1886   2.520   1.215  14.169 -0.0838 -0.2030 -3.5147
  121TMC2    H1 1887   2.472   1.605  14.019  2.1001 -0.0587  0.6207
  121TMC2    H2 1888   2.137   1.395  14.179  0.6226 -1.6797  1.2610
  121TMC2    C7 1889   2.217   1.578  13.992  0.5284  0.3162  0.4114
  121TMC2    C8 1890   2.284   1.191  14.273 -0.2429  0.0812 -0.2842
  121TMC2    O1 1891   2.255   1.681  13.944 -0.1899 -0.2228 -0.5337
  121TMC2    O2 1892   2.365   1.131  14.345  0.1740 -0.6153  0.3079
  121TMC2    O5 1893   2.148   1.196  14.301  0.3966 -0.3291 -0.3544
  121TMC2    H5 1894   2.086   1.192  14.226  1.0564 -0.4503 -0.8999
  122MPD2     C 1895   2.898   1.467  13.905  0.3749  0.4522 -0.4342
  122MPD2    C1 1896   2.775   1.500  13.860  0.1306 -0.0308 -0.0739
  122MPD2    C2 1897   2.760   1.576  13.745 -0.1549 -0.3948  0.4536
  122MPD2    C3 1898   2.872   1.596  13.669  0.0892 -0.0606  0.5154
  122MPD2    C4 1899   2.991   1.540  13.704 -0.5385 -0.4214 -0.1227
  122MPD2    C5 1900   3.007   1.490  13.829  0.0705  0.5639 -0.4088
  122MPD2     H 1901   2.661   1.608  13.715 -0.7092 -2.5050  0.0582
  122MPD2    H1 1902   3.081   1.555  13.646  0.8942  1.2998  2.5369
  122MPD2    H2 1903   2.926   1.428  14.002 -1.0265  1.2109  0.2807
  122MPD2    H3 1904   3.103   1.456  13.868 -1.8630 -3.8607  0.5414
  122MPD2     N 1905   2.862   1.655  13.538  0.5849 -0.4407 -0.4226
  122MPD2    H5 1906   2.944   1.659  13.479  2.1489 -2.0370  1.6552
  122MPD2    N1 1907   2.657   1.472  13.931 -0.1799 -0.2593 -0.3423
  122MPD2    H7 1908   2.569   1.502  13.890  0.2910  0.3427 -0.9204
  123TMC2    C1 1909   1.002   0.282  10.692  0.5612 -0.3030  0.1560
  123TMC2    C2 1910   0.985   0.398  10.627  0.8289 -0.2630  0.1055
  123TMC2    C3 1911   1.063   0.422  10.519  0.3721 -0.5553 -0.3745
  123TMC2    C4 1912   1.098   0.189  10.656  0.8830 -0.2270 -0.7151
  123TMC2    C5 1913   1.174   0.213  10.547  0.0714 -0.0037 -0.7569
  123TMC2    C6 1914   1.162   0.333  10.479 -0.4883 -0.1772  0.2580
  123TMC2     C 1915   0.875   0.214  10.729 -0.8836  0.4900 -0.0679
  123TMC2     O 1916   0.774   0.282  10.753  0.1441  0.0083  0.1452
  123TMC2     H 1917   0.898   0.459  10.649  1.7770  1.6823 -1.5546
  123TMC2    H1 1918   1.108   0.094  10.708 -0.1590  0.5147  0.8753
  123TMC2    H2 1919   1.223   0.369  10.397 -0.4573 -2.0883 -0.5644
  123TMC2    C7 1920   1.228   0.103  10.469  0.6225 -0.1259  0.5368
  123TMC2    C8 1921   1.061   0.551  10.449 -0.3650  0.0303 -0.3245
  123TMC2    O1 1922   1.157   0.005  10.487 -0.4277  0.5761 -0.0912
  123TMC2    O2 1923   1.162   0.575  10.384 -0.3367  0.2798 -0.3931
  123TMC2    O5 1924   0.928   0.571  10.421  0.0357  0.1987 -0.4978
  123TMC2    H5 1925   0.871   0.503  10.463  1.5138 -2.1078 -2.2072
  124MPD2     C 1926   0.574   4.534  10.680  0.4791 -0.4733 -0.6149
  124MPD2    C1 1927   0.684   4.516  10.590  0.2006 -0.1237  0.1152
  124MPD2    C2 1928   0.784   4.612  10.600  0.5733 -0.3927  0.3954
  124MPD2    C3 1929   0.772   4.725  10.685 -0.2157  0.4768  0.6833
  124MPD2    C4 1930   0.662   0.001  10.767 -0.2760  0.2155 -0.5667
  124MPD2    C5 1931   0.567   4.640  10.765  0.7431  0.4675 -0.7399
  124MPD2     H 1932   0.869   4.596  10.535  0.6766  0.0975  0.4104
  124MPD2    H1 1933   0.656   0.086  10.834  1.4211 -0.2848  0.2347
  124MPD2    H2 1934   0.489   4.467  10.686 -2.0069  2.7662  0.0770
  124MPD2    H3 1935   0.495   4.648  10.846  1.0424 -0.4273 -0.3837
  124MPD2     N 1936   0.876   0.087  10.676 -0.0090  0.4853 -0.4412
  124MPD2    H5 1937   0.949   0.067  10.609 -0.3200 -2.9306  0.2085
  124MPD2    N1 1938   0.698   4.415  10.488 -0.2774 -0.5630  0.0391
  124MPD2    H7 1939   0.779   4.416  10.427  0.1844 -2.1425  0.6184
  125TMC2    C1 1940   1.595   1.927   9.548  0.1702 -0.5661  0.0454
  125TMC2    C2 1941   1.470   1.973   9.559  0.1321  0.7495  1.1237
  125TMC2    C3 1942   1.461   2.113   9.578  0.4966 -0.0873  0.6871
  125TMC2    C4 1943   1.709   2.006   9.533 -0.0859  0.0146 -1.2556
  125TMC2    C5 1944   1.690   2.139   9.523  0.1352  0.3835  0.1893
  125TMC2    C6 1945   1.568   2.194   9.555 -0.3028 -0.4292 -0.2876
  125TMC2     C 1946   1.615   1.787   9.541  0.2399  0.2728  0.5518
  125TMC2     O 1947   1.521   1.726   9.594  0.0826  0.1459  0.4032
  125TMC2     H 1948   1.382   1.910   9.564  2.8041 -2.7686  3.5346
  125TMC2    H1 1949   1.809   1.965   9.547  0.2753  1.5650  0.6861
  125TMC2    H2 1950   1.548   2.301   9.556 -3.1875 -0.9777  1.6469
  125TMC2    C7 1951   1.789   2.242   9.513  0.3481 -0.6729  0.8456
  125TMC2    C8 1952   1.320   2.162   9.557  0.0783  0.4049  0.6135
  125TMC2    O1 1953   1.764   2.351   9.560  0.4514 -0.2942  1.0329
  125TMC2    O2 1954   1.222   2.123   9.616  0.0493 -0.1765 -0.1021
  125TMC2    O5 1955   1.325   2.249   9.456 -0.0086  0.3599 -0.5266
  125TMC2    H5 1956   1.412   2.274   9.417 -0.9229  2.0012 -1.5034
  126MPD1     C 1957   1.875   1.366   9.422 -0.2603  0.1260  0.0922
  126MPD1    C1 1958   1.919   1.471   9.337  0.6791  0.5056 -0.5068
  126MPD1    C2 1959   1.862   1.598   9.369  0.1601 -0.2599  0.1127
  126MPD1    C3 1960   1.761   1.614   9.459  0.9622  0.5754 -0.2380
  126MPD1    C4 1961   1.712   1.512   9.535 -0.5543  1.0556  0.5233
  126MPD1    C5 1962   1.768   1.389   9.511  0.1361 -0.1570 -0.0865
  126MPD1     H 1963   1.896   1.677   9.304 -1.8091 -0.3592 -1.0354
  126MPD1    H1 1964   1.638   1.515   9.614 -0.5868 -0.8977  0.5709
  126MPD1    H2 1965   1.906   1.262   9.419  1.5215  0.5711  2.4271
  126MPD1    H3 1966   1.724   1.315   9.576  0.8150 -0.0352  0.5118
  126MPD1     N 1967   1.724   1.752   9.475  0.0208 -0.1523  0.5358
  126MPD1    H5 1968   1.757   1.826   9.413 -1.6133  0.5818  0.5380
  126MPD1    N1 1969   2.029   1.456   9.247 -0.1699 -0.1317  0.0396
  126MPD1    H6 1970   2.031   1.359   9.218 -0.7606 -0.1035 -0.1023
  126MPD1    H7 1971   2.035   1.517   9.166 -0.1039 -0.8711 -0.5111
  127TMC2    C1 1972   2.925   0.486   9.509 -0.3459 -0.9182  0.3811
  127TMC2    C2 1973   2.992   0.398   9.588  0.2323 -0.4350 -0.3607
  127TMC2    C3 1974   2.914   0.307   9.647 -0.3617 -0.4272  0.1154
  127TMC2    C4 1975   2.789   0.472   9.495  0.1157  0.2977 -0.2616
  127TMC2    C5 1976   2.717   0.368   9.544  0.8024 -0.5900 -0.1819
  127TMC2    C6 1977   2.780   0.290   9.637  0.1933  0.7504  0.1809
  127TMC2     C 1978   2.996   0.613   9.473  0.2521 -0.8341  0.1553
  127TMC2     O 1979   3.090   0.649   9.543  0.5167 -0.0062  0.0733
  127TMC2     H 1980   3.096   0.412   9.616  0.7291  1.0936 -3.0786
  127TMC2    H1 1981   2.739   0.537   9.425  0.2462 -0.3743 -0.9781
  127TMC2    H2 1982   2.734   0.204   9.684  0.5883 -0.1622 -1.1274
  127TMC2    C7 1983   2.573   0.370   9.528  0.8096 -0.1956 -0.7004
  127TMC2    C8 1984   2.977   0.240   9.757  0.1026 -0.0368  0.3546
  127TMC2    O1 1985   2.533   0.433   9.430  0.9785 -0.1972  0.1199
  127TMC2    O2 1986   3.096   0.208   9.757  0.1608  0.1995 -0.0388
  127TMC2    O5 1987   2.894   0.254   9.865 -0.2257  0.4058 -0.3272
  127TMC2    H5 1988   2.816   0.312   9.852  0.1515  1.1638  0.8357
  128MPD2     C 1989   2.917   0.819   9.183  0.1191 -0.1338  0.5673
  128MPD2    C1 1990   2.978   0.797   9.306  0.5477 -0.1490  0.5047
  128MPD2    C2 1991   3.039   0.896   9.372 -0.4960  0.9073  1.3605
  128MPD2    C3 1992   3.050   1.019   9.318  0.4569 -0.1285 -0.1333
  128MPD2    C4 1993   2.990   1.047   9.207  0.1843  0.6536  0.6246
  128MPD2    C5 1994   2.930   0.949   9.139 -0.5671 -0.4014  0.3044
  128MPD2     H 1995   3.087   0.873   9.466  1.1632  0.2811  0.3526
  128MPD2    H1 1996   2.997   1.140   9.152  0.2458  0.0536 -0.3697
  128MPD2    H2 1997   2.855   0.753   9.125  0.0689  1.4472 -1.1641
  128MPD2    H3 1998   2.892   0.961   9.038 -1.5614 -2.5993  0.4068
  128MPD2     N 1999   3.122   1.121   9.395  0.2578 -0.1096 -0.1003
  128MPD2    H5 2000   3.192   1.087   9.460 -0.6656 -0.0215  0.9342
  128MPD2    N1 2001   2.947   0.670   9.357  0.0837 -0.4863  0.2001
  128MPD2    H7 2002   2.884   0.615   9.299  0.1520  1.7399 -1.9831
  129TMC2    C1 2003   1.884   0.949   1.137  0.6931 -0.1001 -0.8483
  129TMC2    C2 2004   1.993   0.987   1.075  0.0881 -0.3254 -0.0385
  129TMC2    C3 2005   2.053   0.904   0.993  0.3452 -1.3708  0.7887
  129TMC2    C4 2006   1.830   0.825   1.137 -0.4437 -0.5346 -0.9832
  129TMC2    C5 2007   1.904   0.732   1.070 -0.0920  0.4579 -0.0105
  129TMC2    C6 2008   2.012   0.769   0.993 -0.1437  0.0890 -0.0958
  129TMC2     C 2009   1.801   1.055   1.184 -0.3354 -0.0074  0.0157
  129TMC2     O 2010   1.825   1.172   1.157 -0.9908  0.0854 -0.1169
  129TMC2     H 2011   2.019   1.092   1.073 -1.9219  0.1636 -0.6413
  129TMC2    H1 2012   1.735   0.791   1.176 -1.1855  0.9847 -1.4963
  129TMC2    H2 2013   2.066   0.700   0.930 -0.9424  2.5191 -3.4376
  129TMC2    C7 2014   1.846   0.597   1.078 -0.4687  0.8244 -0.1810
  129TMC2    C8 2015   2.176   0.933   0.910 -0.4591 -0.4850 -0.3268
  129TMC2    O1 2016   1.731   0.583   1.106  0.3562  0.0324  0.1202
  129TMC2    O2 2017   2.215   0.863   0.818 -0.2882 -0.2169  0.0253
  129TMC2    O5 2018   2.254   1.001   0.988 -0.0206 -0.1730 -0.4732
  129TMC2    H5 2019   2.223   1.040   1.072 -2.8358 -2.7240 -0.3321
  130MPD2     C 2020   1.520   1.030   1.424 -0.1260  0.1635 -0.1285
  130MPD2    C1 2021   1.595   1.083   1.318  0.3499  0.1374 -0.6577
  130MPD2    C2 2022   1.556   1.208   1.264 -0.4282 -0.4665  0.0157
  130MPD2    C3 2023   1.442   1.273   1.315  0.9454  0.4907  0.2763
  130MPD2    C4 2024   1.384   1.233   1.432  0.2836 -0.1871  0.3324
  130MPD2    C5 2025   1.421   1.110   1.484 -0.0229 -0.8986  0.5548
  130MPD2     H 2026   1.618   1.243   1.182  2.3606 -2.5291  1.2706
  130MPD2    H1 2027   1.298   1.284   1.475 -0.3716  0.0232 -1.2278
  130MPD2    H2 2028   1.559   0.941   1.472  1.1059  1.7654  1.8740
  130MPD2    H3 2029   1.380   1.090   1.582  2.0128  1.2191  1.8551
  130MPD2     N 2030   1.377   1.382   1.257 -0.0597 -0.0184 -0.2685
  130MPD2    H5 2031   1.295   1.422   1.302  0.4310  0.3908  0.2808
  130MPD2    N1 2032   1.703   1.010   1.269  0.2408  0.0050  0.2301
  130MPD2    H7 2033   1.722   0.921   1.315  0.2090  0.1250  0.4755
  131TMC2    C1 2034   1.072   0.243   9.980  0.3769  0.7681 -0.2574
  131TMC2    C2 2035   0.962   0.320  10.013  0.8423 -0.5164 -0.0514
  131TMC2    C3 2036   0.984   0.440  10.075  0.6208 -0.2196 -0.2896
  131TMC2    C4 2037   1.201   0.282  10.007 -0.0405  0.4253 -0.4431
  131TMC2    C5 2038   1.217   0.402  10.067 -0.2094  0.4210 -0.0749
  131TMC2    C6 2039   1.111   0.480  10.092 -0.7921 -0.1056 -0.2488
  131TMC2     C 2040   1.042   0.102   9.961  0.4455  0.6052 -0.4146
  131TMC2     O 2041   0.924   0.077   9.980  0.2367 -0.2458  0.3655
  131TMC2     H 2042   0.862   0.283   9.998  1.4784 -2.5522  0.7104
  131TMC2    H1 2043   1.292   0.227   9.985  0.3856  1.2443 -0.7292
  131TMC2    H2 2044   1.125   0.576  10.141 -0.4206 -0.3755  0.1739
  131TMC2    C7 2045   1.344   0.465  10.064 -0.4125 -0.1378 -0.3798
  131TMC2    C8 2046   0.886   0.542  10.097  0.4942  0.0900  0.0719
  131TMC2    O1 2047   1.439   0.392  10.088  0.1848 -0.2196  0.1325
  131TMC2    O2 2048   0.909   0.663  10.109 -0.3877 -0.5419 -0.5174
  131TMC2    O5 2049   0.767   0.484  10.087 -0.0393  0.1382  0.4023
  131TMC2    H5 2050   0.760   0.386  10.090 -2.3110  0.2957  0.3642
  132MPD2     C 2051   1.207   4.547   9.842  0.2242 -0.5507  0.0942
  132MPD2    C1 2052   1.123   4.619   9.924 -0.8213 -0.0660 -0.4883
  132MPD2    C2 2053   1.024   4.549   9.992 -0.0277  0.5807  0.8149
  132MPD2    C3 2054   1.006   4.413   9.974  0.8487 -0.6579  0.2788
  132MPD2    C4 2055   1.079   4.352   9.872 -0.9157 -0.5054  0.0120
  132MPD2    C5 2056   1.185   4.416   9.819 -0.2476  0.0697 -0.2900
  132MPD2     H 2057   0.975   4.598  10.075 -1.2005  1.9767 -0.7125
  132MPD2    H1 2058   1.077   4.247   9.842  2.8307 -0.0850 -1.6835
  132MPD2    H2 2059   1.287   4.601   9.794  0.8388  1.6478  3.6062
  132MPD2    H3 2060   1.245   4.349   9.759 -2.4192 -1.7641 -0.4177
  132MPD2     N 2061   0.905   4.351  10.064  0.0507  0.1316 -0.5754
  132MPD2    H5 2062   0.867   4.413  10.135  4.2765  1.7132  0.3677
  132MPD2    N1 2063   1.144   0.019   9.944  0.5976 -0.0685 -0.1863
  132MPD2    H7 2064   1.234   0.057   9.914  0.3323  1.7630  1.3752
  133TMC2    C1 2065   0.910   1.141   9.365 -0.2911  0.3522 -0.6334
  133TMC2    C2 2066   1.004   1.095   9.276 -0.0295 -0.2725  0.3475
  133TMC2    C3 2067   1.120   1.159   9.259 -0.5236 -0.3372  0.6074
  133TMC2    C4 2068   0.938   1.262   9.420  0.6811 -0.7449  0.5496
  133TMC2    C5 2069   1.050   1.337   9.384 -0.0934 -0.3372  0.1607
  133TMC2    C6 2070   1.149   1.279   9.311  0.4047  0.4760 -0.6772
  133TMC2     C 2071   0.793   1.058   9.393 -0.0989 -0.1680  0.7306
  133TMC2     O 2072   0.815   0.942   9.363 -0.1689  0.0234  0.5007
  133TMC2     H 2073   0.995   0.998   9.229 -2.7999  0.6983 -1.1328
  133TMC2    H1 2074   0.869   1.302   9.493  0.1538 -1.2471  0.3275
  133TMC2    H2 2075   1.245   1.330   9.309  1.5221 -1.5552  1.6853
  133TMC2    C7 2076   1.083   1.461   9.455 -0.2224  0.0568 -0.9055
  133TMC2    C8 2077   1.225   1.089   9.197  0.3364 -0.0466 -0.0581
  133TMC2    O1 2078   1.201   1.496   9.468 -0.3459  0.2218 -0.4648
  133TMC2    O2 2079   1.276   1.000   9.269  0.5051 -0.4356  0.4489
  133TMC2    O5 2080   1.287   1.185   9.130  0.5153 -0.1255 -0.0402
  133TMC2    H5 2081   1.226   1.245   9.083 -0.8520 -0.5097  1.2394
  134MPD2     C 2082   0.455   1.136   9.503  0.1420 -0.1756 -0.4900
  134MPD2    C1 2083   0.560   1.056   9.480 -0.4178  0.0677 -0.8354
  134MPD2    C2 2084   0.543   0.918   9.484 -0.0641 -0.0590 -0.1295
  134MPD2    C3 2085   0.417   0.861   9.521  0.1991 -0.2646  0.5318
  134MPD2    C4 2086   0.320   0.945   9.555 -0.3181  0.3265  0.1940
  134MPD2    C5 2087   0.343   1.080   9.552  0.0497 -0.6990  0.3754
  134MPD2     H 2088   0.622   0.850   9.454 -0.8344  0.2437 -2.7800
  134MPD2    H1 2089   0.227   0.903   9.592 -0.6584  0.2235 -0.7618
  134MPD2    H2 2090   0.453   1.238   9.467 -1.0510 -0.5175 -1.3985
  134MPD2    H3 2091   0.255   1.139   9.577 -0.3849 -1.4692  0.6641
  134MPD2     N 2092   0.395   0.723   9.515 -0.6594  0.3112  0.1573
  134MPD2    H5 2093   0.298   0.694   9.525 -0.8001  0.3682 -0.9749
  134MPD2    N1 2094   0.687   1.123   9.451 -0.7101  0.1344  0.0892
  134MPD2    H7 2095   0.689   1.225   9.460  1.5465  0.0821 -0.0278
  135TMC2    C1 2096   2.218   2.493   9.788 -0.0529  0.4783  0.1108
  135TMC2    C2 2097   2.148   2.524   9.901  0.1699  0.1353  0.4213
  135TMC2    C3 2098   2.118   2.418   9.992  0.9435  0.2218  0.7534
  135TMC2    C4 2099   2.248   2.359   9.759  0.2194 -0.2408  0.3032
  135TMC2    C5 2100   2.221   2.260   9.851 -0.2571 -0.1034  0.0532
  135TMC2    C6 2101   2.149   2.283   9.968 -0.4564 -0.3228  0.6913
  135TMC2     C 2102   2.281   2.607   9.724 -0.5859  0.2811  0.3017
  135TMC2     O 2103   2.257   2.722   9.768  0.7521  0.0259 -0.1644
  135TMC2     H 2104   2.131   2.629   9.922  1.3788  0.3139  0.4633
  135TMC2    H1 2105   2.326   2.340   9.686  0.1378  0.2631  0.0850
  135TMC2    H2 2106   2.143   2.209  10.047 -0.8876  1.2628  2.1500
  135TMC2    C7 2107   2.278   2.124   9.824  0.1019 -0.4516 -0.6035
  135TMC2    C8 2108   2.053   2.443  10.122  0.5206  0.4490 -0.2821
  135TMC2    O1 2109   2.353   2.126   9.728  0.1025 -0.1663 -0.0732
  135TMC2    O2 2110   2.071   2.385  10.229  0.1991  0.2940 -0.8972
  135TMC2    O5 2111   1.988   2.557  10.108 -0.1875 -1.0223 -0.1022
  135TMC2    H5 2112   1.972   2.573  10.013 -0.4294  1.8587  0.4208
  136MPD2     C 2113   2.496   2.786   9.596  0.9147  0.0179 -0.0721
  136MPD2    C1 2114   2.468   2.655   9.561  0.7783  0.1879 -0.3872
  136MPD2    C2 2115   2.529   2.602   9.449  0.7721 -0.5684  0.1335
  136MPD2    C3 2116   2.612   2.674   9.372 -0.6543  0.0191 -0.3985
  136MPD2    C4 2117   2.635   2.807   9.407 -0.5326 -0.7874 -0.6952
  136MPD2    C5 2118   2.581   2.861   9.521  0.0336 -0.3904 -0.7064
  136MPD2     H 2119   2.517   2.495   9.434  0.5272 -0.6915  1.2432
  136MPD2    H1 2120   2.702   2.868   9.348 -0.4376 -0.0319  0.2085
  136MPD2    H2 2121   2.453   2.827   9.687  0.7761  0.1534 -0.1998
  136MPD2    H3 2122   2.619   2.955   9.559  0.4454 -0.3424 -1.2383
  136MPD2     N 2123   2.686   2.629   9.258  0.0801  0.1430 -0.4005
  136MPD2    H5 2124   2.745   2.697   9.211 -0.5194 -0.4872 -2.0232
  136MPD2    N1 2125   2.375   2.570   9.630 -0.4051  0.0398  0.1253
  136MPD2    H7 2126   2.383   2.473   9.601 -1.0581  0.0848 -0.1916
  137TMC2    C1 2127   2.330   1.568   9.457 -0.4534 -0.1386  0.7933
  137TMC2    C2 2128   2.435   1.652   9.433 -0.1422 -0.5828 -0.7751
  137TMC2    C3 2129   2.408   1.787   9.425 -0.0123  1.0731  0.7109
  137TMC2    C4 2130   2.206   1.610   9.493  0.5397  0.6685  0.2010
  137TMC2    C5 2131   2.190   1.747   9.492  1.0261 -0.4387 -0.4154
  137TMC2    C6 2132   2.285   1.836   9.454  0.0850  0.3918  0.3289
  137TMC2     C 2133   2.352   1.429   9.473  0.0938 -0.1497  0.4993
  137TMC2     O 2134   2.435   1.410   9.558 -0.0307 -0.0462  1.1118
  137TMC2     H 2135   2.535   1.612   9.420  1.9917  5.0256 -1.4382
  137TMC2    H1 2136   2.120   1.545   9.499 -0.3156  1.9125  1.2025
  137TMC2    H2 2137   2.264   1.942   9.446 -2.1995  0.0484  1.5855
  137TMC2    C7 2138   2.076   1.807   9.554  0.2019  0.1356 -0.5700
  137TMC2    C8 2139   2.511   1.883   9.394  0.4260 -0.1748  0.7662
  137TMC2    O1 2140   2.050   1.923   9.524  0.1254  0.1095 -0.6936
  137TMC2    O2 2141   2.522   1.999   9.437  0.7066 -0.7351  0.1947
  137TMC2    O5 2142   2.586   1.823   9.303 -0.1452 -0.3610 -0.1471
  137TMC2    H5 2143   2.561   1.734   9.270 -0.4852 -0.4809  0.4315
  138MPD2     C 2144   2.198   1.145   9.299 -0.9219  0.2547 -0.1331
  138MPD2    C1 2145   2.257   1.210   9.409  0.3497 -0.4675  0.0432
  138MPD2    C2 2146   2.317   1.143   9.508 -0.9350 -0.9152  0.6178
  138MPD2    C3 2147   2.313   1.006   9.514 -0.2840  0.4693 -0.9432
  138MPD2    C4 2148   2.250   0.943   9.412  0.2583 -0.6175 -0.6662
  138MPD2    C5 2149   2.185   1.015   9.310 -0.1804 -0.3590 -0.6372
  138MPD2     H 2150   2.374   1.199   9.581  0.5459 -0.2417 -1.0392
  138MPD2    H1 2151   2.237   0.835   9.415  2.1203 -0.9151 -2.6306
  138MPD2    H2 2152   2.141   1.195   9.221  0.3316  0.7789 -0.7144
  138MPD2    H3 2153   2.124   0.955   9.243  1.0054 -0.8181 -1.3118
  138MPD2     N 2154   2.366   0.939   9.628  0.1100  0.3014 -0.3044
  138MPD2    H5 2155   2.385   1.000   9.707 -0.9220 -0.4578  0.5350
  138MPD2    N1 2156   2.262   1.348   9.407  0.3090 -0.5890  0.2005
  138MPD2    H7 2157   2.187   1.388   9.351  0.1074 -0.1925  0.7591
  139TMC2    C1 2158   1.996   4.050  13.638 -0.2304  0.5450 -0.2317
  139TMC2    C2 2159   1.924   3.936  13.643  0.3477 -0.1303 -0.3520
  139TMC2    C3 2160   1.790   3.950  13.630  0.4911 -0.1059 -0.5394
  139TMC2    C4 2161   1.942   4.173  13.622  0.0857  0.1225 -1.0121
  139TMC2    C5 2162   1.803   4.183  13.609 -0.8278 -0.0115 -0.4787
  139TMC2    C6 2163   1.727   4.071  13.610 -0.6216 -0.2042 -1.4746
  139TMC2     C 2164   2.136   4.038  13.627  0.3108 -0.4930 -0.9042
  139TMC2     O 2165   2.192   4.097  13.537 -0.5233  0.0997 -0.4622
  139TMC2     H 2166   1.958   3.834  13.629 -0.6457 -0.7383  1.6736
  139TMC2    H1 2167   2.006   4.260  13.633 -0.0089  0.1416 -0.6388
  139TMC2    H2 2168   1.621   4.075  13.587 -0.7731 -0.1012 -0.7598
  139TMC2    C7 2169   1.749   4.312  13.601  0.2037 -0.4425 -0.0382
  139TMC2    C8 2170   1.704   3.833  13.645  0.1697  0.5329 -0.0941
  139TMC2    O1 2171   1.829   4.401  13.574 -0.8529  0.3373 -0.2379
  139TMC2    O2 2172   1.583   3.846  13.625 -0.4994  0.2652 -0.3283
  139TMC2    O5 2173   1.759   3.749  13.732 -0.4020  0.1740  0.3132
  139TMC2    H5 2174   1.855   3.759  13.749 -0.0584 -0.2037 -1.4845
  140MPD2     C 2175   2.311   3.799  13.838 -0.4353 -0.0282  0.0795
  140MPD2    C1 2176   2.301   3.890  13.730  0.3362  0.8947  0.1713
  140MPD2    C2 2177   2.401   3.904  13.636  0.3907 -0.1029  0.4688
  140MPD2    C3 2178   2.514   3.828  13.658  0.1553 -0.3801  0.7576
  140MPD2    C4 2179   2.531   3.753  13.769 -0.3592 -0.1135 -0.2331
  140MPD2    C5 2180   2.431   3.731  13.865 -0.4879 -0.1768 -0.9368
  140MPD2     H 2181   2.388   3.967  13.548  1.3704 -1.8197 -0.9040
  140MPD2    H1 2182   2.624   3.701  13.786 -1.0762 -1.0179  0.9308
  140MPD2    H2 2183   2.228   3.784  13.906  1.1833  0.1639  2.0990
  140MPD2    H3 2184   2.452   3.666  13.949 -1.7945 -0.5282 -0.8788
  140MPD2     N 2185   2.605   3.817  13.546  0.3508 -0.6071 -0.3912
  140MPD2    H5 2186   2.587   3.872  13.463 -1.0867  0.9536  0.9594
  140MPD2    N1 2187   2.173   3.942  13.718 -0.5850 -0.0313 -0.2170
  140MPD2    H7 2188   2.105   3.911  13.786 -0.4335 -1.5056 -0.7194
  141TMC2    C1 2189   3.414   1.170  14.204 -0.5982 -0.0512 -1.1143
  141TMC2    C2 2190   3.509   1.078  14.232  0.5267 -0.3548 -0.5290
  141TMC2    C3 2191   3.587   1.095  14.344 -0.5777  0.8384  0.4891
  141TMC2    C4 2192   3.406   1.288  14.286  0.6628  0.7782  0.3269
  141TMC2    C5 2193   3.472   1.284  14.405 -0.0555 -0.7659  0.3474
  141TMC2    C6 2194   3.569   1.197  14.435  0.1419 -0.1200 -0.9162
  141TMC2     C 2195   3.358   1.180  14.071 -0.4509 -0.0153  0.0416
  141TMC2     O 2196   3.335   1.072  14.015  0.2569 -0.2831 -0.5428
  141TMC2     H 2197   3.542   1.002  14.161  1.1281  1.2568 -1.9726
  141TMC2    H1 2198   3.331   1.364  14.268  0.8286  0.6321 -0.9463
  141TMC2    H2 2199   3.625   1.192  14.528 -0.1090 -1.2897 -0.8254
  141TMC2    C7 2200   3.470   1.413  14.476 -0.1194  0.4182  0.6030
  141TMC2    C8 2201   3.687   0.991  14.376 -0.2245  0.4904  0.5635
  141TMC2    O1 2202   3.382   1.493  14.456 -0.2730 -0.0510 -0.0674
  141TMC2    O2 2203   3.780   1.016  14.449 -0.2541  0.1395  0.2746
  141TMC2    O5 2204   3.618   0.874  14.360 -0.4924  0.7514 -0.1772
  141TMC2    H5 2205   3.540   0.891  14.304 -2.7594 -2.7527  1.9564
  142TMC2    C1 2206   1.201   3.998  10.240  0.3555  0.2700  0.0383
  142TMC2    C2 2207   1.276   3.950  10.142 -0.0879 -0.7035  0.0586
  142TMC2    C3 2208   1.372   4.035  10.087 -0.0071 -0.1169 -0.0406
  142TMC2    C4 2209   1.191   4.137  10.256  0.2319 -0.1820 -0.7944
  142TMC2    C5 2210   1.271   4.221  10.184 -0.6463 -0.1645 -0.6591
  142TMC2    C6 2211   1.368   4.165  10.108  0.1393  0.4060 -0.6656
  142TMC2     C 2212   1.077   3.920  10.267 -0.4141 -0.6936 -0.1217
  142TMC2     O 2213   1.060   3.817  10.206  0.9276  0.1508  0.2854
  142TMC2     H 2214   1.290   3.844  10.126  0.1088 -0.4284 -1.6593
  142TMC2    H1 2215   1.111   4.182  10.314  2.7265  2.3361  0.7318
  142TMC2    H2 2216   1.448   4.226  10.068  0.1102  0.0016 -1.3383
  142TMC2    C7 2217   1.258   4.365  10.216  0.0123  0.6454 -0.0791
  142TMC2    C8 2218   1.464   3.990   9.985  0.1432  0.3812 -0.1923
  142TMC2    O1 2219   1.183   4.407  10.303 -0.0971  0.3295  0.1684
  142TMC2    O2 2220   1.561   4.051   9.947  0.4209 -0.0291  0.4527
  142TMC2    O5 2221   1.388   3.911   9.899 -0.0569  0.0644  0.2489
  142TMC2    H5 2222   1.292   3.907   9.918  0.0306 -1.1285  0.4426
  143MPD2     C 2223   0.667   3.803  10.563 -0.1174  0.2658  0.6757
  143MPD2    C1 2224   0.695   3.769  10.431  0.4234  0.0046 -1.1560
  143MPD2    C2 2225   0.809   3.832  10.373  0.2348  1.1937 -0.3891
  143MPD2    C3 2226   0.896   3.916  10.443  1.0337  0.0787 -0.7445
  143MPD2    C4 2227   0.863   3.942  10.573  0.0015  0.4392 -0.9165
  143MPD2    C5 2228   0.755   3.880  10.630  0.0686  0.0398 -0.7496
  143MPD2     H 2229   0.832   3.808  10.270 -0.6443  1.6182 -0.6828
  143MPD2    H1 2230   0.926   4.001  10.638  1.3223 -2.6599  0.6348
  143MPD2    H2 2231   0.582   3.761  10.616 -2.2330  2.1636 -1.2132
  143MPD2    H3 2232   0.731   3.894  10.735  0.9578 -1.0672 -0.3999
  143MPD2     N 2233   1.014   3.962  10.383  0.3815 -0.1714  0.8459
  143MPD2    H5 2234   1.066   4.027  10.441  1.8136  0.7074 -1.4637
  143MPD2    N1 2235   0.601   3.697  10.358  0.1240  0.7072  0.4467
  143MPD2    H7 2236   0.532   3.642  10.409  1.4341 -2.7171 -1.4865
  144TMC2    C1 2237   3.528   2.766   0.666  0.5283  0.0672  0.0208
  144TMC2    C2 2238   3.550   2.675   0.562 -0.0699 -0.2399  0.0025
  144TMC2    C3 2239   3.641   2.579   0.591 -0.2296  0.5029  0.6266
  144TMC2    C4 2240   3.603   2.771   0.782 -0.8175 -0.1463 -0.0333
  144TMC2    C5 2241   3.692   2.675   0.797  0.2388 -1.2169  0.1628
  144TMC2    C6 2242   3.711   2.574   0.713  0.1174  0.1011  0.4792
  144TMC2     C 2243   3.432   2.871   0.630  0.1836 -0.4683 -0.3308
  144TMC2     O 2244   3.419   2.894   0.509  0.3671  0.2111  0.0390
  144TMC2     H 2245   3.489   2.681   0.472  2.0102  3.2501 -1.1747
  144TMC2    H1 2246   3.586   2.847   0.858  1.8488  0.2548  0.1533
  144TMC2    H2 2247   3.783   2.496   0.733  0.3676  0.5345  1.2680
  144TMC2    C7 2248   3.760   2.674   0.927 -0.1763 -0.4877 -0.6647
  144TMC2    C8 2249   3.671   2.492   0.481  0.8434 -0.3205 -0.2020
  144TMC2    O1 2250   3.778   2.560   0.975  0.5125 -0.0683 -0.0493
  144TMC2    O2 2251   3.599   2.495   0.381 -0.4014  0.3522  0.0103
  144TMC2    O5 2252   3.808   2.497   0.479 -0.5405  0.0417 -0.9305
  144TMC2    H5 2253   3.855   2.530   0.558 -0.6827 -0.1210 -0.7793
  145MPD2     C 2254   3.206   3.323   0.710  0.3706 -0.6102  0.5570
  145MPD2    C1 2255   3.182   3.235   0.604 -0.1809  0.1160  0.3440
  145MPD2    C2 2256   3.247   3.116   0.616  0.1682 -1.0139 -0.0737
  145MPD2    C3 2257   3.323   3.071   0.725  0.2701  0.2422  0.1412
  145MPD2    C4 2258   3.338   3.163   0.823  0.2198  0.1945  0.4719
  145MPD2    C5 2259   3.281   3.287   0.809 -0.8026 -0.3221 -0.2963
  145MPD2     H 2260   3.237   3.051   0.530 -0.4340 -0.5501 -0.3532
  145MPD2    H1 2261   3.388   3.130   0.913  1.7568 -0.5678 -0.6624
  145MPD2    H2 2262   3.163   3.422   0.723 -0.4140 -0.9102  0.2651
  145MPD2    H3 2263   3.278   3.359   0.890  2.1550  2.0583 -2.3526
  145MPD2     N 2264   3.399   2.954   0.736 -0.2385 -0.6182  0.6107
  145MPD2    H5 2265   3.440   2.934   0.827  0.0826  0.3228  0.6764
  145MPD2    N1 2266   3.104   3.264   0.493 -0.7861  0.1284 -0.0694
  145MPD2    H7 2267   3.079   3.187   0.433  2.4252 -1.3693  0.5315
  146TMC2    C1 2268   1.165   1.787  12.206  0.2264 -0.3660 -0.8383
  146TMC2    C2 2269   1.153   1.927  12.211 -0.6476 -0.9499  0.4245
  146TMC2    C3 2270   1.266   1.998  12.174  0.1228  0.7171 -0.1519
  146TMC2    C4 2271   1.279   1.727  12.159 -0.0166 -0.4809 -0.3098
  146TMC2    C5 2272   1.386   1.800  12.119  0.5604  0.3579  0.1731
  146TMC2    C6 2273   1.381   1.935  12.138 -0.0645 -0.3803  0.0926
  146TMC2     C 2274   1.080   1.708  12.288  0.6457 -0.0872 -0.2471
  146TMC2     O 2275   1.131   1.608  12.329 -0.0611 -0.6757 -0.0152
  146TMC2     H 2276   1.072   1.970  12.269  2.1369  5.1437 -0.1969
  146TMC2    H1 2277   1.280   1.619  12.153 -0.8761 -0.5112 -0.0161
  146TMC2    H2 2278   1.464   1.992  12.097 -2.3781  1.2436 -2.3260
  146TMC2    C7 2279   1.513   1.742  12.126  0.6811  1.3108  0.3888
  146TMC2    C8 2280   1.269   2.132  12.231  0.0267  0.0558 -0.5840
  146TMC2    O1 2281   1.608   1.794  12.067  0.2081  0.4569 -0.2763
  146TMC2    O2 2282   1.232   2.151  12.348 -0.2092 -0.0720 -0.0223
  146TMC2    O5 2283   1.364   2.205  12.169 -0.5116 -0.0473 -0.3808
  146TMC2    H5 2284   1.382   2.173  12.078  4.2124 -0.6718  0.7548
  147MPD2     C 2285   1.792   1.348  12.303 -0.4322  0.2791  0.2807
  147MPD2    C1 2286   1.678   1.351  12.380  0.3059 -0.8133 -0.4192
  147MPD2    C2 2287   1.595   1.458  12.361 -0.3864  0.3954  0.1057
  147MPD2    C3 2288   1.616   1.547  12.254 -0.2098  0.3715  0.1716
  147MPD2    C4 2289   1.730   1.537  12.181  0.5728 -0.4853 -0.0424
  147MPD2    C5 2290   1.823   1.439  12.209  0.2526 -0.2044 -0.2914
  147MPD2     H 2291   1.505   1.484  12.416 -0.6084  1.9073 -0.9675
  147MPD2    H1 2292   1.757   1.618  12.115  0.9510 -2.2035 -1.9745
  147MPD2    H2 2293   1.877   1.282  12.313  2.2929  4.2010  2.8942
  147MPD2    H3 2294   1.915   1.435  12.152 -0.0904  1.4726 -0.9652
  147MPD2     N 2295   1.512   1.646  12.225 -0.6334 -0.0256  0.6088
  147MPD2    H5 2296   1.428   1.641  12.282  0.0269  0.0375  1.5922
  147MPD2    N1 2297   1.664   1.260  12.491  0.9265 -0.1773 -0.5286
  147MPD2    H7 2298   1.741   1.198  12.514  0.4230 -1.0868 -1.2903
  148TMC2    C1 2299   0.207   0.611  10.757 -0.0190  0.5740 -0.7078
  148TMC2    C2 2300   0.275   0.664  10.858  0.4831  0.2665 -0.0455
  148TMC2    C3 2301   0.327   0.575  10.949 -0.0197 -0.1901 -1.1778
  148TMC2    C4 2302   0.182   0.478  10.739 -0.1373  0.7565  0.4144
  148TMC2    C5 2303   0.242   0.393  10.831  0.2915  0.0877 -0.4685
  148TMC2    C6 2304   0.318   0.441  10.933  0.3363  0.6151 -0.4587
  148TMC2     C 2305   0.170   0.698  10.647 -0.5380 -0.1905  0.1805
  148TMC2     O 2306   0.148   0.819  10.665  0.2092 -0.0895 -0.1127
  148TMC2     H 2307   0.280   0.771  10.873 -0.7894  0.3643 -0.3361
  148TMC2    H1 2308   0.117   0.436  10.663 -2.6284 -0.1975  3.0705
  148TMC2    H2 2309   0.368   0.378  11.006 -2.6348 -0.8297  0.3199
  148TMC2    C7 2310   0.239   0.248  10.804  0.4009  0.4479  0.6628
  148TMC2    C8 2311   0.435   0.619  11.032 -0.1661  0.1480  0.1273
  148TMC2    O1 2312   0.229   0.221  10.687  0.0464  0.6547  0.5428
  148TMC2    O2 2313   0.539   0.561  11.016  0.0704  0.4573 -0.6220
  148TMC2    O5 2314   0.414   0.754  11.053 -0.4841 -0.9873 -0.0094
  148TMC2    H5 2315   0.320   0.768  11.077  0.7265  1.3855  3.3576
  149MPD2     C 2316   0.058   0.808  10.390 -0.4701 -0.2089  0.0116
  149MPD2    C1 2317   0.128   0.686  10.403 -0.0935  0.2990 -0.4663
  149MPD2    C2 2318   0.132   0.600  10.295  0.5376  0.2997 -0.1099
  149MPD2    C3 2319   0.049   0.615  10.187  0.2083 -1.2565  0.1220
  149MPD2    C4 2320   4.717   0.731  10.183 -0.3409  0.0149  0.1366
  149MPD2    C5 2321   4.729   0.827  10.275 -0.0356 -0.2120  0.3846
  149MPD2     H 2322   0.189   0.508  10.302 -0.5375 -0.3732 -0.2142
  149MPD2    H1 2323   4.657   0.741  10.094  1.5774  2.8950 -0.8226
  149MPD2    H2 2324   0.062   0.886  10.464 -0.9547 -0.0690 -0.1133
  149MPD2    H3 2325   4.683   0.924  10.256  0.6394  0.3377  1.5377
  149MPD2     N 2326   0.019   0.508  10.093  0.4695 -0.4357  0.4635
  149MPD2    H5 2327   4.687   0.521  10.022  0.6754 -0.5438  0.2398
  149MPD2    N1 2328   0.174   0.636  10.524  0.2977 -0.6727 -0.7207
  149MPD2    H7 2329   0.212   0.542  10.517 -0.3088 -0.9383 -0.3744
  150TMC2    C1 2330   1.963   0.002  12.220  0.7299  0.2682  0.3072
  150TMC2    C2 2331   1.920   0.127  12.184  0.6450  0.2947 -0.0430
  150TMC2    C3 2332   1.987   0.189  12.086 -0.5023 -0.1503 -0.2443
  150TMC2    C4 2333   2.075   4.681  12.180 -0.3830 -0.0822  0.0939
  150TMC2    C5 2334   2.147   0.007  12.085 -0.1611 -0.6062  0.2987
  150TMC2    C6 2335   2.101   0.130  12.037 -0.2135 -0.1854  0.4890
  150TMC2     C 2336   1.871   4.653  12.287  0.0600 -0.2016  0.2649
  150TMC2     O 2337   1.908   4.544  12.325 -0.0585  0.3462 -0.0328
  150TMC2     H 2338   1.835   0.177  12.228  0.1893 -1.5574  1.2218
  150TMC2    H1 2339   2.105   4.583  12.215  3.7426  1.7340  1.6289
  150TMC2    H2 2340   2.161   0.168  11.954  2.1169  0.9143  2.6569
  150TMC2    C7 2341   2.272   4.688  12.029  1.1251 -0.0142  0.0328
  150TMC2    C8 2342   2.000   0.329  12.094 -0.5663  0.6783 -0.1805
  150TMC2    O1 2343   2.316   0.010  11.930  0.3547 -0.2478  0.5119
  150TMC2    O2 2344   2.107   0.387  12.077  0.5745 -0.3475 -0.7716
  150TMC2    O5 2345   1.878   0.381  12.073  0.0865  0.0927  0.1800
  150TMC2    H5 2346   1.804   0.318  12.062  0.2713 -0.5965  2.7664
  151MPD2     C 2347   1.401   4.443  12.258  0.3048 -0.0202 -0.2144
  151MPD2    C1 2348   1.398   4.575  12.209  0.1469 -0.0029 -0.0077
  151MPD2    C2 2349   1.520   4.641  12.204  0.4758  0.6342 -0.4377
  151MPD2    C3 2350   1.627   4.598  12.277  0.7084 -0.2676 -0.5848
  151MPD2    C4 2351   1.629   4.464  12.330  0.0980 -0.0741 -0.3628
  151MPD2    C5 2352   1.518   4.393  12.313 -0.5923 -1.1462 -0.6004
  151MPD2     H 2353   1.528   4.735  12.150  1.2630 -0.5047 -2.3139
  151MPD2    H1 2354   1.718   4.433  12.385  0.3129 -1.3583 -1.4454
  151MPD2    H2 2355   1.315   4.379  12.246  2.5756 -2.9984 -0.5704
  151MPD2    H3 2356   1.511   4.292  12.354 -1.1332 -0.5367  0.8020
  151MPD2     N 2357   1.740   4.689  12.266  0.5659  0.2728  1.0002
  151MPD2    H5 2358   1.726   0.039  12.219 -1.4040  0.1142  1.2737
  151MPD2    N1 2359   1.283   4.631  12.146 -0.4604 -0.0501  1.1833
  151MPD2    H7 2360   1.222   4.559  12.107 -0.2833  0.3216  0.2224
  152TMC2    C1 2361   1.988   4.156  12.771 -0.1136 -0.2822 -0.9826
  152TMC2    C2 2362   2.007   4.054  12.852  0.3556  0.4332  0.5837
  152TMC2    C3 2363   2.134   4.037  12.902 -0.1122 -0.4680  0.1947
  152TMC2    C4 2364   2.092   4.232  12.719 -0.5544 -0.3590  0.9300
  152TMC2    C5 2365   2.218   4.209  12.771 -0.5329  0.5694  0.7583
  152TMC2    C6 2366   2.234   4.117  12.869  0.1429 -0.7388  0.4417
  152TMC2     C 2367   1.860   4.193  12.715  0.0178  0.0416  0.5943
  152TMC2     O 2368   1.851   4.299  12.655  0.2224  0.7060 -0.1770
  152TMC2     H 2369   1.930   3.978  12.865  1.3883 -1.1404 -2.6138
  152TMC2    H1 2370   2.069   4.308  12.644  0.5851 -0.7168  0.2172
  152TMC2    H2 2371   2.326   4.109  12.925 -0.2466 -0.2516  1.1528
  152TMC2    C7 2372   2.273   4.339  12.802  0.5734  0.3002  0.1219
  152TMC2    C8 2373   2.146   3.919  12.987 -0.5861 -0.0789  0.4740
  152TMC2    O1 2374   2.189   4.430  12.812  0.5082 -0.1241  0.0192
  152TMC2    O2 2375   2.042   3.868  13.029  0.3232  0.1428 -0.1789
  152TMC2    O5 2376   2.238   3.846  12.929 -0.1721  0.0749 -0.4195
  152TMC2    H5 2377   2.298   3.891  12.866  0.1474  0.4727  0.1694
  153MPD2     C 2378   1.544   3.996  12.689 -0.8877  0.1574 -0.4782
  153MPD2    C1 2379   1.619   4.110  12.701 -0.2652 -0.0429  0.3032
  153MPD2    C2 2380   1.566   4.234  12.667 -0.3058 -0.1152 -0.2906
  153MPD2    C3 2381   1.428   4.252  12.621 -0.2123 -0.0501 -0.1541
  153MPD2    C4 2382   1.358   4.137  12.596  1.3015  0.1883 -0.0176
  153MPD2    C5 2383   1.415   4.021  12.634 -0.3513  0.4475 -0.2720
  153MPD2     H 2384   1.629   4.321  12.684 -0.3170 -0.2250  0.3060
  153MPD2    H1 2385   1.258   4.134  12.554  0.4751 -0.2244  1.9784
  153MPD2    H2 2386   1.572   3.895  12.716  0.0023  0.3994 -0.4875
  153MPD2    H3 2387   1.361   3.929  12.614 -0.6411  0.5786 -0.0933
  153MPD2     N 2388   1.374   4.382  12.596 -0.0399 -0.2055  0.1682
  153MPD2    H5 2389   1.439   4.459  12.585 -1.2367  0.7338 -0.2641
  153MPD2    N1 2390   1.758   4.095  12.732  0.6281 -0.0875  0.0036
  153MPD2    H7 2391   1.792   4.010  12.776  2.0507  0.7319  0.4651
  154TMC2    C1 2392   3.511   3.422   0.576 -0.4020  0.4062  0.4298
  154TMC2    C2 2393   3.569   3.374   0.691 -0.0057 -0.1342  0.7491
  154TMC2    C3 2394   3.616   3.243   0.686  0.1150  0.4438 -0.2869
  154TMC2    C4 2395   3.501   3.350   0.463  0.3580 -0.4922 -0.5916
  154TMC2    C5 2396   3.542   3.220   0.466 -0.3152  0.7706  0.5753
  154TMC2    C6 2397   3.618   3.169   0.573  0.1435  0.3605  0.5669
  154TMC2     C 2398   3.443   3.548   0.576  0.3006  0.0285  0.0924
  154TMC2     O 2399   3.462   3.622   0.672 -0.2536  0.0858 -0.1725
  154TMC2     H 2400   3.575   3.444   0.773 -0.5719  1.4119 -0.5207
  154TMC2    H1 2401   3.456   3.396   0.375 -1.2898 -0.2462  0.3775
  154TMC2    H2 2402   3.667   3.073   0.572 -0.0407  0.2869 -0.8453
  154TMC2    C7 2403   3.588   3.168   0.338 -0.1274 -0.3651 -0.4620
  154TMC2    C8 2404   3.685   3.180   0.796  0.4930 -0.1051  0.1679
  154TMC2    O1 2405   3.623   3.252   0.255  0.8237 -0.1780  0.1515
  154TMC2    O2 2406   3.728   3.067   0.799  0.0504 -0.2390  0.4114
  154TMC2    O5 2407   3.698   3.280   0.889  0.2211 -0.5316  0.1101
  154TMC2    H5 2408   3.757   3.257   0.964  0.6427  4.3029  1.2691
  155MPD2     C 2409   3.203   3.683   0.318  0.1485 -0.0511  0.1163
  155MPD2    C1 2410   3.300   3.689   0.422  0.7836 -0.2032  0.6148
  155MPD2    C2 2411   3.357   3.811   0.458  0.1349  0.8850 -0.4757
  155MPD2    C3 2412   3.309   3.929   0.391 -0.1936 -0.3041  0.1947
  155MPD2    C4 2413   3.220   3.918   0.285  0.2139  0.3691 -0.6611
  155MPD2    C5 2414   3.173   3.798   0.253  0.2074  0.1217 -0.3082
  155MPD2     H 2415   3.443   3.819   0.522 -0.1313 -0.7135  0.0817
  155MPD2    H1 2416   3.188   4.002   0.225  3.1675  0.4569 -2.0836
  155MPD2    H2 2417   3.167   3.587   0.283 -2.9715  1.6974 -1.4530
  155MPD2    H3 2418   3.107   3.788   0.168 -1.4860 -0.0486  1.0104
  155MPD2     N 2419   3.369   4.057   0.419 -0.0282  1.2007 -0.3650
  155MPD2    H5 2420   3.459   4.057   0.467 -0.2956  0.1957  0.1393
  155MPD2    N1 2421   3.352   3.566   0.470  1.1411 -0.6003 -0.1200
  155MPD2    H7 2422   3.329   3.483   0.416  1.2040  0.0009 -1.0745
  156TMC2    C1 2423   1.671   2.205  11.225  0.0416  0.2241  0.1865
  156TMC2    C2 2424   1.595   2.135  11.137  1.1433 -0.4099 -0.4220
  156TMC2    C3 2425   1.502   2.210  11.067 -0.4604 -0.5916 -0.0362
  156TMC2    C4 2426   1.663   2.340  11.235  0.3400  0.8321 -0.1665
  156TMC2    C5 2427   1.584   2.405  11.150 -0.5009 -0.2333  1.0383
  156TMC2    C6 2428   1.493   2.347  11.075 -0.0487  0.1595  0.3285
  156TMC2     C 2429   1.807   2.172  11.211  0.4072  0.5472 -0.0330
  156TMC2     O 2430   1.877   2.260  11.166 -0.1323  0.2532  0.1965
  156TMC2     H 2431   1.598   2.027  11.128 -3.8391 -0.4379 -1.7199
  156TMC2    H1 2432   1.744   2.392  11.284  2.0349 -1.4192 -0.5828
  156TMC2    H2 2433   1.424   2.395  11.006  1.6907  1.4416 -0.5076
  156TMC2    C7 2434   1.577   2.550  11.157 -0.2552 -0.0068  0.5118
  156TMC2    C8 2435   1.423   2.142  10.966  0.3315 -0.6608  0.4110
  156TMC2    O1 2436   1.665   2.617  11.105 -0.1805  0.8202 -0.3341
  156TMC2    O2 2437   1.309   2.186  10.940 -0.4131  0.2518 -0.1216
  156TMC2    O5 2438   1.512   2.129  10.863  0.0305 -0.9517  0.0089
  156TMC2    H5 2439   1.593   2.088  10.901 -0.3378 -0.3398  1.4697
  157MPD2     C 2440   1.983   1.883  11.348 -0.6543  0.0703  0.0061
  157MPD2    C1 2441   1.962   2.015  11.324 -0.4919  0.4888 -0.4998
  157MPD2    C2 2442   2.058   2.111  11.351  0.0571  0.1488 -0.1459
  157MPD2    C3 2443   2.186   2.069  11.377  0.8850 -0.9076 -0.3635
  157MPD2    C4 2444   2.211   1.938  11.398 -0.0105  0.1159 -0.4486
  157MPD2    C5 2445   2.113   1.842  11.393 -0.5246 -0.1364  0.3361
  157MPD2     H 2446   2.033   2.216  11.351  0.1221  0.1622  0.7146
  157MPD2    H1 2447   2.309   1.892  11.405 -0.1028 -0.1063 -0.6212
  157MPD2    H2 2448   1.898   1.816  11.336  2.5268 -4.1972  1.5324
  157MPD2    H3 2449   2.138   1.738  11.411 -1.1182 -0.2733  0.3503
  157MPD2     N 2450   2.280   2.173  11.395 -0.1305 -0.0929 -0.5346
  157MPD2    H5 2451   2.242   2.266  11.379 -3.0024 -1.1238  0.3004
  157MPD2    N1 2452   1.837   2.057  11.280 -0.4772  0.9606 -0.5684
  157MPD2    H7 2453   1.755   1.998  11.293  2.9004 -3.6372 -0.1364
  158TMC2    C1 2454   2.323   1.263  13.089  0.0451 -0.1592 -0.1686
  158TMC2    C2 2455   2.292   1.367  13.001  0.0203  0.1293  0.5226
  158TMC2    C3 2456   2.213   1.329  12.901  0.2224  0.1712  0.3998
  158TMC2    C4 2457   2.296   1.134  13.076 -0.6242 -0.3063  0.6152
  158TMC2    C5 2458   2.235   1.103  12.959 -0.3936  0.0149 -0.2877
  158TMC2    C6 2459   2.183   1.202  12.879  0.0802  0.8658 -0.3157
  158TMC2     C 2460   2.407   1.308  13.196  0.2414 -0.2510  0.2701
  158TMC2     O 2461   2.437   1.429  13.201  0.0135 -0.2960  0.5514
  158TMC2     H 2462   2.315   1.473  13.010 -1.1576  0.2580  1.9929
  158TMC2    H1 2463   2.328   1.048  13.135  0.3522 -1.5154 -1.6930
  158TMC2    H2 2464   2.124   1.187  12.790  3.7041  2.2187 -2.9347
  158TMC2    C7 2465   2.195   0.968  12.918 -0.5275  0.2841  0.0290
  158TMC2    C8 2466   2.132   1.431  12.824 -0.5057 -0.3364  0.4220
  158TMC2    O1 2467   2.145   0.962  12.807  0.1376  0.2608  0.2352
  158TMC2    O2 2468   2.160   1.549  12.825 -0.3080 -0.0754 -0.5135
  158TMC2    O5 2469   2.008   1.383  12.816  0.0515  0.2566 -0.8867
  158TMC2    H5 2470   2.010   1.286  12.831 -0.1794  0.1743 -1.3742
  159MPD2     C 2471   2.701   1.231  13.603  0.4040 -0.2559 -0.1359
  159MPD2    C1 2472   2.632   1.117  13.573 -0.4191 -0.0987 -0.1951
  159MPD2    C2 2473   2.548   1.113  13.468  0.3543  0.7146  0.5508
  159MPD2    C3 2474   2.525   1.227  13.400  0.2781  0.2936 -0.5846
  159MPD2    C4 2475   2.603   1.335  13.428 -0.6858  0.1920  0.6263
  159MPD2    C5 2476   2.687   1.338  13.529 -0.2096  0.1535  0.3000
  159MPD2     H 2477   2.492   1.025  13.437 -0.8079  2.0158 -1.0596
  159MPD2    H1 2478   2.609   1.423  13.365  1.9305 -0.3574  0.0959
  159MPD2    H2 2479   2.768   1.233  13.688 -0.5240 -0.2613  0.5881
  159MPD2    H3 2480   2.745   1.429  13.543 -1.5358  1.2328 -1.1117
  159MPD2     N 2481   2.438   1.219  13.294 -1.1255 -0.1819  0.6840
  159MPD2    H5 2482   2.377   1.138  13.289 -1.2072 -0.0407 -0.4728
  159MPD2    N1 2483   2.651   1.004  13.654 -0.2390 -0.4568  0.4641
  159MPD2    H7 2484   2.726   1.005  13.722 -0.2427  0.8279  0.4523
  160TMC2    C1 2485   2.855   3.577   1.433  1.1299 -0.0694 -0.1363
  160TMC2    C2 2486   2.953   3.526   1.522 -0.0013 -0.0771 -0.3494
  160TMC2    C3 2487   3.066   3.595   1.516  0.1898  0.6806  0.2487
  160TMC2    C4 2488   2.876   3.682   1.341  0.3140  0.2680  0.2447
  160TMC2    C5 2489   2.994   3.751   1.355  0.7388 -0.4440  0.3433
  160TMC2    C6 2490   3.093   3.707   1.443 -0.6338  0.4105 -0.7329
  160TMC2     C 2491   2.730   3.498   1.415  0.3196 -0.1495 -0.4142
  160TMC2     O 2492   2.735   3.380   1.444  0.1352  0.0627 -0.2970
  160TMC2     H 2493   2.940   3.442   1.589 -1.5750  0.9047  0.5513
  160TMC2    H1 2494   2.805   3.729   1.274  0.4619 -1.2381 -0.9900
  160TMC2    H2 2495   3.189   3.758   1.447  0.0942 -1.2269  1.9077
  160TMC2    C7 2496   2.991   3.889   1.317  0.1805  0.3629  0.4512
  160TMC2    C8 2497   3.160   3.561   1.618  0.5033  0.2449  0.6474
  160TMC2    O1 2498   2.885   3.948   1.350  0.1381 -0.1453  0.1210
  160TMC2    O2 2499   3.276   3.583   1.602  0.2686  0.1092 -0.1023
  160TMC2    O5 2500   3.088   3.576   1.734 -0.2275 -0.0076 -0.1036
  160TMC2    H5 2501   2.992   3.583   1.717 -0.2281  1.3807  0.4589
  161MPD2     C 2502   2.460   3.411   1.330 -0.0922 -0.1581 -0.1103
  161MPD2    C1 2503   2.507   3.538   1.319  0.0245  0.5232  0.3333
  161MPD2    C2 2504   2.430   3.630   1.244 -0.2639 -0.0842  0.5854
  161MPD2    C3 2505   2.313   3.588   1.183  0.3907 -0.0617  0.2904
  161MPD2    C4 2506   2.274   3.457   1.191  0.0321 -0.0302  0.1862
  161MPD2    C5 2507   2.351   3.374   1.262  0.3054 -0.2349 -0.0646
  161MPD2     H 2508   2.469   3.730   1.226  0.0014 -0.8962 -3.4966
  161MPD2    H1 2509   2.188   3.414   1.142  0.1008  0.1649 -0.1060
  161MPD2    H2 2510   2.516   3.332   1.380  0.1408  0.1675  0.1426
  161MPD2    H3 2511   2.316   3.272   1.267  1.4165 -0.6134 -0.0649
  161MPD2     N 2512   2.230   3.673   1.105  0.3699  0.2499 -0.1008
  161MPD2    H5 2513   2.143   3.635   1.069  1.2735 -2.1120  0.2308
  161MPD2    N1 2514   2.628   3.577   1.371  0.5973 -0.1112  0.2718
  161MPD2    H7 2515   2.649   3.676   1.369 -0.4409  0.0762 -0.8530
  162TMC2    C1 2516   0.474   0.586   1.253 -0.0457 -0.4575 -0.8524
  162TMC2    C2 2517   0.367   0.624   1.345  0.0636  0.2508 -0.2380
  162TMC2    C3 2518   0.385   0.606   1.479  0.3312 -0.7587 -0.1057
  162TMC2    C4 2519   0.596   0.555   1.307  0.1616 -0.3470 -0.0641
  162TMC2    C5 2520   0.612   0.544   1.443  0.6643  0.6904  0.5638
  162TMC2    C6 2521   0.507   0.567   1.525  0.3763 -0.4477  0.0753
  162TMC2     C 2522   0.448   0.559   1.114  0.0362 -0.4357 -0.0569
  162TMC2     O 2523   0.535   0.591   1.037 -0.2599 -0.4699  0.1842
  162TMC2     H 2524   0.269   0.641   1.300  0.0141 -0.2878 -0.3302
  162TMC2    H1 2525   0.670   0.516   1.238 -1.5911 -4.2896  0.2593
  162TMC2    H2 2526   0.516   0.557   1.632 -1.1120  0.9887  0.3441
  162TMC2    C7 2527   0.738   0.525   1.505 -0.4090  0.0774 -0.6479
  162TMC2    C8 2528   0.312   0.684   1.578  0.2601 -0.3920 -0.3790
  162TMC2    O1 2529   0.753   0.600   1.601 -0.8407 -0.0854 -0.8877
  162TMC2    O2 2530   0.378   0.759   1.651  0.1373 -0.1913 -0.1877
  162TMC2    O5 2531   0.191   0.714   1.533 -0.6364  0.2534 -0.3138
  162TMC2    H5 2532   0.149   0.633   1.497 -1.7159 -0.4216  2.4444
  163MPD2     C 2533   0.149   0.477   0.710 -0.7139  0.7944 -0.1533
  163MPD2    C1 2534   0.285   0.482   0.725 -0.1338 -0.3739 -0.0532
  163MPD2    C2 2535   0.343   0.498   0.844  0.7124 -0.5247  0.3816
  163MPD2    C3 2536   0.266   0.499   0.949 -0.0026 -0.4987 -0.5787
  163MPD2    C4 2537   0.128   0.488   0.941 -0.3466  0.3839  0.3820
  163MPD2    C5 2538   0.074   0.477   0.823  0.0992 -0.4979  0.7411
  163MPD2     H 2539   0.450   0.516   0.849  1.0785 -2.9556  1.5627
  163MPD2    H1 2540   0.067   0.490   1.031 -1.3766 -2.6970 -0.2445
  163MPD2    H2 2541   0.113   0.453   0.610 -2.0833  0.9474  0.3090
  163MPD2    H3 2542   4.706   0.472   0.808  0.0650  1.0078  0.5192
  163MPD2     N 2543   0.314   0.527   1.080  0.0895 -0.0623  0.0253
  163MPD2    H5 2544   0.250   0.512   1.157 -0.3611  0.2598 -0.2843
  163MPD2    N1 2545   0.356   0.480   0.597 -0.2955 -0.2029  0.3894
  163MPD2    H7 2546   0.302   0.466   0.513 -1.2382 -0.4429  1.0444
  164TMC2    C1 2547   0.819   0.052  11.103  0.1736  0.4671  0.1098
  164TMC2    C2 2548   0.922   0.138  11.072  0.5153 -0.0687  0.8860
  164TMC2    C3 2549   0.897   0.278  11.090  0.4987 -0.1840 -0.0637
  164TMC2    C4 2550   0.695   0.093  11.142  0.1801 -0.2024 -0.5436
  164TMC2    C5 2551   0.676   0.231  11.160 -0.7051  0.2366 -0.4072
  164TMC2    C6 2552   0.777   0.318  11.139 -0.3755 -0.4346  0.0885
  164TMC2     C 2553   0.830   4.648  11.075  0.1889 -0.3672 -0.4370
  164TMC2     O 2554   0.736   4.579  11.111 -0.3745 -0.2847 -0.2623
  164TMC2     H 2555   1.015   0.116  11.020 -0.8569  0.7237 -1.9368
  164TMC2    H1 2556   0.610   0.029  11.159  1.6578 -1.8375  0.7046
  164TMC2    H2 2557   0.762   0.425  11.136  0.0773 -0.3321  1.3445
  164TMC2    C7 2558   0.545   0.281  11.206  0.1665 -0.4962  0.0242
  164TMC2    C8 2559   0.994   0.376  11.056  0.3028 -0.1510 -0.1283
  164TMC2    O1 2560   0.456   0.210  11.167 -0.5504 -0.9991  0.1755
  164TMC2    O2 2561   0.960   0.470  10.983  0.2545 -0.5823 -0.0497
  164TMC2    O5 2562   1.114   0.357  11.123  0.4414 -0.2304  0.1659
  164TMC2    H5 2563   1.119   0.272  11.171 -1.8416  1.0762  2.7204
  165TMC2    C1 2564   2.018   2.503   0.569 -0.0727  0.3463 -1.0009
  165TMC2    C2 2565   1.992   2.449   0.443 -0.1753 -0.4323  0.5001
  165TMC2    C3 2566   2.100   2.404   0.368 -0.2907  0.1943  0.0848
  165TMC2    C4 2567   2.146   2.519   0.616  0.0292  0.0899  0.3122
  165TMC2    C5 2568   2.246   2.478   0.532 -0.3361 -0.3353  0.1536
  165TMC2    C6 2569   2.232   2.417   0.411 -0.3260 -0.0898 -0.7637
  165TMC2     C 2570   1.908   2.552   0.644  0.2514  0.1023 -0.0297
  165TMC2     O 2571   1.914   2.559   0.767 -0.1810 -0.2246 -0.0787
  165TMC2     H 2572   1.894   2.424   0.405  0.2323  0.7870 -1.3637
  165TMC2    H1 2573   2.174   2.555   0.715  0.1570  1.3367 -0.1790
  165TMC2    H2 2574   2.310   2.373   0.350  0.3063 -0.7640  0.5332
  165TMC2    C7 2575   2.370   2.555   0.559 -0.0493 -0.3906  0.0316
  165TMC2    C8 2576   2.059   2.359   0.232  0.1737 -0.2208  0.5406
  165TMC2    O1 2577   2.377   2.612   0.675 -0.2469  0.4149  0.0184
  165TMC2    O2 2578   1.942   2.354   0.189  0.0475 -0.2385 -0.0738
  165TMC2    O5 2579   2.165   2.382   0.148 -0.2822 -0.8001 -0.2965
  165TMC2    H5 2580   2.242   2.410   0.201  0.2946 -0.1525 -1.4752
  166MPD2     C 2581   1.428   2.739   0.634 -0.6026  0.7923  0.4254
  166MPD2    C1 2582   1.496   2.703   0.747  0.9611 -0.0591 -0.9792
  166MPD2    C2 2583   1.624   2.666   0.728 -0.1879 -0.6873 -0.5478
  166MPD2    C3 2584   1.687   2.665   0.600  0.3863 -0.1033  1.0944
  166MPD2    C4 2585   1.611   2.698   0.490 -0.5364 -0.1098  0.7392
  166MPD2    C5 2586   1.479   2.736   0.506  0.1441  0.8891  0.3578
  166MPD2     H 2587   1.676   2.613   0.807  0.6244  2.2063  0.8243
  166MPD2    H1 2588   1.651   2.709   0.389  0.0222  1.8474  1.1905
  166MPD2    H2 2589   1.325   2.773   0.645 -0.9856 -0.1065 -0.3991
  166MPD2    H3 2590   1.427   2.782   0.422  1.2575 -0.8757 -1.3151
  166MPD2     N 2591   1.815   2.606   0.559  0.3936 -0.0637 -0.1533
  166MPD2    H5 2592   1.829   2.591   0.459 -1.1318 -2.0166 -0.0926
  166MPD2    N1 2593   1.429   2.704   0.873  0.2449 -0.5338  0.1538
  166MPD2    H7 2594   1.332   2.736   0.870  0.1258 -0.7868  1.3038
  167TMC2    C1 2595   0.309   0.086  12.402  0.6835 -0.6272 -0.7857
  167TMC2    C2 2596   0.224   0.128  12.492 -0.0959 -0.0514  0.1855
  167TMC2    C3 2597   0.139   0.037  12.548 -0.2005  1.0432 -0.2990
  167TMC2    C4 2598   0.317   4.694  12.362 -0.1880  0.4757 -0.1712
  167TMC2    C5 2599   0.232   4.607  12.422  0.3148 -0.3616 -0.1697
  167TMC2    C6 2600   0.141   4.642  12.519 -0.1559 -0.6513 -1.1546
  167TMC2     C 2601   0.405   0.170  12.336  0.0342  0.8475 -0.7785
  167TMC2     O 2602   0.510   0.118  12.302  0.6364  0.2319  0.5511
  167TMC2     H 2603   0.224   0.234  12.514 -1.6716  0.0323 -0.2086
  167TMC2    H1 2604   0.383   4.673  12.280 -1.6390 -2.7519 -0.5171
  167TMC2    H2 2605   0.077   4.569  12.567 -0.1435 -1.2297 -2.0149
  167TMC2    C7 2606   0.219   4.466  12.385 -0.8017 -0.7977  0.2170
  167TMC2    C8 2607   0.061   0.085  12.663  0.3384  1.0685  0.4160
  167TMC2    O1 2608   0.190   4.389  12.475  0.1197  0.4329 -0.3165
  167TMC2    O2 2609   0.098   0.169  12.748 -0.2610 -0.4329 -0.3461
  167TMC2    O5 2610   4.685   0.014  12.664 -0.2046 -0.1266  0.0654
  167TMC2    H5 2611   4.666   4.717  12.575  2.7899  0.3539 -0.7530
  168MPD2     C 2612   0.575   0.411  12.232 -0.0660 -0.3772 -0.7873
  168MPD2    C1 2613   0.438   0.404  12.265 -0.3412  0.1365  0.2390
  168MPD2    C2 2614   0.362   0.512  12.225 -0.3279 -0.0228  0.5254
  168MPD2    C3 2615   0.414   0.628  12.161 -0.3545  0.0562 -0.6328
  168MPD2    C4 2616   0.549   0.633  12.151  0.2416 -0.2146 -0.2005
  168MPD2    C5 2617   0.623   0.523  12.174 -0.7231 -0.1788  0.1940
  168MPD2     H 2618   0.256   0.512  12.244 -0.2511  1.5250  1.0313
  168MPD2    H1 2619   0.590   0.721  12.103 -3.7038  1.2847 -0.7961
  168MPD2    H2 2620   0.655   0.343  12.261 -1.7828 -1.3911  1.5026
  168MPD2    H3 2621   0.731   0.525  12.161 -0.6794  3.5478  1.0260
  168MPD2     N 2622   0.336   0.744  12.116 -0.3366  0.3517  0.1971
  168MPD2    H5 2623   0.383   0.829  12.087 -3.4854  2.4653  1.2777
  168MPD2    N1 2624   0.364   0.298  12.327 -0.1041  0.3269  0.3337
  168MPD2    H7 2625   0.268   0.324  12.351 -0.4536  0.7512 -1.5069
  169MPD1     C 2626   1.761   0.520   8.851 -0.4511 -0.7484 -0.1878
  169MPD1    C1 2627   1.712   0.458   8.963 -1.1405 -0.4298  0.4330
  169MPD1    C2 2628   1.795   0.367   9.032  0.4281  0.6374 -0.0734
  169MPD1    C3 2629   1.922   0.350   8.992  0.3353 -0.3110 -0.6959
  169MPD1    C4 2630   1.963   0.400   8.873 -1.0133 -0.1559 -0.3890
  169MPD1    C5 2631   1.884   0.480   8.797  1.1124 -0.0385 -0.8085
  169MPD1     H 2632   1.753   0.311   9.115  1.6970 -0.4725 -0.1742
  169MPD1    H1 2633   2.061   0.372   8.836 -0.1263  1.7560  0.5123
  169MPD1    H2 2634   1.715   0.587   8.778  0.4443  0.0983  0.0322
  169MPD1    H3 2635   1.920   0.511   8.699  0.1067  1.8915 -0.5685
  169MPD1     N 2636   1.998   0.263   9.072 -0.0673 -0.3034 -0.0443
  169MPD1    H5 2637   1.939   0.206   9.133 -0.9305  1.8993  1.1729
  169MPD1    N1 2638   1.579   0.470   9.004  0.3318  0.0076 -0.0286
  169MPD1    H6 2639   1.537   0.551   8.957 -0.6074  0.6656  1.9285
  169MPD1    H7 2640   1.580   0.477   9.106  2.0097  3.6103 -0.2760
  170MPD1     C 2641   1.510   2.529  12.724  0.4422 -0.1960  0.7883
  170MPD1    C1 2642   1.391   2.589  12.695 -0.4490  0.3143  0.0488
  170MPD1    C2 2643   1.324   2.640  12.804 -0.2262  0.3284  0.4641
  170MPD1    C3 2644   1.380   2.633  12.931 -0.2947  0.5621 -0.0084
  170MPD1    C4 2645   1.497   2.562  12.960 -0.1492 -0.4343  0.2507
  170MPD1    C5 2646   1.563   2.510  12.852  0.2493 -0.3234 -0.9274
  170MPD1     H 2647   1.234   2.699  12.796 -1.1435 -1.1869 -0.4143
  170MPD1    H1 2648   1.528   2.539  13.061  1.2358  3.1157  0.6320
  170MPD1    H2 2649   1.566   2.499  12.636 -0.3603  4.0812 -1.2126
  170MPD1    H3 2650   1.641   2.437  12.867 -2.1702 -2.0791  3.1685
  170MPD1     N 2651   1.303   2.697  13.036  0.5403  0.0907 -0.0973
  170MPD1    H5 2652   1.214   2.739  13.012  1.3364  0.7648 -1.8706
  170MPD1    N1 2653   1.369   2.644  12.563  0.4215 -0.2324 -1.2540
  170MPD1    H6 2654   1.270   2.655  12.545  0.3415  1.4485  0.2173
  170MPD1    H7 2655   1.410   2.591  12.486  0.6705 -0.5072 -0.9336
  171MPD1     C 2656   4.609   4.166  15.214 -0.3734 -0.3634 -0.6558
  171MPD1    C1 2657   4.513   4.072  15.195  0.2385 -0.4460  0.3672
  171MPD1    C2 2658   4.527   3.945  15.254  0.0775  0.2568  0.6665
  171MPD1    C3 2659   4.628   3.918  15.346 -0.6728 -0.5107 -0.1227
  171MPD1    C4 2660   4.718   4.025  15.370 -0.3099 -0.0786  0.1938
  171MPD1    C5 2661   4.700   4.147  15.305 -0.8628  0.0955  0.7271
  171MPD1     H 2662   4.450   3.874  15.228  0.0814  0.4420  0.1480
  171MPD1    H1 2663   0.065   4.010  15.434  0.7689  0.7524 -1.0568
  171MPD1    H2 2664   4.584   4.262  15.170 -2.2235 -0.8578 -0.7041
  171MPD1    H3 2665   0.028   4.232  15.313 -0.3237 -0.1022 -1.5980
  171MPD1     N 2666   4.656   3.793  15.411  0.2883  0.0536  0.1726
  171MPD1    H5 2667   4.720   3.802  15.489  1.0237  1.2773 -0.5703
  171MPD1    N1 2668   4.413   4.097  15.099 -0.2052  0.6740 -0.8253
  171MPD1    H6 2669   4.340   4.032  15.127 -0.1891  0.3017 -1.6514
  171MPD1    H7 2670   4.393   4.197  15.095 -1.0389  0.5424  0.1317
  172MPD1     C 2671   2.900   2.358   0.093  0.1050 -0.0750  0.2567
  172MPD1    C1 2672   2.880   2.473   0.164 -1.1023  0.0552 -0.1051
  172MPD1    C2 2673   2.975   2.571   0.172 -0.5276 -0.7763  0.1449
  172MPD1    C3 2674   3.092   2.559   0.101 -0.3771 -0.0801  0.2297
  172MPD1    C4 2675   3.110   2.439   0.028 -0.0739 -0.6963  0.9320
  172MPD1    C5 2676   3.020   2.335   0.035  0.0926  0.3383  0.0866
  172MPD1     H 2677   2.949   2.668   0.214 -1.2210 -1.2399  0.7761
  172MPD1    H1 2678   3.202   2.418  17.730  0.4734 -0.3013  1.7528
  172MPD1    H2 2679   2.824   2.289   0.059  0.3622  0.7474 -1.9594
  172MPD1    H3 2680   3.039   2.242  17.736  4.8495  0.3176  1.7833
  172MPD1     N 2681   3.201   2.650   0.088 -0.6618 -0.2503 -0.4600
  172MPD1    H5 2682   3.274   2.635   0.020  0.2319  2.0316 -0.0093
  172MPD1    N1 2683   2.753   2.496   0.212 -0.6708  0.1444 -0.1181
  172MPD1    H6 2684   2.711   2.420   0.265 -1.1375 -0.2844 -1.1035
  172MPD1    H7 2685   2.750   2.582   0.264  0.9321  0.5642 -0.7130
  173MPD1     C 2686   0.772   3.175  13.499  0.2945  0.1667  0.0055
  173MPD1    C1 2687   0.649   3.129  13.549 -0.1686 -0.1394  0.2415
  173MPD1    C2 2688   0.648   3.025  13.639 -0.5535  0.4811 -0.2350
  173MPD1    C3 2689   0.769   2.966  13.686  0.2655 -0.0971 -0.8251
  173MPD1    C4 2690   0.891   3.015  13.638 -0.3877  0.1138 -0.2094
  173MPD1    C5 2691   0.894   3.109  13.539  0.2644 -0.2194  0.0854
  173MPD1     H 2692   0.556   2.977  13.668 -0.6038 -0.3644 -1.7779
  173MPD1    H1 2693   0.977   2.976  13.690  0.2399  1.9068  0.0882
  173MPD1    H2 2694   0.782   3.264  13.437 -2.6354  0.3831 -0.1631
  173MPD1    H3 2695   0.992   3.139  13.504 -0.7183  2.5760 -0.2631
  173MPD1     N 2696   0.757   2.874  13.796 -0.3495  0.3847  0.0639
  173MPD1    H5 2697   0.663   2.840  13.816 -0.2137  0.8682  1.5420
  173MPD1    N1 2698   0.527   3.182  13.491  0.5759 -0.4775  0.2311
  173MPD1    H6 2699   0.525   3.265  13.432  0.9723  0.9099  2.1719
  173MPD1    H7 2700   0.451   3.199  13.557  0.9381 -0.4037  0.6322
  174MPD1     C 2701   0.948   2.626  14.835 -0.3333  0.2475  0.3801
  174MPD1    C1 2702   1.045   2.636  14.738  0.0573 -0.2441  0.2281
  174MPD1    C2 2703   1.007   2.646  14.605 -0.2745  0.0636  0.6205
  174MPD1    C3 2704   0.880   2.634  14.567 -0.3377 -0.0723 -0.3241
  174MPD1    C4 2705   0.783   2.615  14.656  0.6376 -0.5619 -0.6744
  174MPD1    C5 2706   0.818   2.620  14.792 -1.2132  0.1714 -0.6101
  174MPD1     H 2707   1.084   2.658  14.530 -0.4270 -0.1626  0.4279
  174MPD1    H1 2708   0.682   2.605  14.618 -0.8124  1.9785  2.5544
  174MPD1    H2 2709   0.970   2.620  14.941 -1.6051  1.7678  0.7261
  174MPD1    H3 2710   0.742   2.606  14.868  0.7097 -1.0659  1.1150
  174MPD1     N 2711   0.837   2.642  14.435  0.3032  0.1592 -1.0675
  174MPD1    H5 2712   0.737   2.640  14.418  0.3459  0.4199 -1.3473
  174MPD1    N1 2713   1.175   2.682  14.777 -0.0836 -0.1398 -0.0546
  174MPD1    H6 2714   1.204   2.636  14.863 -0.7192 -0.0897  0.1909
  174MPD1    H7 2715   1.240   2.642  14.710  0.5697  3.2138 -1.4539
  175MPD1     C 2716   3.082   4.590  15.379 -0.2384 -0.0120 -0.3389
  175MPD1    C1 2717   3.113   4.489  15.294 -0.9093 -0.3278 -0.0522
  175MPD1    C2 2718   3.102   4.359  15.348  0.6469 -0.1229  0.4506
  175MPD1    C3 2719   3.045   4.334  15.470  0.0860  0.2785  0.2613
  175MPD1    C4 2720   3.001   4.441  15.550  0.3524 -0.1591  0.2943
  175MPD1    C5 2721   3.028   4.564  15.503 -0.3411  0.7223 -0.8192
  175MPD1     H 2722   3.131   4.273  15.288  0.9298  0.2180  0.1015
  175MPD1    H1 2723   2.956   4.424  15.647 -2.1376  1.6836 -0.5462
  175MPD1    H2 2724   3.089   4.695  15.352  1.9337 -0.5467 -1.8808
  175MPD1    H3 2725   2.999   4.648  15.564 -2.3958  1.5005 -2.8418
  175MPD1     N 2726   3.035   4.202  15.529  0.2816 -0.2826  0.2784
  175MPD1    H5 2727   2.991   4.189  15.620 -2.8732 -1.5080 -1.4141
  175MPD1    N1 2728   3.183   4.518  15.174  0.2443 -0.6547 -0.1058
  175MPD1    H6 2729   3.161   4.445  15.105 -1.1855  1.5200 -1.9378
  175MPD1    H7 2730   3.158   4.609  15.137  0.1133 -1.1363 -1.2266
  176MPD1     C 2731   4.687   0.419   0.142  0.7207  0.5098  0.6721
  176MPD1    C1 2732   4.682   0.527   0.060 -0.0084 -0.0074 -0.0517
  176MPD1    C2 2733   4.680   0.648   0.120 -0.5793  0.8194 -0.3310
  176MPD1    C3 2734   4.692   0.666   0.258  0.2125 -0.1959 -0.0015
  176MPD1    C4 2735   4.696   0.556   0.337  0.3333  0.3932 -0.0611
  176MPD1    C5 2736   4.698   0.433   0.276  0.0036 -0.0420 -0.3152
  176MPD1     H 2737   4.679   0.739   0.061  2.9846  0.0053 -1.6050
  176MPD1    H1 2738   4.678   0.559   0.444  1.2322 -1.1977  0.1454
  176MPD1    H2 2739   4.692   0.315   0.114 -1.5123  0.8259 -0.8917
  176MPD1    H3 2740   4.718   0.348   0.339 -2.6996 -0.3801  0.0964
  176MPD1     N 2741   4.696   0.792   0.301  0.2739 -0.0000 -0.4918
  176MPD1    H5 2742   4.670   0.868   0.239 -2.3154 -1.6846 -1.4830
  176MPD1    N1 2743   4.712   0.520  17.675  0.0552 -0.0382 -0.0131
  176MPD1    H6 2744   4.692   0.433  17.627  0.0626 -0.6948  1.1700
  176MPD1    H7 2745   4.670   0.594  17.619 -1.4149  0.1551  1.3273
  177MPD1     C 2746   3.759   1.183  10.118  0.5250 -0.1140 -0.4090
  177MPD1    C1 2747   3.788   1.305  10.074  0.5852 -0.5166 -0.0150
  177MPD1    C2 2748   3.711   1.351   9.967  0.0830 -0.7638  0.5169
  177MPD1    C3 2749   3.611   1.271   9.908  0.3782  0.0234  0.0583
  177MPD1    C4 2750   3.581   1.152   9.967  0.3253 -0.2370  0.1038
  177MPD1    C5 2751   3.655   1.110  10.075 -0.6773 -0.4994  0.4394
  177MPD1     H 2752   3.748   1.442   9.921  1.1636 -3.4795 -3.9708
  177MPD1    H1 2753   3.504   1.086   9.928 -0.3087 -0.0098  0.9890
  177MPD1    H2 2754   3.807   1.143  10.207 -2.8927 -0.0776  1.4771
  177MPD1    H3 2755   3.643   1.011  10.117  0.1157 -1.5604 -1.8467
  177MPD1     N 2756   3.543   1.335   9.801  0.1547  0.6091  0.4529
  177MPD1    H5 2757   3.573   1.428   9.773 -1.5865  0.7802 -0.8568
  177MPD1    N1 2758   3.896   1.388  10.127  0.3287  0.1945 -0.2932
  177MPD1    H6 2759   3.884   1.488  10.115  2.3223  0.6704  1.5976
  177MPD1    H7 2760   3.935   1.369  10.219  0.2296  0.5015 -0.1873
  178MPD1     C 2761   1.313   2.721  17.270 -0.0908  0.1467  0.1859
  178MPD1    C1 2762   1.417   2.649  17.335  0.0433 -0.2497  0.4401
  178MPD1    C2 2763   1.459   2.530  17.279  0.5807 -0.9527  0.4856
  178MPD1    C3 2764   1.401   2.480  17.167  0.5771  0.5009  0.1575
  178MPD1    C4 2765   1.297   2.550  17.105 -0.2295 -0.3182 -0.5112
  178MPD1    C5 2766   1.256   2.667  17.158  0.0943  1.2534  0.7062
  178MPD1     H 2767   1.526   2.463  17.331 -1.8238 -2.9598  0.9974
  178MPD1    H1 2768   1.256   2.505  17.015 -0.5709 -1.0127 -0.0128
  178MPD1    H2 2769   1.275   2.817  17.303 -0.6467 -0.4269  1.2045
  178MPD1    H3 2770   1.172   2.713  17.106 -0.6770 -0.3255  0.5546
  178MPD1     N 2771   1.441   2.363  17.099  0.7064 -0.4187  0.0619
  178MPD1    H5 2772   1.378   2.338  17.023 -1.7269  1.5573  1.4225
  178MPD1    N1 2773   1.469   2.691  17.461 -0.3527  0.4979 -0.2375
  178MPD1    H6 2774   1.484   2.791  17.466  0.0793  0.4096  0.2544
  178MPD1    H7 2775   1.558   2.644  17.479  0.0674  1.3360 -0.1211
  179MPD1     C 2776   0.868   0.398  15.353  0.2318  0.1893  0.1595
  179MPD1    C1 2777   0.942   0.323  15.434  0.8653  0.0458  0.7374
  179MPD1    C2 2778   0.882   0.234  15.518 -0.0186  0.4682  0.4594
  179MPD1    C3 2779   0.747   0.218  15.512  0.2297  0.3710  0.2998
  179MPD1    C4 2780   0.678   0.280  15.411  0.5887 -0.2231 -0.1208
  179MPD1    C5 2781   0.738   0.380  15.349 -0.3568  0.1454 -0.2350
  179MPD1     H 2782   0.934   0.210  15.610 -1.6283  0.2089  1.3082
  179MPD1    H1 2783   0.574   0.267  15.382  0.8838  0.1398 -1.3366
  179MPD1    H2 2784   0.910   0.477  15.291  0.4022 -0.3596 -0.4202
  179MPD1    H3 2785   0.683   0.443  15.280 -0.0207 -2.2054 -2.6499
  179MPD1     N 2786   0.667   0.133  15.595  0.1661  0.4531  0.4776
  179MPD1    H5 2787   0.571   0.118  15.564 -0.2868 -0.2385  2.2002
  179MPD1    N1 2788   1.075   0.369  15.454 -0.1728 -0.0772  0.2854
  179MPD1    H6 2789   1.112   0.421  15.374 -2.1842 -0.0482 -0.6145
  179MPD1    H7 2790   1.143   0.301  15.489  1.2177  0.5740 -1.1573
  180MPD1     C 2791   0.754   1.473  14.819 -0.5839 -0.6971 -0.5809
  180MPD1    C1 2792   0.850   1.523  14.731 -1.1057 -0.0239  0.2248
  180MPD1    C2 2793   0.802   1.542  14.599  0.3002  0.4006  0.2080
  180MPD1    C3 2794   0.665   1.535  14.574  0.2308 -0.7474  0.1040
  180MPD1    C4 2795   0.572   1.520  14.670  0.3829  1.0117 -0.4518
  180MPD1    C5 2796   0.621   1.473  14.789 -0.1486  0.8288  0.2044
  180MPD1     H 2797   0.869   1.554  14.515 -1.1899 -0.8276 -1.1406
  180MPD1    H1 2798   0.465   1.529  14.652  0.4861 -0.0411 -1.5514
  180MPD1    H2 2799   0.788   1.441  14.917  1.0299  1.1069 -0.5594
  180MPD1    H3 2800   0.541   1.477  14.862 -0.3438 -0.9402  0.0777
  180MPD1     N 2801   0.627   1.543  14.438 -0.2903 -0.1666  0.0265
  180MPD1    H5 2802   0.699   1.561  14.369 -2.0005  0.0254 -1.7181
  180MPD1    N1 2803   0.985   1.523  14.765 -0.0147  0.2302 -0.9676
  180MPD1    H6 2804   1.051   1.580  14.712 -2.0508  2.3797 -1.1902
  180MPD1    H7 2805   0.989   1.543  14.865  0.0990  0.4223 -1.0092
  181MPD1     C 2806   1.667   2.947   9.480 -0.0057  0.2564 -0.1105
  181MPD1    C1 2807   1.668   2.980   9.616  0.3370 -0.0027  0.7774
  181MPD1    C2 2808   1.764   3.063   9.656 -0.4566 -0.1396  0.3529
  181MPD1    C3 2809   1.870   3.107   9.573  0.2816 -0.5685  0.2367
  181MPD1    C4 2810   1.884   3.049   9.449  0.3878 -0.2391 -0.3542
  181MPD1    C5 2811   1.774   2.980   9.397 -0.1628 -0.0031 -0.2199
  181MPD1     H 2812   1.768   3.091   9.760 -1.5990 -0.9780  0.6289
  181MPD1    H1 2813   1.973   3.079   9.394  0.5091  0.5539  0.2789
  181MPD1    H2 2814   1.593   2.885   9.432  1.1832 -1.8640  0.7471
  181MPD1    H3 2815   1.790   2.950   9.294  0.9805 -3.5876  0.9994
  181MPD1     N 2816   1.976   3.185   9.621 -0.3073 -1.1746 -0.7550
  181MPD1    H5 2817   2.047   3.210   9.553 -1.2108  1.0742 -0.8733
  181MPD1    N1 2818   1.561   2.954   9.702  0.1845 -0.1960  0.2138
  181MPD1    H6 2819   1.587   2.974   9.798 -0.4799 -0.2325  0.3970
  181MPD1    H7 2820   1.533   2.857   9.691 -2.4045  0.4986  0.7044
  182MPD1     C 2821   2.383   2.215   0.757  0.7078  0.1554 -0.5904
  182MPD1    C1 2822   2.464   2.161   0.666 -0.2635 -0.1482 -0.1971
  182MPD1    C2 2823   2.407   2.116   0.550  0.5929  0.0159  0.7109
  182MPD1    C3 2824   2.270   2.108   0.523  0.3508  0.2729  0.0248
  182MPD1    C4 2825   2.189   2.153   0.623  0.0762 -1.1566  0.1480
  182MPD1    C5 2826   2.251   2.210   0.736 -0.0263  0.4574 -0.3021
  182MPD1     H 2827   2.482   2.076   0.482 -2.5518 -1.9940 -1.6068
  182MPD1    H1 2828   2.082   2.155   0.610  0.0542  1.4668  0.6715
  182MPD1    H2 2829   2.414   2.252   0.854  0.2528 -1.4521  0.1801
  182MPD1    H3 2830   2.191   2.239   0.822 -0.1776  0.5841 -0.4483
  182MPD1     N 2831   2.211   2.066   0.400  0.3489 -0.0258  0.1544
  182MPD1    H5 2832   2.110   2.059   0.406  0.5749  0.2453  4.2256
  182MPD1    N1 2833   2.605   2.176   0.670  0.2212  0.2655 -0.1176
  182MPD1    H6 2834   2.648   2.098   0.621  0.0410  0.3146 -0.3536
  182MPD1    H7 2835   2.651   2.184   0.761 -0.1133  3.4780 -0.2214
  183MPD1     C 2836   4.199   3.078   9.100 -0.2693  0.5292 -0.6328
  183MPD1    C1 2837   4.061   3.090   9.103 -0.8033  0.3148  0.5837
  183MPD1    C2 2838   3.989   3.010   9.191 -0.1094  0.3318  0.1429
  183MPD1    C3 2839   4.044   2.942   9.292 -0.4544 -0.2822 -0.1022
  183MPD1    C4 2840   4.181   2.932   9.292  0.1157  0.2173  0.0357
  183MPD1    C5 2841   4.256   2.998   9.197  0.0036 -0.0167 -0.1144
  183MPD1     H 2842   3.881   3.011   9.187 -0.0704  1.6748 -0.6974
  183MPD1    H1 2843   4.233   2.867   9.361  0.0785  1.0396  0.8360
  183MPD1    H2 2844   4.265   3.131   9.033 -1.2106  0.1695 -1.8487
  183MPD1    H3 2845   4.363   2.980   9.193 -0.2600 -1.7784  0.9262
  183MPD1     N 2846   3.961   2.885   9.395 -0.2863  0.2597  0.6511
  183MPD1    H5 2847   3.866   2.920   9.389  0.8028  2.9245 -1.0734
  183MPD1    N1 2848   3.996   3.155   8.998 -0.5154 -0.5862 -0.1385
  183MPD1    H6 2849   4.044   3.240   8.969 -0.2072 -1.5613 -2.5308
  183MPD1    H7 2850   3.900   3.183   9.019  0.0901  1.3612  0.0189
  184MPD1     C 2851   2.862   0.574   9.992 -0.2627  0.4710 -0.0583
  184MPD1    C1 2852   2.753   0.563   9.903  0.3085  0.3262  0.0225
  184MPD1    C2 2853   2.739   0.650   9.801 -0.1229  0.3799  0.5823
  184MPD1    C3 2854   2.821   0.765   9.799  0.4397 -0.5434  0.0552
  184MPD1    C4 2855   2.924   0.777   9.889 -0.0275  0.0253  1.3333
  184MPD1    C5 2856   2.945   0.686   9.986 -0.3017  0.1033 -0.6940
  184MPD1     H 2857   2.664   0.635   9.724 -0.0705  1.1583  0.3843
  184MPD1    H1 2858   2.994   0.858   9.874  0.0464 -0.4281 -0.7143
  184MPD1    H2 2859   2.889   0.498  10.064 -2.2588 -1.7416 -1.6311
  184MPD1    H3 2860   3.022   0.699  10.061  1.4627  1.7553 -2.7855
  184MPD1     N 2861   2.812   0.860   9.692  0.1651 -0.1690  0.0845
  184MPD1    H5 2862   2.875   0.938   9.709 -0.6506  0.3643  0.6441
  184MPD1    N1 2863   2.690   0.439   9.893 -0.0713  0.7719 -0.3228
  184MPD1    H6 2864   2.674   0.379   9.974  1.9444  0.4565 -0.1669
  184MPD1    H7 2865   2.598   0.452   9.851 -1.1848 -1.1954  1.4796
  185MPD1     C 2866   2.288   0.902   8.830 -0.0229  0.4949  0.1872
  185MPD1    C1 2867   2.284   1.035   8.873  0.2979  0.1282 -0.5110
  185MPD1    C2 2868   2.364   1.071   8.983 -0.2841  0.8903 -0.0018
  185MPD1    C3 2869   2.423   0.969   9.061  0.1707  1.2411 -0.1881
  185MPD1    C4 2870   2.416   0.839   9.015 -0.0459  0.3895  0.6925
  185MPD1    C5 2871   2.346   0.804   8.900 -0.5987 -0.0249  0.3227
  185MPD1     H 2872   2.357   1.172   9.022  0.8257 -0.0148  2.5431
  185MPD1    H1 2873   2.463   0.760   9.073  1.0386  0.0843 -0.6081
  185MPD1    H2 2874   2.237   0.876   8.738 -0.5253 -0.7388  0.8131
  185MPD1    H3 2875   2.363   0.709   8.852  2.4885  2.0186 -2.6180
  185MPD1     N 2876   2.501   0.995   9.181 -0.1995 -0.1433  0.0762
  185MPD1    H5 2877   2.527   0.907   9.222 -0.8632  0.5483  1.9522
  185MPD1    N1 2878   2.233   1.131   8.784  0.1564 -0.0569 -0.1495
  185MPD1    H6 2879   2.154   1.097   8.731  0.3099 -0.0759 -0.3665
  185MPD1    H7 2880   2.211   1.214   8.839 -1.0815  0.3112 -1.2249
  186MPD1     C 2881   1.358   4.546  16.206  0.0131 -0.6606  0.2276
  186MPD1    C1 2882   1.409   4.630  16.114 -0.4342 -0.1504  0.0699
  186MPD1    C2 2883   1.454   0.021  16.154  0.0931  0.1483 -0.1188
  186MPD1    C3 2884   1.428   0.064  16.279  0.0805 -0.0145 -0.2655
  186MPD1    C4 2885   1.364   4.719  16.372 -0.3075  0.1703  0.0430
  186MPD1    C5 2886   1.326   4.593  16.326  1.1008 -0.3076 -0.5540
  186MPD1     H 2887   1.510   0.081  16.083 -0.6067 -0.8870 -1.5486
  186MPD1    H1 2888   1.336   4.730  16.476  0.1260 -1.6794  0.3511
  186MPD1    H2 2889   1.336   4.443  16.179  1.4965 -1.5536  2.4053
  186MPD1    H3 2890   1.263   4.532  16.390 -1.8825  2.4275 -0.8706
  186MPD1     N 2891   1.477   0.185  16.333  0.5116  0.2225  0.2007
  186MPD1    H5 2892   1.467   0.208  16.432 -0.5865 -0.1303  0.1640
  186MPD1    N1 2893   1.444   4.584  15.983  0.1005  0.0770  0.4879
  186MPD1    H6 2894   1.445   4.656  15.912 -0.2268  0.7767  1.1969
  186MPD1    H7 2895   1.388   4.508  15.946 -1.5588  0.8524  1.4239
  187MPD1     C 2896   0.315   1.710   0.776 -0.6351 -0.5625 -0.1413
  187MPD1    C1 2897   0.178   1.723   0.761  0.1101 -0.0101  0.3970
  187MPD1    C2 2898   0.131   1.802   0.654 -0.7676  0.3489 -0.4696
  187MPD1    C3 2899   0.219   1.854   0.562 -0.1452  1.1623 -0.4866
  187MPD1    C4 2900   0.352   1.845   0.584  0.1034 -0.2993 -0.1841
  187MPD1    C5 2901   0.402   1.781   0.694 -0.5633  0.8225  0.5601
  187MPD1     H 2902   0.023   1.815   0.647 -1.0446 -2.3069 -1.1483
  187MPD1    H1 2903   0.422   1.892   0.516 -0.6108  1.9054  0.6065
  187MPD1    H2 2904   0.359   1.658   0.860 -1.7193  0.3752  1.0126
  187MPD1    H3 2905   0.508   1.788   0.717 -0.5629 -1.3401  1.1712
  187MPD1     N 2906   0.178   1.927   0.451  0.4341 -0.4692  0.3838
  187MPD1    H5 2907   0.255   1.967   0.398 -1.2368 -1.1038 -2.5091
  187MPD1    N1 2908   0.102   1.689   0.872 -0.3535 -0.3530  0.3798
  187MPD1    H6 2909   0.146   1.619   0.932 -1.9893 -0.7004  1.1550
  187MPD1    H7 2910   0.007   1.658   0.853  0.6292 -2.1427 -1.5798
  188MPD1     C 2911   0.233   2.125   9.963  0.5803  0.1294  0.0257
  188MPD1    C1 2912   0.356   2.084  10.008  0.2918 -0.6241  0.4532
  188MPD1    C2 2913   0.410   1.962   9.973 -0.0065 -0.2420 -0.9716
  188MPD1    C3 2914   0.339   1.875   9.897  0.3587 -0.4877  0.1201
  188MPD1    C4 2915   0.221   1.921   9.840 -0.7088  0.2765  0.2977
  188MPD1    C5 2916   0.166   2.041   9.876  0.1890  0.7100  0.1979
  188MPD1     H 2917   0.511   1.931   9.997 -0.1613  0.6785  0.8301
  188MPD1    H1 2918   0.165   1.854   9.775  0.3860 -2.5989  2.3459
  188MPD1    H2 2919   0.184   2.216   9.998 -1.3784 -1.2169  0.7880
  188MPD1    H3 2920   0.071   2.066   9.831 -0.4147  1.5113  1.9245
  188MPD1     N 2921   0.366   1.735   9.871  0.7645  0.4394  0.0565
  188MPD1    H5 2922   0.287   1.679   9.841 -0.7524  3.3508 -1.4443
  188MPD1    N1 2923   0.447   2.182  10.056  0.0005  0.5988  0.5380
  188MPD1    H6 2924   0.403   2.255  10.113  1.1499  0.6476  1.3531
  188MPD1    H7 2925   0.510   2.141  10.125 -0.8760 -0.0356  0.9634
  189MPD1     C 2926   1.798   2.654   0.139 -0.8681 -0.3758 -0.2245
  189MPD1    C1 2927   1.672   2.629   0.100  0.0598  0.0350 -0.6513
  189MPD1    C2 2928   1.594   2.743   0.071  0.0091 -0.2337 -0.5314
  189MPD1    C3 2929   1.632   2.872   0.099  0.4075 -0.8587 -0.1738
  189MPD1    C4 2930   1.758   2.892   0.155  0.2477  0.2242 -0.2049
  189MPD1    C5 2931   1.832   2.784   0.182  0.4310 -0.6048  0.3218
  189MPD1     H 2932   1.497   2.725   0.026 -0.6920  0.3372  0.7832
  189MPD1    H1 2933   1.792   2.995   0.165 -2.2568  0.9366  0.9316
  189MPD1    H2 2934   1.868   2.571   0.140  0.0649  0.3990 -1.7691
  189MPD1    H3 2935   1.934   2.803   0.215  0.5387  2.4124 -1.7216
  189MPD1     N 2936   1.546   2.986   0.056  0.1660 -0.2031  0.2197
  189MPD1    H5 2937   1.454   2.962   0.020  0.9113 -1.6563 -0.7364
  189MPD1    N1 2938   1.642   2.498   0.059 -0.3081  0.0002  0.5231
  189MPD1    H6 2939   1.691   2.439   0.126  3.4452  0.2951 -1.9620
  189MPD1    H7 2940   1.544   2.476   0.073 -0.4746 -0.4717 -1.3712
  190MPD1     C 2941   0.619   1.836  15.622  0.1872  0.3796  0.2493
  190MPD1    C1 2942   0.686   1.845  15.743 -0.2290 -0.2498  0.1078
  190MPD1    C2 2943   0.818   1.813  15.760  0.5137  0.0310  0.4037
  190MPD1    C3 2944   0.885   1.751  15.657 -0.1871 -0.4724  0.0692
  190MPD1    C4 2945   0.813   1.739  15.534 -0.5224 -0.6005 -0.0281
  190MPD1    C5 2946   0.681   1.770  15.524  0.3606  0.2545 -0.9205
  190MPD1     H 2947   0.881   1.810  15.848 -1.8121 -2.1213  1.9768
  190MPD1    H1 2948   0.862   1.705  15.443 -0.3585 -0.3585 -0.0321
  190MPD1    H2 2949   0.514   1.864  15.617  0.0164  0.1018  2.5841
  190MPD1    H3 2950   0.631   1.765  15.427  0.5904 -1.3863 -0.9494
  190MPD1     N 2951   1.019   1.714  15.681 -0.0835 -0.7002  0.3515
  190MPD1    H5 2952   1.059   1.744  15.769  0.6063 -1.3511  0.2550
  190MPD1    N1 2953   0.619   1.903  15.856 -0.0603  1.2812  0.0502
  190MPD1    H6 2954   0.661   1.883  15.946  0.4696 -1.3555 -0.7926
  190MPD1    H7 2955   0.521   1.881  15.870  0.7187 -0.8584  2.0421
  191MPD1     C 2956   4.410   3.201  12.587  0.4092  0.0459 -0.1671
  191MPD1    C1 2957   4.338   3.286  12.509  0.4455 -0.1735  0.2262
  191MPD1    C2 2958   4.394   3.342  12.397 -0.2290  0.4831  0.3442
  191MPD1    C3 2959   4.529   3.300  12.359  0.3206  0.0659 -0.0345
  191MPD1    C4 2960   4.590   3.202  12.431 -0.0351 -0.0314  0.8610
  191MPD1    C5 2961   4.539   3.165  12.550 -0.1017 -0.2269 -0.7476
  191MPD1     H 2962   4.342   3.419  12.341 -1.1600 -0.3901 -0.0083
  191MPD1    H1 2963   4.686   3.160  12.407  0.1856 -0.1168  1.9269
  191MPD1    H2 2964   4.371   3.151  12.675 -0.3656  1.3402  0.2308
  191MPD1    H3 2965   4.592   3.090  12.606 -1.3430  0.0539  0.8139
  191MPD1     N 2966   4.590   3.350  12.243 -0.9054  0.0428  0.5600
  191MPD1    H5 2967   4.535   3.415  12.188 -0.6904 -1.0080 -0.8919
  191MPD1    N1 2968   4.208   3.310  12.552  0.5416 -0.0845  0.4451
  191MPD1    H6 2969   4.203   3.303  12.654  1.0452  0.8631  0.5286
  191MPD1    H7 2970   4.165   3.393  12.513 -1.6688 -1.3389  0.2266
  192MPD1     C 2971   4.094   3.631  11.670 -0.1192  0.2735  0.1028
  192MPD1    C1 2972   4.197   3.631  11.589 -0.0612 -0.2871 -0.1861
  192MPD1    C2 2973   4.319   3.599  11.635  0.5543  0.1336 -0.4381
  192MPD1    C3 2974   4.336   3.570  11.773  0.4124  0.2133 -0.0798
  192MPD1    C4 2975   4.222   3.567  11.856  0.9726  0.4033  0.0849
  192MPD1    C5 2976   4.101   3.604  11.806 -0.7744  0.6692 -0.0831
  192MPD1     H 2977   4.409   3.623  11.579  1.7098  0.1065  1.3783
  192MPD1    H1 2978   4.230   3.530  11.958 -0.8041 -1.7811 -0.5804
  192MPD1    H2 2979   3.996   3.643  11.625  0.3048  2.3788 -0.2361
  192MPD1    H3 2980   4.013   3.595  11.869  0.1387  0.2427  1.1361
  192MPD1     N 2981   4.455   3.529  11.835  0.0681  0.5100 -0.2829
  192MPD1    H5 2982   4.445   3.513  11.935 -0.7608 -0.6043 -0.5356
  192MPD1    N1 2983   4.196   3.684  11.465 -0.1603  0.4772 -0.1808
  192MPD1    H6 2984   4.269   3.653  11.401 -0.7971  1.0824 -1.1866
  192MPD1    H7 2985   4.107   3.689  11.415 -1.0400 -2.1335  1.1307
  193MPD1     C 2986   3.925   3.205  17.048 -0.8615 -0.3579 -0.0188
  193MPD1    C1 2987   3.991   3.148  16.944  0.0015  0.4435 -0.5676
  193MPD1    C2 2988   4.073   3.233  16.862  0.1488  0.2181 -0.9000
  193MPD1    C3 2989   4.091   3.366  16.891  0.5795 -0.8288  0.1011
  193MPD1    C4 2990   4.023   3.416  17.000 -0.3172  0.4058 -0.3330
  193MPD1    C5 2991   3.938   3.335  17.073 -0.2717  1.0337  0.1813
  193MPD1     H 2992   4.110   3.182  16.773 -0.8128  1.1425 -1.8334
  193MPD1    H1 2993   4.024   3.523  17.022  0.6261  0.1353  0.9408
  193MPD1    H2 2994   3.846   3.145  17.090 -0.6987  0.0818  0.9275
  193MPD1    H3 2995   3.869   3.371  17.149 -0.8178  2.5014 -1.0011
  193MPD1     N 2996   4.175   3.453  16.821  0.5961 -0.1350  0.2515
  193MPD1    H5 2997   4.174   3.550  16.852  3.0054  0.5722 -1.8304
  193MPD1    N1 2998   3.959   3.020  16.901 -0.1630 -0.2165 -0.0172
  193MPD1    H6 2999   4.030   2.962  16.856  0.2519 -1.0763  1.7787
  193MPD1    H7 3000   3.931   2.963  16.980 -0.7197  1.6214  1.1039
  194MPD1     C 3001   2.920   0.913  16.194  0.2551 -0.5336 -1.0228
  194MPD1    C1 3002   2.989   0.967  16.305 -0.5372  0.3355  0.0669
  194MPD1    C2 3003   2.965   0.904  16.424  0.0900 -0.0975  0.7587
  194MPD1    C3 3004   2.888   0.789  16.431  0.1083 -0.0205 -0.0332
  194MPD1    C4 3005   2.848   0.724  16.316  0.0518 -0.7969 -0.2322
  194MPD1    C5 3006   2.853   0.797  16.203  0.9721  0.3935 -0.4401
  194MPD1     H 3007   3.012   0.933  16.518 -0.1119 -1.5295  1.2948
  194MPD1    H1 3008   2.794   0.630  16.314  2.6318 -2.2069 -1.7139
  194MPD1    H2 3009   2.909   0.969  16.101  2.0942  1.0591 -0.2657
  194MPD1    H3 3010   2.817   0.754  16.110  0.3192  1.3051 -0.6051
  194MPD1     N 3011   2.863   0.732  16.560  0.4696 -0.0298 -0.1102
  194MPD1    H5 3012   2.894   0.789  16.639  0.5829 -0.3533  0.0813
  194MPD1    N1 3013   3.058   1.089  16.296  0.0152  0.1562  0.6115
  194MPD1    H6 3014   3.141   1.094  16.354 -0.7413 -2.1203  1.8750
  194MPD1    H7 3015   3.083   1.098  16.198 -1.2059 -1.4096  0.1501
  195MPD1     C 3016   4.718   2.516   0.298  0.2808 -0.6818 -1.5355
  195MPD1    C1 3017   0.026   2.445   0.405  0.7770  0.0477  0.0556
  195MPD1    C2 3018   4.701   2.333   0.443  0.1173 -0.1453 -0.8500
  195MPD1    C3 3019   4.581   2.299   0.384  0.0606 -0.4638 -0.0593
  195MPD1    C4 3020   4.523   2.374   0.284 -0.1627  0.3015  0.1844
  195MPD1    C5 3021   4.594   2.481   0.238  0.5951  0.0373  0.0188
  195MPD1     H 3022   0.009   2.279   0.525 -0.6247 -1.7194 -1.4781
  195MPD1    H1 3023   4.426   2.356   0.238  0.1815 -3.3174  0.8440
  195MPD1    H2 3024   0.027   2.602   0.253  0.7336  1.0536  2.2306
  195MPD1    H3 3025   4.556   2.553   0.165  1.8498  0.0106 -0.6690
  195MPD1     N 3026   4.496   2.200   0.442 -0.2512 -0.0187  0.6603
  195MPD1    H5 3027   4.406   2.185   0.397 -0.2125  0.4068  0.4391
  195MPD1    N1 3028   0.155   2.464   0.447 -0.2356 -0.4629  0.7950
  195MPD1    H6 3029   0.181   2.555   0.411  1.9600 -1.9383 -1.2731
  195MPD1    H7 3030   0.155   2.452   0.549 -2.3546 -0.7339  0.7697
  196MPD1     C 3031   3.136   1.413   0.046 -0.2797 -0.0406  0.1425
  196MPD1    C1 3032   3.193   1.528  17.748 -0.4557  1.1498  0.7295
  196MPD1    C2 3033   3.269   1.609   0.082  0.2948 -0.0808 -0.6440
  196MPD1    C3 3034   3.290   1.578   0.214  0.2434  0.0730  0.6857
  196MPD1    C4 3035   3.228   1.465   0.266  0.2285  0.1213 -0.3345
  196MPD1    C5 3036   3.160   1.388   0.176  0.4533 -0.8986  0.7644
  196MPD1     H 3037   3.323   1.692   0.038 -2.0476  1.2024 -1.0735
  196MPD1    H1 3038   3.235   1.442   0.372  0.5229  1.8112  0.0199
  196MPD1    H2 3039   3.089   1.337  17.740 -0.7826 -0.8899  1.6082
  196MPD1    H3 3040   3.118   1.300   0.223  1.9432 -1.9717  0.1038
  196MPD1     N 3041   3.353   1.667   0.307 -0.9689  0.3365  0.4854
  196MPD1    H5 3042   3.357   1.631   0.401  2.0336 -2.8172 -0.8664
  196MPD1    N1 3043   3.187   1.550  17.606 -0.0358  0.4989  1.0522
  196MPD1    H6 3044   3.112   1.491  17.571  3.9217 -2.9847 -1.5310
  196MPD1    H7 3045   3.163   1.647  17.587  0.3436 -0.3740 -3.8491
  197MPD1     C 3046   4.359   3.564  16.162  0.0571  0.5715 -0.7451
  197MPD1    C1 3047   4.317   3.496  16.273  0.2919  0.0346  0.0397
  197MPD1    C2 3048   4.202   3.550  16.337  0.0787  0.4978  0.4915
  197MPD1    C3 3049   4.157   3.679  16.310  0.1331 -0.0552  0.3502
  197MPD1    C4 3050   4.214   3.744  16.202  0.4563  0.1185  0.4709
  197MPD1    C5 3051   4.310   3.685  16.124  0.4419  0.2072 -0.3311
  197MPD1     H 3052   4.152   3.490  16.412  0.8107 -2.3982 -1.3332
  197MPD1    H1 3053   4.167   3.837  16.173 -0.7905 -0.6105  0.1368
  197MPD1    H2 3054   4.429   3.514  16.097 -0.5341 -1.2207  0.0070
  197MPD1    H3 3055   4.347   3.728  16.032 -0.0450 -0.4305 -0.8221
  197MPD1     N 3056   4.043   3.742  16.371  0.0632 -0.0635  0.3960
  197MPD1    H5 3057   3.992   3.820  16.331 -1.4423 -1.8989 -1.2739
  197MPD1    N1 3058   4.358   3.362  16.296 -0.3753  0.4476 -0.3481
  197MPD1    H6 3059   4.446   3.340  16.251 -0.2096 -0.5403  0.4626
  197MPD1    H7 3060   4.363   3.349  16.397  0.5117 -0.4599 -0.5108
  198MPD1     C 3061   4.554   2.577  15.792  0.2821 -0.4823  0.4404
  198MPD1    C1 3062   4.652   2.505  15.859  0.2385 -0.3124 -0.2623
  198MPD1    C2 3063   0.044   2.520  15.822 -0.3607  0.8708 -0.1393
  198MPD1    C3 3064   0.077   2.604  15.713 -0.8186 -0.6425 -0.2110
  198MPD1    C4 3065   4.713   2.657  15.632 -0.4824  0.8022 -0.2656
  198MPD1    C5 3066   4.583   2.648  15.674  0.2891  0.4465 -0.5979
  198MPD1     H 3067   0.120   2.467  15.879  0.9775  2.3493 -0.5354
  198MPD1    H1 3068   4.731   2.722  15.548  1.8105  1.0388  0.4113
  198MPD1    H2 3069   4.454   2.571  15.833 -0.1113  1.1068 -0.2975
  198MPD1    H3 3070   4.516   2.707  15.612  0.5248  0.9963 -0.3278
  198MPD1     N 3071   0.213   2.631  15.690  0.1430 -0.0957 -0.0439
  198MPD1    H5 3072   0.283   2.592  15.753  0.4896  0.2182 -0.2285
  198MPD1    N1 3073   4.623   2.417  15.962  0.1185  0.1341 -0.1401
  198MPD1    H6 3074   4.666   2.453  16.046 -0.6979  2.0860 -0.5678
  198MPD1    H7 3075   4.523   2.424  15.977  0.0586 -1.1770  0.1101
  199MPD1     C 3076   2.892   3.833  10.362  0.5430 -0.3729 -0.2118
  199MPD1    C1 3077   2.838   3.957  10.356  0.9993  0.4651 -0.0863
  199MPD1    C2 3078   2.760   3.994  10.245  0.2892 -0.2387  0.5977
  199MPD1    C3 3079   2.740   3.910  10.132 -0.5803  0.1249 -0.8205
  199MPD1    C4 3080   2.791   3.786  10.149  0.0306 -0.8166 -0.7954
  199MPD1    C5 3081   2.857   3.746  10.264  0.2103  0.7774 -0.1571
  199MPD1     H 3082   2.724   4.096  10.233 -1.2249 -0.7831  0.4732
  199MPD1    H1 3083   2.789   3.710  10.072 -0.4954 -2.1899  0.5639
  199MPD1    H2 3084   2.966   3.806  10.436  0.3344  0.4288  0.2851
  199MPD1    H3 3085   2.900   3.647  10.270 -1.0421  0.3790  2.4334
  199MPD1     N 3086   2.662   3.948  10.013  0.2003 -0.1811  0.0202
  199MPD1    H5 3087   2.628   4.044  10.007 -0.5441 -0.4064  0.7143
  199MPD1    N1 3088   2.885   4.062  10.440  0.1141 -0.3457 -0.4508
  199MPD1    H6 3089   2.912   4.031  10.533 -2.2519 -0.5290  0.1750
  199MPD1    H7 3090   2.810   4.129  10.455  0.1323 -0.9069  2.0531
  200MPD1     C 3091   2.363   3.513  16.048  0.8805 -0.9544  0.1765
  200MPD1    C1 3092   2.389   3.611  15.948  0.2288  0.2231  0.0626
  200MPD1    C2 3093   2.323   3.600  15.829  0.1085  0.2981 -0.4574
  200MPD1    C3 3094   2.215   3.510  15.810 -0.4667  0.5238 -0.0017
  200MPD1    C4 3095   2.180   3.433  15.922  0.0386  0.7073  0.6586
  200MPD1    C5 3096   2.251   3.430  16.039 -0.7709  0.6975  0.2133
  200MPD1     H 3097   2.349   3.674  15.754 -0.8989  1.8149  0.6751
  200MPD1    H1 3098   2.084   3.384  15.932  0.8081 -1.4039 -2.3491
  200MPD1    H2 3099   2.420   3.525  16.140  1.5516  0.4274 -0.4236
  200MPD1    H3 3100   2.215   3.371  16.123 -1.3042  0.4868 -0.1596
  200MPD1     N 3101   2.137   3.515  15.692 -0.0570  0.3333  0.0916
  200MPD1    H5 3102   2.178   3.572  15.618 -1.6001  0.9644 -0.2661
  200MPD1    N1 3103   2.503   3.694  15.952 -0.0940 -0.3959  0.5006
  200MPD1    H6 3104   2.494   3.781  15.899 -0.1721 -0.2700  0.7178
  200MPD1    H7 3105   2.517   3.723  16.049  2.2193 -1.0930  0.3584
  201MPD1     C 3106   0.001   2.654  13.740  0.3331  0.9077 -0.3213
  201MPD1    C1 3107   4.685   2.603  13.628 -0.5555  1.0601 -0.2039
  201MPD1    C2 3108   4.677   2.467  13.610  0.0409  0.3886  0.2514
  201MPD1    C3 3109   4.734   2.379  13.695  0.4674  0.1136 -0.2635
  201MPD1    C4 3110   0.069   2.430  13.802  0.3199 -0.0787 -0.5818
  201MPD1    C5 3111   0.064   2.565  13.819  0.9057  0.2982 -0.1212
  201MPD1     H 3112   4.628   2.422  13.525 -1.9214  1.7487  0.6667
  201MPD1    H1 3113   0.132   2.367  13.862 -0.9502 -1.2414 -0.4723
  201MPD1    H2 3114   0.024   2.758  13.756 -0.3031  0.9619  0.2254
  201MPD1    H3 3115   0.129   2.602  13.898 -0.8780  0.5539  1.2333
  201MPD1     N 3116   4.739   2.240  13.659  0.1798 -0.5819  0.5934
  201MPD1    H5 3117   4.681   2.214  13.579  1.4693 -1.0504 -0.2019
  201MPD1    N1 3118   4.606   2.687  13.546  0.4019  0.0536  0.4316
  201MPD1    H6 3119   4.590   2.645  13.454  0.4514 -0.0446  0.4674
  201MPD1    H7 3120   4.644   2.780  13.531  1.6336 -0.3685  0.9225
  202MPD1     C 3121   3.609   1.717   8.824  0.0619  0.1748 -0.2871
  202MPD1    C1 3122   3.640   1.837   8.887  0.2907  0.0122 -0.0806
  202MPD1    C2 3123   3.732   1.817   8.992  0.1885 -0.2825  0.4166
  202MPD1    C3 3124   3.767   1.692   9.052  0.9259 -0.0474  0.3147
  202MPD1    C4 3125   3.723   1.581   8.986 -0.2890 -0.4787  0.1531
  202MPD1    C5 3126   3.650   1.595   8.870 -0.1955  0.5839  0.3407
  202MPD1     H 3127   3.762   1.904   9.049 -0.1026  1.9140 -2.7571
  202MPD1    H1 3128   3.739   1.477   9.012 -1.0925 -2.0005 -5.5607
  202MPD1    H2 3129   3.554   1.717   8.731 -1.3973 -3.2123  0.5588
  202MPD1    H3 3130   3.614   1.505   8.821 -1.4142  0.1932  1.9608
  202MPD1     N 3131   3.852   1.673   9.162  0.4589  0.0971  0.0352
  202MPD1    H5 3132   3.868   1.577   9.188 -1.9026 -0.3842 -0.2472
  202MPD1    N1 3133   3.653   1.953   8.812  0.2008 -0.5065  0.3101
  202MPD1    H6 3134   3.662   2.034   8.874 -0.5906  0.0007 -0.2339
  202MPD1    H7 3135   3.584   1.976   8.741  0.5762  1.4879  0.5963
  203MPD1     C 3136   2.577   3.226  12.341 -0.2240 -0.3017 -0.7874
  203MPD1    C1 3137   2.656   3.172  12.241  0.6564 -0.0412 -0.6905
  203MPD1    C2 3138   2.747   3.075  12.284 -0.0434 -0.4152  0.2870
  203MPD1    C3 3139   2.737   3.020  12.414  0.0574 -0.7940 -0.8311
  203MPD1    C4 3140   2.645   3.069  12.500  0.4521  0.6482  0.3838
  203MPD1    C5 3141   2.581   3.180  12.468 -0.0850 -0.5488 -0.1907
  203MPD1     H 3142   2.830   3.039  12.224  1.1783  1.4515  0.8634
  203MPD1    H1 3143   2.634   3.032  12.602  1.5708 -1.1722 -0.1731
  203MPD1    H2 3144   2.515   3.314  12.327  1.7181  1.1606 -0.0915
  203MPD1    H3 3145   2.529   3.237  12.545 -0.1368 -0.0482 -0.5904
  203MPD1     N 3146   2.822   2.914  12.450  0.8266  0.4908 -0.2525
  203MPD1    H5 3147   2.872   2.872  12.373  0.1157 -0.7868 -0.0117
  203MPD1    N1 3148   2.666   3.234  12.116  0.3850  0.1745 -0.2863
  203MPD1    H6 3149   2.573   3.263  12.086  1.4448  3.4489 -0.4563
  203MPD1    H7 3150   2.699   3.176  12.039 -1.8200  0.5217 -1.4890
  204MPD1     C 3151   1.640   4.233  17.413  0.2914  0.5689 -0.5272
  204MPD1    C1 3152   1.718   4.289  17.323  0.0415 -0.5508 -0.4409
  204MPD1    C2 3153   1.840   4.225  17.289  0.6258  0.2711  0.2891
  204MPD1    C3 3154   1.887   4.117  17.361 -0.4723 -0.2827 -0.5284
  204MPD1    C4 3155   1.818   4.080  17.476  0.3818  0.0046 -0.2313
  204MPD1    C5 3156   1.695   4.137  17.492  0.1838  0.0968 -0.0547
  204MPD1     H 3157   1.894   4.264  17.205  0.0235  0.2678 -0.1037
  204MPD1    H1 3158   1.842   3.995  17.539  1.3678 -1.4434 -2.5107
  204MPD1    H2 3159   1.546   4.276  17.444 -0.8039 -1.0329 -1.6463
  204MPD1    H3 3160   1.636   4.101  17.575 -0.1087  4.0595  1.4592
  204MPD1     N 3161   2.010   4.054  17.319 -0.2352 -0.6549  0.3375
  204MPD1    H5 3162   2.051   4.087  17.233  0.3264  1.2657  1.3286
  204MPD1    N1 3163   1.672   4.406  17.258  0.2222  0.0008 -0.1760
  204MPD1    H6 3164   1.747   4.465  17.223  0.6173 -0.8446 -0.7556
  204MPD1    H7 3165   1.587   4.453  17.288  0.1612 -1.4743  1.9138
  205MPD1     C 3166   1.464   3.391  16.330  0.5488  0.2003  0.2189
  205MPD1    C1 3167   1.565   3.357  16.249 -0.2725  0.2021  0.0582
  205MPD1    C2 3168   1.679   3.292  16.298 -0.0747 -0.1088  0.3721
  205MPD1    C3 3169   1.687   3.250  16.434  0.1644 -0.0386  0.2425
  205MPD1    C4 3170   1.587   3.293  16.519 -0.1095 -0.3559 -1.1534
  205MPD1    C5 3171   1.486   3.368  16.463 -0.0988 -0.2983  0.3265
  205MPD1     H 3172   1.762   3.265  16.234 -0.6637  2.5615 -1.4833
  205MPD1    H1 3173   1.586   3.265  16.624 -0.3407 -0.3930 -1.1658
  205MPD1    H2 3174   1.377   3.444  16.291 -0.0680 -0.7249  0.3324
  205MPD1    H3 3175   1.408   3.415  16.521  0.0576  0.0196  0.2779
  205MPD1     N 3176   1.793   3.179  16.487 -0.3311  0.3569 -0.2055
  205MPD1    H5 3177   1.799   3.177  16.588 -0.2163  0.2296 -0.2140
  205MPD1    N1 3178   1.552   3.368  16.116 -0.1941  0.1420  0.4024
  205MPD1    H6 3179   1.513   3.455  16.081 -2.7197 -2.6339 -3.7588
  205MPD1    H7 3180   1.641   3.358  16.067 -0.0152  1.7924  0.4038
  206MPD1     C 3181   2.732   1.002  16.985 -0.1200  0.7812 -0.7592
  206MPD1    C1 3182   2.636   0.913  16.933 -0.5278 -0.4170  0.1039
  206MPD1    C2 3183   2.599   0.929  16.801  1.3722  0.8355 -0.3027
  206MPD1    C3 3184   2.673   1.010  16.714 -0.1027 -0.1911 -0.1137
  206MPD1    C4 3185   2.780   1.086  16.760 -0.0907  0.0911 -0.2254
  206MPD1    C5 3186   2.798   1.084  16.899  0.3433  0.5562  0.0361
  206MPD1     H 3187   2.513   0.872  16.769  1.5739 -0.4149  1.4198
  206MPD1    H1 3188   2.832   1.162  16.703 -0.6283  1.4597  1.1056
  206MPD1    H2 3189   2.753   1.011  17.091 -2.6496 -1.1039 -0.0874
  206MPD1    H3 3190   2.861   1.161  16.942  1.0759  0.8411 -1.5168
  206MPD1     N 3191   2.626   1.031  16.581 -0.1669 -0.1064  0.2712
  206MPD1    H5 3192   2.666   1.101  16.520 -0.5106  0.1278  0.3149
  206MPD1    N1 3193   2.550   0.844  17.020  0.1945  0.1876 -0.2546
  206MPD1    H6 3194   2.596   0.815  17.106  0.3708  0.6838 -0.1827
  206MPD1    H7 3195   2.520   0.758  16.975  1.7951  0.0222 -1.0116
  207MPD1     C 3196   0.464   3.774   9.356  0.2747  0.4159 -0.2545
  207MPD1    C1 3197   0.385   3.667   9.389 -0.7560 -0.0577  0.0321
  207MPD1    C2 3198   0.380   3.632   9.525  0.2626 -0.3242  0.2179
  207MPD1    C3 3199   0.454   3.690   9.626  0.6228 -0.2708 -0.2314
  207MPD1    C4 3200   0.528   3.798   9.581 -0.7162 -0.9327 -0.4108
  207MPD1    C5 3201   0.539   3.834   9.451 -0.3631 -0.1888 -0.5621
  207MPD1     H 3202   0.307   3.555   9.547 -1.8077  1.4965 -0.2193
  207MPD1    H1 3203   0.596   3.850   9.647  0.7963 -3.9021  0.3536
  207MPD1    H2 3204   0.486   3.798   9.253  0.3396  1.0781 -0.0824
  207MPD1    H3 3205   0.599   3.917   9.415 -0.5093  0.1530 -0.0243
  207MPD1     N 3206   0.459   3.644   9.766 -0.0098  0.1138  0.3730
  207MPD1    H5 3207   0.518   3.704   9.821 -2.0448  0.9506  1.6240
  207MPD1    N1 3208   0.290   3.623   9.294  0.3573  0.7733  0.2187
  207MPD1    H6 3209   0.272   3.524   9.308  1.6687  0.8666  2.5932
  207MPD1    H7 3210   0.318   3.622   9.196  1.1575 -0.8844  0.4548
  208MPD1     C 3211   3.448   2.502  17.096  0.0487  0.0676 -0.6662
  208MPD1    C1 3212   3.395   2.509  16.969 -0.0741 -0.0145  0.1571
  208MPD1    C2 3213   3.280   2.433  16.948  0.7824  1.0590 -0.4308
  208MPD1    C3 3214   3.225   2.354  17.052  0.4600 -0.0102 -0.4931
  208MPD1    C4 3215   3.272   2.371  17.175  0.6342  0.0602 -0.5451
  208MPD1    C5 3216   3.387   2.441  17.193 -0.2920 -0.0230 -0.2552
  208MPD1     H 3217   3.234   2.443  16.851  0.3941 -3.7657 -0.7277
  208MPD1    H1 3218   3.234   2.314  17.259  0.3530  0.6661 -0.2611
  208MPD1    H2 3219   3.541   2.546  17.131 -0.6055  1.6895 -0.9407
  208MPD1    H3 3220   3.429   2.422  17.291  1.6855  1.0581 -0.8891
  208MPD1     N 3221   3.111   2.276  17.021 -0.6977 -0.0672  0.2305
  208MPD1    H5 3222   3.088   2.268  16.922 -1.7997  0.8394  0.4130
  208MPD1    N1 3223   3.445   2.593  16.867 -0.3959  0.7111 -0.0509
  208MPD1    H6 3224   3.538   2.633  16.881 -0.1161  0.3225 -0.8147
  208MPD1    H7 3225   3.447   2.552  16.774 -2.8429  3.1258 -1.1487
  209MPD1     C 3226   0.610   1.994  10.381 -0.1222 -0.9144 -0.2466
  209MPD1    C1 3227   0.670   2.082  10.289  0.3017 -0.0808 -0.2629
  209MPD1    C2 3228   0.695   2.209  10.337  0.3570 -0.6845  0.0544
  209MPD1    C3 3229   0.680   2.233  10.477 -0.4148 -0.4548  0.4497
  209MPD1    C4 3230   0.635   2.134  10.571  0.4849 -0.0378  0.6356
  209MPD1    C5 3231   0.588   2.014  10.515  0.4399  0.0822 -0.0986
  209MPD1     H 3232   0.724   2.289  10.271 -0.0676 -0.5670  0.0130
  209MPD1    H1 3233   0.629   2.149  10.678 -0.5992  0.3687  0.5120
  209MPD1    H2 3234   0.585   1.893  10.349 -1.4394  0.3692 -3.2110
  209MPD1    H3 3235   0.549   1.936  10.580  2.5387 -0.8214  0.0634
  209MPD1     N 3236   0.708   2.360  10.526  0.4242  0.3904 -0.4085
  209MPD1    H5 3237   0.723   2.435  10.459  1.5765 -0.0224 -0.6238
  209MPD1    N1 3238   0.683   2.043  10.157 -0.1104 -0.0650 -0.4896
  209MPD1    H6 3239   0.672   1.942  10.150 -1.2081 -0.1462  2.2570
  209MPD1    H7 3240   0.760   2.077  10.101  1.5560 -0.0903  1.8125
  210MPD1     C 3241   0.722   3.123  11.341  0.6876  0.0056 -0.2758
  210MPD1    C1 3242   0.696   2.988  11.349 -0.1675 -0.0145 -0.2605
  210MPD1    C2 3243   0.682   2.921  11.231 -0.4410  0.8411  0.6293
  210MPD1    C3 3244   0.713   2.976  11.108 -0.5159  0.0702  0.5211
  210MPD1    C4 3245   0.731   3.111  11.108  0.0543 -0.0136 -0.0382
  210MPD1    C5 3246   0.733   3.190  11.224 -0.1748 -0.0110 -0.5183
  210MPD1     H 3247   0.659   2.815  11.232  0.3272  0.6843  2.7613
  210MPD1    H1 3248   0.759   3.166  11.019  1.5316  0.4990  0.7318
  210MPD1    H2 3249   0.734   3.174  11.436  1.8514 -0.8611  0.0417
  210MPD1    H3 3250   0.761   3.295  11.221 -1.9740  0.4577 -0.6604
  210MPD1     N 3251   0.700   2.907  10.984 -0.4791  0.0525 -0.2270
  210MPD1    H5 3252   0.698   2.954  10.894 -0.5130 -0.3075 -0.4149
  210MPD1    N1 3253   0.656   2.936  11.467  0.3010 -0.1618 -0.2327
  210MPD1    H6 3254   0.686   2.986  11.550  0.2595 -1.3913  0.5318
  210MPD1    H7 3255   0.674   2.835  11.466  0.7882 -0.0594 -1.7618
  211MPD1     C 3256   3.170   2.509  16.243 -0.0545  0.5335 -0.4088
  211MPD1    C1 3257   3.180   2.648  16.241  0.6006  1.2424 -0.0271
  211MPD1    C2 3258   3.072   2.717  16.192 -0.6617 -0.0449 -0.2206
  211MPD1    C3 3259   2.964   2.656  16.135 -0.3357  0.2487 -0.2115
  211MPD1    C4 3260   2.969   2.518  16.122 -0.4076 -0.0486 -0.6559
  211MPD1    C5 3261   3.070   2.447  16.178  0.5332 -0.0699 -0.0198
  211MPD1     H 3262   3.073   2.825  16.206  2.1254  0.1058 -1.4649
  211MPD1    H1 3263   2.893   2.456  16.078 -2.3184  0.5037  1.8676
  211MPD1    H2 3264   3.255   2.453  16.280 -0.6004 -0.4465 -0.6326
  211MPD1    H3 3265   3.067   2.338  16.179 -0.7582 -0.0209  0.4539
  211MPD1     N 3266   2.855   2.731  16.092  0.6864  0.3594 -0.1093
  211MPD1    H5 3267   2.862   2.832  16.098  2.5108  0.2714 -0.6211
  211MPD1    N1 3268   3.284   2.719  16.305  0.4580 -0.1707 -0.0904
  211MPD1    H6 3269   3.306   2.813  16.271  0.4358  0.2298  0.9857
  211MPD1    H7 3270   3.375   2.674  16.309  1.2020  1.0242 -3.9553
  212MPD1     C 3271   2.447   1.465  16.397 -0.0480  0.1744  0.2735
  212MPD1    C1 3272   2.524   1.395  16.480 -0.0101 -0.4354  0.3862
  212MPD1    C2 3273   2.456   1.324  16.582 -0.6309  0.6857 -0.7667
  212MPD1    C3 3274   2.330   1.288  16.569  0.1915  1.0926 -0.6967
  212MPD1    C4 3275   2.252   1.348  16.467  0.3691  0.7679  0.1500
  212MPD1    C5 3276   2.313   1.439  16.386 -0.2743 -0.3423 -0.6240
  212MPD1     H 3277   2.509   1.281  16.666 -2.3668 -1.5063 -0.7886
  212MPD1    H1 3278   2.146   1.325  16.464  0.8008 -1.2932  0.9770
  212MPD1    H2 3279   2.486   1.526  16.316 -2.9972  0.1306 -1.1924
  212MPD1    H3 3280   2.253   1.495  16.315 -1.3736 -0.2083  0.4127
  212MPD1     N 3281   2.275   1.198  16.669 -0.3953  0.6797 -0.3525
  212MPD1    H5 3282   2.342   1.158  16.734 -0.0003  0.1918 -1.0701
  212MPD1    N1 3283   2.663   1.430  16.483 -0.0543 -0.2770 -0.5962
  212MPD1    H6 3284   2.696   1.436  16.387 -2.8453 -0.6077 -1.5790
  212MPD1    H7 3285   2.717   1.354  16.524  1.0027 -0.1241 -1.7043
  213MPD1     C 3286   4.102   2.747  15.567  0.4380 -0.9472 -0.6167
  213MPD1    C1 3287   4.010   2.662  15.511 -0.7921  0.4912  0.6629
  213MPD1    C2 3288   4.061   2.540  15.477  0.1692 -0.1176 -0.0828
  213MPD1    C3 3289   4.195   2.505  15.502 -0.4497  0.2661 -0.1166
  213MPD1    C4 3290   4.279   2.592  15.565  0.2277  0.6209 -0.3214
  213MPD1    C5 3291   4.231   2.715  15.605 -0.3418  0.3076  1.0968
  213MPD1     H 3292   3.996   2.472  15.424 -0.5235  1.4887 -1.2680
  213MPD1    H1 3293   4.372   2.553  15.604  0.3379  2.1693  0.9683
  213MPD1    H2 3294   4.081   2.848  15.601  1.8071  0.2245 -3.1762
  213MPD1    H3 3295   4.298   2.775  15.666 -0.6544 -1.8041  3.5416
  213MPD1     N 3296   4.240   2.380  15.450 -0.3634  1.2533  0.1834
  213MPD1    H5 3297   4.170   2.307  15.443  0.1139  0.8350 -0.2351
  213MPD1    N1 3298   3.905   2.720  15.431 -0.0794 -0.3644  0.1840
  213MPD1    H6 3299   3.831   2.654  15.408 -1.2278  0.7072  0.8068
  213MPD1    H7 3300   3.874   2.806  15.477  1.0254 -0.1055  0.4332
  214MPD1     C 3301   3.907   1.639  15.552 -0.6583  0.3263 -0.5660
  214MPD1    C1 3302   4.037   1.601  15.568  0.2947 -0.1579 -0.6774
  214MPD1    C2 3303   4.141   1.681  15.536  0.5778 -0.8649 -0.2121
  214MPD1    C3 3304   4.113   1.804  15.477 -0.5669  0.2695 -0.6940
  214MPD1    C4 3305   3.982   1.847  15.474 -0.1477  0.3452  0.1869
  214MPD1    C5 3306   3.881   1.766  15.511  0.3692  0.2420  0.3691
  214MPD1     H 3307   4.241   1.647  15.558  0.8975 -0.7170 -1.4306
  214MPD1    H1 3308   3.964   1.948  15.437 -3.8068 -1.6378 -3.4368
  214MPD1    H2 3309   3.817   1.580  15.568  0.5255 -0.9770  1.2073
  214MPD1    H3 3310   3.783   1.812  15.503 -1.1903 -2.9267  1.1917
  214MPD1     N 3311   4.210   1.897  15.446  0.7156 -0.3027 -0.1693
  214MPD1    H5 3312   4.175   1.986  15.413 -1.4551 -0.0452  2.8797
  214MPD1    N1 3313   4.066   1.474  15.619  0.0463 -0.8894  1.0657
  214MPD1    H6 3314   3.996   1.402  15.601 -1.6683  0.9146  0.5581
  214MPD1    H7 3315   4.152   1.448  15.571 -0.1743  1.8986 -0.8568
  215MPD1     C 3316   4.630   2.059  10.104  0.5861 -0.4397 -0.7613
  215MPD1    C1 3317   4.723   2.047  10.203 -0.1712  0.0552  0.1009
  215MPD1    C2 3318   0.015   2.162  10.275  0.2708 -0.1800 -1.0814
  215MPD1    C3 3319   4.699   2.281  10.240 -0.0416  1.2185 -0.1792
  215MPD1    C4 3320   4.619   2.293  10.124 -0.3239 -0.1797 -0.5436
  215MPD1    C5 3321   4.587   2.178  10.056 -0.4699  0.6434  0.1306
  215MPD1     H 3322   0.085   2.161  10.358 -0.9145  0.0302 -0.0830
  215MPD1    H1 3323   4.591   2.383  10.070  1.8575  0.8611  0.0675
  215MPD1    H2 3324   4.609   1.975  10.039  0.9014 -0.7170 -0.5088
  215MPD1    H3 3325   4.524   2.195   9.969 -1.0148  0.3567  0.4688
  215MPD1     N 3326   4.736   2.402  10.315 -0.4404 -0.2752  0.6239
  215MPD1    H5 3327   0.043   2.379  10.402 -0.3196  0.8223  0.8512
  215MPD1    N1 3328   0.018   1.923  10.241 -0.2908 -0.2243  0.7541
  215MPD1    H6 3329   0.032   1.858  10.164  2.1462  0.0393  0.9850
  215MPD1    H7 3330   0.111   1.928  10.282  0.5811 -0.0704 -1.2603
  216MPD1     C 3331   2.558   4.281  17.143 -0.1890  0.2594  0.2986
  216MPD1    C1 3332   2.619   4.235  17.253  0.5997 -0.4949  1.3870
  216MPD1    C2 3333   2.535   4.224  17.366  0.3483 -0.6389 -0.0027
  216MPD1    C3 3334   2.401   4.258  17.364 -0.2300 -0.0691  1.1555
  216MPD1    C4 3335   2.347   4.306  17.250  0.3404  0.1170 -0.2712
  216MPD1    C5 3336   2.428   4.315  17.141 -0.0515 -0.0439 -0.3865
  216MPD1     H 3337   2.572   4.183  17.459  0.1139 -3.6362 -1.2355
  216MPD1    H1 3338   2.242   4.334  17.244  0.4679  0.7492  0.4104
  216MPD1    H2 3339   2.611   4.302  17.051 -0.8398 -1.1773 -0.4122
  216MPD1    H3 3340   2.388   4.346  17.045 -0.1639  2.0141  0.3216
  216MPD1     N 3341   2.322   4.248  17.486 -0.1613 -0.0496 -0.1866
  216MPD1    H5 3342   2.362   4.185  17.555 -1.7237 -0.5106  0.3015
  216MPD1    N1 3343   2.747   4.176  17.240  0.5528  0.6872  0.2352
  216MPD1    H6 3344   2.806   4.216  17.167  0.7740  1.9861  1.1391
  216MPD1    H7 3345   2.798   4.175  17.328 -0.8819 -0.5587  1.0553
  217MPD1     C 3346   2.205   1.999   8.693 -0.1189  0.9448  0.0789
  217MPD1    C1 3347   2.330   1.991   8.642  0.7889 -0.9725  0.1095
  217MPD1    C2 3348   2.422   2.082   8.675  0.4393 -0.2574  0.5645
  217MPD1    C3 3349   2.394   2.182   8.772 -0.3251 -0.4139 -0.0154
  217MPD1    C4 3350   2.256   2.195   8.810  0.8073  0.0466  0.7470
  217MPD1    C5 3351   2.165   2.114   8.758  0.0353  0.2432  0.2893
  217MPD1     H 3352   2.520   2.071   8.629 -0.1265 -0.6607 -0.5396
  217MPD1    H1 3353   2.226   2.272   8.880  2.8987  1.7730 -0.2722
  217MPD1    H2 3354   2.129   1.930   8.659  0.3241  1.2539 -1.5104
  217MPD1    H3 3355   2.060   2.123   8.782 -0.0637 -0.7649  0.2663
  217MPD1     N 3356   2.480   2.279   8.816  0.1960  0.0733 -0.4084
  217MPD1    H5 3357   2.440   2.358   8.867  1.1975  0.9833 -1.0192
  217MPD1    N1 3358   2.356   1.896   8.546 -0.0066  0.2968 -0.0058
  217MPD1    H6 3359   2.288   1.822   8.532  0.6986  0.1328 -2.5720
  217MPD1    H7 3360   2.452   1.862   8.550 -0.0085  0.2674 -0.1905
  218MPD1     C 3361   3.927   3.325  12.091 -0.2332 -0.0135 -0.3116
  218MPD1    C1 3362   3.941   3.259  12.212  0.1051  0.1151 -0.6049
  218MPD1    C2 3363   4.044   3.172  12.224  0.0047 -0.4882  0.3963
  218MPD1    C3 3364   4.142   3.158  12.120  0.1844 -0.3699 -0.1065
  218MPD1    C4 3365   4.124   3.221  11.999 -0.1558  0.0447  0.0946
  218MPD1    C5 3366   4.014   3.302  11.990  0.3034  0.2291 -0.0703
  218MPD1     H 3367   4.057   3.120  12.318 -0.4685 -2.0570 -0.4112
  218MPD1    H1 3368   4.188   3.222  11.912  0.3837  1.2352  0.4970
  218MPD1    H2 3369   3.853   3.402  12.071 -0.2054  0.5012  1.5540
  218MPD1    H3 3370   3.999   3.357  11.898 -0.8917 -1.2123 -0.7291
  218MPD1     N 3371   4.256   3.085  12.149 -0.2276  0.5685 -0.0243
  218MPD1    H5 3372   4.265   3.049  12.244  1.7176  0.2643 -0.3268
  218MPD1    N1 3373   3.849   3.292  12.313  0.2597  0.2114  0.1249
  218MPD1    H6 3374   3.839   3.234  12.396 -0.9209 -1.0525 -0.9091
  218MPD1    H7 3375   3.765   3.348  12.297  1.2952  1.2293 -1.7575
  219MPD1     C 3376   0.582   3.078  12.004 -0.3357 -0.0888 -0.3812
  219MPD1    C1 3377   0.491   3.046  11.907  0.2507 -0.9252 -0.2500
  219MPD1    C2 3378   0.363   3.024  11.957  0.0951 -0.2720 -0.3116
  219MPD1    C3 3379   0.334   3.016  12.093 -0.1955 -0.4265 -0.8555
  219MPD1    C4 3380   0.431   3.024  12.183  0.2585  0.1080 -0.1402
  219MPD1    C5 3381   0.553   3.070  12.142 -0.6787  0.5809  0.2873
  219MPD1     H 3382   0.288   3.015  11.878 -1.6006 -2.4680  1.5433
  219MPD1    H1 3383   0.409   3.006  12.288  2.6126 -1.4614  0.0846
  219MPD1    H2 3384   0.678   3.114  11.970  0.7367  0.1986  3.0250
  219MPD1    H3 3385   0.624   3.095  12.220  1.2334  1.1055 -1.6085
  219MPD1     N 3386   0.206   3.004  12.151 -0.5899  0.6733  0.8205
  219MPD1    H5 3387   0.197   3.004  12.252  1.0154  0.2716  0.9676
  219MPD1    N1 3388   0.511   3.063  11.767 -0.1248  0.4778 -0.1847
  219MPD1    H6 3389   0.454   3.000  11.711  0.8395 -1.4720  1.0392
  219MPD1    H7 3390   0.611   3.059  11.747 -0.0485  0.6951  0.1448
  220MPD1     C 3391   4.030   3.899   9.249 -0.4059 -0.0458 -0.0720
  220MPD1    C1 3392   4.165   3.858   9.277 -0.4136  0.5133 -0.0141
  220MPD1    C2 3393   4.190   3.763   9.379 -0.1319  0.0883  0.2900
  220MPD1    C3 3394   4.092   3.700   9.447  0.1004  0.5410  0.5275
  220MPD1    C4 3395   3.965   3.740   9.426 -0.3738  1.1580  0.3110
  220MPD1    C5 3396   3.938   3.833   9.325  0.2501  0.2847  0.8859
  220MPD1     H 3397   4.294   3.750   9.406  0.1662  1.2663 -0.2893
  220MPD1    H1 3398   3.882   3.699   9.482  0.2003  1.1178  1.1273
  220MPD1    H2 3399   3.992   3.976   9.182  1.7035  0.8545 -0.2553
  220MPD1    H3 3400   3.832   3.847   9.305  0.1709 -0.8111  0.5254
  220MPD1     N 3401   4.125   3.592   9.534  0.4519  0.1949 -0.0398
  220MPD1    H5 3402   4.225   3.592   9.553  0.4254 -1.2237  0.1024
  220MPD1    N1 3403   4.265   3.935   9.220 -0.2306 -0.6750 -0.3972
  220MPD1    H6 3404   4.354   3.886   9.215  0.6986  1.0066 -0.1478
  220MPD1    H7 3405   4.243   3.955   9.123 -0.0311 -1.4401 -0.6047
  221MPD1     C 3406   2.453   3.213  15.703  0.2102  0.2007 -0.2303
  221MPD1    C1 3407   2.417   3.103  15.624 -0.0084 -0.2576 -1.0171
  221MPD1    C2 3408   2.499   2.991  15.621  0.1199 -0.4746 -0.1148
  221MPD1    C3 3409   2.608   2.985  15.709  0.8061 -0.1938 -0.2563
  221MPD1    C4 3410   2.642   3.100  15.780  0.2584  0.2928 -0.1246
  221MPD1    C5 3411   2.568   3.216  15.779 -0.1160 -0.3957 -0.1308
  221MPD1     H 3412   2.475   2.907  15.558  1.3328 -0.8838 -0.0247
  221MPD1    H1 3413   2.729   3.086  15.843  0.3991 -0.1442 -0.4132
  221MPD1    H2 3414   2.397   3.305  15.696  0.2886  0.2194 -0.6229
  221MPD1    H3 3415   2.586   3.299  15.847  0.7670 -0.9148  0.2655
  221MPD1     N 3416   2.700   2.881  15.718 -0.5014  0.0160  0.5320
  221MPD1    H5 3417   2.788   2.910  15.758 -0.8613  1.0141  0.5984
  221MPD1    N1 3418   2.314   3.117  15.533  0.1546 -0.5395  0.4682
  221MPD1    H6 3419   2.248   3.193  15.549  1.3000  0.4799  0.3779
  221MPD1    H7 3420   2.267   3.028  15.526  1.4629 -1.1607 -0.5079
  222MPD1     C 3421   1.957   0.136   0.326 -0.4388 -0.0659  0.2654
  222MPD1    C1 3422   1.830   0.138   0.368 -0.2048 -1.0487  0.6778
  222MPD1    C2 3423   1.756   0.256   0.384 -0.2945 -0.5190 -0.4315
  222MPD1    C3 3424   1.816   0.378   0.360 -0.0574 -0.2650 -0.3183
  222MPD1    C4 3425   1.947   0.375   0.322  0.3626  0.1792 -0.0542
  222MPD1    C5 3426   2.015   0.259   0.305 -0.5524 -0.7852  0.5404
  222MPD1     H 3427   1.652   0.240   0.407 -0.6085  0.7905 -0.9198
  222MPD1    H1 3428   2.002   0.462   0.288 -0.9345  1.6200  1.5180
  222MPD1    H2 3429   2.008   0.042   0.309  0.1966  0.6639 -1.7765
  222MPD1    H3 3430   2.119   0.262   0.276 -0.6087  3.7147  0.7250
  222MPD1     N 3431   1.748   0.502   0.372 -0.5608 -0.0075 -0.5059
  222MPD1    H5 3432   1.795   0.589   0.347 -1.9065  0.4219 -1.5176
  222MPD1    N1 3433   1.758   0.015   0.379 -0.4829 -0.3876  0.0122
  222MPD1    H6 3434   1.810   4.673   0.414 -0.9859  0.0023  1.6778
  222MPD1    H7 3435   1.682   0.035   0.444 -0.2830 -0.8188  0.3816
  223MPD1     C 3436   0.964   0.643   1.005  0.0784  0.1465  0.2652
  223MPD1    C1 3437   1.024   0.533   0.942 -0.1658 -0.1299 -0.1635
  223MPD1    C2 3438   1.124   0.555   0.848 -0.2157 -0.4572  0.3238
  223MPD1    C3 3439   1.164   0.691   0.807  0.5115 -1.0441  0.5984
  223MPD1    C4 3440   1.107   0.796   0.874  0.3599 -0.0075 -0.1353
  223MPD1    C5 3441   1.007   0.765   0.968  0.7956  0.1571  0.3890
  223MPD1     H 3442   1.172   0.470   0.801 -2.1803 -1.4087  0.0270
  223MPD1    H1 3443   1.124   0.900   0.847  0.0891  0.0059 -0.2562
  223MPD1    H2 3444   0.875   0.630   1.065 -0.9069  0.2832 -1.1727
  223MPD1    H3 3445   0.963   0.842   1.030  1.2208 -0.9467  2.0719
  223MPD1     N 3446   1.262   0.708   0.701 -0.0747 -0.0006  0.0172
  223MPD1    H5 3447   1.295   0.622   0.658  0.3374  0.5961 -0.8624
  223MPD1    N1 3448   0.988   0.402   0.982 -0.3233 -0.5894  0.4335
  223MPD1    H6 3449   0.886   0.404   0.993 -0.2780  1.0682  0.6524
  223MPD1    H7 3450   1.015   0.338   0.908  0.8066  1.1856 -0.6974
  224MPD1     C 3451   3.790   3.438   9.181  0.4161 -0.2171 -0.9305
  224MPD1    C1 3452   3.660   3.466   9.155  0.1282  0.6036  0.1360
  224MPD1    C2 3453   3.562   3.391   9.225 -0.3890  0.5786  0.7942
  224MPD1    C3 3454   3.599   3.306   9.330 -0.2621 -0.5828  0.4505
  224MPD1    C4 3455   3.733   3.287   9.353  0.6913  0.2315 -0.2187
  224MPD1    C5 3456   3.828   3.353   9.281  0.3217  0.2565  0.5111
  224MPD1     H 3457   3.460   3.384   9.188 -0.4731  0.7008  1.0029
  224MPD1    H1 3458   3.762   3.210   9.424 -0.0579  0.1722  0.0291
  224MPD1    H2 3459   3.869   3.490   9.129  1.1624  0.6727  1.0933
  224MPD1    H3 3460   3.934   3.332   9.283 -0.0232 -1.3198  2.3080
  224MPD1     N 3461   3.500   3.230   9.401  0.4519  0.1339  0.4356
  224MPD1    H5 3462   3.535   3.156   9.461 -2.8944 -1.1095  0.8382
  224MPD1    N1 3463   3.622   3.536   9.039  0.2283  0.0929 -0.2186
  224MPD1    H6 3464   3.527   3.571   9.053  0.7025  0.2823  2.4122
  224MPD1    H7 3465   3.683   3.617   9.029 -0.8674  1.0359  0.7004
  225MPD1     C 3466   4.350   4.069  11.845 -0.2762 -0.8108  0.6179
  225MPD1    C1 3467   4.341   3.956  11.926 -1.2965 -0.2471  0.1734
  225MPD1    C2 3468   4.224   3.928  11.994 -0.5751  0.9694 -0.4976
  225MPD1    C3 3469   4.109   3.993  11.976  0.0815  0.2536  0.0035
  225MPD1    C4 3470   4.113   4.102  11.891 -0.5572 -0.3042 -0.4967
  225MPD1    C5 3471   4.234   4.142  11.834 -0.0374 -0.4092 -0.1388
  225MPD1     H 3472   4.221   3.841  12.059 -0.1583  0.8946 -0.5803
  225MPD1    H1 3473   4.023   4.160  11.870  0.8099  1.3946 -1.6512
  225MPD1    H2 3474   4.441   4.101  11.795  0.5921 -0.6646  2.3154
  225MPD1    H3 3475   4.234   4.237  11.782  0.0660 -0.3296  0.0078
  225MPD1     N 3476   3.980   3.963  12.037  0.1336  0.3840 -0.5954
  225MPD1    H5 3477   3.896   4.013  12.008 -0.6950 -0.6917 -0.0413
  225MPD1    N1 3478   4.458   3.902  11.974 -0.3226 -0.5269 -0.3254
  225MPD1    H6 3479   4.537   3.896  11.909  2.3602  2.0282  2.7012
  225MPD1    H7 3480   4.445   3.815  12.026  0.7334  0.1578  1.0895
  226MPD1     C 3481   2.789   4.227   9.425 -0.0877 -0.6746  0.6414
  226MPD1    C1 3482   2.770   4.116   9.506 -0.3657 -0.5805  0.4561
  226MPD1    C2 3483   2.878   4.065   9.563  0.0028 -0.7373  0.5881
  226MPD1    C3 3484   3.010   4.101   9.539 -0.0478 -0.0015  0.1776
  226MPD1    C4 3485   3.030   4.210   9.452 -0.0057 -0.0074  0.1995
  226MPD1    C5 3486   2.914   4.273   9.401 -0.5183 -0.4921 -0.0137
  226MPD1     H 3487   2.856   3.986   9.634 -0.3965 -0.9637  0.2115
  226MPD1    H1 3488   3.128   4.252   9.434 -0.0473  0.4260  0.9720
  226MPD1    H2 3489   2.709   4.281   9.375  0.4827  0.1369  0.6100
  226MPD1    H3 3490   2.921   4.363   9.341  1.9452  0.1539  1.2318
  226MPD1     N 3491   3.113   4.025   9.601  0.2044  0.3605 -0.1721
  226MPD1    H5 3492   3.077   3.956   9.666 -0.3565 -0.4284 -1.3294
  226MPD1    N1 3493   2.649   4.077   9.566  0.2039  0.3823 -0.5163
  226MPD1    H6 3494   2.570   4.080   9.502 -0.3645  2.0651  0.2481
  226MPD1    H7 3495   2.658   3.977   9.582  1.0525  0.5420  0.0006
  227MPD1     C 3496   4.161   3.793   9.830  0.0396 -0.4150  0.2214
  227MPD1    C1 3497   4.086   3.692   9.874  0.0935  0.1354 -0.2881
  227MPD1    C2 3498   3.950   3.701   9.854  0.3557  0.6066 -0.3206
  227MPD1    C3 3499   3.896   3.790   9.767 -0.0862 -1.0598  0.3361
  227MPD1    C4 3500   3.976   3.883   9.707 -0.0630 -0.5565 -0.3468
  227MPD1    C5 3501   4.109   3.883   9.744  0.0522  0.3208  0.4293
  227MPD1     H 3502   3.886   3.629   9.905 -0.5667  1.3112 -0.4844
  227MPD1    H1 3503   3.941   3.955   9.634  1.5913  0.7086  0.1175
  227MPD1    H2 3504   4.264   3.794   9.861  0.3833 -1.4140 -0.8923
  227MPD1    H3 3505   4.184   3.952   9.706 -0.5638  1.4210  1.2079
  227MPD1     N 3506   3.761   3.780   9.726  0.2828  0.2720  0.2624
  227MPD1    H5 3507   3.712   3.697   9.758 -0.2646 -0.0744 -1.4699
  227MPD1    N1 3508   4.139   3.608   9.973 -0.3550 -0.0817  0.3251
  227MPD1    H6 3509   4.237   3.583   9.964 -0.1343  0.6235  0.7337
  227MPD1    H7 3510   4.087   3.522   9.987  0.7673 -0.7908  0.0907
  228MPD1     C 3511   2.028   1.082  13.390 -0.4366 -0.4335 -0.0214
  228MPD1    C1 3512   1.973   0.955  13.368  0.0338 -0.0624 -0.3971
  228MPD1    C2 3513   1.907   0.927  13.252 -0.6158 -0.1191  0.2373
  228MPD1    C3 3514   1.897   1.024  13.150 -0.3045  0.2899  0.2505
  228MPD1    C4 3515   1.954   1.149  13.174 -1.0817  0.0254 -0.2206
  228MPD1    C5 3516   2.027   1.168  13.286  0.2819  0.0852  0.4289
  228MPD1     H 3517   1.868   0.830  13.224  2.2511 -0.7556 -1.4518
  228MPD1    H1 3518   1.951   1.224  13.097 -0.0688  0.0048 -0.2804
  228MPD1    H2 3519   2.087   1.097  13.480 -0.0508  2.7352 -0.8064
  228MPD1    H3 3520   2.081   1.262  13.293  1.4842 -0.7069  1.8565
  228MPD1     N 3521   1.814   1.001  13.039 -0.1690 -0.3415 -0.1864
  228MPD1    H5 3522   1.759   0.917  13.057  0.4785 -0.4466  1.3316
  228MPD1    N1 3523   1.964   0.862  13.475 -0.2791  0.0962 -0.1848
  228MPD1    H6 3524   2.043   0.856  13.538  1.0315 -1.9539 -1.9991
  228MPD1    H7 3525   1.957   0.768  13.436  0.5810 -0.0209 -0.0617
  229MPD1     C 3526   0.307   0.463  14.783  0.0989 -0.1827 -0.3480
  229MPD1    C1 3527   0.431   0.517  14.812 -0.0877 -0.2510  0.0613
  229MPD1    C2 3528   0.533   0.432  14.857  0.0190  0.4240 -0.2279
  229MPD1    C3 3529   0.508   0.297  14.885 -0.2654 -0.0751  0.2784
  229MPD1    C4 3530   0.380   0.247  14.856 -0.5332  0.2020 -0.4718
  229MPD1    C5 3531   0.286   0.335  14.800 -0.3109 -0.0059 -0.7852
  229MPD1     H 3532   0.636   0.466  14.859  1.3840 -3.5036 -4.0769
  229MPD1    H1 3533   0.367   0.143  14.887  2.0282  0.4637  1.4502
  229MPD1    H2 3534   0.232   0.526  14.738  0.2139  0.7540  0.7794
  229MPD1    H3 3535   0.185   0.297  14.786 -0.2912 -0.3450  0.0226
  229MPD1     N 3536   0.605   0.213  14.939  0.0213 -0.3834  0.3239
  229MPD1    H5 3537   0.607   0.113  14.919  2.1041 -0.1538 -0.5744
  229MPD1    N1 3538   0.457   0.648  14.762 -0.6284 -0.2482  0.2959
  229MPD1    H6 3539   0.528   0.701  14.812 -0.6205  0.4187 -0.4242
  229MPD1    H7 3540   0.378   0.712  14.760  1.6148  2.4792 -0.5647
  230MPD1     C 3541   1.556   0.029  15.443  0.2487  0.1678 -0.3646
  230MPD1    C1 3542   1.459   4.704  15.515 -0.2867  0.0532  0.4891
  230MPD1    C2 3543   1.330   4.724  15.481  0.3633 -0.2433 -0.2686
  230MPD1    C3 3544   1.298   0.038  15.357  0.4764 -0.9659 -0.5543
  230MPD1    C4 3545   1.400   0.093  15.283 -0.2373 -0.1775  0.1042
  230MPD1    C5 3546   1.527   0.091  15.326  0.3261 -0.9856 -0.3344
  230MPD1     H 3547   1.247   4.696  15.545 -1.4253  2.1867 -1.5259
  230MPD1    H1 3548   1.378   0.138  15.187 -3.5463 -0.0576  0.9235
  230MPD1    H2 3549   1.661   0.033  15.470 -0.0200 -0.4382  0.7689
  230MPD1    H3 3550   1.608   0.115  15.258 -0.3404  2.5064  0.1151
  230MPD1     N 3551   1.165   0.037  15.311  0.1790  0.0173 -0.1231
  230MPD1    H5 3552   1.091   4.727  15.362 -0.7840 -0.6518 -2.1471
  230MPD1    N1 3553   1.495   4.646  15.643 -0.1050  0.4313 -0.1684
  230MPD1    H6 3554   1.596   4.632  15.631  0.2304  2.1368  0.6875
  230MPD1    H7 3555   1.434   4.571  15.673  2.2936 -1.3270  0.3647
  231MPD1     C 3556   4.114   2.517  15.137 -0.0854  0.3865 -0.1571
  231MPD1    C1 3557   4.103   2.385  15.085  0.2712  0.0589  0.0348
  231MPD1    C2 3558   4.208   2.328  15.016 -0.2316 -0.1094 -0.1871
  231MPD1    C3 3559   4.330   2.395  15.017 -0.5852  0.0439 -0.3452
  231MPD1    C4 3560   4.343   2.524  15.069 -0.5389 -0.1935 -0.1035
  231MPD1    C5 3561   4.229   2.583  15.120  0.4088  0.3883 -0.1232
  231MPD1     H 3562   4.204   2.227  14.975 -3.0786  0.8239 -2.2186
  231MPD1    H1 3563   4.438   2.576  15.065 -1.1190  0.9353  0.7588
  231MPD1    H2 3564   4.027   2.578  15.160  0.1626  0.7881 -0.2805
  231MPD1    H3 3565   4.229   2.686  15.156  1.3182  0.6110 -0.7690
  231MPD1     N 3566   4.435   2.320  14.967 -0.0269 -0.1905 -0.7639
  231MPD1    H5 3567   4.422   2.227  14.926 -0.0919  0.4098 -2.1099
  231MPD1    N1 3568   3.979   2.317  15.082  0.1452  0.3967  0.0196
  231MPD1    H6 3569   3.953   2.293  14.987  1.6126 -1.6442  0.1342
  231MPD1    H7 3570   3.905   2.374  15.123  1.2756  2.1139 -0.3101
  232MPD1     C 3571   1.398   3.980   0.376  0.9517  0.2415  0.6005
  232MPD1    C1 3572   1.306   3.893   0.326 -0.0012 -0.7744 -0.1146
  232MPD1    C2 3573   1.198   3.949   0.255  0.8330  0.1101 -0.3613
  232MPD1    C3 3574   1.186   4.085   0.232  0.2693  0.2255  0.1988
  232MPD1    C4 3575   1.274   4.168   0.296 -0.2142  0.0466 -0.1687
  232MPD1    C5 3576   1.375   4.114   0.374  0.5646 -0.2393 -0.8248
  232MPD1     H 3577   1.111   3.888   0.236  0.2334  0.8984 -0.1771
  232MPD1    H1 3578   1.260   4.276   0.299  0.5694  0.1372  0.1438
  232MPD1    H2 3579   1.482   3.950   0.438  1.7135  0.2852 -0.4243
  232MPD1    H3 3580   1.443   4.187   0.417 -0.5686 -0.3861  1.2461
  232MPD1     N 3581   1.076   4.125   0.154 -0.5724 -0.3889 -0.1354
  232MPD1    H5 3582   1.026   4.054   0.102 -2.0679  1.5650 -1.4119
  232MPD1    N1 3583   1.313   3.757   0.361  0.1050  0.5923  0.4419
  232MPD1    H6 3584   1.399   3.727   0.405 -0.1579 -0.5735  0.1628
  232MPD1    H7 3585   1.266   3.690   0.300  1.2675 -1.4255  1.7711
  233MPD1     C 3586   0.499   2.228   0.769  0.4230 -0.4197  0.1104
  233MPD1    C1 3587   0.568   2.322   0.689  0.3181 -0.3252 -0.7272
  233MPD1    C2 3588   0.692   2.292   0.639  0.0632 -0.1777 -0.5191
  233MPD1    C3 3589   0.749   2.166   0.671 -0.2823  0.8145  0.2506
  233MPD1    C4 3590   0.671   2.069   0.740  0.6780 -0.3340  0.1589
  233MPD1    C5 3591   0.554   2.105   0.799  0.2787  0.1483 -0.2528
  233MPD1     H 3592   0.739   2.352   0.562  0.8009 -1.3263 -0.9471
  233MPD1    H1 3593   0.701   1.965   0.744  0.9871 -0.2133  0.9337
  233MPD1    H2 3594   0.402   2.249   0.812 -0.0529  1.3130 -1.8534
  233MPD1    H3 3595   0.492   2.032   0.850  0.8164 -2.1633 -2.9127
  233MPD1     N 3596   0.885   2.139   0.655  0.1203 -0.5890 -0.0385
  233MPD1    H5 3597   0.926   2.074   0.721  0.5037 -0.5025 -0.1921
  233MPD1    N1 3598   0.493   2.433   0.646 -0.4460 -0.0122 -0.6113
  233MPD1    H6 3599   0.405   2.451   0.696  0.1103  0.4983  0.1877
  233MPD1    H7 3600   0.540   2.521   0.666  0.9403 -0.7827 -0.5304
  234MPD1     C 3601   3.636   1.228   9.326 -0.1514 -0.1392 -0.7571
  234MPD1    C1 3602   3.541   1.286   9.233  0.1832  0.5783 -0.3646
  234MPD1    C2 3603   3.531   1.425   9.230  0.1895 -0.0580  0.7417
  234MPD1    C3 3604   3.602   1.504   9.324 -0.1657 -0.7215 -0.3832
  234MPD1    C4 3605   3.685   1.440   9.418  0.0518 -0.0234 -0.6542
  234MPD1    C5 3606   3.704   1.308   9.409 -0.7641 -0.3167 -0.0597
  234MPD1     H 3607   3.469   1.477   9.158  0.5941 -0.2360  0.2629
  234MPD1    H1 3608   3.739   1.482   9.503 -2.4311 -0.7749  1.2861
  234MPD1    H2 3609   3.653   1.121   9.326 -0.5545 -0.2045 -0.5919
  234MPD1    H3 3610   3.768   1.260   9.483 -0.9300 -1.3578 -0.5932
  234MPD1     N 3611   3.575   1.648   9.328 -0.4757 -0.2863  0.1385
  234MPD1    H5 3612   3.518   1.684   9.253  0.2202 -0.6244 -0.5505
  234MPD1    N1 3613   3.466   1.204   9.149  0.1923 -0.3175  0.0015
  234MPD1    H6 3614   3.373   1.238   9.128  0.4133 -0.6141 -1.4200
  234MPD1    H7 3615   3.454   1.109   9.184  1.8526 -0.7655 -0.6140
  235MPD1     C 3616   0.133   3.862   9.770  0.2138 -0.5565  0.0347
  235MPD1    C1 3617   0.234   3.934   9.712  0.1136  0.1163  0.0076
  235MPD1    C2 3618   0.322   3.998   9.800 -0.1362  0.4018 -0.2421
  235MPD1    C3 3619   0.331   3.968   9.934  0.5088  0.0153  0.7009
  235MPD1    C4 3620   0.244   3.871   9.979 -0.0166 -0.7793 -0.3794
  235MPD1    C5 3621   0.151   3.812   9.897  0.4711 -0.0729 -0.2309
  235MPD1     H 3622   0.389   4.067   9.750 -0.7769  0.5232 -0.9385
  235MPD1    H1 3623   0.239   3.838  10.082  1.0907 -1.2124 -0.4645
  235MPD1    H2 3624   0.048   3.816   9.722  0.2060  0.1492 -0.6210
  235MPD1    H3 3625   0.074   3.748   9.938  0.9142 -1.4594 -1.5921
  235MPD1     N 3626   0.429   4.024  10.016 -0.4999  0.3935  0.2443
  235MPD1    H5 3627   0.492   4.089   9.968 -0.5056 -0.2690 -0.6611
  235MPD1    N1 3628   0.231   3.963   9.575 -0.4199 -0.3969  0.1192
  235MPD1    H6 3629   0.325   3.977   9.537 -0.1783  1.1370  1.2691
  235MPD1    H7 3630   0.178   3.896   9.518  0.7470 -1.0417 -0.2162
  236MPD1     C 3631   4.001   0.536   9.910  0.2144 -0.2111 -0.1004
  236MPD1    C1 3632   4.039   0.437   9.823 -1.0597 -0.2253  0.4429
  236MPD1    C2 3633   4.150   0.360   9.850  0.0034  0.0721  0.3668
  236MPD1    C3 3634   4.209   0.370   9.973  0.7011  0.0949 -0.2311
  236MPD1    C4 3635   4.159   0.459  10.068 -0.6649  0.5015 -0.0261
  236MPD1    C5 3636   4.058   0.541  10.034  1.1791 -0.4903 -0.4967
  236MPD1     H 3637   4.196   0.291   9.780 -0.9729  1.6096 -1.8175
  236MPD1    H1 3638   4.196   0.456  10.170 -1.2562  0.2715  0.1806
  236MPD1    H2 3639   3.913   0.598   9.896  0.5757  0.6915  1.5821
  236MPD1    H3 3640   4.011   0.601  10.112  0.8709  1.9948 -2.6012
  236MPD1     N 3641   4.335   0.307  10.009  0.3570 -0.5669  0.7301
  236MPD1    H5 3642   4.387   0.348  10.086 -2.0985  0.5546  1.7860
  236MPD1    N1 3643   3.990   0.434   9.690 -0.5566 -0.4234 -0.0590
  236MPD1    H6 3644   3.979   0.339   9.654 -1.7337 -0.3277  0.0417
  236MPD1    H7 3645   3.896   0.475   9.690 -0.5425 -0.3967  1.8113
  237MPD1     C 3646   0.097   3.020  14.728  0.1240  0.0611  0.0641
  237MPD1    C1 3647   0.099   3.155  14.698  0.1179 -0.6462 -0.2163
  237MPD1    C2 3648   0.007   3.238  14.755  0.1483 -0.4325 -0.5103
  237MPD1    C3 3649   4.639   3.195  14.835 -0.4206 -0.1151 -0.2526
  237MPD1    C4 3650   4.642   3.062  14.866 -0.0481  0.3131 -0.8729
  237MPD1    C5 3651   0.003   2.980  14.817 -0.2974 -0.1018 -0.2474
  237MPD1     H 3652   0.008   3.343  14.728  0.1332 -0.7012 -1.5424
  237MPD1    H1 3653   4.567   3.015  14.928 -0.7648  0.7194 -1.4252
  237MPD1    H2 3654   0.164   2.941  14.697 -1.4100 -0.6614 -1.4513
  237MPD1    H3 3655   4.738   2.875  14.844  1.3845 -0.7817 -2.6525
  237MPD1     N 3656   4.527   3.265  14.886  0.3847 -0.0203 -0.0284
  237MPD1    H5 3657   4.463   3.219  14.950  0.7764 -0.1775  0.2506
  237MPD1    N1 3658   0.182   3.194  14.596 -0.3287 -0.0355  0.0419
  237MPD1    H6 3659   0.276   3.157  14.611 -0.6901 -1.2193 -0.6690
  237MPD1    H7 3660   0.196   3.294  14.596 -0.0491 -0.0796 -3.6387
  238MPD1     C 3661   1.576   2.013  14.943  0.2021  0.1801  0.0365
  238MPD1    C1 3662   1.490   1.930  15.004  0.0087 -0.1605 -0.2323
  238MPD1    C2 3663   1.356   1.917  14.951  0.1940 -0.0543 -0.0408
  238MPD1    C3 3664   1.325   1.947  14.825  0.3506 -0.1746  0.3634
  238MPD1    C4 3665   1.425   2.006  14.752  0.0269 -0.1389 -0.1868
  238MPD1    C5 3666   1.541   2.047  14.814  0.5004  0.9181  0.1365
  238MPD1     H 3667   1.293   1.847  15.005 -0.2163  0.7724  0.5583
  238MPD1    H1 3668   1.420   2.032  14.646 -1.1772  0.2671 -0.0341
  238MPD1    H2 3669   1.674   2.038  14.982 -0.2627  2.5647 -0.2933
  238MPD1    H3 3670   1.612   2.105  14.756 -0.2776  2.7090  0.9664
  238MPD1     N 3671   1.201   1.928  14.766  0.7445  0.0586  0.4437
  238MPD1    H5 3672   1.204   1.956  14.669 -1.6775 -1.0826  0.0377
  238MPD1    N1 3673   1.518   1.881  15.128  0.0272  0.0355  0.3720
  238MPD1    H6 3674   1.475   1.791  15.149  0.1443 -0.0925  0.0686
  238MPD1    H7 3675   1.616   1.854  15.119  0.2596  0.2117  2.2594
  239MPD1     C 3676   1.388   2.365  14.689  0.1108 -0.1770 -0.3327
  239MPD1    C1 3677   1.478   2.473  14.676 -0.4680 -0.0991  0.1415
  239MPD1    C2 3678   1.458   2.559  14.571 -0.9654  0.7703  0.2172
  239MPD1    C3 3679   1.338   2.553  14.493 -0.4076 -0.3255 -0.9403
  239MPD1    C4 3680   1.244   2.454  14.517  0.8365 -0.1520  0.1611
  239MPD1    C5 3681   1.271   2.363  14.616  0.2360  0.3700 -0.3701
  239MPD1     H 3682   1.524   2.644  14.559  1.7581 -1.5584 -1.0191
  239MPD1    H1 3683   1.150   2.448  14.465  0.6504  2.4192  0.1714
  239MPD1    H2 3684   1.400   2.282  14.758 -0.7463 -0.7900 -0.9202
  239MPD1    H3 3685   1.193   2.291  14.636 -0.3900  1.4297  0.9982
  239MPD1     N 3686   1.314   2.657  14.398  0.1760 -0.3299 -0.4645
  239MPD1    H5 3687   1.225   2.666  14.349 -0.3347  1.2987  0.7481
  239MPD1    N1 3688   1.606   2.476  14.744 -0.3332 -0.4399  0.4031
  239MPD1    H6 3689   1.599   2.441  14.839  0.3146 -4.1202 -0.8707
  239MPD1    H7 3690   1.636   2.573  14.747  0.3845 -0.6770  0.7581
  240MPD1     C 3691   1.045   2.243  13.574  0.3038  0.1389  0.3420
  240MPD1    C1 3692   0.906   2.241  13.582 -0.4203  0.3333 -0.0271
  240MPD1    C2 3693   0.846   2.232  13.708 -0.4013 -0.4405 -0.1528
  240MPD1    C3 3694   0.924   2.235  13.818  0.1350 -0.1662  0.4274
  240MPD1    C4 3695   1.059   2.241  13.808 -0.3391 -0.6117 -0.0996
  240MPD1    C5 3696   1.120   2.228  13.689  0.1919  0.2733 -0.6678
  240MPD1     H 3697   0.738   2.226  13.716 -0.2157 -0.8174  2.3367
  240MPD1    H1 3698   1.123   2.254  13.895  0.6984  0.3100 -0.9969
  240MPD1    H2 3699   1.097   2.252  13.479  1.4976 -1.7379  0.8160
  240MPD1    H3 3700   1.226   2.244  13.674  0.0125  1.0799 -1.0724
  240MPD1     N 3701   0.862   2.232  13.947  0.0141  0.8341  1.0694
  240MPD1    H5 3702   0.761   2.225  13.938 -0.1033  1.4357  1.8699
  240MPD1    N1 3703   0.830   2.237  13.466 -0.0115  0.6466  0.3332
  240MPD1    H6 3704   0.736   2.274  13.480 -0.6923  0.2413 -3.1647
  240MPD1    H7 3705   0.852   2.307  13.396  1.4431  0.0264  0.1698
  241MPD1     C 3706   0.915   2.279  15.020 -0.0196  0.5047 -0.8915
  241MPD1    C1 3707   1.005   2.226  14.931 -0.4352  0.1739  0.8740
  241MPD1    C2 3708   0.974   2.221  14.796  0.7656  0.0284 -0.0727
  241MPD1    C3 3709   0.846   2.258  14.755  0.7716  0.4635  1.4137
  241MPD1    C4 3710   0.752   2.305  14.845 -0.3359  0.6204 -0.0877
  241MPD1    C5 3711   0.790   2.308  14.976 -0.1925 -0.6269 -0.3913
  241MPD1     H 3712   1.057   2.192  14.732  0.7492 -1.5882  0.6580
  241MPD1    H1 3713   0.645   2.319  14.832 -0.3837  1.5526  1.1752
  241MPD1    H2 3714   0.938   2.297  15.124  2.3814 -0.5195 -1.2457
  241MPD1    H3 3715   0.710   2.334  15.044 -0.7533 -0.5165 -1.0855
  241MPD1     N 3716   0.805   2.257  14.622  0.0136 -0.3743 -0.0234
  241MPD1    H5 3717   0.711   2.287  14.598  1.6939  4.2943 -0.8442
  241MPD1    N1 3718   1.139   2.219  14.966 -0.2690  0.4860 -0.1246
  241MPD1    H6 3719   1.192   2.165  14.898 -0.1913  1.3648 -0.7562
  241MPD1    H7 3720   1.144   2.168  15.055  0.8211 -1.3675 -1.2477
  242MPD1     C 3721   1.044   1.183  14.879  0.0108  0.1854  0.0938
  242MPD1    C1 3722   1.013   1.170  14.745 -0.4735 -0.1205 -0.0509
  242MPD1    C2 3723   0.959   1.052  14.705 -0.4326  0.2079  0.5603
  242MPD1    C3 3724   0.923   0.953  14.796 -0.4376  0.2089  0.2160
  242MPD1    C4 3725   0.960   0.968  14.927  0.4612 -0.1476  0.3125
  242MPD1    C5 3726   1.019   1.081  14.970  0.0953 -0.1353  0.4510
  242MPD1     H 3727   0.933   1.042  14.600  1.0061  1.1628  0.1165
  242MPD1    H1 3728   0.931   0.896  15.003 -1.7298 -0.4926 -0.8464
  242MPD1    H2 3729   1.089   1.276  14.911  0.1485  1.0311 -2.5607
  242MPD1    H3 3730   1.039   1.100  15.075  2.1438 -1.7113  0.3409
  242MPD1     N 3731   0.856   0.838  14.760  0.0767  0.3981  0.4750
  242MPD1    H5 3732   0.816   0.776  14.830  1.2285  0.5527  1.2607
  242MPD1    N1 3733   1.051   1.270  14.655 -0.0283 -0.2213 -0.2844
  242MPD1    H6 3734   1.052   1.364  14.694 -2.7979 -0.0461 -0.6374
  242MPD1    H7 3735   0.986   1.274  14.577  1.0474 -1.1252 -1.2170
  243MPD1     C 3736   1.251   4.116  17.405  0.5242  0.5720  0.7894
  243MPD1    C1 3737   1.290   4.024  17.504  0.1392 -0.0711 -0.6571
  243MPD1    C2 3738   1.399   3.938  17.481 -0.1204  0.0094  0.0300
  243MPD1    C3 3739   1.465   3.939  17.366 -0.2225  0.2651  0.6558
  243MPD1    C4 3740   1.421   4.030  17.268 -0.9194  0.0102  0.4106
  243MPD1    C5 3741   1.321   4.112  17.286  0.2986  0.3727  0.4499
  243MPD1     H 3742   1.433   3.878  17.565 -0.1208 -0.6232 -0.4154
  243MPD1    H1 3743   1.460   4.034  17.167  1.2765  1.5635  1.3125
  243MPD1    H2 3744   1.158   4.171  17.414  1.0977  1.7767 -0.7475
  243MPD1    H3 3745   1.300   4.178  17.203  1.3327  0.2610  0.0994
  243MPD1     N 3746   1.583   3.866  17.356  0.0652 -0.2503 -0.3851
  243MPD1    H5 3747   1.613   3.814  17.438  1.7007  0.1671 -0.7278
  243MPD1    N1 3748   1.230   4.031  17.631  0.4471  0.3968  0.4203
  243MPD1    H6 3749   1.233   3.939  17.676  0.4582  1.5125  2.6975
  243MPD1    H7 3750   1.133   4.062  17.634  0.4433  0.6251 -2.2480
  244MPD1     C 3751   2.003   3.013  17.597 -0.8024  0.5531  0.2365
  244MPD1    C1 3752   2.014   3.000  17.462  0.2585 -0.4022 -0.0986
  244MPD1    C2 3753   2.008   3.115  17.382  0.2674 -0.3379  0.6715
  244MPD1    C3 3754   1.949   3.230  17.437 -1.0716 -0.4402  0.2810
  244MPD1    C4 3755   1.923   3.233  17.575  0.0073  0.0133 -0.1828
  244MPD1    C5 3756   1.962   3.126  17.651 -0.0450  0.7959  0.2971
  244MPD1     H 3757   2.033   3.104  17.277 -2.7615 -1.4680  0.0753
  244MPD1    H1 3758   1.880   3.317  17.627 -0.6088 -0.3210 -0.1510
  244MPD1    H2 3759   2.012   2.926  17.661  5.0069  1.0400  0.0364
  244MPD1    H3 3760   1.934   3.129   0.001 -1.6306  2.2662 -0.1659
  244MPD1     N 3761   1.924   3.338  17.356  0.2510 -0.1876 -0.0393
  244MPD1    H5 3762   1.948   3.335  17.257  0.9022  0.2165  0.1033
  244MPD1    N1 3763   2.068   2.887  17.407 -0.4763 -0.7032  0.7289
  244MPD1    H6 3764   2.049   2.808  17.470  0.5523 -0.8812  0.8057
  244MPD1    H7 3765   2.036   2.868  17.312  0.8990 -1.8110  0.4916
  245MPD1     C 3766   4.391   0.194  12.523  0.1576  0.1097 -0.1287
  245MPD1    C1 3767   4.295   0.173  12.610 -0.4446 -0.0086  0.6770
  245MPD1    C2 3768   4.312   0.194  12.747 -0.1749 -0.0037  0.0613
  245MPD1    C3 3769   4.429   0.267  12.787 -0.1207  0.3841 -0.4094
  245MPD1    C4 3770   4.528   0.298  12.695 -0.1306 -0.5338  0.5347
  245MPD1    C5 3771   4.504   0.249  12.563  0.7031  0.6570 -0.3294
  245MPD1     H 3772   4.240   0.176  12.825 -1.3330 -1.5140 -1.3543
  245MPD1    H1 3773   4.624   0.339  12.725 -0.4238  1.2263 -0.9072
  245MPD1    H2 3774   4.381   0.173  12.417  0.5566  2.5869 -0.6693
  245MPD1    H3 3775   4.575   0.268  12.482  1.1334 -0.6085 -0.2520
  245MPD1     N 3776   4.438   0.302  12.921  0.1905  0.3944  0.3384
  245MPD1    H5 3777   4.359   0.279  12.981 -0.8455 -2.2928 -2.0463
  245MPD1    N1 3778   4.184   0.105  12.559  0.0892  0.3818  0.0662
  245MPD1    H6 3779   4.151   0.135  12.467 -3.7881  4.9884  2.9215
  245MPD1    H7 3780   4.107   0.104  12.626  0.1011 -1.1455  0.0626
  246MPD1     C 3781   0.985   1.897   9.734 -0.0208  0.1117 -0.2559
  246MPD1    C1 3782   0.872   1.826   9.715 -0.7266  0.1787  0.0724
  246MPD1    C2 3783   0.867   1.702   9.649 -0.1674  0.0691  0.1998
  246MPD1    C3 3784   0.981   1.650   9.585  0.4536 -0.2391 -0.1338
  246MPD1    C4 3785   1.095   1.723   9.600 -0.5150  0.2757 -0.4523
  246MPD1    C5 3786   1.102   1.843   9.673  0.6880 -0.3475 -0.0669
  246MPD1     H 3787   0.773   1.650   9.633  0.0853 -0.0932 -0.7979
  246MPD1    H1 3788   1.188   1.706   9.547 -0.6895  0.2410 -0.7480
  246MPD1    H2 3789   0.996   1.984   9.798 -0.3963 -0.8765  1.1389
  246MPD1    H3 3790   1.196   1.898   9.675  0.4214  0.0770  0.9132
  246MPD1     N 3791   0.980   1.522   9.522  0.3662 -1.0470 -0.7136
  246MPD1    H5 3792   0.894   1.469   9.528 -0.5498  0.5723  0.5940
  246MPD1    N1 3793   0.748   1.897   9.753 -0.5684 -0.2575 -0.4290
  246MPD1    H6 3794   0.766   1.966   9.825  1.3683 -1.7644  0.5300
  246MPD1    H7 3795   0.688   1.827   9.797  1.4201 -0.9730  1.1452
  247MPD1     C 3796   3.639   0.817  16.803 -0.2449 -0.2821  0.6524
  247MPD1    C1 3797   3.741   0.812  16.712 -0.0686 -0.7510 -0.0650
  247MPD1    C2 3798   3.726   0.719  16.611 -0.0535  0.6151  0.1356
  247MPD1    C3 3799   3.624   0.623  16.610  0.1589 -0.4214 -0.2705
  247MPD1    C4 3800   3.547   0.617  16.719 -0.8580 -0.1724 -1.0547
  247MPD1    C5 3801   3.550   0.719  16.810 -0.2862  0.6368 -0.4418
  247MPD1     H 3802   3.796   0.715  16.528  1.5866 -1.1276  1.5904
  247MPD1    H1 3803   3.459   0.554  16.716 -0.5353 -0.6373 -0.6292
  247MPD1    H2 3804   3.644   0.884  16.888  0.7303  0.7319 -0.2178
  247MPD1    H3 3805   3.465   0.724  16.877 -0.0811 -1.2331 -0.0284
  247MPD1     N 3806   3.608   0.521  16.512  0.3294  0.3067 -0.2781
  247MPD1    H5 3807   3.556   0.437  16.536 -0.3712  0.5777 -0.8189
  247MPD1    N1 3808   3.830   0.920  16.696  0.0870  0.5484  0.5181
  247MPD1    H6 3809   3.914   0.884  16.652 -0.7274  2.2922 -2.4918
  247MPD1    H7 3810   3.849   0.963  16.786 -0.5453  0.0413  0.8907
  248MPD1     C 3811   3.794   2.809   0.045  0.1969 -0.9835  0.7685
  248MPD1    C1 3812   3.751   2.760   0.166  0.5083  0.0512  0.6782
  248MPD1    C2 3813   3.681   2.834   0.260  0.4825 -0.2606  0.2684
  248MPD1    C3 3814   3.647   2.961   0.235 -0.6047  0.3455 -0.8860
  248MPD1    C4 3815   3.684   3.017   0.112  0.0436  0.2139  0.6991
  248MPD1    C5 3816   3.750   2.939   0.019 -0.4841 -0.2642 -0.4040
  248MPD1     H 3817   3.647   2.783   0.349 -1.0063  0.6758  0.2381
  248MPD1    H1 3818   3.658   3.116   0.077 -0.3071 -0.5371 -1.1800
  248MPD1    H2 3819   3.852   2.743  17.736 -0.7651 -0.3374 -0.7810
  248MPD1    H3 3820   3.767   2.987  17.678  1.5242 -0.8522 -0.3405
  248MPD1     N 3821   3.591   3.033   0.340  0.0130  0.3296 -0.6107
  248MPD1    H5 3822   3.569   2.984   0.426  0.2804 -2.0001 -1.8928
  248MPD1    N1 3823   3.768   2.621   0.193  0.2729 -0.0324  0.1952
  248MPD1    H6 3824   3.710   2.583   0.267  1.1717  0.7412  1.3135
  248MPD1    H7 3825   3.868   2.604   0.200  0.6822  1.7886 -1.0613
  249MPD1     C 3826   1.148   4.005   9.660  0.7442 -0.0216  0.1568
  249MPD1    C1 3827   1.097   3.909   9.747 -0.6735  0.3603  0.1224
  249MPD1    C2 3828   1.032   3.795   9.703  0.5398 -0.3525  0.4914
  249MPD1    C3 3829   0.993   3.792   9.572  0.7428  0.8448  0.1346
  249MPD1    C4 3830   1.036   3.891   9.481  0.1171 -0.2006  0.7624
  249MPD1    C5 3831   1.116   3.993   9.525  0.6935  0.0460 -0.2646
  249MPD1     H 3832   1.008   3.717   9.775 -0.5045 -0.4730  0.0171
  249MPD1    H1 3833   1.006   3.895   9.377  0.1808 -0.1136  0.7467
  249MPD1    H2 3834   1.204   4.092   9.692 -0.6311  1.3212 -1.1174
  249MPD1    H3 3835   1.147   4.072   9.457 -1.0999 -0.6281 -1.8662
  249MPD1     N 3836   0.897   3.693   9.547  0.0537 -0.3214  0.1272
  249MPD1    H5 3837   0.866   3.644   9.630  0.3219  1.5963  1.3587
  249MPD1    N1 3838   1.101   3.933   9.883  0.0299  0.6972  0.3729
  249MPD1    H6 3839   1.046   4.017   9.904  0.4875  0.2357  3.3654
  249MPD1    H7 3840   1.049   3.867   9.941 -1.7241  0.0575 -1.9387
  250MPD2     C 3841   2.462   3.103  13.005 -0.0358  0.3139  0.6104
  250MPD2    C1 3842   2.360   3.188  12.964 -1.1285 -1.0325 -0.6750
  250MPD2    C2 3843   2.310   3.183  12.835  0.4592  0.1230  0.1793
  250MPD2    C3 3844   2.359   3.092  12.750 -0.3298 -0.4941  0.1669
  250MPD2    C4 3845   2.464   3.005  12.791 -0.2607  0.2668  0.3572
  250MPD2    C5 3846   2.517   3.011  12.917  0.1132  0.1645  0.1433
  250MPD2     H 3847   2.232   3.253  12.807 -0.1815 -0.1516  1.2718
  250MPD2    H1 3848   2.490   2.920  12.730 -1.4891  0.4570 -0.4307
  250MPD2    H2 3849   2.492   3.106  13.109  0.8790 -2.7906  0.4188
  250MPD2    H3 3850   2.594   2.944  12.953  1.0965  0.6952 -0.9696
  250MPD2     N 3851   2.320   3.077  12.616 -0.2131 -0.2647 -0.0169
  250MPD2    H5 3852   2.369   3.007  12.560 -0.0783 -1.2430  1.3399
  250MPD2    N1 3853   2.311   3.277  13.066 -0.8751  0.1588  0.0533
  250MPD2    H7 3854   2.348   3.261  13.160 -1.2852 -2.5656 -0.2409
  251TMC3    C1 3855   2.197   3.456  13.176 -0.1533  0.3125 -0.9511
  251TMC3    C2 3856   2.073   3.507  13.187 -0.1583  0.0586  0.0128
  251TMC3    C3 3857   2.057   3.597  13.286 -0.2482 -0.1264 -0.3477
  251TMC3    C4 3858   2.291   3.486  13.262  0.5064  0.0057 -0.0434
  251TMC3    C5 3859   2.281   3.596  13.339 -0.0569 -0.3684  0.6272
  251TMC3    C6 3860   2.160   3.658  13.352  0.3449 -0.5368  0.2995
  251TMC3     C 3861   2.217   3.379  13.053 -0.8530 -0.0605  0.1603
  251TMC3     O 3862   2.155   3.429  12.958 -0.4173 -1.1065  0.2272
  251TMC3     H 3863   1.989   3.462  13.135  0.4501  1.5508 -2.2493
  251TMC3    H1 3864   2.386   3.433  13.259 -0.1477 -1.1339 -0.5547
  251TMC3    H2 3865   2.134   3.725  13.433 -1.4860 -1.8391  0.7834
  251TMC3    C7 3866   2.388   3.684  13.298 -0.2896  0.4723 -0.2437
  251TMC3    C8 3867   1.924   3.660  13.305  0.5906 -0.4261  0.0986
  251TMC3    O1 3868   2.500   3.641  13.286  0.7159  0.3554 -0.1377
  251TMC3    O2 3869   1.898   3.694  13.419  0.1884  0.1126 -0.2537
  252TMC3    C1 3870   2.188   0.179   9.183 -0.2877  0.3704  0.1954
  252TMC3    C2 3871   2.321   0.182   9.194  0.4692 -0.4361 -0.7057
  252TMC3    C3 3872   2.383   0.120   9.298 -0.3764  0.0765  0.0441
  252TMC3    C4 3873   2.109   0.116   9.276 -0.5438 -0.2311  0.1273
  252TMC3    C5 3874   2.170   0.048   9.373  0.0918  0.4904 -1.0115
  252TMC3    C6 3875   2.310   0.050   9.389  0.2771 -0.2150 -0.4830
  252TMC3     C 3876   2.135   0.270   9.087 -0.0667  0.3662  0.2603
  252TMC3     O 3877   2.210   0.348   9.037  0.0871 -0.5722 -0.7678
  252TMC3     H 3878   2.384   0.237   9.124 -1.2406  2.6528  0.1893
  252TMC3    H1 3879   2.002   0.134   9.281 -0.5867 -0.6321  0.6720
  252TMC3    H2 3880   2.361   4.732   9.466 -0.0567 -0.6412 -0.5793
  252TMC3    C7 3881   2.088   4.725   9.477 -0.1410  0.1800 -0.5275
  252TMC3    C8 3882   2.530   0.123   9.297 -0.3027  0.2681 -0.4447
  252TMC3    O1 3883   1.971   0.023   9.492  0.5554  0.1309  0.9383
  252TMC3    O2 3884   2.594   0.191   9.219 -0.1099  0.2682  0.4768
  253MPD2     C 3885   3.840   3.609  15.053 -0.7078 -0.3877 -1.4467
  253MPD2    C1 3886   3.727   3.526  15.047 -0.8117  0.3530  0.2616
  253MPD2    C2 3887   3.681   3.465  15.159  0.4223  0.2699 -0.4264
  253MPD2    C3 3888   3.740   3.489  15.284  0.2959  0.1391  0.0317
  253MPD2    C4 3889   3.863   3.556  15.285  0.5743  0.2138 -0.0159
  253MPD2    C5 3890   3.905   3.620  15.173 -0.3825 -0.3009  0.3778
  253MPD2     H 3891   3.588   3.411  15.142  0.0649  0.1622  1.8478
  253MPD2    H1 3892   3.926   3.544  15.372  0.9421 -1.4538 -0.5175
  253MPD2    H2 3893   3.872   3.679  14.977  0.5697 -0.1533 -0.6901
  253MPD2    H3 3894   3.996   3.678  15.178  0.0088 -0.8142 -0.7537
  253MPD2     N 3895   3.686   3.436  15.403 -0.1796  0.0731  0.1911
  253MPD2    H5 3896   3.719   3.468  15.493  0.5627  0.2786 -0.1533
  253MPD2    N1 3897   3.652   3.522  14.927 -0.0971  0.1521 -0.2590
  253MPD2    H7 3898   3.567   3.468  14.934  0.7643 -1.4825 -2.4796
  254TMC3    C1 3899   3.522   3.342  15.539  0.8119 -0.0137  0.1419
  254TMC3    C2 3900   3.389   3.328  15.563  0.3610  0.0375 -0.5199
  254TMC3    C3 3901   3.359   3.294  15.686 -0.0371 -0.1706 -0.2914
  254TMC3    C4 3902   3.621   3.306  15.625  0.4148 -0.2945  0.3958
  254TMC3    C5 3903   3.587   3.266  15.743 -0.2630 -0.1594 -0.2138
  254TMC3    C6 3904   3.450   3.256  15.776  0.1482  0.3313  0.1421
  254TMC3     C 3905   3.563   3.373  15.408  0.4575  0.2361 -0.1712
  254TMC3     O 3906   3.480   3.337  15.323 -0.4294 -0.3809 -0.9406
  254TMC3     H 3907   3.311   3.344  15.489 -0.7253  1.4539  0.9546
  254TMC3    H1 3908   3.724   3.295  15.591 -0.7032 -0.3540 -2.9885
  254TMC3    H2 3909   3.429   3.230  15.879 -0.0138 -0.4676 -0.0895
  254TMC3    C7 3910   3.691   3.212  15.832 -0.1024 -0.3885 -0.1818
  254TMC3    C8 3911   3.228   3.314  15.743 -0.0977  0.4723  0.5609
  254TMC3    O1 3912   3.651   3.137  15.921  0.0725 -0.0314  0.3677
  254TMC3    O2 3913   3.199   3.267  15.849 -0.0637 -1.1488  0.6318
  255MPD2     C 3914   1.942   0.829  10.369 -0.6244 -0.0259  0.4094
  255MPD2    C1 3915   2.062   0.896  10.357  0.5857  0.5568 -0.1434
  255MPD2    C2 3916   2.169   0.844  10.285 -0.0008 -0.4787  0.2700
  255MPD2    C3 3917   2.157   0.723  10.221 -0.0639  0.1568  0.3193
  255MPD2    C4 3918   2.036   0.661  10.233 -0.9583  0.1681 -0.4813
  255MPD2    C5 3919   1.933   0.706  10.306 -0.3048 -0.3939 -0.0648
  255MPD2     H 3920   2.264   0.896  10.278  0.2413 -0.3841  3.9913
  255MPD2    H1 3921   2.012   0.562  10.194 -0.3204  0.0098 -0.4694
  255MPD2    H2 3922   1.854   0.861  10.423 -0.6213  1.5690 -0.5312
  255MPD2    H3 3923   1.839   0.652  10.315  0.2824 -1.4527 -0.1952
  255MPD2     N 3924   2.267   0.687  10.141  0.4174 -0.3268 -0.1094
  255MPD2    H5 3925   2.345   0.752  10.148 -0.3634  0.4649  1.2221
  255MPD2    N1 3926   2.067   1.028  10.404 -0.0601 -0.3888  0.1388
  255MPD2    H7 3927   1.977   1.075  10.405 -0.2229 -0.7602  2.4775
  256TMC3    C1 3928   2.138   1.246  10.396  0.3450 -0.2054  0.4946
  256TMC3    C2 3929   2.203   1.299  10.291 -0.9464  0.2680 -0.5964
  256TMC3    C3 3930   2.149   1.406  10.228 -0.0705 -0.1021 -0.5532
  256TMC3    C4 3931   2.022   1.294  10.446 -0.1807 -0.2337  0.1411
  256TMC3    C5 3932   1.968   1.397  10.373 -0.0968  0.3398  0.8031
  256TMC3    C6 3933   2.030   1.452  10.261  0.1085 -0.1123 -0.1766
  256TMC3     C 3934   2.177   1.110  10.415 -0.0137 -0.2860 -0.3929
  256TMC3     O 3935   2.297   1.084  10.395 -0.5977  0.2719  0.0579
  256TMC3     H 3936   2.294   1.253  10.255 -0.7783 -0.9598  1.3975
  256TMC3    H1 3937   1.984   1.260  10.542 -1.5290  2.2083  0.4769
  256TMC3    H2 3938   1.975   1.515  10.191  0.0418  1.0354  0.9242
  256TMC3    C7 3939   1.838   1.444  10.405 -0.2282  0.1031  0.0799
  256TMC3    C8 3940   2.209   1.461  10.115  0.1445 -0.3741 -0.5552
  256TMC3    O1 3941   1.744   1.370  10.410  0.4897  0.4506  0.2857
  256TMC3    O2 3942   2.254   1.383  10.034 -0.0649  0.1774 -0.2013
  257MPD2     C 3943   0.640   3.181  12.851  0.1028  0.2481 -0.4917
  257MPD2    C1 3944   0.770   3.231  12.845  0.0799  0.9782 -0.2056
  257MPD2    C2 3945   0.863   3.171  12.935  0.0816 -0.1668 -0.0529
  257MPD2    C3 3946   0.824   3.060  13.009 -0.0276 -0.8474  0.1693
  257MPD2    C4 3947   0.690   3.006  13.001 -0.1340  0.0806 -0.0212
  257MPD2    C5 3948   0.596   3.084  12.937 -0.4455 -0.5572  0.2382
  257MPD2     H 3949   0.966   3.201  12.952 -0.5970  1.4511  1.1441
  257MPD2    H1 3950   0.639   2.920  13.043 -1.8353  1.1739  0.1633
  257MPD2    H2 3951   0.572   3.226  12.780 -0.7098  0.7924  0.6209
  257MPD2    H3 3952   0.494   3.048  12.928 -1.0389  1.2630 -0.2495
  257MPD2     N 3953   0.918   3.003  13.096  0.0733 -1.3413  0.5024
  257MPD2    H5 3954   1.016   3.029  13.088  0.4830 -2.4808  1.6788
  257MPD2    N1 3955   0.809   3.313  12.738  0.0831  0.3053  0.6883
  257MPD2    H7 3956   0.733   3.329  12.672 -0.1938  2.7147  1.6200
  258TMC3    C1 3957   1.005   2.858  13.256 -0.3116  0.4851 -0.3504
  258TMC3    C2 3958   1.123   2.831  13.185 -0.1802 -0.4043  0.0639
  258TMC3    C3 3959   1.234   2.780  13.248 -0.0618  0.7229 -0.1462
  258TMC3    C4 3960   0.995   2.818  13.389 -0.2578 -0.5412 -0.1791
  258TMC3    C5 3961   1.104   2.756  13.445 -0.5882  0.6646 -0.4769
  258TMC3    C6 3962   1.217   2.730  13.375 -0.0503 -0.1400 -0.1110
  258TMC3     C 3963   0.887   2.911  13.188  0.4321  0.1868  0.6290
  258TMC3     O 3964   0.773   2.891  13.235 -0.0186  0.2345 -0.8027
  258TMC3     H 3965   1.130   2.855  13.079  1.0761 -0.1549  0.2019
  258TMC3    H1 3966   0.905   2.840  13.446  0.8617  1.5238  0.7729
  258TMC3    H2 3967   1.297   2.672  13.419  0.1882 -0.3209 -0.7822
  258TMC3    C7 3968   1.078   2.684  13.571  0.2101  0.1121 -0.2343
  258TMC3    C8 3969   1.334   2.712  13.167 -0.0432 -0.9223  0.6435
  258TMC3    O1 3970   0.959   2.671  13.603 -0.3285  0.3863  0.2311
  258TMC3    O2 3971   1.428   2.663  13.225  0.3472  0.4596 -0.4456
  259MPD2     C 3972   0.317   0.015   0.601  0.1798  0.0871 -0.4570
  259MPD2    C1 3973   0.315   4.644   0.522 -0.1922 -0.4255 -0.6588
  259MPD2    C2 3974   0.282   4.654   0.386 -0.1277 -0.3144  0.3649
  259MPD2    C3 3975   0.239   0.032   0.337 -0.1381 -0.6035  0.2103
  259MPD2    C4 3976   0.220   0.140   0.423 -0.1703  0.7026  0.1506
  259MPD2    C5 3977   0.266   0.126   0.557 -0.1015 -0.3616 -0.0575
  259MPD2     H 3978   0.297   4.574   0.314 -1.6983 -0.1760 -0.1216
  259MPD2    H1 3979   0.188   0.240   0.397  0.5281  0.8449 -0.1565
  259MPD2    H2 3980   0.347   4.738   0.703  0.4515 -0.8918 -0.6937
  259MPD2    H3 3981   0.244   0.212   0.619 -0.1809  0.6247 -1.4364
  259MPD2     N 3982   0.222   0.045   0.189 -0.4218 -0.3160  0.1755
  259MPD2    H5 3983   0.190   4.702   0.139  2.0197  0.2267 -2.2709
  259MPD2    N1 3984   0.380   4.529   0.577 -0.2567 -0.5784  0.5401
  259MPD2    H7 3985   0.424   4.532   0.668 -0.1943  6.2792  0.2597
  260TMC3    C1 3986   0.192   0.168  17.743 -0.1675 -0.1499  0.0160
  260TMC3    C2 3987   0.263   0.256  17.662 -0.3124  0.3519 -0.3372
  260TMC3    C3 3988   0.275   0.226  17.530 -0.0262 -0.4129  0.1267
  260TMC3    C4 3989   0.120   0.063  17.694  0.4122 -0.4535 -0.4442
  260TMC3    C5 3990   0.125   0.049  17.559  0.3168  1.0670 -0.5680
  260TMC3    C6 3991   0.205   0.126  17.479 -0.2561 -0.3955  0.6768
  260TMC3     C 3992   0.236   0.165   0.124  0.0692 -0.4289  0.0295
  260TMC3     O 3993   0.286   0.266   0.169 -0.0093  0.2437 -0.1751
  260TMC3     H 3994   0.335   0.324  17.705 -0.4282 -1.0619  2.1094
  260TMC3    H1 3995   0.050   0.006   0.000  1.1162  1.5706  2.2563
  260TMC3    H2 3996   0.213   0.107  17.372 -0.8096 -0.5800  0.6657
  260TMC3    C7 3997   0.058   4.669  17.499  0.1300  0.3571  0.1123
  260TMC3    C8 3998   0.416   0.211  17.479 -0.0415  0.8597 -0.1491
  260TMC3    O1 3999   0.098   4.629  17.391 -0.2701 -0.3406 -0.2770
  260TMC3    O2 4000   0.436   0.109  17.410  0.8275  0.6214  0.0714
  261MPD2     C 4001   1.670   3.230  12.032  0.3930 -0.5708  0.4127
  261MPD2    C1 4002   1.805   3.274  12.001 -0.0126 -0.2357 -0.9992
  261MPD2    C2 4003   1.823   3.382  11.912 -0.2587 -0.0368 -0.5215
  261MPD2    C3 4004   1.714   3.436  11.840  0.0339  0.1114  0.0311
  261MPD2    C4 4005   1.588   3.379  11.861  0.5294  0.0445 -0.6542
  261MPD2    C5 4006   1.570   3.277  11.949  0.2490 -0.1980 -0.3244
  261MPD2     H 4007   1.921   3.424  11.898 -0.2504  0.2189  0.3086
  261MPD2    H1 4008   1.495   3.410  11.815  0.2401  1.3501  0.7781
  261MPD2    H2 4009   1.653   3.141  12.091 -1.9903 -0.5949 -0.3113
  261MPD2    H3 4010   1.471   3.234  11.962  0.2707  1.1078  4.1412
  261MPD2     N 4011   1.743   3.548  11.759 -0.4682 -0.4466  0.3670
  261MPD2    H5 4012   1.832   3.592  11.781 -0.4606 -0.0102 -0.5388
  261MPD2    N1 4013   1.918   3.236  12.072  0.4071 -1.0224  0.3983
  261MPD2    H7 4014   2.004   3.259  12.023 -0.2062  1.9821  0.6911
  262TMC3    C1 4015   1.690   3.743  11.644  0.9934  0.2508 -0.2952
  262TMC3    C2 4016   1.592   3.839  11.640 -0.7607  0.1734  0.7808
  262TMC3    C3 4017   1.630   3.972  11.639  0.8114  0.2517 -0.0541
  262TMC3    C4 4018   1.825   3.782  11.651  0.6249 -0.2526  0.0337
  262TMC3    C5 4019   1.854   3.917  11.632 -0.2372 -0.5666  0.7479
  262TMC3    C6 4020   1.763   4.014  11.633 -0.0594  0.0218  0.5758
  262TMC3     C 4021   1.651   3.608  11.684  0.2489  0.3740  0.3716
  262TMC3     O 4022   1.544   3.563  11.647 -0.3677 -0.0142 -0.1251
  262TMC3     H 4023   1.488   3.811  11.652 -0.2803 -1.1383  1.8540
  262TMC3    H1 4024   1.907   3.712  11.639 -0.7313 -1.7907 -0.1882
  262TMC3    H2 4025   1.793   4.116  11.616 -0.4955 -0.2038 -1.4680
  262TMC3    C7 4026   1.987   3.949  11.580  0.3857 -0.4987 -0.3200
  262TMC3    C8 4027   1.527   4.073  11.665  0.1268 -0.2491 -0.5581
  262TMC3    O1 4028   2.054   3.859  11.539 -0.2152 -0.7566  0.0148
  262TMC3    O2 4029   1.566   4.186  11.673 -0.2618  0.3195  0.0885
  263MPD2     C 4030   2.771   2.164  11.284  0.4033  0.0470  0.0893
  263MPD2    C1 4031   2.809   2.285  11.336  0.2053 -0.2964 -0.2715
  263MPD2    C2 4032   2.776   2.400  11.273 -0.2660 -0.2037  0.2954
  263MPD2    C3 4033   2.693   2.397  11.157  0.1136 -0.2787 -0.1265
  263MPD2    C4 4034   2.643   2.276  11.121  0.6269 -0.2038  0.3095
  263MPD2    C5 4035   2.688   2.154  11.171 -0.3309  0.1129  0.4565
  263MPD2     H 4036   2.819   2.495  11.304  0.5013 -0.1207 -0.9773
  263MPD2    H1 4037   2.566   2.275  11.046 -0.2498 -0.2598  1.2104
  263MPD2    H2 4038   2.815   2.079  11.334  0.2311 -0.0155  0.1357
  263MPD2    H3 4039   2.647   2.060  11.137  0.3156  0.1152 -0.3030
  263MPD2     N 4040   2.651   2.512  11.088 -0.0379  0.3242 -0.1281
  263MPD2    H5 4041   2.601   2.501  11.000 -0.1587 -2.5174  0.2963
  263MPD2    N1 4042   2.899   2.277  11.441 -0.1869 -0.0957 -0.3092
  263MPD2    H7 4043   2.912   2.183  11.478  2.1619  0.5197  0.4124
  264TMC3    C1 4044   2.667   2.736  11.028 -0.9378 -0.0003 -0.5711
  264TMC3    C2 4045   2.634   2.865  11.072 -0.2025  0.3501  0.4492
  264TMC3    C3 4046   2.614   2.960  10.972 -0.0104 -0.6546 -0.9632
  264TMC3    C4 4047   2.681   2.703  10.893 -0.3290  0.3119 -1.0199
  264TMC3    C5 4048   2.660   2.802  10.802  0.2183 -0.0326 -0.0101
  264TMC3    C6 4049   2.630   2.927  10.839 -0.1878  0.4855  0.4831
  264TMC3     C 4050   2.675   2.639  11.130 -0.4211 -0.6709 -0.3613
  264TMC3     O 4051   2.710   2.675  11.241 -0.2458 -0.2977  0.3721
  264TMC3     H 4052   2.626   2.889  11.177  0.9130 -0.8169  0.7969
  264TMC3    H1 4053   2.706   2.604  10.856 -0.1974  1.3837 -3.8640
  264TMC3    H2 4054   2.630   3.012  10.772  0.4118  0.3715  0.3379
  264TMC3    C7 4055   2.694   2.776  10.664 -0.0100  0.7935 -0.0273
  264TMC3    C8 4056   2.650   3.092  11.010 -0.5319 -0.6226  0.8167
  264TMC3    O1 4057   2.754   2.668  10.649  0.4735  0.2161  0.1827
  264TMC3    O2 4058   2.687   3.159  10.913 -0.0993  0.0175  0.0490
  265MPD2     C 4059   4.549   2.950  15.402  0.1119  0.3049  0.1447
  265MPD2    C1 4060   4.636   3.051  15.361  0.5284  0.3204 -0.0781
  265MPD2    C2 4061   4.726   3.036  15.259  1.0132  0.0203 -0.5005
  265MPD2    C3 4062   0.007   2.909  15.209  0.2722  0.2341  0.3702
  265MPD2    C4 4063   4.669   2.807  15.257 -1.0531 -0.2501 -0.4386
  265MPD2    C5 4064   4.565   2.826  15.349  0.2027 -0.2345 -0.1442
  265MPD2     H 4065   0.042   3.123  15.225  0.0924  1.3180  1.2895
  265MPD2    H1 4066   4.682   2.707  15.218  2.2333 -0.3129  0.8022
  265MPD2    H2 4067   4.471   2.950  15.477 -1.3472 -0.2605 -1.3881
  265MPD2    H3 4068   4.507   2.741  15.382  0.7162 -0.2266  0.7816
  265MPD2     N 4069   0.117   2.874  15.134 -0.2179  0.4837 -0.2308
  265MPD2    H5 4070   0.114   2.777  15.105  1.5703  0.7326 -1.2601
  265MPD2    N1 4071   4.622   3.184  15.409 -0.1631  0.9671 -0.5390
  265MPD2    H7 4072   4.685   3.257  15.378  0.7288  0.2973 -0.3243
  266TMC3    C1 4073   4.572   3.361  15.563 -0.0624 -0.0893  0.3674
  266TMC3    C2 4074   4.553   3.392  15.690  0.5295 -0.4527 -0.0356
  266TMC3    C3 4075   4.558   3.529  15.720 -0.0306 -0.0059 -0.2853
  266TMC3    C4 4076   4.604   3.445  15.453  0.1809  0.4611  0.1429
  266TMC3    C5 4077   4.604   3.580  15.489  0.0468 -0.1804 -0.1600
  266TMC3    C6 4078   4.574   3.621  15.616 -0.0938 -0.3094 -0.1308
  266TMC3     C 4079   4.551   3.217  15.524  0.1318  0.6475 -0.4774
  266TMC3     O 4080   4.484   3.158  15.603  0.5404  0.0416  0.1837
  266TMC3     H 4081   4.539   3.327  15.775 -2.8188 -2.5977 -2.2161
  266TMC3    H1 4082   4.607   3.412  15.350 -0.7588  0.8580 -0.0071
  266TMC3    H2 4083   4.591   3.726  15.634 -0.2265  0.0022 -1.8494
  266TMC3    C7 4084   4.581   3.678  15.389 -0.5240  0.2025 -0.0012
  266TMC3    C8 4085   4.581   3.571  15.855 -0.1614  0.3751  0.3375
  266TMC3    O1 4086   4.513   3.649  15.292  0.1034 -0.2349  0.1114
  266TMC3    O2 4087   4.603   3.478  15.934 -0.2209 -0.0477  0.1241
  267MPD2     C 4088   2.686   4.531   0.437  0.1926  0.3477 -0.5476
  267MPD2    C1 4089   2.671   4.595   0.317  0.0989  0.8058  0.0693
  267MPD2    C2 4090   2.570   4.553   0.235  0.2440 -0.0600 -0.4822
  267MPD2    C3 4091   2.477   4.459   0.284 -0.8257  0.4766 -0.0586
  267MPD2    C4 4092   2.501   4.397   0.400  0.5566 -0.2136 -0.7902
  267MPD2    C5 4093   2.603   4.432   0.478 -0.0228  0.7266  0.0342
  267MPD2     H 4094   2.559   4.605   0.140 -1.1138  0.2090 -0.1870
  267MPD2    H1 4095   2.448   4.312   0.442 -0.6989  0.0031 -1.9479
  267MPD2    H2 4096   2.779   4.551   0.488  0.2865 -2.4103  0.3198
  267MPD2    H3 4097   2.628   4.376   0.567 -0.2569 -2.3309 -1.8436
  267MPD2     N 4098   2.385   4.408   0.190 -0.0435 -0.6059 -0.4646
  267MPD2    H5 4099   2.380   4.452   0.098 -1.3391 -1.0650 -0.6227
  267MPD2    N1 4100   2.772   4.685   0.279  0.1512  0.9390 -0.4107
  267MPD2    H7 4101   2.846   4.706   0.346  0.0914  0.1741 -0.1092
  268TMC3    C1 4102   2.895   0.112   0.175 -0.3540  0.0973 -0.0131
  268TMC3    C2 4103   2.901   0.210   0.079 -0.4472 -0.1777  0.8519
  268TMC3    C3 4104   3.024   0.279   0.075  0.7557  0.0161 -0.2542
  268TMC3    C4 4105   3.009   0.065   0.246 -0.0018  0.2477 -0.7550
  268TMC3    C5 4106   3.121   0.145   0.243 -0.4721 -0.1337 -0.2040
  268TMC3    C6 4107   3.129   0.257   0.162  0.6584 -0.8004 -0.0852
  268TMC3     C 4108   2.774   0.031   0.172  0.1840  0.1946  0.0011
  268TMC3     O 4109   2.693   0.049   0.078 -0.1628  0.4383  0.7857
  268TMC3     H 4110   2.815   0.252   0.029 -0.5248  1.1931  2.1392
  268TMC3    H1 4111   3.004   4.707   0.295  0.3775  1.0411  0.8473
  268TMC3    H2 4112   3.227   0.300   0.152  1.1080 -2.0029 -0.8598
  268TMC3    C7 4113   3.229   0.095   0.331  0.5727 -0.2915 -0.0073
  268TMC3    C8 4114   3.041   0.396  17.740 -0.3766  0.3584  0.9825
  268TMC3    O1 4115   3.209   4.726   0.387  0.3420 -0.4547  0.0723
  268TMC3    O2 4116   3.134   0.472   0.006  0.2099 -0.0329 -0.1187
  269MPD2     C 4117   2.958   3.700  15.202 -0.6422  0.3662  1.1666
  269MPD2    C1 4118   2.835   3.718  15.256  0.4919  0.1728  0.4179
  269MPD2    C2 4119   2.774   3.844  15.247 -0.3969  0.3392 -0.1752
  269MPD2    C3 4120   2.848   3.950  15.211 -0.4202 -0.3063  0.7841
  269MPD2    C4 4121   2.979   3.940  15.165 -0.3028 -0.4080 -0.4692
  269MPD2    C5 4122   3.028   3.809  15.155  0.0939 -0.3062  0.0921
  269MPD2     H 4123   2.675   3.860  15.288 -0.5283  1.2700 -0.8601
  269MPD2    H1 4124   3.045   4.023  15.142 -0.4673  0.2379  1.3882
  269MPD2    H2 4125   3.000   3.601  15.191  0.0357  0.6187  1.5013
  269MPD2    H3 4126   3.130   3.798  15.118  0.6201  0.0487  1.4213
  269MPD2     N 4127   2.786   4.071  15.230  0.0426 -0.5691  0.1237
  269MPD2    H5 4128   2.700   4.075  15.282 -0.1915 -2.6270 -0.1179
  269MPD2    N1 4129   2.775   3.600  15.298  0.2031 -0.7275  0.2727
  269MPD2    H7 4130   2.829   3.514  15.290 -1.7265 -2.1518  2.5862
  270TMC3    C1 4131   2.615   3.455  15.389  0.4824 -0.3285  1.0929
  270TMC3    C2 4132   2.487   3.425  15.349 -0.0855  0.6853 -0.1387
  270TMC3    C3 4133   2.451   3.296  15.325 -0.2782 -0.1310  1.0290
  270TMC3    C4 4134   2.701   3.356  15.398  0.1652  0.1926 -0.0126
  270TMC3    C5 4135   2.662   3.227  15.378  0.8114  0.0058 -0.0043
  270TMC3    C6 4136   2.536   3.189  15.338 -0.0077  0.1795  0.1819
  270TMC3     C 4137   2.656   3.588  15.360 -0.4074 -0.4036 -0.1815
  270TMC3     O 4138   2.576   3.683  15.376  0.3378  0.4252  0.5581
  270TMC3     H 4139   2.422   3.505  15.316  0.8761  1.8490  0.8076
  270TMC3    H1 4140   2.799   3.391  15.426 -0.2253  1.3084 -0.0253
  270TMC3    H2 4141   2.504   3.085  15.334 -0.1201  0.1569  1.6807
  270TMC3    C7 4142   2.774   3.138  15.375 -0.6012  0.1602 -0.2783
  270TMC3    C8 4143   2.309   3.277  15.293  0.3177 -0.1657  0.6851
  270TMC3    O1 4144   2.879   3.177  15.426 -0.0810 -0.4082 -0.2195
  270TMC3    O2 4145   2.232   3.358  15.344  0.7545 -0.6457 -0.1922
  271MPD2     C 4146   1.440   3.299  13.878 -0.4362 -0.2330  0.2455
  271MPD2    C1 4147   1.384   3.274  13.998  0.2552 -0.1730 -0.1245
  271MPD2    C2 4148   1.250   3.298  14.019  0.2239  0.4073 -0.5074
  271MPD2    C3 4149   1.166   3.339  13.919  0.1187 -0.5890  0.5618
  271MPD2    C4 4150   1.225   3.375  13.797  0.3529 -0.9431  0.1217
  271MPD2    C5 4151   1.358   3.354  13.786 -0.0824  0.3434 -0.1044
  271MPD2     H 4152   1.210   3.272  14.116  0.3400 -0.7521 -0.7686
  271MPD2    H1 4153   1.173   3.418  13.712  3.7138  1.4784 -0.7036
  271MPD2    H2 4154   1.546   3.296  13.859 -0.5410 -0.9610 -0.2371
  271MPD2    H3 4155   1.399   3.376  13.688  0.3732 -2.3983 -0.5177
  271MPD2     N 4156   1.027   3.338  13.937 -0.1710 -0.2928  0.3386
  271MPD2    H5 4157   0.993   3.302  14.026 -0.8808 -0.3117  0.0616
  271MPD2    N1 4158   1.464   3.220  14.106  0.3488 -0.0698  0.1757
  271MPD2    H7 4159   1.422   3.219  14.198 -1.1202  1.6978 -0.4810
  272TMC3    C1 4160   1.626   3.085  14.216 -0.5100  0.5293  0.7772
  272TMC3    C2 4161   1.710   2.986  14.186  0.2230  0.0057  0.0946
  272TMC3    C3 4162   1.822   2.968  14.257  0.2608 -0.0385 -0.2426
  272TMC3    C4 4163   1.647   3.161  14.329 -0.1333 -0.3792  0.3322
  272TMC3    C5 4164   1.762   3.135  14.408 -0.3082 -0.5677  0.4614
  272TMC3    C6 4165   1.850   3.035  14.379  0.2441  0.7686  0.0408
  272TMC3     C 4166   1.583   3.146  14.094 -0.0663 -0.4626 -0.3678
  272TMC3     O 4167   1.650   3.123  13.993 -0.2499  0.1639  0.6916
  272TMC3     H 4168   1.697   2.931  14.093 -0.2149  1.1108 -0.4920
  272TMC3    H1 4169   1.584   3.248  14.341  0.0607 -0.4552  1.9511
  272TMC3    H2 4170   1.942   3.032  14.437 -0.5329  2.2067  1.3353
  272TMC3    C7 4171   1.784   3.210  14.528 -0.0658 -0.0435 -0.8139
  272TMC3    C8 4172   1.932   2.894  14.197 -0.2767  0.4569 -0.5099
  272TMC3    O1 4173   1.891   3.192  14.588  0.3076 -0.0810 -1.4248
  272TMC3    O2 4174   1.898   2.830  14.102  0.4313 -0.3624  0.2357
  273MPD2     C 4175   3.139   1.274  11.671  0.4874  0.7149  0.3036
  273MPD2    C1 4176   3.265   1.337  11.678 -0.0415 -0.6592 -0.4243
  273MPD2    C2 4177   3.343   1.364  11.569  0.0401  0.6408 -0.6668
  273MPD2    C3 4178   3.289   1.341  11.442  0.8580 -1.2787 -0.5249
  273MPD2    C4 4179   3.166   1.278  11.436  0.1067 -0.3609  0.6193
  273MPD2    C5 4180   3.092   1.241  11.547 -0.4177  0.5767  0.3820
  273MPD2     H 4181   3.440   1.411  11.577  0.5217 -0.7027  1.6067
  273MPD2    H1 4182   3.125   1.250  11.339 -2.6372  0.7613  1.4524
  273MPD2    H2 4183   3.079   1.254  11.760 -1.2658  1.3049 -0.7424
  273MPD2    H3 4184   2.994   1.194  11.539 -0.0933  0.0673 -0.4789
  273MPD2     N 4185   3.352   1.379  11.317 -0.4106  0.2656 -0.1399
  273MPD2    H5 4186   3.312   1.346  11.230  2.3170 -0.8514 -0.9713
  273MPD2    N1 4187   3.310   1.373  11.813 -0.4211  0.3546 -0.2691
  273MPD2    H7 4188   3.237   1.377  11.884 -2.2287 -2.5127 -1.9470
  274TMC3    C1 4189   3.494   1.504  11.180  0.5004  0.3248  0.3111
  274TMC3    C2 4190   3.388   1.535  11.090 -0.5605  0.1538 -0.6396
  274TMC3    C3 4191   3.420   1.631  10.997 -0.0386  0.1673 -0.2247
  274TMC3    C4 4192   3.615   1.557  11.158 -0.1104  0.2785  0.1142
  274TMC3    C5 4193   3.644   1.648  11.065 -0.1940  0.4502  0.2235
  274TMC3    C6 4194   3.544   1.691  10.979  0.2288  0.0753  0.5243
  274TMC3     C 4195   3.471   1.448  11.313  0.4576 -0.0796  1.1512
  274TMC3     O 4196   3.560   1.457  11.392  0.5154 -0.0178 -0.0585
  274TMC3     H 4197   3.287   1.494  11.093 -0.0140 -1.2978 -1.8039
  274TMC3    H1 4198   3.697   1.524  11.221 -0.2060  1.1521  0.7090
  274TMC3    H2 4199   3.571   1.755  10.895  0.4599 -0.9038 -0.1484
  274TMC3    C7 4200   3.719   1.755  11.107 -0.3754 -0.1010  0.1941
  274TMC3    C8 4201   3.318   1.658  10.900 -0.2322  0.7813 -0.1468
  274TMC3    O1 4202   3.791   1.814  11.028  0.5640  0.8082 -0.5033
  274TMC3    O2 4203   3.248   1.562  10.864  0.3024 -0.2819 -0.2892
  275MPD2     C 4204   3.174   4.596  14.015  0.2208 -0.2765 -0.2336
  275MPD2    C1 4205   3.149   4.554  14.144 -0.1678 -0.1119  0.1718
  275MPD2    C2 4206   3.033   4.486  14.165  0.1623 -0.4858 -0.1041
  275MPD2    C3 4207   2.943   4.459  14.063 -0.1269  0.3680 -0.1005
  275MPD2    C4 4208   2.963   4.516  13.940  0.1274 -0.3843  0.3573
  275MPD2    C5 4209   3.083   4.579  13.922  0.4254 -0.3133  0.4059
  275MPD2     H 4210   3.002   4.464  14.267 -0.0546 -0.5093 -0.1740
  275MPD2    H1 4211   2.898   4.496  13.856 -0.5486  0.8426  0.5954
  275MPD2    H2 4212   3.261   4.652  13.983  0.5375 -0.4804  0.2765
  275MPD2    H3 4213   3.102   4.623  13.825 -0.0201  0.1992  0.5520
  275MPD2     N 4214   2.831   4.382  14.106 -0.6586 -0.6738  0.3860
  275MPD2    H5 4215   2.833   4.336  14.197 -1.8494 -1.9988 -0.2471
  275MPD2    N1 4216   3.238   4.573  14.250 -0.4019 -0.7639  0.2299
  275MPD2    H7 4217   3.203   4.553  14.343  0.3692 -3.4094 -0.0610
  276TMC3    C1 4218   3.401   4.675  14.377  0.3174 -0.1268  0.1833
  276TMC3    C2 4219   3.367   4.593  14.483  0.6193  0.5437  0.0806
  276TMC3    C3 4220   3.383   4.651  14.607 -0.3964  0.3984  0.0881
  276TMC3    C4 4221   3.432   0.072  14.397  0.1568 -0.8774 -0.0776
  276TMC3    C5 4222   3.448   0.120  14.521 -0.4264 -0.5108  0.8587
  276TMC3    C6 4223   3.427   0.043  14.628 -0.0803 -0.1361  0.4643
  276TMC3     C 4224   3.357   4.644  14.244  0.2842 -0.1395  0.3474
  276TMC3     O 4225   3.412   4.700  14.149 -0.1138 -0.4164  0.0497
  276TMC3     H 4226   3.364   4.485  14.468  1.6568  0.2692  1.7436
  276TMC3    H1 4227   3.460   0.127  14.307 -1.3550  1.1037  0.6545
  276TMC3    H2 4228   3.431   0.083  14.729 -0.8451  0.9486  0.0607
  276TMC3    C7 4229   3.516   0.250  14.536 -0.1831 -0.0862 -0.5817
  276TMC3    C8 4230   3.380   4.572  14.727 -1.0919  0.3965  0.0954
  276TMC3    O1 4231   3.505   0.327  14.440 -0.5351 -0.3152 -0.4396
  276TMC3    O2 4232   3.406   4.626  14.833  0.0002 -0.1390 -0.1058
  277MPD2     C 4233   0.225   3.229  12.711 -0.1459  0.6699  0.0193
  277MPD2    C1 4234   0.099   3.274  12.740  0.8686 -0.5920 -0.2272
  277MPD2    C2 4235   0.013   3.172  12.790  0.2400 -1.1133 -0.6880
  277MPD2    C3 4236   0.044   3.035  12.796  0.7517 -0.2864 -0.0937
  277MPD2    C4 4237   0.172   3.002  12.759 -0.2776  0.2916 -0.4570
  277MPD2    C5 4238   0.265   3.094  12.717 -0.8238 -0.1067 -0.6053
  277MPD2     H 4239   4.649   3.190  12.820  1.3616  1.2217  1.7574
  277MPD2    H1 4240   0.206   2.899  12.754 -1.8799 -0.2459 -0.4106
  277MPD2    H2 4241   0.298   3.308  12.694  0.6164 -0.3880 -1.6027
  277MPD2    H3 4242   0.365   3.066  12.686 -0.8596  0.2817 -1.0956
  277MPD2     N 4243   4.688   2.942  12.835 -0.7535 -0.2008  0.4784
  277MPD2    H5 4244   4.601   2.976  12.875 -0.2476  1.4148  0.2125
  277MPD2    N1 4245   0.051   3.399  12.701 -0.4217  0.3202  0.1437
  277MPD2    H7 4246   0.118   3.449  12.643 -0.4553  2.4385  1.9235
  278TMC3    C1 4247   4.589   2.735  12.883  0.0142  0.1615  0.0533
  278TMC3    C2 4248   4.616   2.603  12.914 -0.6291 -0.2780 -0.4629
  278TMC3    C3 4249   4.508   2.514  12.933  0.8777 -0.2005  0.2817
  278TMC3    C4 4250   4.462   2.786  12.883  0.4486 -0.2212  0.1774
  278TMC3    C5 4251   4.365   2.705  12.923 -0.0382  0.4001 -0.2962
  278TMC3    C6 4252   4.382   2.572  12.951 -0.0037  0.1768  0.2737
  278TMC3     C 4253   4.713   2.805  12.852 -0.2601 -0.0044  0.4056
  278TMC3     O 4254   0.072   2.740  12.830  0.2735 -0.0549  0.0039
  278TMC3     H 4255   4.715   2.558  12.921  0.0958  1.2623 -0.7640
  278TMC3    H1 4256   4.427   2.879  12.840  1.2613 -0.8092 -1.7646
  278TMC3    H2 4257   4.299   2.509  12.982  0.6132 -0.4640  0.6274
  278TMC3    C7 4258   4.232   2.764  12.951  0.1666 -0.5004  0.4048
  278TMC3    C8 4259   4.532   2.387  12.999 -0.1748 -0.1988 -0.0424
  278TMC3    O1 4260   4.177   2.839  12.871 -0.4137 -0.0569  0.0787
  278TMC3    O2 4261   4.642   2.379  13.058  0.2953 -0.1941  0.4169
  279MPD2     C 4262   3.660   2.549  17.436 -1.1640  0.3830  0.1701
  279MPD2    C1 4263   3.661   2.679  17.467 -1.0348 -0.5676  0.4631
  279MPD2    C2 4264   3.782   2.751  17.451  0.2664  0.0972 -0.3471
  279MPD2    C3 4265   3.888   2.696  17.394  0.3264 -0.9391 -0.2709
  279MPD2    C4 4266   3.884   2.568  17.344  0.5992 -0.2594  0.2878
  279MPD2    C5 4267   3.773   2.496  17.375 -0.0185 -0.2775 -0.5048
  279MPD2     H 4268   3.779   2.856  17.476  0.9539  0.1286 -0.3907
  279MPD2    H1 4269   3.967   2.518  17.295  0.5708 -1.8103  1.8423
  279MPD2    H2 4270   3.570   2.488  17.435 -0.1377 -1.1312  0.6033
  279MPD2    H3 4271   3.773   2.396  17.334 -2.0215  0.1306 -1.5192
  279MPD2     N 4272   4.012   2.762  17.370  0.3457  0.2069  0.0997
  279MPD2    H5 4273   4.083   2.703  17.329  0.0016 -1.5133  1.9639
  279MPD2    N1 4274   3.550   2.736  17.533  0.1731 -0.4103  0.0523
  279MPD2    H7 4275   3.487   2.670  17.577 -0.2962  0.2741  0.3866
  280TMC3    C1 4276   3.431   2.912  17.648 -0.0593 -0.2930  0.1348
  280TMC3    C2 4277   3.379   2.814  17.734  0.0821  0.0391  0.2510
  280TMC3    C3 4278   3.315   2.859   0.095 -0.3521 -0.2703 -0.6010
  280TMC3    C4 4279   3.413   3.044  17.679 -0.0970 -0.6700 -0.0258
  280TMC3    C5 4280   3.356   3.083   0.037  0.0164 -0.2619  0.0170
  280TMC3    C6 4281   3.315   2.992   0.127 -0.9943  0.0587 -0.0012
  280TMC3     C 4282   3.522   2.873  17.541  0.2317 -0.0244 -0.7214
  280TMC3     O 4283   3.573   2.963  17.477 -0.1093  0.2414 -0.0940
  280TMC3     H 4284   3.425   2.716  17.740  0.8267  0.3166 -0.8631
  280TMC3    H1 4285   3.465   3.111  17.611 -0.2987 -0.9819 -0.4955
  280TMC3    H2 4286   3.269   3.031   0.217 -0.3539 -1.7889  1.1263
  280TMC3    C7 4287   3.351   3.222   0.069 -0.1393 -0.3092  0.5836
  280TMC3    C8 4288   3.219   2.767   0.161 -0.5979 -1.0576  0.1631
  280TMC3    O1 4289   3.331   3.249   0.187 -0.2050 -1.0367  0.1455
  280TMC3    O2 4290   3.152   2.816   0.249  0.0540 -0.4843  0.2565
  281TMC3    C1 4291   2.771   3.719  13.404 -0.5343  0.1672 -0.2137
  281TMC3    C2 4292   2.767   3.824  13.309  0.3286 -0.1675  0.2537
  281TMC3    C3 4293   2.800   3.802  13.177  0.0233 -0.1272  0.4233
  281TMC3    C4 4294   2.799   3.593  13.363  0.3929 -0.1539 -0.2446
  281TMC3    C5 4295   2.849   3.575  13.234  0.3601  0.0789  0.0550
  281TMC3    C6 4296   2.839   3.672  13.137  0.0726  0.2123  0.1384
  281TMC3     C 4297   2.709   3.726  13.536  0.4290 -0.2435 -0.6013
  281TMC3     O 4298   2.752   3.644  13.617 -0.0107  1.0084 -0.5623
  281TMC3     H 4299   2.735   3.921  13.346  0.1957 -0.1429  0.0737
  281TMC3    H1 4300   2.803   3.514  13.438 -0.0454  2.5505  2.6473
  281TMC3    H2 4301   2.868   3.653  13.034  1.8809  1.5204  0.4019
  281TMC3    C7 4302   2.928   3.452  13.208  0.1454  0.4616  0.2266
  281TMC3    C8 4303   2.822   3.905  13.084 -0.0607 -0.2533  0.6058
  281TMC3    O1 4304   3.027   3.459  13.134  0.0952 -0.5652  0.4251
  281TMC3    O2 4305   2.931   3.905  13.031  0.1460 -0.0609 -0.8577
  282MPD2     C 4306   0.181   4.690  14.857  0.2445  1.0823  0.0110
  282MPD2    C1 4307   0.078   0.035  14.881  0.5806  0.2093 -0.2843
  282MPD2    C2 4308   4.726   0.070  14.780  0.7624 -0.3772 -0.6508
  282MPD2    C3 4309   0.007   0.011  14.650 -0.2606 -0.0119 -0.3032
  282MPD2    C4 4310   0.120   4.666  14.635 -0.7485 -0.1475  0.1287
  282MPD2    C5 4311   0.207   4.641  14.737  0.5508 -0.3899  0.5628
  282MPD2     H 4312   4.645   0.142  14.781 -0.1003 -1.3634  1.0817
  282MPD2    H1 4313   0.144   4.625  14.537  0.0086  0.5214  0.0313
  282MPD2    H2 4314   0.255   4.675  14.935  0.2165  1.0958  0.0404
  282MPD2    H3 4315   0.300   4.590  14.715 -1.0186 -1.8700 -2.7242
  282MPD2     N 4316   4.655   0.047  14.541 -0.3640  0.8042 -0.3885
  282MPD2    H5 4317   4.582   0.113  14.567 -0.7988 -1.0603  3.1451
  282MPD2    N1 4318   0.073   0.114  15.003 -0.1795  0.0214 -0.1458
  282MPD2    H7 4319   4.730   0.173  15.002  0.9712  1.7051  3.0690
  283TMC3    C1 4320   0.103   0.165  15.222 -0.3807  0.4970 -0.2774
  283TMC3    C2 4321   0.195   0.216  15.313 -0.0851 -0.4130 -0.7081
  283TMC3    C3 4322   0.144   0.234  15.439 -0.2093  0.1522  0.1545
  283TMC3    C4 4323   4.712   0.162  15.247  0.1143  0.4238  0.2659
  283TMC3    C5 4324   4.669   0.190  15.370  0.3793  0.3249 -0.0083
  283TMC3    C6 4325   0.012   0.233  15.471 -0.7477 -0.0024  0.3611
  283TMC3     C 4326   0.160   0.095  15.114  0.2756 -0.5255  0.4280
  283TMC3     O 4327   0.269   0.040  15.129 -0.1945  0.0512 -0.1654
  283TMC3     H 4328   0.303   0.214  15.303  0.0228  2.6271 -0.1598
  283TMC3    H1 4329   4.651   0.111  15.173  0.7621  0.9674 -0.6459
  283TMC3    H2 4330   4.718   0.248  15.573  1.7221  1.8847  0.8925
  283TMC3    C7 4331   4.532   0.158  15.414 -0.5635  0.8863 -0.1613
  283TMC3    C8 4332   0.239   0.290  15.536  0.5012  0.6617 -0.1217
  283TMC3    O1 4333   4.509   0.189  15.529 -0.0204  0.7356 -0.3516
  283TMC3    O2 4334   0.223   0.268  15.656 -0.1638 -0.2181 -0.9930
  284MPD2     C 4335   3.055   4.555  11.749  0.5741 -0.1115 -0.7235
  284MPD2    C1 4336   3.159   4.496  11.675  0.4030  0.3637  0.5887
  284MPD2    C2 4337   3.214   4.376  11.726  0.4778 -1.0373 -0.2856
  284MPD2    C3 4338   3.156   4.315  11.835  0.2460 -0.1377 -0.7654
  284MPD2    C4 4339   3.064   4.379  11.912  0.4125 -0.1806  0.2908
  284MPD2    C5 4340   3.006   4.497  11.865  0.2063  1.0507  0.1491
  284MPD2     H 4341   3.292   4.334  11.663  2.8018 -0.0877  1.9449
  284MPD2    H1 4342   3.034   4.347  12.011  0.2142  0.9493  0.5943
  284MPD2    H2 4343   3.002   4.646  11.723  0.3904  0.6208  2.2576
  284MPD2    H3 4344   2.930   4.552  11.919 -1.3496  2.6057 -3.5574
  284MPD2     N 4345   3.232   4.202  11.891 -0.1742  0.3611  0.9006
  284MPD2    H5 4346   3.313   4.172  11.838 -0.5276  0.3141  0.3863
  284MPD2    N1 4347   3.209   4.557  11.555  0.4293  0.2238 -0.0762
  284MPD2    H7 4348   3.275   4.504  11.499 -1.9004 -0.8142 -1.8050
  285TMC3    C1 4349   3.208   4.705  11.373 -0.5757 -0.2111 -0.1228
  285TMC3    C2 4350   3.195   4.593  11.294  0.4924  0.6055  0.3263
  285TMC3    C3 4351   3.248   4.602  11.171 -0.9213 -0.0930 -0.1036
  285TMC3    C4 4352   3.292   0.070  11.343 -0.7086 -0.5772 -0.1641
  285TMC3    C5 4353   3.349   0.072  11.217  0.9613 -0.7493 -0.2616
  285TMC3    C6 4354   3.323   4.708  11.130  0.1545 -0.2065  0.3409
  285TMC3     C 4355   3.181   4.685  11.515 -0.4054 -0.8955  0.2217
  285TMC3     O 4356   3.127   0.042  11.571 -0.3356  0.5194 -0.6235
  285TMC3     H 4357   3.136   4.508  11.325 -0.3095  1.8790  2.3227
  285TMC3    H1 4358   3.316   0.143  11.420  1.0747 -1.3866  0.0407
  285TMC3    H2 4359   3.378   4.702  11.036 -0.7175  1.5812 -0.2939
  285TMC3    C7 4360   3.385   0.204  11.163  0.3645  0.4128  0.6124
  285TMC3    C8 4361   3.249   4.480  11.097  1.1310  0.4110  0.7352
  285TMC3    O1 4362   3.441   0.284  11.236  0.2468  0.3539 -0.2630
  285TMC3    O2 4363   3.152   4.411  11.112  0.2770 -0.2075 -0.5531
  286MPD2     C 4364   3.122   2.879   1.375 -0.4665  0.1165 -0.0816
  286MPD2    C1 4365   3.107   2.829   1.248 -0.7253  0.3786  0.0402
  286MPD2    C2 4366   3.130   2.693   1.223 -0.2034 -0.2002  0.1057
  286MPD2    C3 4367   3.165   2.612   1.330  0.3238 -0.4753  0.6484
  286MPD2    C4 4368   3.178   2.667   1.455 -0.3310  0.3023  0.2707
  286MPD2    C5 4369   3.164   2.798   1.480  0.1651  0.1473 -0.0853
  286MPD2     H 4370   3.098   2.652   1.128 -0.4051  1.5459 -0.5858
  286MPD2    H1 4371   3.214   2.596   1.529 -0.2936 -0.5623 -0.5649
  286MPD2    H2 4372   3.108   2.984   1.397 -0.6068  0.2966 -1.0547
  286MPD2    H3 4373   3.176   2.837   1.580  1.1823  0.2746 -0.2587
  286MPD2     N 4374   3.173   2.468   1.329 -0.1692 -0.3221  0.3270
  286MPD2    H5 4375   3.180   2.417   1.416 -0.9143  0.4182  0.8224
  286MPD2    N1 4376   3.064   2.925   1.150  0.7252  0.8140 -1.2666
  286MPD2    H7 4377   3.044   3.018   1.183 -0.9487 -0.4168  1.1320
  287TMC3    C1 4378   3.222   2.252   1.238 -0.6566  0.2658 -0.6218
  287TMC3    C2 4379   3.165   2.186   1.138  0.1488 -0.6445  0.3448
  287TMC3    C3 4380   3.248   2.126   1.048 -0.2882  0.1492 -0.6642
  287TMC3    C4 4381   3.356   2.241   1.271  0.5496  0.2974  0.0115
  287TMC3    C5 4382   3.432   2.171   1.180 -0.5294 -0.1526  0.5027
  287TMC3    C6 4383   3.383   2.122   1.062  0.2425 -0.4241  0.7679
  287TMC3     C 4384   3.166   2.383   1.220  0.2147  0.2248  0.0474
  287TMC3     O 4385   3.142   2.412   1.102  0.0340  0.1780 -0.3361
  287TMC3     H 4386   3.061   2.188   1.110  0.3661  0.9009 -0.3709
  287TMC3    H1 4387   3.397   2.306   1.347  2.0376 -0.3479 -0.2321
  287TMC3    H2 4388   3.445   2.079   0.984 -0.8796 -0.5388 -0.0639
  287TMC3    C7 4389   3.559   2.101   1.225 -0.3004 -0.1736  0.6421
  287TMC3    C8 4390   3.197   2.096   0.916 -0.0861  0.1124 -0.2727
  287TMC3    O1 4391   3.560   2.090   1.349 -0.3921  0.4161 -0.2578
  287TMC3    O2 4392   3.252   2.000   0.862 -0.2042  0.1694  0.3938
  288TMC3    C1 4393   0.840   2.666  14.204 -0.3386 -0.1831 -0.6589
  288TMC3    C2 4394   0.714   2.612  14.208  0.0499 -0.0107  0.5691
  288TMC3    C3 4395   0.629   2.639  14.106  0.0414  0.0359  0.0931
  288TMC3    C4 4396   0.887   2.730  14.096  0.2911 -0.5381 -0.3512
  288TMC3    C5 4397   0.803   2.753  13.992 -0.1774  0.3430  0.6403
  288TMC3    C6 4398   0.675   2.699  13.989 -0.3096 -0.3747 -0.7347
  288TMC3     C 4399   0.921   2.656  14.323 -0.2479  0.7038  0.4807
  288TMC3     O 4400   1.041   2.670  14.314 -0.3391  0.2947  0.2136
  288TMC3     H 4401   0.676   2.551  14.289 -0.0479  0.1370  0.6340
  288TMC3    H1 4402   0.991   2.760  14.090 -0.4278  2.0867  0.3218
  288TMC3    H2 4403   0.604   2.738  13.917 -0.6105 -1.8298 -1.2210
  288TMC3    C7 4404   0.856   2.834  13.884  0.3414  0.5462  0.0776
  288TMC3    C8 4405   0.503   2.569  14.095 -0.6852 -0.1201 -0.2234
  288TMC3    O1 4406   0.968   2.878  13.903  0.1704 -0.1029 -0.2968
  288TMC3    O2 4407   0.462   2.546  13.978 -0.0976 -0.0466  0.8258
  289MPD2     C 4408   0.381   1.819  14.054  0.2823  0.4025 -0.1157
  289MPD2    C1 4409   0.384   1.900  14.168  0.8739  0.6272  0.1580
  289MPD2    C2 4410   0.281   1.891  14.258 -0.3389 -0.4267  0.3086
  289MPD2    C3 4411   0.182   1.798  14.233 -0.0449 -0.1732 -0.2734
  289MPD2    C4 4412   0.187   1.719  14.114  0.1037 -0.3932 -0.2805
  289MPD2    C5 4413   0.285   1.730  14.026 -0.4999 -0.4971 -0.6140
  289MPD2     H 4414   0.263   1.966  14.334 -1.9532  1.0502 -1.5288
  289MPD2    H1 4415   0.109   1.647  14.090 -1.0341  0.6171  0.3883
  289MPD2    H2 4416   0.461   1.814  13.982 -0.3876 -1.1221 -0.7447
  289MPD2    H3 4417   0.284   1.677  13.932 -2.3296 -2.9088  0.7527
  289MPD2     N 4418   0.066   1.796  14.314 -0.4351  1.0907 -0.4488
  289MPD2    H5 4419   4.736   1.737  14.269 -0.3113  0.2947  0.4114
  289MPD2    N1 4420   0.499   1.975  14.181  0.4212 -0.5320 -0.0518
  289MPD2    H7 4421   0.572   1.975  14.110  0.2671  1.1510 -0.2000
  290TMC3    C1 4422   4.630   1.867  14.464 -1.1611  0.4172 -0.1002
  290TMC3    C2 4423   4.550   1.980  14.478 -0.2917 -0.3139 -0.2108
  290TMC3    C3 4424   4.422   1.960  14.516  0.3142  0.1227  0.4551
  290TMC3    C4 4425   4.584   1.742  14.495 -0.1370 -0.5068 -0.9898
  290TMC3    C5 4426   4.452   1.728  14.544 -0.2340 -0.3330  0.0808
  290TMC3    C6 4427   4.367   1.837  14.555 -0.0919  0.4074  0.3689
  290TMC3     C 4428   0.027   1.889  14.411 -0.0795  0.8641 -0.2799
  290TMC3     O 4429   0.084   1.981  14.466  0.6238 -0.0114  0.2995
  290TMC3     H 4430   4.590   2.079  14.463  1.1050 -0.8796 -0.1977
  290TMC3    H1 4431   4.646   1.653  14.488  1.4980  0.6168 -0.5682
  290TMC3    H2 4432   4.261   1.823  14.573 -0.0819 -3.7746 -2.8271
  290TMC3    C7 4433   4.390   1.592  14.538  0.0291 -0.2329  0.4086
  290TMC3    C8 4434   4.325   2.061  14.495  0.2835 -1.0734  0.3937
  290TMC3    O1 4435   4.265   1.585  14.519 -0.0424  0.8822  0.2846
  290TMC3    O2 4436   4.247   2.085  14.586 -0.3574 -0.2049  0.0167
  291MPD2     C 4437   3.735   1.982   0.232  0.1316 -0.2849 -0.4692
  291MPD2    C1 4438   3.792   1.889   0.307 -0.6619  0.0689 -0.6816
  291MPD2    C2 4439   3.875   1.924   0.413 -0.0906  0.0598  0.5975
  291MPD2    C3 4440   3.910   2.063   0.437 -0.3519  0.2944 -0.3838
  291MPD2    C4 4441   3.852   2.156   0.353 -0.1634 -0.1589 -0.6004
  291MPD2    C5 4442   3.758   2.119   0.256  0.5143  0.0917 -0.7875
  291MPD2     H 4443   3.908   1.835   0.464  1.1657  0.7392  0.9834
  291MPD2    H1 4444   3.878   2.261   0.355 -0.8731 -0.0236  1.5428
  291MPD2    H2 4445   3.661   1.950   0.159 -2.0117  1.5622  0.8823
  291MPD2    H3 4446   3.707   2.195   0.197 -1.2553 -1.7253 -1.5813
  291MPD2     N 4447   4.008   2.098   0.531  0.0816  0.5505  0.6264
  291MPD2    H5 4448   4.051   2.188   0.514  0.5796 -0.1757 -1.9107
  291MPD2    N1 4449   3.773   1.751   0.290  0.0682 -0.3903  0.6098
  291MPD2    H7 4450   3.809   1.689   0.362  1.6464 -0.5451 -0.3043
  292TMC3    C1 4451   3.748   1.540   0.195 -0.6150  0.0907 -0.1495
  292TMC3    C2 4452   3.847   1.502   0.285 -0.6641  0.2281  0.0386
  292TMC3    C3 4453   3.862   1.368   0.313 -0.4591 -0.0802 -0.8950
  292TMC3    C4 4454   3.666   1.455   0.133  0.5051 -0.2487 -1.3923
  292TMC3    C5 4455   3.678   1.327   0.174 -0.0638 -0.0787 -0.3342
  292TMC3    C6 4456   3.767   1.282   0.269  0.5587  1.2340 -0.0016
  292TMC3     C 4457   3.725   1.678   0.183  1.1847 -0.4822  0.3614
  292TMC3     O 4458   3.680   1.720   0.078 -0.4623 -0.2887 -0.1326
  292TMC3     H 4459   3.919   1.579   0.311  0.4505 -0.8611  0.1688
  292TMC3    H1 4460   3.583   1.499   0.079  1.8362  1.0329 -2.3841
  292TMC3    H2 4461   3.765   1.182   0.312  2.0522  1.4486  0.5384
  292TMC3    C7 4462   3.617   1.213   0.105 -0.7930  0.8352 -0.3616
  292TMC3    C8 4463   3.985   1.323   0.379  0.1161  0.1139 -0.6211
  292TMC3    O1 4464   3.642   1.103   0.150 -0.1590  0.0160  0.0939
  292TMC3    O2 4465   4.055   1.401   0.437 -0.5121  0.2302 -0.7285
  293MPD2     C 4466   1.331   3.336  12.357 -0.2641 -0.0253 -0.1928
  293MPD2    C1 4467   1.229   3.267  12.430 -0.0994 -0.7973  0.3456
  293MPD2    C2 4468   1.227   3.284  12.564 -0.0795  0.0729 -0.3532
  293MPD2    C3 4469   1.334   3.342  12.634  0.2512 -0.0354  0.0683
  293MPD2    C4 4470   1.433   3.408  12.555  0.5319  0.2317  0.1244
  293MPD2    C5 4471   1.425   3.406  12.421  0.0388 -0.3665 -0.3505
  293MPD2     H 4472   1.142   3.259  12.627  0.3603 -0.7628 -0.0886
  293MPD2    H1 4473   1.516   3.466  12.596  1.0260 -0.8644  0.6725
  293MPD2    H2 4474   1.337   3.334  12.249 -0.4403 -0.4875 -0.1957
  293MPD2    H3 4475   1.491   3.471  12.364 -1.0911  1.4681  0.4284
  293MPD2     N 4476   1.327   3.346  12.776 -0.4118  0.0147 -0.1141
  293MPD2    H5 4477   1.261   3.281  12.818  0.8166 -0.4210  1.1420
  293MPD2    N1 4478   1.126   3.206  12.354  0.6746 -0.4813  0.9014
  293MPD2    H7 4479   1.134   3.211  12.253  2.0829 -0.9884  0.9850
  294TMC3    C1 4480   0.943   3.049  12.314  0.1977  0.3773 -0.5190
  294TMC3    C2 4481   0.848   2.971  12.359 -0.3038 -0.0083  0.1888
  294TMC3    C3 4482   0.803   2.869  12.276  0.4411  0.6467  0.0009
  294TMC3    C4 4483   0.988   3.033  12.185  0.4496 -0.0935 -0.0481
  294TMC3    C5 4484   0.933   2.939  12.105 -0.1604  0.4292 -0.0333
  294TMC3    C6 4485   0.844   2.850  12.150  0.5582 -0.9317  0.3107
  294TMC3     C 4486   1.018   3.137  12.411  0.0227 -0.4150  0.3346
  294TMC3     O 4487   0.984   3.132  12.531  0.0840  0.2268 -0.0682
  294TMC3     H 4488   0.822   2.977  12.464 -0.3369 -0.4177  0.2057
  294TMC3    H1 4489   1.083   3.078  12.158  0.5943 -0.0847  0.4743
  294TMC3    H2 4490   0.829   2.756  12.098 -2.4584 -0.4351  0.3185
  294TMC3    C7 4491   0.974   2.937  11.971  0.6589 -0.0835  0.1282
  294TMC3    C8 4492   0.727   2.767  12.342  0.1723  0.2284  0.3168
  294TMC3    O1 4493   1.025   3.040  11.928 -0.0135  0.2741  0.5488
  294TMC3    O2 4494   0.673   2.812  12.444  0.2795 -0.6148 -0.1003
  295MPD2     C 4495   1.071   1.879   0.320 -0.5654  0.1188 -0.2245
  295MPD2    C1 4496   1.196   1.820   0.346  0.0967 -0.3540 -0.4389
  295MPD2    C2 4497   1.232   1.779   0.477  0.0571  0.0638  0.0729
  295MPD2    C3 4498   1.139   1.785   0.578  0.0040  0.2598  0.2196
  295MPD2    C4 4499   1.014   1.825   0.542  0.4123 -0.3259 -0.0881
  295MPD2    C5 4500   0.981   1.874   0.418  0.0600  0.6160 -0.5512
  295MPD2     H 4501   1.326   1.731   0.503 -1.0332 -1.3915  1.3773
  295MPD2    H1 4502   0.939   1.819   0.620  0.8850 -0.4483  0.3660
  295MPD2    H2 4503   1.043   1.915   0.221 -2.3622  1.9014  0.9521
  295MPD2    H3 4504   0.876   1.895   0.402 -1.0922 -3.5923  1.4713
  295MPD2     N 4505   1.155   1.762   0.715 -0.2369  0.0222 -0.4210
  295MPD2    H5 4506   1.073   1.779   0.773  0.2056 -1.7024  0.7136
  295MPD2    N1 4507   1.281   1.799   0.239  0.0242 -0.3478  0.2141
  295MPD2    H7 4508   1.360   1.738   0.257  3.9096  3.6687 -3.3823
  296TMC3    C1 4509   1.268   1.697   0.914 -0.3529  0.2788  0.7538
  296TMC3    C2 4510   1.173   1.766   0.985 -0.0621 -0.1941  0.4474
  296TMC3    C3 4511   1.155   1.713   1.111  0.0888 -0.3989 -0.5345
  296TMC3    C4 4512   1.343   1.596   0.966 -0.1765 -1.1555 -0.5009
  296TMC3    C5 4513   1.319   1.541   1.088  0.7487  0.3157  0.6983
  296TMC3    C6 4514   1.216   1.599   1.164 -0.0991 -0.5564  0.4354
  296TMC3     C 4515   1.279   1.728   0.769 -0.0830  0.3596  0.0853
  296TMC3     O 4516   1.383   1.689   0.718  0.0281 -0.5752  0.5752
  296TMC3     H 4517   1.117   1.846   0.939  0.0464 -0.8647 -0.8587
  296TMC3    H1 4518   1.427   1.552   0.914  1.8992 -1.4714  3.0429
  296TMC3    H2 4519   1.186   1.570   1.264  1.9953 -0.3177  1.1253
  296TMC3    C7 4520   1.413   1.438   1.134 -0.1212 -0.4781  0.1137
  296TMC3    C8 4521   1.088   1.793   1.214  0.8237  0.1503 -0.4626
  296TMC3    O1 4522   1.498   1.398   1.054 -0.3806  0.1352 -0.6335
  296TMC3    O2 4523   1.055   1.747   1.322 -0.4581 -0.2669  0.0996
  297MPD2     C 4524   3.498   3.641  15.868  0.0477  0.5754  0.5566
  297MPD2    C1 4525   3.486   3.754  15.784  0.6664  0.5023  0.1709
  297MPD2    C2 4526   3.598   3.832  15.754  0.2037  0.0070  0.0642
  297MPD2    C3 4527   3.723   3.800  15.808 -0.3013 -0.3826  0.3440
  297MPD2    C4 4528   3.734   3.681  15.888  1.0452  0.2097 -0.1412
  297MPD2    C5 4529   3.621   3.612  15.926 -0.0879 -1.0739 -0.3400
  297MPD2     H 4530   3.580   3.911  15.682  0.9459  0.8662  0.8288
  297MPD2    H1 4531   3.819   3.642  15.942  0.5617 -2.2023 -1.1575
  297MPD2    H2 4532   3.419   3.567  15.880  0.8219 -0.3430  0.0200
  297MPD2    H3 4533   3.629   3.516  15.976 -1.9442  0.0386  2.0748
  297MPD2     N 4534   3.833   3.885  15.786  0.8146 -0.2186  0.1731
  297MPD2    H5 4535   3.818   3.981  15.757 -3.0335 -1.0279 -0.5159
  297MPD2    N1 4536   3.366   3.794  15.726  0.1422  0.0874  0.0368
  297MPD2    H7 4537   3.376   3.873  15.664  2.1794 -2.1527 -2.4872
  298TMC3    C1 4538   3.132   3.810  15.711  0.3004 -0.2211 -0.6487
  298TMC3    C2 4539   3.153   3.893  15.603 -0.1417  0.3629 -0.4428
  298TMC3    C3 4540   3.045   3.975  15.559 -0.1437  0.9870  0.3630
  298TMC3    C4 4541   3.019   3.819  15.792  0.2620  0.0227 -0.9151
  298TMC3    C5 4542   2.910   3.892  15.744 -0.2085 -0.0697  0.1437
  298TMC3    C6 4543   2.930   3.979  15.634  0.3678  0.2554  0.1264
  298TMC3     C 4544   3.244   3.751  15.772  0.0199  0.5354  0.1101
  298TMC3     O 4545   3.212   3.679  15.866  0.0258  0.1760 -0.4247
  298TMC3     H 4546   3.245   3.892  15.546  0.7679 -2.4696  1.0367
  298TMC3    H1 4547   3.007   3.759  15.882  1.0144  2.0467  0.5404
  298TMC3    H2 4548   2.856   4.056  15.613 -0.5501 -0.7002 -0.1506
  298TMC3    C7 4549   2.819   3.920  15.853 -0.1156  0.5527  0.2147
  298TMC3    C8 4550   3.090   4.086  15.474  0.1102  0.1911  0.0399
  298TMC3    O1 4551   2.862   3.915  15.970  0.2820  0.2279  0.0522
  298TMC3    O2 4552   3.188   4.076  15.398  0.3346 -0.1019  0.2783
  299MPD2     C 4553   4.052   3.110  10.777 -0.4441 -0.8305 -0.3076
  299MPD2    C1 4554   4.104   3.134  10.652  0.0585 -0.6645 -0.2834
  299MPD2    C2 4555   4.006   3.150  10.553 -0.2379 -0.3663 -0.1463
  299MPD2    C3 4556   3.875   3.110  10.571  0.0459  1.2691 -0.1692
  299MPD2    C4 4557   3.827   3.073  10.699  0.0060  1.1028  0.4534
  299MPD2    C5 4558   3.914   3.083  10.802  0.4141  0.5329  0.1300
  299MPD2     H 4559   4.031   3.184  10.453 -2.1238  0.8092 -0.2192
  299MPD2    H1 4560   3.723   3.054  10.721  0.4995 -0.4394  1.4332
  299MPD2    H2 4561   4.122   3.113  10.860  0.3407  2.2943 -1.0768
  299MPD2    H3 4562   3.872   3.086  10.902  0.2955  1.4720  0.0465
  299MPD2     N 4563   3.777   3.116  10.469 -0.1195  0.9365 -0.9547
  299MPD2    H5 4564   3.686   3.085  10.498  0.1177  1.2634  0.1456
  299MPD2    N1 4565   4.240   3.174  10.628  0.0224 -0.1309 -0.0251
  299MPD2    H7 4566   4.314   3.168  10.697 -1.4820 -0.4175  1.5802
  300TMC3    C1 4567   3.679   3.135  10.256  0.0375  0.3052  0.0386
  300TMC3    C2 4568   3.689   3.232  10.160 -0.1720 -0.5582  0.3135
  300TMC3    C3 4569   3.575   3.302  10.126 -0.3762 -0.0991  0.6005
  300TMC3    C4 4570   3.563   3.099  10.310 -1.0259 -0.4739 -0.4245
  300TMC3    C5 4571   3.454   3.171  10.271  0.9942 -0.6212  0.0941
  300TMC3    C6 4572   3.451   3.271  10.179 -0.5765 -0.0373 -0.8128
  300TMC3     C 4573   3.804   3.132  10.334  0.3396 -0.4080  0.7277
  300TMC3     O 4574   3.911   3.154  10.279 -0.0206  0.5632  0.5536
  300TMC3     H 4575   3.780   3.259  10.107 -0.5919  1.4702  0.6143
  300TMC3    H1 4576   3.545   3.022  10.384 -0.0109  0.1061  0.4220
  300TMC3    H2 4577   3.362   3.304  10.126 -0.3290 -0.4912 -1.5056
  300TMC3    C7 4578   3.329   3.132  10.325 -0.0948 -0.0489 -0.0843
  300TMC3    C8 4579   3.591   3.426  10.056 -0.3687 -0.1643  0.2933
  300TMC3    O1 4580   3.335   3.021  10.375 -0.4197  0.1558  0.3932
  300TMC3    O2 4581   3.700   3.441   9.997 -0.1307 -0.3449  0.2094
  301MPD2     C 4582   2.388   4.622   0.778 -0.0587  0.0106  0.2240
  301MPD2    C1 4583   2.250   4.605   0.754  0.6268 -0.0220  0.1889
  301MPD2    C2 4584   2.203   4.475   0.764  0.1343  0.2755  0.1289
  301MPD2    C3 4585   2.289   4.365   0.791  0.4390  0.1065  0.6883
  301MPD2    C4 4586   2.420   4.387   0.797  0.8619 -0.6674  0.6660
  301MPD2    C5 4587   2.475   4.514   0.797  0.1075 -0.5242  0.2030
  301MPD2     H 4588   2.097   4.457   0.760  0.0660  0.3990  1.2284
  301MPD2    H1 4589   2.485   4.300   0.802  0.2111 -1.2341 -0.8118
  301MPD2    H2 4590   2.432   4.721   0.776  0.0183 -0.1157 -3.1224
  301MPD2    H3 4591   2.582   4.522   0.809  0.1197 -1.0929  0.4720
  301MPD2     N 4592   2.254   4.230   0.804  0.6273 -0.0981 -0.3161
  301MPD2    H5 4593   2.332   4.168   0.821  1.0206  0.5382  0.1775
  301MPD2    N1 4594   2.152   4.706   0.745 -0.0970 -0.4355  0.1576
  301MPD2    H7 4595   2.056   4.684   0.719 -0.2662  0.1933  0.2419
  302TMC3    C1 4596   2.100   4.043   0.848 -0.2905 -0.3123 -0.2260
  302TMC3    C2 4597   2.201   3.982   0.925  0.0891  0.1389  0.8007
  302TMC3    C3 4598   2.158   3.872   0.992 -0.3430  0.2117  0.3867
  302TMC3    C4 4599   1.977   3.988   0.835  0.6161  0.0798 -0.8235
  302TMC3    C5 4600   1.940   3.872   0.897 -1.1703  0.4486 -0.5087
  302TMC3    C6 4601   2.035   3.811   0.974  0.1025  0.0017  0.1595
  302TMC3     C 4602   2.121   4.178   0.797  0.4630  0.1305  0.6167
  302TMC3     O 4603   2.022   4.242   0.766 -0.7810  0.0434 -0.1621
  302TMC3     H 4604   2.289   4.035   0.959  0.8597 -0.3701 -0.3721
  302TMC3    H1 4605   1.922   4.036   0.755  0.5587  1.0134 -0.2206
  302TMC3    H2 4606   2.000   3.727   1.031  0.6114 -1.0410 -1.0660
  302TMC3    C7 4607   1.810   3.810   0.876  0.2262  0.1379 -0.3347
  302TMC3    C8 4608   2.261   3.801   1.076 -0.5634 -0.0285  0.1631
  302TMC3    O1 4609   1.798   3.696   0.916 -0.0715  0.0122 -0.2339
  302TMC3    O2 4610   2.358   3.871   1.104 -0.2182  0.2441  0.7806
  303MPD2     C 4611   1.690   3.194  10.364  0.2340 -0.5534 -0.5029
  303MPD2    C1 4612   1.559   3.195  10.320  0.8385 -0.0865 -0.2620
  303MPD2    C2 4613   1.537   3.211  10.187  0.1974  0.3702 -0.4871
  303MPD2    C3 4614   1.642   3.232  10.099 -1.2132  0.4433 -0.3022
  303MPD2    C4 4615   1.773   3.237  10.144  0.0611  0.3045 -0.3439
  303MPD2    C5 4616   1.795   3.217  10.280 -0.1291 -0.3012  0.3844
  303MPD2     H 4617   1.434   3.197  10.156  0.0845 -0.5608  0.3211
  303MPD2    H1 4618   1.853   3.234  10.071 -0.8012  1.5824 -1.3508
  303MPD2    H2 4619   1.701   3.182  10.472  0.1695 -2.6787 -0.7285
  303MPD2    H3 4620   1.893   3.197  10.321  0.7155 -2.2649 -2.6145
  303MPD2     N 4621   1.624   3.244   9.957  0.2271  0.0472 -1.0362
  303MPD2    H5 4622   1.709   3.270   9.907  2.3918  1.4761  3.3620
  303MPD2    N1 4623   1.464   3.149  10.412 -0.1196 -0.0934 -0.1527
  303MPD2    H7 4624   1.500   3.113  10.500  1.4618 -2.3475 -1.7035
  304TMC3    C1 4625   1.258   3.046  10.470  0.2797 -0.9771  0.3920
  304TMC3    C2 4626   1.123   3.039  10.465  0.3653 -0.4388 -0.2687
  304TMC3    C3 4627   1.063   2.925  10.518 -0.3692 -0.0358  0.5454
  304TMC3    C4 4628   1.333   2.936  10.516  0.2869  0.4675  0.3833
  304TMC3    C5 4629   1.269   2.824  10.560 -0.0754  0.7412  0.1991
  304TMC3    C6 4630   1.132   2.823  10.578 -0.1808  0.1848  0.1027
  304TMC3     C 4631   1.326   3.147  10.390  0.5346 -0.6113  0.6348
  304TMC3     O 4632   1.265   3.219  10.316 -0.3645 -0.1303 -0.2080
  304TMC3     H 4633   1.068   3.117  10.413 -1.7771 -1.4071  0.5318
  304TMC3    H1 4634   1.441   2.929  10.513  0.1337 -1.3576 -1.2516
  304TMC3    H2 4635   1.085   2.739  10.628  2.9917 -0.5673  1.8567
  304TMC3    C7 4636   1.300   2.700  10.487 -0.2590  0.0211 -0.0960
  304TMC3    C8 4637   0.931   2.890  10.469  0.4002 -0.2362  0.2751
  304TMC3    O1 4638   1.202   2.625  10.468  0.1255 -0.0237 -0.0421
  304TMC3    O2 4639   0.866   2.979  10.412  0.0830  0.0202 -0.2969
  305MPD2     C 4640   4.443   0.095  13.425 -0.1406  0.3273 -0.1270
  305MPD2    C1 4641   4.579   0.086  13.429  0.7644  0.1009  0.3656
  305MPD2    C2 4642   4.653   0.058  13.317  0.1126  0.3253 -0.6391
  305MPD2    C3 4643   4.585   0.035  13.199 -0.0746 -0.1616  0.8975
  305MPD2    C4 4644   4.448   0.045  13.187  0.3392 -0.4405 -0.0322
  305MPD2    C5 4645   4.383   0.076  13.296 -0.3642  0.3236 -0.2967
  305MPD2     H 4646   0.022   0.055  13.309  0.3515  0.8479  2.4520
  305MPD2    H1 4647   4.395   0.037  13.093  1.7102 -0.6290 -0.7906
  305MPD2    H2 4648   4.383   0.108  13.514  2.2015 -0.9849  1.6446
  305MPD2    H3 4649   4.276   0.092  13.292 -0.2631  0.7879 -1.2633
  305MPD2     N 4650   4.654   4.734  13.082 -0.0982 -0.9884  0.2291
  305MPD2    H5 4651   4.606   4.700  13.000 -0.1060 -1.4299  0.4155
  305MPD2    N1 4652   4.649   0.095  13.553  0.4805  0.3709  0.1930
  305MPD2    H7 4653   0.003   0.056  13.555  0.3630 -0.0149 -1.9989
  306TMC3    C1 4654   4.692   0.131  13.776  0.2264 -0.1918 -0.8164
  306TMC3    C2 4655   0.035   0.022  13.784  0.3293  0.1814 -0.1567
  306TMC3    C3 4656   0.117   0.017  13.896 -0.6471 -0.5164 -0.3395
  306TMC3    C4 4657   4.679   0.218  13.879 -0.4099 -0.0274 -0.3484
  306TMC3    C5 4658   0.026   0.204  13.986  0.1076 -0.3299  0.5065
  306TMC3    C6 4659   0.114   0.106  13.998 -0.0026  0.3869  0.2826
  306TMC3     C 4660   4.603   0.151  13.668 -0.4945 -0.2465  0.4892
  306TMC3     O 4661   4.497   0.212  13.694 -0.6161 -0.0475 -0.4883
  306TMC3     H 4662   0.033   4.693  13.700 -1.6529  0.0630 -0.0093
  306TMC3    H1 4663   4.621   0.309  13.883  0.0926  0.2377  1.1334
  306TMC3    H2 4664   0.178   0.088  14.084  1.0600 -1.4646 -0.8894
  306TMC3    C7 4665   0.018   0.305  14.084 -0.2750  0.3780  0.4753
  306TMC3    C8 4666   0.233   4.662  13.901 -0.4074  0.3844 -0.8326
  306TMC3    O1 4667   4.646   0.349  14.105  0.3636  0.2983  0.4857
  306TMC3    O2 4668   0.312   4.671  13.998 -0.5269 -0.4124 -0.1474
  307MPD2     C 4669   2.467   2.742  17.649 -0.3900 -0.1148  0.0729
  307MPD2    C1 4670   2.501   2.869  17.685  0.5791  0.5000  0.6081
  307MPD2    C2 4671   2.431   2.921   0.032  0.2706 -0.2053 -0.3988
  307MPD2    C3 4672   2.330   2.854   0.105 -0.3145  0.1134  0.0389
  307MPD2    C4 4673   2.299   2.723   0.061  0.4434  0.0666  1.4029
  307MPD2    C5 4674   2.369   2.677  17.708 -0.9518  0.6417 -0.5164
  307MPD2     H 4675   2.463   3.012   0.082  3.3084 -0.5822 -1.6754
  307MPD2    H1 4676   2.232   2.657   0.115  0.1430 -0.9557 -0.2218
  307MPD2    H2 4677   2.519   2.691  17.569 -0.6446  1.3248 -1.0175
  307MPD2    H3 4678   2.359   2.573  17.677 -1.0307 -0.4220  3.0460
  307MPD2     N 4679   2.285   2.906   0.229  0.6927 -0.6463 -0.6421
  307MPD2    H5 4680   2.303   3.003   0.249 -0.5215 -0.7369  0.9674
  307MPD2    N1 4681   2.593   2.948  17.614  0.1974 -0.5290  0.5476
  307MPD2    H7 4682   2.613   3.036  17.661  0.3595 -1.8914  2.9828
  308TMC3    C1 4683   2.185   2.871   0.674 -0.2437  0.2070  0.0649
  308TMC3    C2 4684   2.285   2.950   0.710  0.1152  0.1824  0.3499
  308TMC3    C3 4685   2.356   3.000   0.606  0.0000  0.3180 -1.1892
  308TMC3    C4 4686   2.139   2.858   0.549 -0.6306  0.1384  0.4760
  308TMC3    C5 4687   2.217   2.907   0.451  0.1872  0.0142 -0.4712
  308TMC3    C6 4688   2.328   2.977   0.473 -0.2320  0.6314 -0.1133
  308TMC3     C 4689   2.070   2.875   0.767  0.7446 -0.5492  0.2048
  308TMC3     O 4690   2.095   2.891   0.886 -0.1538 -0.2118  0.3012
  308TMC3     H 4691   2.318   2.957   0.813 -1.2489  1.3185  0.6974
  308TMC3    H1 4692   2.062   2.787   0.522  0.0786  0.2791 -1.8992
  308TMC3    H2 4693   2.403   3.013   0.403 -1.2068 -0.7382 -1.8585
  308TMC3    C7 4694   2.217   2.835   0.325 -0.0104 -0.0322 -0.0781
  308TMC3    C8 4695   2.443   3.111   0.641 -0.1979 -0.3856 -0.0135
  308TMC3    O1 4696   2.170   2.726   0.320  0.0827 -0.4812 -0.1474
  308TMC3    O2 4697   2.487   3.119   0.753 -0.4117 -0.1807  0.1834
  309MPD2     C 4698   1.634   3.403  17.082 -0.1577 -0.7013  0.9861
  309MPD2    C1 4699   1.595   3.511  17.006 -0.3859 -0.6339 -0.6580
  309MPD2    C2 4700   1.478   3.581  17.049 -0.4046  0.5198  0.0350
  309MPD2    C3 4701   1.420   3.557  17.175 -0.0392  0.5637 -0.3739
  309MPD2    C4 4702   1.465   3.447  17.240 -0.2149 -0.1850 -0.2494
  309MPD2    C5 4703   1.576   3.372  17.202  0.7724 -0.0197  0.7156
  309MPD2     H 4704   1.444   3.659  16.983 -1.2234  1.3186  1.4015
  309MPD2    H1 4705   1.410   3.421  17.330  0.6148  1.5958  0.7768
  309MPD2    H2 4706   1.709   3.333  17.046  0.1418 -0.5331  1.2797
  309MPD2    H3 4707   1.607   3.291  17.266 -0.4073 -2.0001 -1.2296
  309MPD2     N 4708   1.305   3.621  17.216 -0.2269  0.4524  0.3818
  309MPD2    H5 4709   1.248   3.576  17.287 -1.6287 -0.9527 -1.6319
  309MPD2    N1 4710   1.652   3.546  16.879 -0.4476 -0.2067 -0.2757
  309MPD2    H7 4711   1.617   3.629  16.833  0.2766  1.3347  1.9807
  310TMC3    C1 4712   1.797   3.542  16.695  0.0553  0.4500  0.2329
  310TMC3    C2 4713   1.706   3.608  16.617  0.0953  0.1487 -0.2900
  310TMC3    C3 4714   1.729   3.626  16.479  0.6478 -0.5752 -0.0700
  310TMC3    C4 4715   1.922   3.515  16.642  0.0148 -0.1131 -0.1566
  310TMC3    C5 4716   1.943   3.538  16.507  0.3325 -0.2404  0.1185
  310TMC3    C6 4717   1.850   3.590  16.422 -0.6292 -0.5792  0.0763
  310TMC3     C 4718   1.763   3.491  16.824 -0.5466 -0.2775  0.1510
  310TMC3     O 4719   1.843   3.409  16.864  0.5349 -0.1629 -0.1454
  310TMC3     H 4720   1.609   3.632  16.659  0.6250 -0.8624  1.5017
  310TMC3    H1 4721   1.999   3.490  16.715  1.5149  0.5401 -1.5211
  310TMC3    H2 4722   1.866   3.600  16.315  1.9546 -2.0943  0.3384
  310TMC3    C7 4723   2.068   3.500  16.442 -0.5254  0.0877 -0.2707
  310TMC3    C8 4724   1.641   3.736  16.433  0.4701 -0.1391  0.6624
  310TMC3    O1 4725   2.074   3.499  16.323  0.4352 -0.0910  0.1626
  310TMC3    O2 4726   1.575   3.800  16.510 -0.7471  0.6415  0.4202
  311MPD2     C 4727   3.538   0.393  12.357 -0.4591 -0.0076 -0.8182
  311MPD2    C1 4728   3.598   0.342  12.468 -0.7391 -0.2822 -0.0576
  311MPD2    C2 4729   3.539   0.234  12.537 -0.0334 -0.4836  0.3326
  311MPD2    C3 4730   3.427   0.165  12.492 -0.3883  0.2786 -0.2190
  311MPD2    C4 4731   3.364   0.218  12.379  0.2901  0.4435  0.0224
  311MPD2    C5 4732   3.415   0.334  12.322 -0.2611 -0.6491 -0.5323
  311MPD2     H 4733   3.590   0.203  12.628  1.9745  1.2562 -0.1985
  311MPD2    H1 4734   3.272   0.178  12.339  1.6835 -1.2581 -1.5295
  311MPD2    H2 4735   3.579   0.479  12.305  2.0815 -0.8022 -0.1233
  311MPD2    H3 4736   3.356   0.379  12.243  0.9542 -1.2995 -1.8103
  311MPD2     N 4737   3.375   0.050  12.566 -0.0535 -0.3058 -0.8609
  311MPD2    H5 4738   3.439   0.008  12.633 -2.3128 -1.8296  0.3344
  311MPD2    N1 4739   3.731   0.390  12.499  0.1327  0.4766 -0.3565
  311MPD2    H7 4740   3.773   0.464  12.443 -1.6128  1.3298 -0.5484
  312TMC3    C1 4741   3.220   4.623  12.648  0.6071  0.2082 -0.3685
  312TMC3    C2 4742   3.094   4.601  12.687 -0.0562  0.3971  0.1685
  312TMC3    C3 4743   3.066   4.481  12.758  0.0511  0.0981  0.2122
  312TMC3    C4 4744   3.324   4.537  12.685  0.8653  0.2995  0.9187
  312TMC3    C5 4745   3.292   4.416  12.746 -0.9654 -0.3636 -0.3847
  312TMC3    C6 4746   3.164   4.398  12.797 -0.5233  0.3311 -0.6210
  312TMC3     C 4747   3.246   0.001  12.560 -0.1486  0.5742  0.1901
  312TMC3     O 4748   3.148   0.050  12.504 -0.0779  0.3326  0.1219
  312TMC3     H 4749   3.015   4.669  12.657 -0.6920  0.0064  0.9575
  312TMC3    H1 4750   3.428   4.547  12.657  1.0304  0.4225  1.5676
  312TMC3    H2 4751   3.138   4.310  12.854 -1.8171 -0.0119 -1.7268
  312TMC3    C7 4752   3.397   4.358  12.828 -0.6364  0.9988 -0.4307
  312TMC3    C8 4753   2.926   4.451  12.804  0.1160  0.1175 -0.0772
  312TMC3    O1 4754   3.422   4.240  12.812 -0.0482  0.3219 -0.7396
  312TMC3    O2 4755   2.890   4.337  12.836  0.0492 -0.7737 -0.3032
  313MPD2     C 4756   2.736   4.352  11.223  0.3287 -0.0495 -0.2532
  313MPD2    C1 4757   2.761   4.373  11.085  0.1402  0.1917 -0.2182
  313MPD2    C2 4758   2.715   4.280  10.997 -0.2141 -0.1205 -0.1379
  313MPD2    C3 4759   2.658   4.161  11.038  0.1139  0.0484  0.1359
  313MPD2    C4 4760   2.638   4.138  11.173  0.1212  0.4882 -0.0464
  313MPD2    C5 4761   2.674   4.239  11.261 -0.0765  0.0518  0.2774
  313MPD2     H 4762   2.741   4.309  10.896  0.3218  0.0383  0.0474
  313MPD2    H1 4763   2.590   4.051  11.217  1.1855 -0.3244 -0.4913
  313MPD2    H2 4764   2.764   4.423  11.300  2.2815  0.3354 -1.3029
  313MPD2    H3 4765   2.655   4.233  11.367 -0.0639 -1.6942  0.1888
  313MPD2     N 4766   2.628   4.067  10.941  0.0353 -0.4005  0.5564
  313MPD2    H5 4767   2.658   4.082  10.845  1.1140 -0.4688  0.8826
  313MPD2    N1 4768   2.805   4.494  11.025  0.7504  0.2660 -0.0403
  313MPD2    H7 4769   2.824   4.492  10.925 -1.1108 -1.8354 -0.3218
  314TMC3    C1 4770   2.864   4.707  10.964 -0.5831  0.3823 -0.8871
  314TMC3    C2 4771   2.989   0.006  10.933 -0.1155 -0.0041 -0.4094
  314TMC3    C3 4772   3.028   4.734  10.804  0.5501 -0.3189 -0.0755
  314TMC3    C4 4773   2.769   4.679  10.874  0.0727 -0.5243 -0.1139
  314TMC3    C5 4774   2.812   4.680  10.744  0.3637  0.1385  0.7345
  314TMC3    C6 4775   2.947   4.694  10.703 -0.6316  0.0324 -0.3054
  314TMC3     C 4776   2.851   4.616  11.077  1.0371  0.0850  0.0823
  314TMC3     O 4777   2.871   4.652  11.191  0.3612  0.3061 -0.0733
  314TMC3     H 4778   3.052   0.041  11.014 -0.2481  0.1219 -0.3595
  314TMC3    H1 4779   2.664   4.681  10.901  0.7800  0.5615  2.5369
  314TMC3    H2 4780   2.974   4.703  10.598  2.4084 -0.0872  0.4670
  314TMC3    C7 4781   2.706   4.633  10.654 -0.2256  0.3145  0.6296
  314TMC3    C8 4782   3.169   0.001  10.785  0.0008 -0.3999 -0.3599
  314TMC3    O1 4783   2.594   4.595  10.689 -0.1945 -1.1960  0.0774
  314TMC3    O2 4784   3.232   0.088  10.848  0.0636  0.6190 -0.1509
  315MPD2     C 4785   2.771   3.973   0.116 -0.2908 -0.3720 -0.6651
  315MPD2    C1 4786   2.848   3.869   0.059 -0.7563  0.1621 -0.2739
  315MPD2    C2 4787   2.937   3.905  17.715 -0.1641  1.0154 -0.3299
  315MPD2    C3 4788   2.944   4.030  17.659  0.0834 -0.4233 -0.4515
  315MPD2    C4 4789   2.855   4.126  17.703  0.2226  0.7588  0.5132
  315MPD2    C5 4790   2.764   4.095   0.051 -0.0553  0.3620 -0.0503
  315MPD2     H 4791   3.005   3.833  17.669 -1.4755  0.1288 -0.8602
  315MPD2    H1 4792   2.858   4.223  17.655 -3.2933  1.1936  1.1342
  315MPD2    H2 4793   2.714   3.951   0.206  0.2128  0.7193 -0.0723
  315MPD2    H3 4794   2.696   4.168   0.092 -1.1478 -1.5973  1.6653
  315MPD2     N 4795   3.044   4.056  17.568  0.0007 -0.9913  0.3174
  315MPD2    H5 4796   3.122   3.993  17.558  2.4677  2.5187 -2.3440
  315MPD2    N1 4797   2.858   3.740   0.109 -0.3565  0.4527  0.7549
  315MPD2    H7 4798   2.910   3.672   0.054 -0.8000  1.0028 -0.3523
  316TMC3    C1 4799   3.142   4.127  17.378 -0.0447  0.7468 -0.0006
  316TMC3    C2 4800   3.257   4.084  17.440  0.3645 -0.4744  0.3255
  316TMC3    C3 4801   3.304   3.963  17.403 -0.1915 -0.9115 -0.2648
  316TMC3    C4 4802   3.083   4.050  17.281 -0.0946 -0.5619 -0.5455
  316TMC3    C5 4803   3.143   3.930  17.247 -0.1522  0.3771  0.4732
  316TMC3    C6 4804   3.257   3.885  17.306 -0.3372  0.2257 -0.3227
  316TMC3     C 4805   3.043   4.154  17.472 -0.9022 -0.0669 -0.3580
  316TMC3     O 4806   2.963   4.239  17.446 -0.6742  0.0429  0.2496
  316TMC3     H 4807   3.288   4.133  17.531  1.3776 -1.0862  0.3138
  316TMC3    H1 4808   2.984   4.063  17.241  0.3376  2.9664 -0.4226
  316TMC3    H2 4809   3.298   3.787  17.286  1.7446  1.4139 -1.8583
  316TMC3    C7 4810   3.091   3.859  17.134 -0.2853  0.2257  0.2450
  316TMC3    C8 4811   3.376   3.890  17.508  0.2752  0.0801 -0.8836
  316TMC3    O1 4812   3.103   3.737  17.135  0.3034 -0.1709  0.5531
  316TMC3    O2 4813   3.436   3.960  17.590  0.2650  0.3597  0.2711
  317MPD2     C 4814   0.723   1.729  12.376 -0.5099 -0.0660  0.0512
  317MPD2    C1 4815   0.851   1.686  12.388 -0.1384  0.0120 -0.4226
  317MPD2    C2 4816   0.884   1.599  12.493  0.1400  0.2521  0.9350
  317MPD2    C3 4817   0.788   1.556  12.573  0.2527 -0.1015 -0.4922
  317MPD2    C4 4818   0.659   1.597  12.557 -0.7877  0.0259 -0.4664
  317MPD2    C5 4819   0.623   1.687  12.455 -0.4076  0.4324  0.7803
  317MPD2     H 4820   0.983   1.556  12.501 -0.6792 -1.9712 -0.7184
  317MPD2    H1 4821   0.576   1.572  12.622 -0.0516 -1.0485  0.0461
  317MPD2    H2 4822   0.698   1.797  12.295 -0.4787  1.9659  1.7384
  317MPD2    H3 4823   0.524   1.725  12.431  1.4612  4.0321 -1.2911
  317MPD2     N 4824   0.820   1.464  12.673  0.2705  0.7906 -0.1423
  317MPD2    H5 4825   0.917   1.437  12.685 -0.0012 -0.4314 -0.6478
  317MPD2    N1 4826   0.947   1.747  12.301  0.1385 -0.0608  0.2492
  317MPD2    H7 4827   0.907   1.811  12.233  3.1819  0.6057 -0.9324
  318TMC3    C1 4828   0.811   1.329  12.854  0.4105 -0.0935  0.0564
  318TMC3    C2 4829   0.752   1.223  12.904  1.2113 -0.5209  0.1647
  318TMC3    C3 4830   0.828   1.128  12.963 -0.6713  0.6617 -0.8636
  318TMC3    C4 4831   0.945   1.354  12.863 -0.2678  0.4696  0.0615
  318TMC3    C5 4832   1.021   1.259  12.923 -0.8612  0.2540  0.7938
  318TMC3    C6 4833   0.967   1.135  12.967  0.3410  0.1807  0.2951
  318TMC3     C 4834   0.739   1.414  12.768 -0.3194 -0.2923 -0.1569
  318TMC3     O 4835   0.619   1.399  12.775 -0.0039  0.1337 -0.0642
  318TMC3     H 4836   0.644   1.209  12.905  0.9479  1.6950  2.9917
  318TMC3    H1 4837   0.989   1.450  12.843 -0.5787  0.7878  0.8928
  318TMC3    H2 4838   1.027   1.056  13.010  1.1142  1.3999  1.4540
  318TMC3    C7 4839   1.162   1.293  12.945  0.0404  0.3183  0.3133
  318TMC3    C8 4840   0.768   0.992  12.981  0.1828 -0.3996  0.9506
  318TMC3    O1 4841   1.209   1.389  12.879  0.7687  0.3636  0.0132
  318TMC3    O2 4842   0.848   0.899  12.976 -0.4732  0.4248 -0.1932
  319MPD2     C 4843   0.534   2.974  17.064 -0.8025 -0.1704  0.3006
  319MPD2    C1 4844   0.640   2.916  16.994 -0.3347 -0.3756  0.3459
  319MPD2    C2 4845   0.619   2.855  16.868  0.2792 -0.3135  0.8634
  319MPD2    C3 4846   0.485   2.842  16.829  0.4638  0.5920  0.2518
  319MPD2    C4 4847   0.382   2.890  16.903  0.6795 -0.1531 -0.3914
  319MPD2    C5 4848   0.406   2.957  17.021  0.3157  0.4929  0.6517
  319MPD2     H 4849   0.702   2.823  16.807  0.5414  1.2792  0.3872
  319MPD2    H1 4850   0.282   2.872  16.865  0.1836  0.0888  0.8024
  319MPD2    H2 4851   0.555   3.013  17.164  1.1657  0.8135 -0.4919
  319MPD2    H3 4852   0.321   2.988  17.081 -0.1546 -0.8328  0.6718
  319MPD2     N 4853   0.456   2.777  16.712  0.6141 -0.5839  0.5513
  319MPD2    H5 4854   0.357   2.767  16.692  0.7013 -1.8826  0.7164
  319MPD2    N1 4855   0.779   2.923  17.028  0.0119 -0.1284 -0.1810
  319MPD2    H7 4856   0.842   2.877  16.963 -0.4383  0.9106 -1.3483
  320TMC3    C1 4857   0.480   2.702  16.495 -0.1635 -0.0031  0.1572
  320TMC3    C2 4858   0.367   2.774  16.456  0.6090 -0.0886 -0.6014
  320TMC3    C3 4859   0.332   2.764  16.327  0.2064 -0.6440 -0.5021
  320TMC3    C4 4860   0.546   2.622  16.407  0.0560 -0.7285  0.0478
  320TMC3    C5 4861   0.505   2.624  16.278 -0.6069 -0.5801 -0.7187
  320TMC3    C6 4862   0.389   2.686  16.238  0.3734  0.3234  0.1678
  320TMC3     C 4863   0.547   2.730  16.622 -0.8068  0.5571 -0.7141
  320TMC3     O 4864   0.667   2.713  16.634 -0.1593  0.0437  0.7550
  320TMC3     H 4865   0.327   2.853  16.519 -2.9607 -2.5328  0.2235
  320TMC3    H1 4866   0.627   2.563  16.448  0.7885 -1.1670 -2.0185
  320TMC3    H2 4867   0.372   2.701  16.132 -1.4205 -1.7095  0.1600
  320TMC3    C7 4868   0.588   2.575  16.168  0.4516  0.1593 -0.1416
  320TMC3    C8 4869   0.237   2.864  16.279  0.5748  0.2464  1.1259
  320TMC3    O1 4870   0.535   2.537  16.065  0.6458 -0.1641  0.1036
  320TMC3    O2 4871   0.217   2.965  16.352 -0.7949  0.0218 -0.3341
  321TMC3    C1 4872   0.978   3.007  17.108 -0.0325 -0.2514  0.4895
  321TMC3    C2 4873   1.034   2.964  16.985 -0.0564  0.5093 -0.2795
  321TMC3    C3 4874   1.149   3.026  16.956  0.0101 -0.1559 -0.6171
  321TMC3    C4 4875   1.028   3.100  17.200 -0.4231  0.2690 -0.1536
  321TMC3    C5 4876   1.146   3.152  17.160 -0.0911 -0.6243  0.5434
  321TMC3    C6 4877   1.197   3.127  17.040 -0.4480  0.2808  0.3101
  321TMC3     C 4878   0.834   2.994  17.128 -0.6092 -0.2669  0.1679
  321TMC3     O 4879   0.783   3.036  17.229  0.5261 -0.0545  0.1258
  321TMC3     H 4880   0.997   2.882  16.924 -1.5488  1.4978 -0.6833
  321TMC3    H1 4881   0.991   3.110  17.302  1.1123  0.4134  0.3937
  321TMC3    H2 4882   1.291   3.172  17.013 -0.3678 -0.7578 -1.1117
  321TMC3    C7 4883   1.249   3.168  17.261  0.5746  0.4224  0.6016
  321TMC3    C8 4884   1.255   2.932  16.919 -0.5855 -0.1622 -0.0359
  321TMC3    O1 4885   1.219   3.193  17.380  0.0748  0.0801  0.3354
  321TMC3    O2 4886   1.362   2.959  16.973  0.4073  0.2168  0.1744
  322MPD2     C 4887   4.302   3.784  13.391  0.2018  0.0195 -0.0304
  322MPD2    C1 4888   4.286   3.823  13.521 -0.0606 -0.4508  0.0053
  322MPD2    C2 4889   4.276   3.718  13.620  0.1568  0.0047  0.1031
  322MPD2    C3 4890   4.283   3.589  13.587 -0.2734  0.3856 -0.3541
  322MPD2    C4 4891   4.301   3.550  13.454  0.1727  0.0125 -0.7925
  322MPD2    C5 4892   4.312   3.649  13.358 -0.8074  0.2570  0.1579
  322MPD2     H 4893   4.276   3.750  13.723 -2.0473  2.0966 -0.5286
  322MPD2    H1 4894   4.308   3.448  13.417 -1.8811 -0.1374 -0.7613
  322MPD2    H2 4895   4.316   3.855  13.311  1.1553 -0.3756 -0.2161
  322MPD2    H3 4896   4.313   3.617  13.255 -2.1483  1.6959 -0.2815
  322MPD2     N 4897   4.269   3.494  13.693  0.7905  0.5112 -0.1021
  322MPD2    H5 4898   4.244   3.535  13.783  0.5592  1.2118 -0.4837
  322MPD2    N1 4899   4.298   3.960  13.545 -0.2092  0.4322 -0.1516
  322MPD2    H7 4900   4.332   4.013  13.466  2.6778  1.4567  1.7644
  323TMC3    C1 4901   4.317   4.138  13.704  0.5437 -0.1860 -0.6542
  323TMC3    C2 4902   4.386   4.208  13.620  0.2218  0.1545  0.1134
  323TMC3    C3 4903   4.479   4.303  13.659 -0.5884 -0.2948 -0.1757
  323TMC3    C4 4904   4.329   4.158  13.839 -0.3308  0.7215 -0.3398
  323TMC3    C5 4905   4.413   4.253  13.883 -1.2396  0.0739  0.2428
  323TMC3    C6 4906   4.494   4.319  13.791 -0.9000 -0.5927 -0.0799
  323TMC3     C 4907   4.264   4.008  13.670  0.2360  0.1604 -0.1752
  323TMC3     O 4908   4.192   3.950  13.753  0.5895  0.0055  0.2168
  323TMC3     H 4909   4.377   4.187  13.514  0.9633  5.3932 -0.9796
  323TMC3    H1 4910   4.269   4.095  13.904  0.5550 -0.2285 -0.4371
  323TMC3    H2 4911   4.578   4.381  13.823 -0.4279 -1.6195  0.6731
  323TMC3    C7 4912   4.458   4.233  14.021  0.1176  0.5891 -0.8106
  323TMC3    C8 4913   4.568   4.380  13.578 -0.8272 -0.0500  0.1631
  323TMC3    O1 4914   4.413   4.132  14.080  0.3124 -0.7500 -0.2374
  323TMC3    O2 4915   4.622   4.473  13.636 -0.0871  0.5125 -0.0703
  324MPD2     C 4916   1.792   0.453  14.711  0.1285  0.2976 -0.2686
  324MPD2    C1 4917   1.805   0.557  14.625  0.7425  0.6560  0.1894
  324MPD2    C2 4918   1.691   0.613  14.579  0.2347  0.2244  0.3387
  324MPD2    C3 4919   1.566   0.574  14.611  0.4698  0.0261  0.0071
  324MPD2    C4 4920   1.554   0.465  14.695  0.1534  0.7643 -0.0143
  324MPD2    C5 4921   1.666   0.405  14.749  0.3169  0.9801  0.4670
  324MPD2     H 4922   1.696   0.699  14.514  1.8703 -0.3692 -0.3140
  324MPD2    H1 4923   1.458   0.434  14.734  1.2710 -0.4034  1.8107
  324MPD2    H2 4924   1.874   0.392  14.746  0.5711  1.4551  0.6996
  324MPD2    H3 4925   1.662   0.322  14.820  0.9196  0.3460 -0.2371
  324MPD2     N 4926   1.451   0.641  14.553 -0.9810 -0.2404  0.1844
  324MPD2    H5 4927   1.475   0.703  14.476  0.4509 -1.2448 -0.1892
  324MPD2    N1 4928   1.927   0.602  14.572  0.5279  0.7796 -0.5610
  324MPD2    H7 4929   1.929   0.667  14.493  1.6330  1.0256 -0.3355
  325TMC3    C1 4930   1.233   0.699  14.487  0.5899  0.4677  0.1025
  325TMC3    C2 4931   1.116   0.642  14.449  0.1300  0.8016 -0.0486
  325TMC3    C3 4932   1.032   0.719  14.371 -1.2159 -0.1143 -0.2334
  325TMC3    C4 4933   1.261   0.829  14.459  0.0873 -0.0555  0.6140
  325TMC3    C5 4934   1.168   0.906  14.399  0.0220 -0.1714  0.2125
  325TMC3    C6 4935   1.064   0.846  14.337  0.7432  0.0927  0.2046
  325TMC3     C 4936   1.317   0.624  14.577 -0.1210  0.1734 -0.2417
  325TMC3     O 4937   1.270   0.530  14.635 -0.5768 -0.2264  0.3459
  325TMC3     H 4938   1.079   0.547  14.485  2.2399  0.4610  1.2299
  325TMC3    H1 4939   1.345   0.875  14.510 -0.9157  0.4348  1.8474
  325TMC3    H2 4940   1.003   0.901  14.266 -0.6457 -2.6154 -0.6791
  325TMC3    C7 4941   1.203   1.046  14.375 -0.3413  0.8779 -0.0101
  325TMC3    C8 4942   0.968   0.641  14.270 -0.1951 -0.5433  0.2239
  325TMC3    O1 4943   1.319   1.075  14.395 -0.4149 -0.3268 -0.7064
  325TMC3    O2 4944   0.998   0.521  14.258 -0.3111  0.7762  0.6497
  326MPD2     C 4945   2.910   1.486  11.039  0.2686  0.3070  0.4288
  326MPD2    C1 4946   2.878   1.606  10.977  0.8572  0.5895 -0.7058
  326MPD2    C2 4947   2.940   1.722  11.004  0.2157 -0.9432  0.6007
  326MPD2    C3 4948   3.034   1.723  11.099  0.8423  0.2133  0.1966
  326MPD2    C4 4949   3.058   1.613  11.176 -0.4513 -0.1328 -0.8291
  326MPD2    C5 4950   3.006   1.492  11.141 -0.2871 -0.4130 -0.0549
  326MPD2     H 4951   2.926   1.812  10.944  0.7211 -1.4812 -0.3217
  326MPD2    H1 4952   3.139   1.605  11.247  0.8302 -2.3974 -2.5261
  326MPD2    H2 4953   2.871   1.387  11.016  3.0903 -0.3829 -1.3428
  326MPD2    H3 4954   3.024   1.397  11.189 -0.5638 -0.0008  0.8750
  326MPD2     N 4955   3.093   1.851  11.144  0.3860  0.0521  0.2647
  326MPD2    H5 4956   3.157   1.841  11.222 -2.4062  0.6700  2.5904
  326MPD2    N1 4957   2.783   1.617  10.876 -0.6818  0.1520  0.2063
  326MPD2    H7 4958   2.778   1.712  10.840  0.0273 -0.3771 -1.2975
  327TMC3    C1 4959   2.613   1.598  10.735 -0.1207 -0.2716  0.4883
  327TMC3    C2 4960   2.497   1.654  10.768 -0.0874 -0.1010 -0.1789
  327TMC3    C3 4961   2.477   1.771  10.707 -0.9921  0.2032  0.0347
  327TMC3    C4 4962   2.703   1.645  10.641 -0.1966  0.0575  0.3956
  327TMC3    C5 4963   2.678   1.766  10.585  0.2264 -0.3290 -0.1798
  327TMC3    C6 4964   2.566   1.835  10.627 -0.5956  0.1496 -0.2931
  327TMC3     C 4965   2.681   1.532  10.844  0.4123  0.1241  0.0722
  327TMC3     O 4966   2.621   1.454  10.917 -0.7867  0.2923 -0.2470
  327TMC3     H 4967   2.429   1.607  10.838 -0.6131  0.4623 -0.3089
  327TMC3    H1 4968   2.780   1.579  10.602  0.0865  1.1248 -0.8540
  327TMC3    H2 4969   2.548   1.932  10.583 -3.0952 -0.3290 -0.3150
  327TMC3    C7 4970   2.794   1.843  10.561 -0.5100  0.5406  0.4751
  327TMC3    C8 4971   2.342   1.823  10.701 -0.3881 -0.6739  0.2576
  327TMC3    O1 4972   2.790   1.949  10.502  0.0431  0.3934  0.2975
  327TMC3    O2 4973   2.259   1.735  10.692 -0.6182 -0.0020  0.3194
  328MPD2     C 4974   0.184   1.635   0.208  0.0394 -0.4849  0.6738
  328MPD2    C1 4975   0.141   1.508   0.165  0.1387  0.3962 -0.6203
  328MPD2    C2 4976   0.098   1.497   0.028 -0.2434  0.5886 -0.0191
  328MPD2    C3 4977   0.102   1.612  17.692  0.3966 -0.6051  0.4336
  328MPD2    C4 4978   0.160   1.732  17.744 -0.2716  0.1165 -0.2127
  328MPD2    C5 4979   0.196   1.741   0.122  0.3218 -0.5716  0.7863
  328MPD2     H 4980   0.068   1.398  17.753  0.4353 -0.2628  2.1028
  328MPD2    H1 4981   0.145   1.825  17.690 -1.6962  0.2405  0.3802
  328MPD2    H2 4982   0.210   1.654   0.312  0.4517 -3.7100  1.1755
  328MPD2    H3 4983   0.234   1.834   0.164  0.7760 -0.8579  1.0120
  328MPD2     N 4984   0.068   1.614  17.552 -0.1420 -0.4202  0.2375
  328MPD2    H5 4985   0.078   1.705  17.508  1.2192 -1.1102 -0.8823
  328MPD2    N1 4986   0.126   1.397   0.257  0.2656  0.7005 -0.7669
  328MPD2    H7 4987   0.163   1.416   0.350  0.8788  0.5541 -0.9843
  329TMC3    C1 4988   0.058   1.183   0.351 -0.4848  0.2980 -0.4570
  329TMC3    C2 4989   0.067   1.233   0.478  0.7225  0.2472 -0.1583
  329TMC3    C3 4990   0.033   1.153   0.583 -0.6680 -0.4303  0.4702
  329TMC3    C4 4991   0.016   1.052   0.326  0.7540  0.9919  1.0474
  329TMC3    C5 4992   0.001   0.971   0.439 -0.5488  0.6978  0.1729
  329TMC3    C6 4993   0.001   1.018   0.566  0.7770  0.0265  0.4379
  329TMC3     C 4994   0.077   1.271   0.237  0.3074  0.3817 -0.0397
  329TMC3     O 4995   0.056   1.222   0.130  0.2386  0.3376  0.0112
  329TMC3     H 4996   0.073   1.341   0.483  1.0630  0.0952  2.6489
  329TMC3    H1 4997   0.004   1.020   0.223 -0.6008  1.2342  1.1234
  329TMC3    H2 4998   4.707   0.961   0.653 -0.1026 -0.5338 -0.2685
  329TMC3    C7 4999   4.738   0.829   0.426 -0.3622  0.1111 -0.7481
  329TMC3    C8 5000   0.025   1.206   0.713 -0.4722 -0.1422 -0.7080
  329TMC3    O1 5001   0.027   0.755   0.522  0.1161 -0.4814  0.3648
  329TMC3    O2 5002   0.074   1.142   0.804  0.3793  1.1841 -0.2879
  330TMC3    C1 5003   3.312   1.542   9.530  0.0693  0.3108  0.4304
  330TMC3    C2 5004   3.232   1.472   9.450 -0.1009  0.8254 -1.2695
  330TMC3    C3 5005   3.227   1.335   9.446 -0.2784 -0.2991 -0.5630
  330TMC3    C4 5006   3.391   1.472   9.616  0.2163  0.0209 -0.3783
  330TMC3    C5 5007   3.396   1.337   9.614 -0.2405  0.2910 -0.3473
  330TMC3    C6 5008   3.310   1.265   9.527  0.3592  0.1048  0.3713
  330TMC3     C 5009   3.311   1.686   9.525 -1.0938  0.3575 -0.5363
  330TMC3     O 5010   3.368   1.733   9.621 -0.4266 -0.5068 -0.1475
  330TMC3     H 5011   3.160   1.520   9.385 -0.2168 -0.6604 -2.2405
  330TMC3    H1 5012   3.452   1.531   9.683 -0.0349  1.2484 -1.2369
  330TMC3    H2 5013   3.323   1.160   9.503 -1.5535 -0.0676  0.0482
  330TMC3    C7 5014   3.454   1.266   9.725 -0.5357  0.6305  0.3553
  330TMC3    C8 5015   3.132   1.256   9.364  0.5364  0.4629 -0.1976
  330TMC3    O1 5016   3.412   1.155   9.747  0.3362  0.7259  0.4454
  330TMC3    O2 5017   3.058   1.329   9.293  0.3535 -0.1543 -0.5340
  331MPD2     C 5018   1.672   0.501  12.286 -0.3134 -0.0136 -0.2637
  331MPD2    C1 5019   1.572   0.463  12.201 -0.2258 -0.0883  0.1575
  331MPD2    C2 5020   1.481   0.369  12.243  0.5387 -1.3577  0.3724
  331MPD2    C3 5021   1.494   0.304  12.360  0.4755  0.0838  0.1832
  331MPD2    C4 5022   1.597   0.344  12.450  0.5727  0.0951  0.0770
  331MPD2    C5 5023   1.686   0.437  12.407 -0.2892  0.0986  0.6060
  331MPD2     H 5024   1.391   0.351  12.185  0.6681 -0.1052 -0.2101
  331MPD2    H1 5025   1.599   0.312  12.553  0.8038  0.7847  0.2872
  331MPD2    H2 5026   1.740   0.574  12.243 -0.2166  1.5176  2.4939
  331MPD2    H3 5027   1.767   0.470  12.472  0.7468 -1.6949  0.2358
  331MPD2     N 5028   1.403   0.201  12.396 -0.0690  0.4611  0.3003
  331MPD2    H5 5029   1.343   0.179  12.318 -0.9011  0.2437  1.0040
  331MPD2    N1 5030   1.557   0.534  12.085  0.0862  0.5002  0.3095
  331MPD2    H7 5031   1.604   0.623  12.081  1.7692 -0.4508 -1.3537
  332TMC3    C1 5032   1.294   0.030  12.497  0.6390 -0.4037 -0.2387
  332TMC3    C2 5033   1.176   0.064  12.431 -0.2729 -0.1875  0.0562
  332TMC3    C3 5034   1.078   4.703  12.416 -0.4776 -0.3855  0.5075
  332TMC3    C4 5035   1.320   4.648  12.550 -0.8334 -1.1138  0.8112
  332TMC3    C5 5036   1.218   4.553  12.536  0.6754 -0.1177  0.2122
  332TMC3    C6 5037   1.099   4.578  12.473  0.4475 -0.1089  0.5198
  332TMC3     C 5038   1.400   0.124  12.506  0.0238  0.7654 -0.4874
  332TMC3     O 5039   1.477   0.126  12.604  0.9902  0.5785 -0.3048
  332TMC3     H 5040   1.148   0.163  12.399 -1.4961 -0.1079  1.3614
  332TMC3    H1 5041   1.424   4.621  12.558 -0.2634  0.1915 -2.3193
  332TMC3    H2 5042   1.017   4.508  12.465 -0.6900  1.1237  1.3181
  332TMC3    C7 5043   1.243   4.408  12.564 -0.5976  0.3652  0.2852
  332TMC3    C8 5044   0.956   4.737  12.337 -0.8749  0.1488 -0.4610
  332TMC3    O1 5045   1.144   4.339  12.583  0.1579  0.0247  0.6602
  332TMC3    O2 5046   0.954   0.111  12.297  0.6173 -0.5004  0.0425
  333MPD2     C 5047   1.535   0.251  11.099  0.4355 -0.0067 -0.8729
  333MPD2    C1 5048   1.631   0.182  11.030 -0.5472 -0.1466  0.3181
  333MPD2    C2 5049   1.665   0.054  11.070 -0.7467  0.3294 -0.2886
  333MPD2    C3 5050   1.618   0.007  11.191 -0.4599  0.4873 -0.4361
  333MPD2    C4 5051   1.513   0.070  11.249 -0.2759  0.5861 -0.3000
  333MPD2    C5 5052   1.477   0.195  11.206 -0.3463  0.4462 -0.1205
  333MPD2     H 5053   1.735   4.736  11.011 -0.8211 -0.6436  0.5807
  333MPD2    H1 5054   1.476   0.023  11.340  2.6078  0.0855  0.6118
  333MPD2    H2 5055   1.501   0.350  11.071 -2.9464 -0.8137  0.4655
  333MPD2    H3 5056   1.396   0.242  11.259 -1.3297  0.7555 -1.9146
  333MPD2     N 5057   1.679   4.628  11.232  0.1992  0.0128 -0.2753
  333MPD2    H5 5058   1.748   4.596  11.165  1.7703 -1.4916  2.0357
  333MPD2    N1 5059   1.686   0.240  10.910 -0.5347  0.2776 -0.2315
  333MPD2    H7 5060   1.667   0.340  10.908  0.1851  0.3890 -1.8338
  334TMC3    C1 5061   1.823   0.292  10.728 -0.1327 -0.2207 -0.3585
  334TMC3    C2 5062   1.944   0.264  10.669  0.1073  0.1967  0.9473
  334TMC3    C3 5063   2.005   0.365  10.602 -0.2733  0.1733 -0.1993
  334TMC3    C4 5064   1.754   0.408  10.702 -0.8976 -1.0576 -0.4897
  334TMC3    C5 5065   1.817   0.502  10.630 -0.0006 -0.6226 -0.2320
  334TMC3    C6 5066   1.949   0.491  10.589  0.4342 -0.0046 -0.2556
  334TMC3     C 5067   1.782   0.196  10.825 -0.3101  0.2715 -1.1451
  334TMC3     O 5068   1.837   0.091  10.815  0.2094 -0.1868 -0.9204
  334TMC3     H 5069   1.998   0.174  10.693 -0.9122 -1.0676 -1.5396
  334TMC3    H1 5070   1.662   0.429  10.754 -0.1689  3.8468 -1.2349
  334TMC3    H2 5071   1.997   0.569  10.531  0.6189 -1.4374 -2.0752
  334TMC3    C7 5072   1.758   0.633  10.636  0.4174 -0.2572  0.1002
  334TMC3    C8 5073   2.108   0.332  10.508 -0.1200 -0.3837  0.6763
  334TMC3    O1 5074   1.826   0.729  10.666  0.3456 -0.8356  0.0572
  334TMC3    O2 5075   2.126   0.211  10.482 -0.1050 -0.5737  0.3661
  335TMC3    C1 5076   1.541   2.151  17.068 -0.0183  0.2107  0.7435
  335TMC3    C2 5077   1.423   2.090  17.065  0.2040 -0.3728 -0.1721
  335TMC3    C3 5078   1.421   1.957  17.048  0.3921  0.4804 -0.3184
  335TMC3    C4 5079   1.660   2.082  17.047  0.0395  0.2937 -0.5056
  335TMC3    C5 5080   1.655   1.948  17.019  0.2648 -0.7010  0.2201
  335TMC3    C6 5081   1.534   1.884  17.032  0.3282 -0.0298 -0.9198
  335TMC3     C 5082   1.548   2.278  17.127  0.2932  0.0582  0.3315
  335TMC3     O 5083   1.643   2.295  17.199  0.3936 -0.1347  0.2386
  335TMC3     H 5084   1.332   2.147  17.081  0.1401 -0.5212 -0.0155
  335TMC3    H1 5085   1.751   2.139  17.059 -0.5699  1.0268  0.6193
  335TMC3    H2 5086   1.530   1.776  17.034  2.4539 -0.1383 -1.6077
  335TMC3    C7 5087   1.776   1.868  17.034 -0.0139  0.1751 -0.5510
  335TMC3    C8 5088   1.286   1.900  17.059  0.0722 -0.1302 -0.6404
  335TMC3    O1 5089   1.872   1.938  17.001  0.0511  0.1818 -0.2466
  335TMC3    O2 5090   1.192   1.978  17.049  0.1067 -0.3061  0.4918
  336MPD2     C 5091   0.583   4.436  16.356 -0.8157  0.5253 -0.3599
  336MPD2    C1 5092   0.555   4.380  16.232  0.0393  0.7637  0.4547
  336MPD2    C2 5093   0.550   4.242  16.226 -0.6852 -0.9598  0.4656
  336MPD2    C3 5094   0.566   4.168  16.339  0.1061  0.4594  0.0895
  336MPD2    C4 5095   0.561   4.223  16.464  0.5201  0.4891 -0.0470
  336MPD2    C5 5096   0.573   4.360  16.469  0.0257  0.1995  0.4000
  336MPD2     H 5097   0.522   4.195  16.133  2.6865 -1.6180 -0.2168
  336MPD2    H1 5098   0.557   4.162  16.554 -0.6745 -1.6712 -1.5599
  336MPD2    H2 5099   0.591   4.543  16.371  0.0316  0.7368 -2.3018
  336MPD2    H3 5100   0.583   4.412  16.563  2.4488  0.3331  0.0612
  336MPD2     N 5101   0.570   4.024  16.334  0.8939 -0.3221  0.5865
  336MPD2    H5 5102   0.558   3.972  16.421 -1.8165  0.1810  0.5107
  336MPD2    N1 5103   0.542   4.466  16.116 -0.0972  0.2957 -0.2223
  336MPD2    H7 5104   0.517   4.412  16.034 -0.4846 -0.9277  0.6863
  337TMC3    C1 5105   0.523   4.658  15.988  0.2116 -0.2233  0.3783
  337TMC3    C2 5106   0.405   4.613  15.924  0.0082  0.0080  0.6345
  337TMC3    C3 5107   0.385   4.636  15.792  0.0554 -0.2249 -0.2332
  337TMC3    C4 5108   0.626   4.716  15.913 -0.0680  0.3851  0.2572
  337TMC3    C5 5109   0.599   4.739  15.779  0.9169 -0.1060 -0.5222
  337TMC3    C6 5110   0.483   4.700  15.716  0.5305 -0.1521  0.2271
  337TMC3     C 5111   0.554   4.599  16.114 -0.1192 -0.2712  0.0229
  337TMC3     O 5112   0.584   4.677  16.205  0.4557  0.1726 -0.4026
  337TMC3     H 5113   0.327   4.564  15.982 -1.5427  0.2837 -1.2248
  337TMC3    H1 5114   0.719   0.012  15.955 -0.6724  0.7172  1.3413
  337TMC3    H2 5115   0.462   4.727  15.613  1.3275  0.7602  0.2992
  337TMC3    C7 5116   0.711   0.067  15.706  0.6164  0.0361  0.2060
  337TMC3    C8 5117   0.252   4.622  15.737  0.9481 -0.4806 -0.4669
  337TMC3    O1 5118   0.821   0.078  15.767  0.0185  0.2666  1.2795
  337TMC3    O2 5119   0.163   4.608  15.815  0.2591  0.7180  0.8094
  338MPD2     C 5120   0.834   3.022   0.729 -0.3331  0.2580 -0.5333
  338MPD2    C1 5121   0.861   3.134   0.656  0.0051  0.2334  0.3588
  338MPD2    C2 5122   0.771   3.237   0.643 -0.2146  0.2562  0.2414
  338MPD2    C3 5123   0.652   3.226   0.709 -0.0825  0.0036  0.4663
  338MPD2    C4 5124   0.626   3.121   0.793  0.4547 -0.0804 -0.1432
  338MPD2    C5 5125   0.716   3.017   0.795 -0.6008 -0.6836  0.2679
  338MPD2     H 5126   0.790   3.303   0.560 -0.1851  1.4957  1.2251
  338MPD2    H1 5127   0.526   3.096   0.827  0.1366  0.5171 -0.6314
  338MPD2    H2 5128   0.897   2.934   0.734 -0.1708  0.3009 -2.0294
  338MPD2    H3 5129   0.708   2.921   0.843  1.9434 -1.2054 -0.3187
  338MPD2     N 5130   0.566   3.330   0.683 -0.1797  0.3636  0.5348
  338MPD2    H5 5131   0.600   3.398   0.616  0.4682  0.2137  0.7090
  338MPD2    N1 5132   0.970   3.149   0.562  0.2881 -0.4336  0.7033
  338MPD2    H7 5133   0.982   3.247   0.538 -0.9529 -0.6778 -0.9436
  339TMC3    C1 5134   0.369   3.454   0.681  0.3760  0.0064  0.0883
  339TMC3    C2 5135   0.232   3.447   0.690 -0.5789 -0.9007  0.7970
  339TMC3    C3 5136   0.159   3.520   0.604 -0.2453 -0.5326  0.3338
  339TMC3    C4 5137   0.432   3.524   0.575  0.3536  0.0700 -0.2426
  339TMC3    C5 5138   0.353   3.586   0.484  0.2403  0.0540  0.1879
  339TMC3    C6 5139   0.222   3.588   0.498  0.3130  0.1086 -0.2692
  339TMC3     C 5140   0.440   3.340   0.738  0.4449  0.0445 -0.7369
  339TMC3     O 5141   0.385   3.272   0.825 -0.3845  0.3461 -0.2005
  339TMC3     H 5142   0.181   3.395   0.770  0.1228 -0.4110  1.5588
  339TMC3    H1 5143   0.538   3.547   0.573 -0.0522  1.8837 -0.8985
  339TMC3    H2 5144   0.167   3.652   0.430  3.2915  2.6627 -0.2669
  339TMC3    C7 5145   0.415   3.657   0.375  0.0507 -0.4150 -0.1099
  339TMC3    C8 5146   0.014   3.509   0.588 -0.2008  0.1048  0.5175
  339TMC3    O1 5147   0.523   3.697   0.397 -0.0085  0.0570 -0.1047
  339TMC3    O2 5148   4.695   3.599   0.527  0.3628 -0.4216 -0.1859
  340MPD2     C 5149   1.506   1.818  10.437 -0.1150 -0.3122  0.6764
  340MPD2    C1 5150   1.486   1.681  10.411 -0.0762  0.9090  0.0837
  340MPD2    C2 5151   1.597   1.604  10.397  0.3356 -0.1036 -0.5243
  340MPD2    C3 5152   1.720   1.660  10.420  0.7092 -0.0958 -0.5550
  340MPD2    C4 5153   1.738   1.791  10.449 -0.0260  0.6147  0.2299
  340MPD2    C5 5154   1.631   1.871  10.458  0.2467 -0.2295  0.5700
  340MPD2     H 5155   1.574   1.500  10.377  0.6651 -0.1709 -0.5568
  340MPD2    H1 5156   1.832   1.845  10.463  0.6906 -1.3498  3.0000
  340MPD2    H2 5157   1.420   1.885  10.443 -1.0737 -1.4973  0.1556
  340MPD2    H3 5158   1.651   1.978  10.463 -2.7659  0.3735 -0.5941
  340MPD2     N 5159   1.843   1.584  10.401  0.4689 -0.7393  0.1609
  340MPD2    H5 5160   1.930   1.635  10.413 -0.3359  0.6921  0.0276
  340MPD2    N1 5161   1.347   1.644  10.376 -0.4206  0.8404  0.0455
  340MPD2    H7 5162   1.277   1.705  10.419 -0.7273 -0.2065  1.0491
  341TMC3    C1 5163   1.393   1.461  10.216 -0.7737  0.8997 -0.0081
  341TMC3    C2 5164   1.368   1.330  10.211 -0.0274 -0.0398 -0.0971
  341TMC3    C3 5165   1.460   1.258  10.135 -0.6030  0.4313  0.6366
  341TMC3    C4 5166   1.489   1.521  10.139  0.4028  0.4424  1.5227
  341TMC3    C5 5167   1.573   1.442  10.057  0.4477 -0.2314  0.5372
  341TMC3    C6 5168   1.566   1.304  10.059 -0.7106  0.0971 -0.4496
  341TMC3     C 5169   1.298   1.541  10.298  0.3744 -0.0043 -0.6763
  341TMC3     O 5170   1.182   1.515  10.268 -0.2061  0.4621  0.4027
  341TMC3     H 5171   1.282   1.287  10.262  1.1618 -0.9880  1.1157
  341TMC3    H1 5172   1.487   1.628  10.124  0.4625  0.3391  0.7773
  341TMC3    H2 5173   1.637   1.238  10.010 -1.3945 -1.4574  0.6505
  341TMC3    C7 5174   1.674   1.499   9.966 -0.4171 -0.4891  0.2500
  341TMC3    C8 5175   1.430   1.117  10.125  0.0552 -0.0710 -0.9953
  341TMC3    O1 5176   1.726   1.415   9.894  0.2065 -0.3608  0.1743
  341TMC3    O2 5177   1.313   1.080  10.121 -0.1180  0.3798  0.5346
  342MPD2     C 5178   3.199   4.621  17.141  0.3239 -0.8723  0.1262
  342MPD2    C1 5179   3.332   4.615  17.165  0.1712 -0.1885 -0.5417
  342MPD2    C2 5180   3.403   4.723  17.217 -0.1680  0.5642 -0.3242
  342MPD2    C3 5181   3.334   0.105  17.244  0.1931 -0.2552  0.0402
  342MPD2    C4 5182   3.201   0.115  17.199 -0.0817 -0.0312  0.3882
  342MPD2    C5 5183   3.137   0.003  17.150  0.6655 -0.4507  0.8678
  342MPD2     H 5184   3.504   4.702  17.252 -0.7301 -1.2904  0.1832
  342MPD2    H1 5185   3.140   0.204  17.208  1.5650  0.8600  3.1001
  342MPD2    H2 5186   3.152   4.534  17.096 -2.1173  1.1133 -1.1417
  342MPD2    H3 5187   3.034   0.005  17.117  1.1129 -2.4005 -0.6734
  342MPD2     N 5188   3.399   0.221  17.294  0.3237 -0.0919  0.1506
  342MPD2    H5 5189   3.340   0.303  17.300 -1.0320 -0.9330 -1.8527
  342MPD2    N1 5190   3.420   4.501  17.135 -0.1382 -0.2656 -0.2088
  342MPD2    H7 5191   3.521   4.507  17.143 -0.0391 -2.2977  0.0135
  343TMC3    C1 5192   3.480   4.277  17.082 -0.5779  0.1318 -0.2381
  343TMC3    C2 5193   3.603   4.323  17.045  0.8309  0.0656  0.9863
  343TMC3    C3 5194   3.706   4.227  17.023  1.1361  0.2179  1.0988
  343TMC3    C4 5195   3.463   4.140  17.088  0.2868 -0.3196 -0.1779
  343TMC3    C5 5196   3.571   4.051  17.073  0.0554 -0.0718  0.2084
  343TMC3    C6 5197   3.697   4.095  17.056  0.7371  1.0459  0.2062
  343TMC3     C 5198   3.371   4.370  17.115  0.7074 -0.4543  0.3434
  343TMC3     O 5199   3.253   4.331  17.129  0.3762  0.2611  0.1542
  343TMC3     H 5200   3.605   4.427  17.015 -0.2394  0.3675  1.9532
  343TMC3    H1 5201   3.364   4.107  17.114 -1.0130  3.2015 -0.6566
  343TMC3    H2 5202   3.783   4.029  17.051  0.4782  0.6240  1.2362
  343TMC3    C7 5203   3.551   3.923  17.132  0.4285 -0.2721 -0.5036
  343TMC3    C8 5204   3.827   4.282  16.967  0.2206 -0.2629 -0.6305
  343TMC3    O1 5205   3.451   3.860  17.101 -0.3670 -0.1663 -0.0479
  343TMC3    O2 5206   3.848   4.404  16.968 -0.3044 -0.6597 -0.1612
  344MPD2     C 5207   4.532   3.719  10.098  0.0602 -0.0172 -0.1178
  344MPD2    C1 5208   4.594   3.695  10.220  0.0394 -0.2163  0.4026
  344MPD2    C2 5209   4.674   3.800  10.264 -0.3954 -0.3206 -0.3036
  344MPD2    C3 5210   4.679   3.919  10.194 -0.4346 -0.0512 -0.3170
  344MPD2    C4 5211   4.619   3.936  10.076 -0.0884  0.6969 -0.4215
  344MPD2    C5 5212   4.543   3.836  10.029 -0.5515  0.7376 -0.2492
  344MPD2     H 5213   0.004   3.787  10.346 -1.0042  1.8139  0.5597
  344MPD2    H1 5214   4.641   4.019  10.010  1.9823  0.2946 -0.2194
  344MPD2    H2 5215   4.482   3.637  10.046 -1.4124  0.1309  1.0627
  344MPD2    H3 5216   4.497   3.858   9.933 -2.2144  1.2445  0.6632
  344MPD2     N 5217   0.021   4.028  10.245  0.2394  0.1554  0.4309
  344MPD2    H5 5218   0.047   4.101  10.179 -0.2493  0.3083  0.4092
  344MPD2    N1 5219   4.578   3.577  10.285 -0.3002  0.5605 -0.1723
  344MPD2    H7 5220   4.531   3.502  10.236  0.2439 -0.9954  1.6813
  345TMC3    C1 5221   0.145   4.145  10.411  0.3567  0.0611 -0.5454
  345TMC3    C2 5222   0.151   4.185  10.539  0.1116  0.3633  0.3694
  345TMC3    C3 5223   0.224   4.296  10.573  0.1156  0.5909 -0.1048
  345TMC3    C4 5224   0.196   4.228  10.310 -0.2628  0.3672  0.3872
  345TMC3    C5 5225   0.245   4.346  10.341 -0.5017 -0.1302  0.5985
  345TMC3    C6 5226   0.269   4.375  10.472 -0.8332 -0.0462 -0.4452
  345TMC3     C 5227   0.051   4.042  10.383 -0.0184  0.3338 -0.7441
  345TMC3     O 5228   0.002   3.982  10.477 -0.9649  0.4619  0.1886
  345TMC3     H 5229   0.127   4.116  10.619  0.5054  1.4298  1.4144
  345TMC3    H1 5230   0.188   4.197  10.207 -0.5769 -1.0543  0.8340
  345TMC3    H2 5231   0.310   4.472  10.498 -0.2199 -0.0094 -1.5384
  345TMC3    C7 5232   0.315   4.438  10.246 -0.1255 -0.2359 -0.6198
  345TMC3    C8 5233   0.235   4.333  10.708 -0.7699 -0.0791  0.2334
  345TMC3    O1 5234   0.382   4.528  10.289  0.2427 -0.0203 -0.1726
  345TMC3    O2 5235   0.265   4.253  10.795 -0.4621 -0.1399 -0.2008
  346MPD2     C 5236   0.370   0.875  13.722  0.0378  0.1204  0.4175
  346MPD2    C1 5237   0.471   0.963  13.686 -0.3000 -0.2391 -0.6749
  346MPD2    C2 5238   0.481   1.096  13.736  0.1995  0.0074  0.3380
  346MPD2    C3 5239   0.405   1.128  13.846  0.7526 -0.9121 -0.4026
  346MPD2    C4 5240   0.310   1.040  13.886 -0.5280 -0.2211 -0.1112
  346MPD2    C5 5241   0.297   0.917  13.833 -0.0059 -0.0545  0.4668
  346MPD2     H 5242   0.562   1.156  13.697 -0.1363 -0.3476 -0.9164
  346MPD2    H1 5243   0.249   1.059  13.974 -1.5806  0.5684 -1.0180
  346MPD2    H2 5244   0.359   0.775  13.681 -2.3851  0.2864  0.6317
  346MPD2    H3 5245   0.227   0.847  13.879  0.1469 -0.9038 -0.5952
  346MPD2     N 5246   0.431   1.251  13.915 -0.2357  0.2133  0.2778
  346MPD2    H5 5247   0.499   1.312  13.870  0.1589  0.0415  0.6437
  346MPD2    N1 5248   0.559   0.929  13.584 -0.3585  0.0818 -0.2792
  346MPD2    H7 5249   0.622   1.001  13.549  0.6320  0.6068  2.6253
  347TMC3    C1 5250   0.434   1.416  14.061 -0.0605 -0.3419 -0.0905
  347TMC3    C2 5251   0.544   1.458  13.994  0.2692  0.1419  0.1373
  347TMC3    C3 5252   0.639   1.531  14.059 -0.2309  0.6229 -0.9115
  347TMC3    C4 5253   0.401   1.463  14.186  0.8181  0.9358 -0.3655
  347TMC3    C5 5254   0.490   1.545  14.247 -0.0339 -0.4154  0.4153
  347TMC3    C6 5255   0.608   1.580  14.182 -0.3916 -0.2621  0.1355
  347TMC3     C 5256   0.370   1.293  14.028  0.0679  0.1783 -0.3737
  347TMC3     O 5257   0.297   1.230  14.107 -0.2849  0.1686 -0.4874
  347TMC3     H 5258   0.574   1.428  13.895  1.5883 -1.5891  1.0631
  347TMC3    H1 5259   0.319   1.423  14.244  0.2797  0.4271 -1.4829
  347TMC3    H2 5260   0.660   1.673  14.204  2.6908 -2.2721  1.2964
  347TMC3    C7 5261   0.501   1.524  14.386 -0.3648 -0.5576 -0.6927
  347TMC3    C8 5262   0.759   1.445  14.066 -0.1981  0.0471 -0.0662
  347TMC3    O1 5263   0.406   1.468  14.440  0.0971 -0.0907  0.0542
  347TMC3    O2 5264   0.747   1.329  14.033  0.2334 -0.5977  0.4403
  348MPD2     C 5265   3.276   0.780  11.832  0.0646 -0.6442  0.4644
  348MPD2    C1 5266   3.413   0.767  11.818 -0.6244 -0.2993 -1.4127
  348MPD2    C2 5267   3.481   0.854  11.736 -0.5744  0.7339 -0.4937
  348MPD2    C3 5268   3.414   0.946  11.664  0.9430  0.2739 -0.2221
  348MPD2    C4 5269   3.279   0.959  11.679 -0.0764 -0.0868  0.8533
  348MPD2    C5 5270   3.210   0.879  11.768  0.5873  0.4533  0.1330
  348MPD2     H 5271   3.589   0.856  11.738 -0.5425  0.4485 -1.9506
  348MPD2    H1 5272   3.218   1.021  11.614  1.8824 -1.9838 -2.7722
  348MPD2    H2 5273   3.221   0.714  11.898 -2.8366 -0.2432 -1.5802
  348MPD2    H3 5274   3.104   0.887  11.786  0.2294 -0.6153 -1.5853
  348MPD2     N 5275   3.471   1.038  11.575  0.0497 -0.5869  0.4875
  348MPD2    H5 5276   3.420   1.100  11.512  1.3534 -0.2961 -0.3025
  348MPD2    N1 5277   3.482   0.662  11.877  0.2819 -0.4244 -0.3889
  348MPD2    H7 5278   3.582   0.664  11.864  0.2785 -0.6991 -0.4504
  349TMC3    C1 5279   3.540   0.496  12.025 -0.1664 -0.4507  0.1230
  349TMC3    C2 5280   3.548   0.361  12.031 -1.0876 -0.5018 -0.2278
  349TMC3    C3 5281   3.665   0.297  12.037 -0.3082  0.4624  0.8580
  349TMC3    C4 5282   3.656   0.572  12.035 -0.5380  0.3879  0.2745
  349TMC3    C5 5283   3.773   0.502  12.019 -0.3339 -0.3944  0.1536
  349TMC3    C6 5284   3.783   0.368  12.039  0.0872  0.3051  0.7576
  349TMC3     C 5285   3.430   0.557  11.946  0.3536  0.0111  0.4022
  349TMC3     O 5286   3.319   0.505  11.946 -0.6026 -0.3824 -0.8245
  349TMC3     H 5287   3.456   0.306  12.041 -0.4940 -1.2277  1.2116
  349TMC3    H1 5288   3.665   0.680  12.037  1.9077  0.1774  0.6329
  349TMC3    H2 5289   3.877   0.313  12.044 -0.4127 -0.7481 -1.5667
  349TMC3    C7 5290   3.846   0.552  11.899  0.1516 -0.1690  0.1392
  349TMC3    C8 5291   3.671   0.174  12.109 -0.0346 -0.2880  0.4437
  349TMC3    O1 5292   3.903   0.474  11.823 -0.4939 -0.2057 -0.5780
  349TMC3    O2 5293   3.758   0.167  12.197 -0.3685 -0.0498  0.8326
  350MPD2     C 5294   2.228   3.892  10.089 -0.0618 -0.0976 -0.3792
  350MPD2    C1 5295   2.283   3.767  10.103  0.2213 -0.0525 -0.3347
  350MPD2    C2 5296   2.366   3.752  10.217 -0.0226  0.0474  0.4798
  350MPD2    C3 5297   2.394   3.853  10.299 -0.4529  0.6871 -0.7832
  350MPD2    C4 5298   2.351   3.982  10.272 -0.3890 -0.8394  0.5713
  350MPD2    C5 5299   2.260   3.998  10.168 -0.0771  0.9617  0.4411
  350MPD2     H 5300   2.396   3.651  10.244  0.9916 -1.3162 -5.6552
  350MPD2    H1 5301   2.365   4.056  10.351 -0.0597  1.0859 -1.2891
  350MPD2    H2 5302   2.162   3.917  10.007 -0.0219 -0.4443 -0.5199
  350MPD2    H3 5303   2.200   4.088  10.168  0.2753  1.2121  3.2231
  350MPD2     N 5304   2.470   3.819  10.409 -0.3044  0.9040  0.2875
  350MPD2    H5 5305   2.497   3.721  10.412  0.3084  1.1771  2.9600
  350MPD2    N1 5306   2.271   3.656  10.021 -0.0304 -0.4709 -0.5010
  350MPD2    H7 5307   2.331   3.575  10.035 -0.5353 -0.3849  2.0434
  351TMC3    C1 5308   2.201   3.527   9.847 -0.0953 -0.2851  0.4711
  351TMC3    C2 5309   2.325   3.493   9.806  0.2514  0.0846 -0.3570
  351TMC3    C3 5310   2.331   3.370   9.748  0.1144  0.5200  0.2046
  351TMC3    C4 5311   2.089   3.447   9.830 -0.6748 -0.5664 -0.6109
  351TMC3    C5 5312   2.103   3.333   9.764 -0.0076 -0.1406 -0.2889
  351TMC3    C6 5313   2.222   3.289   9.712 -0.5428  0.7321  0.4417
  351TMC3     C 5314   2.187   3.655   9.911 -0.2860 -0.6285 -0.4548
  351TMC3     O 5315   2.096   3.727   9.881 -0.2738 -0.0961 -0.3793
  351TMC3     H 5316   2.419   3.544   9.822  0.3227 -0.0101 -0.4753
  351TMC3    H1 5317   1.992   3.485   9.861 -0.5351  0.0176 -0.8984
  351TMC3    H2 5318   2.227   3.193   9.661 -0.2851  0.2642  1.3443
  351TMC3    C7 5319   1.980   3.254   9.739  0.7037 -0.1694  0.1024
  351TMC3    C8 5320   2.459   3.303   9.740  0.5702  0.0554 -0.5398
  351TMC3    O1 5321   1.897   3.280   9.824 -0.4718  0.2665 -0.1166
  351TMC3    O2 5322   2.559   3.375   9.730 -0.5482 -0.2062 -0.5164
  352MPD2     C 5323   1.775   0.995   0.698 -0.0491 -0.9518  0.3469
  352MPD2    C1 5324   1.696   0.919   0.783 -0.5153 -0.1589 -0.0357
  352MPD2    C2 5325   1.721   0.783   0.796 -0.1655  0.5894  0.0132
  352MPD2    C3 5326   1.822   0.720   0.721  0.7711  0.5571 -0.2928
  352MPD2    C4 5327   1.897   0.800   0.631  0.5091 -0.2915  0.8784
  352MPD2    C5 5328   1.869   0.932   0.624  0.0587 -0.3966 -0.5428
  352MPD2     H 5329   1.658   0.721   0.859 -0.3928  0.0592 -0.7306
  352MPD2    H1 5330   1.975   0.759   0.569 -1.6404 -2.8169 -0.1689
  352MPD2    H2 5331   1.747   1.098   0.678 -0.2298 -0.9871  0.4143
  352MPD2    H3 5332   1.920   0.992   0.549 -0.2793 -0.9190 -1.1868
  352MPD2     N 5333   1.855   0.585   0.738  0.2730  0.5631 -0.3935
  352MPD2    H5 5334   1.792   0.536   0.801  0.0931  0.4987 -0.6230
  352MPD2    N1 5335   1.595   0.989   0.857 -0.3112 -0.1192 -0.4263
  352MPD2    H7 5336   1.594   1.090   0.846 -1.5064  0.0636  1.3205
  353TMC3    C1 5337   1.955   0.376   0.705  0.0684  0.2138  0.0395
  353TMC3    C2 5338   2.074   0.305   0.706 -0.1266 -0.3942 -0.7623
  353TMC3    C3 5339   2.064   0.169   0.736  0.1127  0.1467  0.4703
  353TMC3    C4 5340   1.831   0.321   0.711  0.2493 -0.9080 -0.7364
  353TMC3    C5 5341   1.836   0.186   0.737 -0.2940 -0.9145 -0.3311
  353TMC3    C6 5342   1.942   0.110   0.757 -0.4256  0.5058  0.2951
  353TMC3     C 5343   1.964   0.518   0.687 -0.1137 -0.5207  0.0543
  353TMC3     O 5344   2.068   0.562   0.635  0.4704  0.0354  0.0038
  353TMC3     H 5345   2.165   0.363   0.698  0.5782 -1.6252 -1.6264
  353TMC3    H1 5346   1.740   0.375   0.687 -0.3144 -1.0056  1.1979
  353TMC3    H2 5347   1.933   0.011   0.798  0.4592 -0.4839 -1.8899
  353TMC3    C7 5348   1.708   0.121   0.740  0.0288  0.6404  0.3354
  353TMC3    C8 5349   2.186   0.097   0.756  0.1666 -0.2733  0.3813
  353TMC3    O1 5350   1.706   0.015   0.686 -0.2197  0.4800 -0.2476
  353TMC3    O2 5351   2.293   0.157   0.766 -0.6348 -0.1043 -0.8668
  354TMC3    C1 5352   2.775   1.735  13.345 -0.2370  0.1189 -0.1526
  354TMC3    C2 5353   2.701   1.828  13.278  0.5843  0.8280 -0.3563
  354TMC3    C3 5354   2.726   1.852  13.146 -0.2630 -0.1926 -0.8583
  354TMC3    C4 5355   2.857   1.652  13.278 -0.4540  0.1066  0.4278
  354TMC3    C5 5356   2.875   1.670  13.149  0.2897 -0.5813 -0.4557
  354TMC3    C6 5357   2.809   1.768  13.074 -0.2760 -0.2851 -0.3668
  354TMC3     C 5358   2.750   1.716  13.489 -0.1590  0.5116  0.4470
  354TMC3     O 5359   2.657   1.760  13.548 -0.1568 -0.3056  0.6347
  354TMC3     H 5360   2.621   1.882  13.327  0.7226 -0.5614  1.4307
  354TMC3    H1 5361   2.926   1.582  13.326  0.3111  0.0524 -0.7468
  354TMC3    H2 5362   2.813   1.780  12.966 -0.7137 -2.0606 -0.5817
  354TMC3    C7 5363   2.970   1.583  13.083 -0.3976 -0.2337  0.0282
  354TMC3    C8 5364   2.647   1.963  13.087  0.0733 -0.0529  0.9252
  354TMC3    O1 5365   2.996   1.476  13.139 -0.1235 -0.4400  0.2705
  354TMC3    O2 5366   2.544   1.998  13.146 -0.1857  0.2131 -0.3522
  355MPD2     C 5367   2.904   2.710  11.767  0.1028  0.4856 -0.0709
  355MPD2    C1 5368   2.986   2.816  11.740  0.2439 -0.0843 -0.3396
  355MPD2    C2 5369   3.095   2.833  11.821 -0.2477 -0.2626  0.4570
  355MPD2    C3 5370   3.122   2.755  11.931  0.2713  0.5899 -0.3836
  355MPD2    C4 5371   3.033   2.651  11.957  0.2527 -0.5569 -0.8061
  355MPD2    C5 5372   2.932   2.636  11.874  0.3787 -0.5052 -0.0619
  355MPD2     H 5373   3.163   2.914  11.798  1.0775 -1.1094  1.4254
  355MPD2    H1 5374   3.039   2.582  12.040  0.3582 -2.3098 -2.2487
  355MPD2    H2 5375   2.818   2.685  11.705  0.3645  1.6939 -0.9162
  355MPD2    H3 5376   2.867   2.551  11.894  0.3504 -0.7738 -1.3174
  355MPD2     N 5377   3.241   2.762  12.007  0.8131  0.0632 -0.6976
  355MPD2    H5 5378   3.238   2.712  12.096  1.3654  1.5522  0.1673
  355MPD2    N1 5379   2.946   2.906  11.641 -0.3938 -0.0195 -0.0279
  355MPD2    H7 5380   2.888   2.871  11.564 -1.0848  0.9445  0.0613
  356TMC3    C1 5381   3.455   2.828  12.073 -0.2446 -0.6495 -0.2331
  356TMC3    C2 5382   3.583   2.841  12.035 -0.5170 -0.7382  0.9704
  356TMC3    C3 5383   3.677   2.866  12.132 -0.4670  0.1480  0.4228
  356TMC3    C4 5384   3.413   2.859  12.193 -1.0045 -0.2282  0.5359
  356TMC3    C5 5385   3.507   2.882  12.294 -0.5470  0.8443 -0.2778
  356TMC3    C6 5386   3.640   2.875  12.268  0.0006  0.0721 -0.1792
  356TMC3     C 5387   3.359   2.818  11.963 -0.3974  0.5896  0.3103
  356TMC3     O 5388   3.396   2.848  11.847  0.0664 -0.3842  0.4442
  356TMC3     H 5389   3.611   2.832  11.931  0.7594 -0.9066  1.3343
  356TMC3    H1 5390   3.308   2.854  12.219 -0.7135  0.1299  1.7577
  356TMC3    H2 5391   3.710   2.883  12.351  0.2817 -0.1692 -0.3900
  356TMC3    C7 5392   3.460   2.956  12.408 -0.0598 -0.8096 -0.7554
  356TMC3    C8 5393   3.816   2.834  12.110 -0.7061 -0.1913 -0.2874
  356TMC3    O1 5394   3.436   2.903  12.517  0.6284 -0.4911  0.9232
  356TMC3    O2 5395   3.872   2.783  12.203  0.1004 -0.0111  0.2211
  357MPD2     C 5396   1.592   2.190  17.667 -0.1954  0.2368 -0.2797
  357MPD2    C1 5397   1.654   2.130   0.024  0.1063 -0.7485  0.5673
  357MPD2    C2 5398   1.586   2.136   0.144 -0.2196 -0.3541 -0.1231
  357MPD2    C3 5399   1.467   2.194   0.158 -0.4763  0.4763 -0.3045
  357MPD2    C4 5400   1.408   2.256   0.050 -0.0846 -0.0062  0.4459
  357MPD2    C5 5401   1.473   2.257  17.684  0.6103 -0.6650 -0.2603
  357MPD2     H 5402   1.641   2.109   0.233  2.0919  1.5486 -0.9651
  357MPD2    H1 5403   1.320   2.318   0.061  1.2022  1.5372  2.0909
  357MPD2    H2 5404   1.646   2.200  17.573 -0.1696  3.7968  0.0956
  357MPD2    H3 5405   1.443   2.317  17.598  1.2778 -1.0223 -0.7473
  357MPD2     N 5406   1.401   2.215   0.283 -0.6446  0.7167 -0.6082
  357MPD2    H5 5407   1.324   2.282   0.281 -2.6008 -1.5136  0.3968
  357MPD2    N1 5408   1.787   2.079   0.012  0.0556  0.5317 -0.0376
  357MPD2    H7 5409   1.839   2.102  17.682  2.5897 -1.7035  0.9115
  358TMC3    C1 5410   2.003   1.986   0.078  0.0644 -0.2091  0.3937
  358TMC3    C2 5411   2.059   2.012  17.710  0.1744 -0.2931  0.1281
  358TMC3    C3 5412   2.193   2.014  17.703 -0.1510  0.2787  1.0504
  358TMC3    C4 5413   2.076   1.960   0.191 -0.8081 -0.4705  0.4708
  358TMC3    C5 5414   2.205   1.976   0.178 -0.2255 -0.3253 -0.0501
  358TMC3    C6 5415   2.271   1.976   0.058  0.3516  0.8044  0.2491
  358TMC3     C 5416   1.855   2.007   0.108  0.5264  0.2869  0.3091
  358TMC3     O 5417   1.825   1.970   0.218 -0.4677 -0.8761  0.1849
  358TMC3     H 5418   2.009   2.052  17.622  0.5539 -2.0594 -0.8750
  358TMC3    H1 5419   2.023   1.929   0.281 -0.4161  1.9044  1.5032
  358TMC3    H2 5420   2.370   2.021   0.054  1.5242 -1.7616  0.6539
  358TMC3    C7 5421   2.283   2.006   0.294 -0.3657  0.0269  0.4330
  358TMC3    C8 5422   2.265   2.089  17.601  0.5213  0.2686 -0.2255
  358TMC3    O1 5423   2.404   1.996   0.283  0.0064 -0.0745  0.1354
  358TMC3    O2 5424   2.378   2.051  17.573 -0.1593 -0.3241  0.2200
  359MPD2     C 5425   3.032   1.902  12.197  0.6354  0.3897  0.5518
  359MPD2    C1 5426   3.065   1.768  12.193 -0.2518 -0.0190  0.4875
  359MPD2    C2 5427   2.973   1.673  12.237  0.0947 -0.0573 -0.1931
  359MPD2    C3 5428   2.841   1.701  12.264 -0.4486  0.8394  0.4940
  359MPD2    C4 5429   2.813   1.836  12.266 -0.6829  0.1948  0.6755
  359MPD2    C5 5430   2.902   1.931  12.241  0.0163  0.1594 -0.5582
  359MPD2     H 5431   3.005   1.570  12.227 -0.6268 -0.1328 -1.7374
  359MPD2    H1 5432   2.712   1.868  12.287 -0.7522  0.1013  0.4804
  359MPD2    H2 5433   3.096   1.983  12.162  1.8915 -0.2552  1.3597
  359MPD2    H3 5434   2.862   2.032  12.231  0.5728  0.6100  1.6568
  359MPD2     N 5435   2.750   1.606  12.317 -0.8017  0.0702  0.7036
  359MPD2    H5 5436   2.662   1.641  12.354 -0.8027  3.3692 -2.5246
  359MPD2    N1 5437   3.183   1.720  12.135  0.5948 -0.6791  0.1142
  359MPD2    H7 5438   3.204   1.621  12.140  1.1758 -0.6226 -1.1598
  360TMC3    C1 5439   3.393   1.709  12.041 -0.4783 -0.1241 -0.5453
  360TMC3    C2 5440   3.522   1.742  12.072 -0.4794  0.3049  0.8874
  360TMC3    C3 5441   3.615   1.661  12.025 -0.2032 -0.2807  0.2360
  360TMC3    C4 5442   3.361   1.594  11.969 -0.0515  0.0389 -0.3298
  360TMC3    C5 5443   3.456   1.503  11.942  0.2880 -0.1068  0.1791
  360TMC3    C6 5444   3.582   1.543  11.966  0.6323 -0.5618 -0.2153
  360TMC3     C 5445   3.290   1.794  12.100 -0.0148  0.3473  0.4589
  360TMC3     O 5446   3.307   1.915  12.106 -0.7323 -0.3812  0.4546
  360TMC3     H 5447   3.544   1.845  12.098  0.4906  0.4490 -0.5184
  360TMC3    H1 5448   3.262   1.574  11.927  0.0442 -1.3086  0.0800
  360TMC3    H2 5449   3.658   1.476  11.928  0.2299  0.0861 -2.1594
  360TMC3    C7 5450   3.436   1.412  11.834 -0.5447  0.1214 -0.8418
  360TMC3    C8 5451   3.750   1.715  12.009 -0.6637  1.2539  1.1289
  360TMC3    O1 5452   3.536   1.389  11.766  0.3515  0.3615  0.1744
  360TMC3    O2 5453   3.776   1.822  12.060  0.0528 -0.8551  1.2538
  361MPD2     C 5454   0.093   0.587  17.348 -0.0616 -0.6646  0.5169
  361MPD2    C1 5455   0.097   0.503  17.238 -0.5192  0.4915 -0.0258
  361MPD2    C2 5456   0.215   0.438  17.199 -0.5059  0.5141  0.7644
  361MPD2    C3 5457   0.340   0.469  17.260 -0.0467 -0.2965 -0.2808
  361MPD2    C4 5458   0.338   0.554  17.371 -1.0010 -0.1491 -0.4384
  361MPD2    C5 5459   0.217   0.608  17.413  0.7016  0.3239  0.8486
  361MPD2     H 5460   0.205   0.362  17.121 -0.8145  1.0151  0.3170
  361MPD2    H1 5461   0.432   0.575  17.420 -1.0243  0.1575 -0.5270
  361MPD2    H2 5462   0.007   0.638  17.389 -0.1312 -0.1947 -0.2063
  361MPD2    H3 5463   0.215   0.686  17.489 -3.5407 -0.5795  1.6621
  361MPD2     N 5464   0.466   0.409  17.224 -0.2910  0.4902  0.0568
  361MPD2    H5 5465   0.548   0.425  17.283 -0.5242 -0.2246  0.5772
  361MPD2    N1 5466   4.722   0.474  17.159  0.5339 -0.4431  0.1767
  361MPD2    H7 5467   4.725   0.419  17.073  1.9541  2.9003 -1.9022
  362TMC3    C1 5468   4.504   0.463  17.094  0.2140 -0.2203 -0.3104
  362TMC3    C2 5469   4.387   0.417  17.136 -0.2253 -1.1134  0.3820
  362TMC3    C3 5470   4.321   0.337  17.052 -0.1367  0.1284  0.4525
  362TMC3    C4 5471   4.555   0.438  16.967  0.4443 -0.0936  0.1507
  362TMC3    C5 5472   4.476   0.377  16.877 -0.6625  0.6189 -0.5481
  362TMC3    C6 5473   4.360   0.317  16.915 -0.0911 -0.3630 -0.2559
  362TMC3     C 5474   4.595   0.510  17.196  0.0540 -0.1511 -0.3344
  362TMC3     O 5475   4.548   0.529  17.309 -0.1392 -0.3907  0.3837
  362TMC3     H 5476   4.357   0.416  17.240 -3.4887  0.4087 -0.5404
  362TMC3    H1 5477   4.640   0.497  16.932  0.8010 -0.1127  0.9894
  362TMC3    H2 5478   4.289   0.277  16.844  0.4828 -0.6235 -0.6862
  362TMC3    C7 5479   4.489   0.421  16.742 -0.2110 -0.2133  0.8519
  362TMC3    C8 5480   4.178   0.317  17.070  0.1200  0.5279  1.2422
  362TMC3    O1 5481   4.554   0.519  16.719  0.0216 -0.9006 -0.0840
  362TMC3    O2 5482   4.124   0.220  17.021  0.0378  0.4251 -0.2628
  363TMC3    C1 5483   3.892   2.799   9.597  0.5784  0.0521 -0.6951
  363TMC3    C2 5484   3.869   2.684   9.677  0.1764 -0.5971  0.2790
  363TMC3    C3 5485   3.777   2.676   9.769 -0.8333  0.6772 -0.1629
  363TMC3    C4 5486   3.816   2.912   9.621  0.0793  0.5890  0.6239
  363TMC3    C5 5487   3.708   2.887   9.701 -0.1703 -0.3967 -0.3162
  363TMC3    C6 5488   3.682   2.776   9.773  0.3784 -0.0914  1.2677
  363TMC3     C 5489   3.989   2.795   9.496 -0.5980 -0.8079 -0.4858
  363TMC3     O 5490   4.088   2.723   9.513 -0.6580  0.1836 -0.0247
  363TMC3     H 5491   3.936   2.604   9.646 -0.5978 -0.9366 -0.5259
  363TMC3    H1 5492   3.831   3.007   9.571 -0.2450  0.0993 -0.4240
  363TMC3    H2 5493   3.590   2.763   9.829 -0.7069  1.5419 -0.1337
  363TMC3    C7 5494   3.621   3.005   9.705  0.1155  0.6083 -0.1304
  363TMC3    C8 5495   3.736   2.544   9.829  0.2325 -0.9881  0.2099
  363TMC3    O1 5496   3.632   3.083   9.610  0.2777  0.0244 -0.2072
  363TMC3    O2 5497   3.659   2.553   9.928  0.5498 -0.0127  0.0337
  364MPD2     C 5498   1.988   2.181  10.589 -0.6164  0.3310 -0.0011
  364MPD2    C1 5499   2.104   2.243  10.611  0.0844 -0.2484 -0.2664
  364MPD2    C2 5500   2.214   2.170  10.643 -0.3483  0.4736 -0.8619
  364MPD2    C3 5501   2.212   2.034  10.659 -0.0951 -0.0561  0.1644
  364MPD2    C4 5502   2.093   1.977  10.641 -0.3950  0.3877  0.4789
  364MPD2    C5 5503   1.985   2.049  10.610  0.1839  0.8176  0.8420
  364MPD2     H 5504   2.312   2.215  10.659 -0.9869  0.7944  2.1999
  364MPD2    H1 5505   2.077   1.872  10.661 -2.2139  0.7662  1.0117
  364MPD2    H2 5506   1.896   2.238  10.579  0.1896  1.4493 -1.0826
  364MPD2    H3 5507   1.888   2.001  10.615  0.0402  0.9422 -0.6869
  364MPD2     N 5508   2.325   1.958  10.688  0.0261  0.5162  0.3963
  364MPD2    H5 5509   2.406   2.019  10.690  1.1004 -0.8952 -0.4842
  364MPD2    N1 5510   2.107   2.386  10.592 -0.0025  0.0341 -0.1536
  364MPD2    H7 5511   2.029   2.429  10.543  0.0342 -0.7563 -0.9001
  365TMC3    C1 5512   2.202   2.587  10.577  0.1876  0.0764 -0.5278
  365TMC3    C2 5513   2.242   2.571  10.442  0.3087 -0.0516 -0.4045
  365TMC3    C3 5514   2.277   2.689  10.388 -0.0553 -0.4560 -0.0273
  365TMC3    C4 5515   2.215   2.708  10.651  0.0491 -0.2648  0.2502
  365TMC3    C5 5516   2.265   2.813  10.587  0.3350 -0.6544 -0.4506
  365TMC3    C6 5517   2.304   2.803  10.454  1.1917 -0.7051 -0.5746
  365TMC3     C 5518   2.207   2.464  10.639 -0.4804  0.3752 -0.4425
  365TMC3     O 5519   2.295   2.441  10.725  0.5837 -0.3748 -0.5019
  365TMC3     H 5520   2.219   2.482  10.384  0.1874 -0.9915  1.0821
  365TMC3    H1 5521   2.182   2.717  10.754 -3.2824 -0.3273 -0.7975
  365TMC3    H2 5522   2.351   2.885  10.400  0.3327 -0.9202 -1.6345
  365TMC3    C7 5523   2.303   2.930  10.662  0.3798  0.1118  0.2253
  365TMC3    C8 5524   2.334   2.689  10.251 -0.4942  0.6373 -0.8635
  365TMC3    O1 5525   2.411   2.985  10.627 -0.1672 -0.2195  0.4516
  365TMC3    O2 5526   2.344   2.793  10.187 -0.7478  0.4692 -0.4390
  366MPD2     C 5527   0.684   3.230  15.582 -0.9763 -0.2675 -0.2570
  366MPD2    C1 5528   0.646   3.302  15.473  0.0843 -0.4586 -0.1284
  366MPD2    C2 5529   0.709   3.280  15.356 -0.6823  0.0104 -0.4363
  366MPD2    C3 5530   0.829   3.208  15.348 -0.8199  0.5218 -0.5020
  366MPD2    C4 5531   0.868   3.133  15.460  0.1310 -0.2269 -0.2125
  366MPD2    C5 5532   0.800   3.155  15.574  0.6312 -0.3390  0.1279
  366MPD2     H 5533   0.657   3.317  15.268 -0.5585 -0.4793 -0.7201
  366MPD2    H1 5534   0.952   3.065  15.451 -0.6958 -1.3984  1.0690
  366MPD2    H2 5535   0.637   3.234  15.680  0.8093  0.2696  0.5820
  366MPD2    H3 5536   0.825   3.098  15.663  1.7253 -1.1248 -0.6775
  366MPD2     N 5537   0.919   3.208  15.236  0.2626  0.4292  0.5392
  366MPD2    H5 5538   0.980   3.127  15.230 -1.8042 -1.1681  1.0004
  366MPD2    N1 5539   0.546   3.406  15.470  0.8978 -0.5005  0.1996
  366MPD2    H7 5540   0.525   3.450  15.381  1.6244 -1.9327 -0.6824
  367TMC3    C1 5541   0.447   3.579  15.549 -0.2753 -0.0623 -0.0417
  367TMC3    C2 5542   0.510   3.670  15.626 -0.1240  0.1265  0.0128
  367TMC3    C3 5543   0.520   3.802  15.590 -0.2667 -0.5097  0.1435
  367TMC3    C4 5544   0.399   3.613  15.425  0.3429  0.8769  0.6725
  367TMC3    C5 5545   0.413   3.747  15.393  0.6543 -0.6807  0.2882
  367TMC3    C6 5546   0.460   3.847  15.477  0.1253  0.0955  0.5514
  367TMC3     C 5547   0.472   3.449  15.583  0.1381 -0.2244 -0.5415
  367TMC3     O 5548   0.467   3.418  15.706 -0.5164  0.1638  0.2116
  367TMC3     H 5549   0.555   3.636  15.718 -3.8944  0.5941  2.0166
  367TMC3    H1 5550   0.351   3.530  15.374  2.4215  0.8414 -1.1789
  367TMC3    H2 5551   0.458   3.954  15.460 -0.4361 -0.0421 -0.2846
  367TMC3    C7 5552   0.334   3.798  15.281 -0.3950  0.0111 -0.3224
  367TMC3    C8 5553   0.571   3.896  15.691 -0.8873 -0.6291  0.1516
  367TMC3    O1 5554   0.345   3.918  15.265 -0.3995  0.2274 -0.2053
  367TMC3    O2 5555   0.602   3.847  15.798 -0.1105  0.3773  0.1061
  368MPD2     C 5556   2.047   0.100  13.430 -0.0105  0.5661 -0.4519
  368MPD2    C1 5557   2.069   0.087  13.299 -0.2415 -0.1980  0.8999
  368MPD2    C2 5558   2.161   0.175  13.243  0.4775  0.4697 -0.1867
  368MPD2    C3 5559   2.229   0.269  13.311  0.0937 -0.6161 -0.2520
  368MPD2    C4 5560   2.193   0.288  13.442 -0.3761  0.1306 -0.7163
  368MPD2    C5 5561   2.104   0.201  13.498  0.4508 -0.0985 -0.4470
  368MPD2     H 5562   2.164   0.171  13.135  0.6548 -2.1908 -0.0852
  368MPD2    H1 5563   2.228   0.367  13.508 -1.0314  0.6015 -0.9316
  368MPD2    H2 5564   1.977   0.031  13.474 -1.5767  1.9101 -0.8521
  368MPD2    H3 5565   2.078   0.216  13.602  1.0842  2.4049 -0.6367
  368MPD2     N 5566   2.316   0.353  13.238 -0.4935  0.0961 -0.1960
  368MPD2    H5 5567   2.343   0.325  13.144 -0.1015  2.9518 -0.9588
  368MPD2    N1 5568   1.982   0.006  13.220  0.2121 -0.6097  0.1121
  368MPD2    H7 5569   1.892   4.712  13.253 -0.5427  3.4864  2.2097
  369TMC3    C1 5570   1.905   4.718  13.001  0.1049 -0.6709  0.4665
  369TMC3    C2 5571   1.944   0.016  12.874 -0.2924 -0.4564  0.0271
  369TMC3    C3 5572   1.850   0.075  12.797  0.1044  0.3734  0.1007
  369TMC3    C4 5573   1.778   0.005  13.041  0.3223 -0.3294  0.1518
  369TMC3    C5 5574   1.686   0.061  12.957  0.6940 -0.2738 -0.2403
  369TMC3    C6 5575   1.722   0.100  12.837  0.3517 -0.0629 -0.1909
  369TMC3     C 5576   2.015   4.709  13.092 -0.4825  0.4635 -0.5175
  369TMC3     O 5577   2.124   4.710  13.043  0.0275  0.2318 -0.5972
  369TMC3     H 5578   2.044   0.002  12.836  0.5637  0.7599  1.8193
  369TMC3    H1 5579   1.742   4.715  13.139 -2.6151  0.7309 -0.6187
  369TMC3    H2 5580   1.645   0.119  12.762  1.5682  0.8464 -1.2101
  369TMC3    C7 5581   1.546   0.064  13.002  0.5067  0.0756  0.1306
  369TMC3    C8 5582   1.903   0.166  12.697  0.0109  1.0587 -0.3832
  369TMC3    O1 5583   1.533   0.037  13.121  0.1929  0.2149 -0.2132
  369TMC3    O2 5584   1.845   0.270  12.681  0.1519 -0.3202 -0.0932
  370TMC3    C1 5585   1.680   1.296  16.151 -0.8252 -0.1911 -0.5557
  370TMC3    C2 5586   1.645   1.240  16.267 -0.7306  0.9268 -1.2901
  370TMC3    C3 5587   1.583   1.120  16.263 -0.4682  0.3434 -0.0358
  370TMC3    C4 5588   1.656   1.236  16.028  0.1651 -0.1559 -0.5565
  370TMC3    C5 5589   1.594   1.114  16.032 -0.3489 -0.3932  0.7584
  370TMC3    C6 5590   1.578   1.046  16.153  0.1394  0.4143  0.2529
  370TMC3     C 5591   1.800   1.365  16.154  0.0113 -0.3318 -0.8126
  370TMC3     O 5592   1.869   1.359  16.255  0.8637  0.9438  0.6047
  370TMC3     H 5593   1.659   1.301  16.355  0.0872  0.8927 -1.4050
  370TMC3    H1 5594   1.687   1.279  15.933  1.4920 -1.0158 -0.4987
  370TMC3    H2 5595   1.536   0.947  16.163  0.9970  0.1636  1.3805
  370TMC3    C7 5596   1.634   1.032  15.916 -0.0536 -0.2669  0.0824
  370TMC3    C8 5597   1.597   1.051  16.391  0.1130 -0.2496  0.4885
  370TMC3    O1 5598   1.644   1.083  15.806 -0.3201 -0.2154  0.1726
  370TMC3    O2 5599   1.610   0.927  16.387  0.6133  0.3245  0.6178
  371TMC3    C1 5600   2.756   4.311  15.225  0.7255  0.1690 -1.7620
  371TMC3    C2 5601   2.719   4.292  15.357  1.0460  0.6605 -0.1292
  371TMC3    C3 5602   2.665   4.403  15.423  0.1333  0.0595 -1.2251
  371TMC3    C4 5603   2.772   4.436  15.169  0.1512 -0.2395  0.3747
  371TMC3    C5 5604   2.732   4.544  15.245 -0.2908 -0.3416  0.5225
  371TMC3    C6 5605   2.686   4.531  15.375  0.8338  0.2731  0.3166
  371TMC3     C 5606   2.822   4.192  15.163 -0.0255  0.4723 -0.8671
  371TMC3     O 5607   2.900   4.204  15.072 -0.0019  0.1766 -0.4157
  371TMC3     H 5608   2.705   4.193  15.401  1.3381  0.4595 -0.4875
  371TMC3    H1 5609   2.794   4.439  15.063 -1.9030 -2.3395 -0.1312
  371TMC3    H2 5610   2.680   4.620  15.436 -2.4347  1.5238 -1.8634
  371TMC3    C7 5611   2.771   4.681  15.202 -0.8014 -0.4708  0.3744
  371TMC3    C8 5612   2.637   4.382  15.561 -0.0743  0.1236  0.4048
  371TMC3    O1 5613   2.797   0.021  15.294 -0.0623  0.3853 -0.1380
  371TMC3    O2 5614   2.678   4.279  15.613  0.0570 -0.3872  0.1613
  372MPD2     C 5615   2.130   0.686  12.874 -0.6428  0.3417 -0.4109
  372MPD2    C1 5616   2.142   0.744  13.001  0.2173  0.0620  0.5693
  372MPD2    C2 5617   2.090   0.671  13.110  0.2567  0.3410  0.7722
  372MPD2    C3 5618   2.012   0.559  13.093 -0.0822  0.1361 -0.3612
  372MPD2    C4 5619   1.998   0.507  12.965  0.0449  0.2275 -0.0927
  372MPD2    C5 5620   2.057   0.570  12.855 -0.8221 -0.0380  0.6366
  372MPD2     H 5621   2.101   0.709  13.211  0.5842 -2.0700  1.6338
  372MPD2    H1 5622   1.935   0.420  12.949 -1.2110  0.9151  1.0968
  372MPD2    H2 5623   2.172   0.733  12.786  1.9398  1.1464  1.2530
  372MPD2    H3 5624   2.045   0.520  12.760  0.3765  2.3345 -0.7600
  372MPD2     N 5625   1.959   0.496  13.208 -0.1854 -0.2318  0.1967
  372MPD2    H5 5626   1.979   0.539  13.297  1.7302 -0.9887  0.1349
  372MPD2    N1 5627   2.200   0.869  13.020  0.1765 -0.0001  0.0044
  372MPD2    H7 5628   2.218   0.907  13.112 -0.0351  0.3031 -0.0809
  373TMC3    C1 5629   1.816   0.353  13.341  0.7799  0.4994  0.1331
  373TMC3    C2 5630   1.856   0.422  13.451 -0.2352  0.4568 -0.5608
  373TMC3    C3 5631   1.803   0.381  13.573 -0.1288  0.0035  0.3418
  373TMC3    C4 5632   1.738   0.240  13.350  0.5866 -1.1665  0.0874
  373TMC3    C5 5633   1.677   0.214  13.465 -0.3302 -0.1866  0.3403
  373TMC3    C6 5634   1.709   0.280  13.581  0.0571 -0.4849  0.2441
  373TMC3     C 5635   1.868   0.386  13.207 -0.2744 -0.6371 -0.0265
  373TMC3     O 5636   1.824   0.314  13.116  0.5660 -0.1101  0.0481
  373TMC3     H 5637   1.930   0.501  13.449  0.0821  0.2693  4.2451
  373TMC3    H1 5638   1.683   0.193  13.270 -0.0949  1.4608 -0.9958
  373TMC3    H2 5639   1.658   0.259  13.674  1.0035  0.1349  0.9109
  373TMC3    C7 5640   1.646   0.067  13.479  0.2258 -0.3694 -0.6680
  373TMC3    C8 5641   1.885   0.426  13.683  0.0710 -0.5670  0.7232
  373TMC3    O1 5642   1.716   4.733  13.409  0.4346  0.2944  0.1749
  373TMC3    O2 5643   1.947   0.530  13.662 -0.0490 -0.1753 -0.2929
  374TMC3    C1 5644   2.747   0.973   9.490  0.2632 -0.1717 -0.5738
  374TMC3    C2 5645   2.808   1.084   9.535  0.0220  0.2668 -0.1986
  374TMC3    C3 5646   2.771   1.210   9.482  0.2611 -0.3534  0.3638
  374TMC3    C4 5647   2.655   0.984   9.393 -0.2697 -0.0327  0.9564
  374TMC3    C5 5648   2.622   1.108   9.343 -0.1481 -1.1445  0.7120
  374TMC3    C6 5649   2.670   1.223   9.392 -0.0784  0.3755 -1.1814
  374TMC3     C 5650   2.730   0.855   9.580  0.1072  0.4638 -0.0279
  374TMC3     O 5651   2.656   0.764   9.542  0.2753 -0.1629 -0.5396
  374TMC3     H 5652   2.895   1.069   9.598 -0.9611 -1.0949  0.8385
  374TMC3    H1 5653   2.621   0.894   9.343  0.7615 -0.7103  1.4707
  374TMC3    H2 5654   2.640   1.319   9.350  1.9269  1.1342 -0.8550
  374TMC3    C7 5655   2.526   1.119   9.231 -0.0033 -0.4035 -0.3140
  374TMC3    C8 5656   2.817   1.334   9.535 -0.6906 -0.2529 -0.1322
  374TMC3    O1 5657   2.497   1.227   9.186 -0.6108 -0.0426  0.0164
  374TMC3    O2 5658   2.776   1.438   9.483  0.2661  0.0215  0.3192
  375MPD2     C 5659   3.047   1.311  16.834 -0.3825 -0.2020 -0.5387
  375MPD2    C1 5660   2.979   1.385  16.744  0.4826 -0.5952  0.4343
  375MPD2    C2 5661   3.034   1.404  16.615 -0.5666 -0.0365 -0.6499
  375MPD2    C3 5662   3.160   1.349  16.583 -0.6144  0.5142  0.7356
  375MPD2    C4 5663   3.223   1.268  16.680 -0.3431 -0.3159 -0.3962
  375MPD2    C5 5664   3.168   1.259  16.800  0.4289  0.3480 -0.3451
  375MPD2     H 5665   2.989   1.474  16.545 -1.7970  0.8660  1.0253
  375MPD2    H1 5666   3.316   1.214  16.668 -0.0092  0.4468 -1.2285
  375MPD2    H2 5667   3.020   1.312  16.939 -2.6064  0.5583 -1.1111
  375MPD2    H3 5668   3.223   1.210  16.880 -0.9574  1.7951  1.4837
  375MPD2     N 5669   3.221   1.351  16.451  0.7734  0.4131 -0.3083
  375MPD2    H5 5670   3.317   1.321  16.444  0.3000 -1.0374 -0.6602
  375MPD2    N1 5671   2.848   1.454  16.767 -0.4307  0.0468 -0.1354
  375MPD2    H7 5672   2.814   1.508  16.688 -2.8361  0.1226  0.9321
  376TMC3    C1 5673   3.234   1.397  16.211  0.7472 -0.2423 -0.8448
  376TMC3    C2 5674   3.372   1.408  16.216  0.0777 -0.0885 -0.4915
  376TMC3    C3 5675   3.438   1.422  16.094 -0.3569 -0.4717 -0.7152
  376TMC3    C4 5676   3.164   1.411  16.094  0.5282 -0.8228  0.4016
  376TMC3    C5 5677   3.236   1.417  15.976 -0.1691  0.5892  0.3331
  376TMC3    C6 5678   3.375   1.422  15.975 -0.6991 -0.7048  0.4565
  376TMC3     C 5679   3.152   1.386  16.337 -0.3848  0.0249 -0.9074
  376TMC3     O 5680   3.037   1.422  16.328  0.7626 -0.4254  0.1372
  376TMC3     H 5681   3.422   1.402  16.312  0.3959 -0.6910 -0.6974
  376TMC3    H1 5682   3.055   1.411  16.090  0.7088 -0.6890 -4.3877
  376TMC3    H2 5683   3.431   1.431  15.883 -1.8026 -0.9347 -0.2252
  376TMC3    C7 5684   3.167   1.435  15.854  0.0421  0.1565  0.7603
  376TMC3    C8 5685   3.584   1.412  16.080  0.5338  0.5810  0.7107
  376TMC3    O1 5686   3.225   1.506  15.768  0.1482 -0.7036  0.4414
  376TMC3    O2 5687   3.631   1.448  15.974  0.3781  0.3840  0.2400
  377MPD2     C 5688   1.440   0.614  12.582  0.9194  0.2192 -0.7114
  377MPD2    C1 5689   1.391   0.712  12.513  0.5536 -0.7999  0.2278
  377MPD2    C2 5690   1.253   0.722  12.501  0.3973  0.0586  0.0095
  377MPD2    C3 5691   1.169   0.651  12.582  0.2511 -0.3058 -0.7762
  377MPD2    C4 5692   1.229   0.555  12.661 -0.6278 -0.3895 -0.2222
  377MPD2    C5 5693   1.359   0.540  12.662  0.4186 -0.3788 -0.2619
  377MPD2     H 5694   1.202   0.796  12.440 -2.3286 -1.0498  0.9656
  377MPD2    H1 5695   1.172   0.495  12.731  0.6194 -2.4138 -0.9528
  377MPD2    H2 5696   1.548   0.605  12.592  0.5442 -1.2662  1.9842
  377MPD2    H3 5697   1.401   0.463  12.725  0.5260  1.5123  2.0020
  377MPD2     N 5698   1.026   0.662  12.596 -0.0449 -0.3181  0.1397
  377MPD2    H5 5699   0.996   0.596  12.667  2.2272  1.0118  2.3603
  377MPD2    N1 5700   1.481   0.794  12.445 -0.4081 -0.1925 -0.9331
  377MPD2    H7 5701   1.574   0.784  12.485 -1.1406 -0.0627  0.7887
  378TMC3    C1 5702   1.582   1.118  12.113  0.6749 -0.0230 -0.1049
  378TMC3    C2 5703   1.505   1.077  12.220  0.1971  0.7267 -0.4124
  378TMC3    C3 5704   1.550   0.971  12.290  0.8867 -0.1944  0.2519
  378TMC3    C4 5705   1.704   1.058  12.079  0.3065 -0.2088  0.4869
  378TMC3    C5 5706   1.745   0.950  12.148  0.2304  0.3957 -0.1428
  378TMC3    C6 5707   1.674   0.908  12.259  0.2179  0.2424  0.4508
  378TMC3     C 5708   1.529   1.220  12.029  0.8075 -0.8998  0.9662
  378TMC3     O 5709   1.409   1.238  12.045  0.7289  0.2291  0.4771
  378TMC3     H 5710   1.403   1.112  12.228 -0.1206 -0.6134  1.2546
  378TMC3    H1 5711   1.761   1.089  11.992  1.1330 -0.8986  0.7801
  378TMC3    H2 5712   1.710   0.820  12.312 -0.3709 -0.2627  0.0205
  378TMC3    C7 5713   1.846   0.859  12.092  1.1541 -0.0185 -0.0235
  378TMC3    C8 5714   1.442   0.888  12.349  0.5436 -0.4402  0.8540
  378TMC3    O1 5715   1.902   0.792  12.176  0.1935  0.8815 -0.1946
  378TMC3    O2 5716   1.330   0.922  12.315 -0.0420 -0.1776 -0.2635
  379MPD2     C 5717   1.533   4.059  16.041  0.0144  0.0617 -0.6977
  379MPD2    C1 5718   1.480   4.052  16.171  0.8178 -0.5261  0.1449
  379MPD2    C2 5719   1.542   3.967  16.260 -0.0393 -0.1954 -0.6965
  379MPD2    C3 5720   1.637   3.877  16.220  0.2297  0.5363  0.5587
  379MPD2    C4 5721   1.695   3.892  16.099  0.3316 -0.6818  0.1801
  379MPD2    C5 5722   1.646   3.979  16.008 -0.3298 -0.4731  0.1743
  379MPD2     H 5723   1.513   3.963  16.365  1.7391  2.9042 -0.1023
  379MPD2    H1 5724   1.787   3.839  16.079  1.4811  0.7847  1.5685
  379MPD2    H2 5725   1.508   4.138  15.970  0.2672  0.8205  0.0573
  379MPD2    H3 5726   1.691   3.996  15.911  2.0598 -1.0612  1.1856
  379MPD2     N 5727   1.689   3.773  16.309 -0.5185  0.1163 -0.2229
  379MPD2    H5 5728   1.770   3.730  16.266 -0.0607  1.1168 -0.3456
  379MPD2    N1 5729   1.371   4.136  16.202 -0.0110  0.0492  0.4987
  379MPD2    H7 5730   1.333   4.188  16.124  0.5181 -1.9249 -1.0530
  380TMC3    C1 5731   1.163   4.188  16.319  0.2348  0.4282 -0.0910
  380TMC3    C2 5732   1.082   4.141  16.416  0.3973  0.4386 -0.2264
  380TMC3    C3 5733   0.954   4.112  16.373 -0.1259 -0.2290 -0.1807
  380TMC3    C4 5734   1.124   4.240  16.204 -0.2714  0.0365  0.8449
  380TMC3    C5 5735   0.989   4.229  16.174  0.0115 -0.2375  0.3696
  380TMC3    C6 5736   0.904   4.152  16.244 -0.5779 -0.3974  0.3686
  380TMC3     C 5737   1.301   4.137  16.322 -0.4088 -0.4451 -0.6236
  380TMC3     O 5738   1.333   4.078  16.425  0.1070  0.3371 -0.1928
  380TMC3     H 5739   1.110   4.106  16.515 -1.6148 -0.9300 -0.1335
  380TMC3    H1 5740   1.195   4.300  16.149  1.0395 -2.0120  0.3009
  380TMC3    H2 5741   0.800   4.145  16.214 -0.6583  0.1939  0.5099
  380TMC3    C7 5742   0.941   4.296  16.059 -0.1075  0.5684  0.0441
  380TMC3    C8 5743   0.873   4.023  16.467  0.5115  0.1533 -0.9824
  380TMC3    O1 5744   0.992   4.406  16.030 -0.2915  0.2153 -0.1837
  380TMC3    O2 5745   0.797   4.086  16.539  0.2959  0.0729  0.1375
  381TMC3    C1 5746   1.577   0.393  16.346  0.4227 -0.4592 -0.4081
  381TMC3    C2 5747   1.662   0.482  16.289  1.3110 -0.0523 -0.3795
  381TMC3    C3 5748   1.699   0.592  16.357  0.1927 -0.7720 -0.0353
  381TMC3    C4 5749   1.518   0.416  16.468  0.0264 -0.7425  0.0741
  381TMC3    C5 5750   1.569   0.527  16.534 -0.1629  0.8237  0.3657
  381TMC3    C6 5751   1.661   0.613  16.486 -0.2734 -0.1239  0.3454
  381TMC3     C 5752   1.535   0.282  16.259  0.3090  0.5414 -0.0737
  381TMC3     O 5753   1.556   0.292  16.134  0.0981  0.6172 -0.2290
  381TMC3     H 5754   1.709   0.468  16.192  3.7717  1.0496  0.6537
  381TMC3    H1 5755   1.456   0.347  16.524  0.3554 -0.5210  0.7050
  381TMC3    H2 5756   1.699   0.694  16.548 -0.0528  0.2248 -0.2457
  381TMC3    C7 5757   1.566   0.515  16.678 -0.9552 -0.1742 -0.1300
  381TMC3    C8 5758   1.825   0.654  16.306  0.1059  0.5488 -0.1355
  381TMC3    O1 5759   1.630   0.427  16.736  0.3834  0.5705  0.0935
  381TMC3    O2 5760   1.896   0.594  16.229 -0.1591 -0.3407 -0.0052
  382MPD2     C 5761   0.568   2.605   0.176  0.2473 -0.1564 -0.2723
  382MPD2    C1 5762   0.461   2.620   0.091  0.1633 -0.3102 -0.0459
  382MPD2    C2 5763   0.380   2.513   0.077 -0.2294 -0.2945 -0.5131
  382MPD2    C3 5764   0.396   2.399   0.160 -0.4366  0.0853  0.4453
  382MPD2    C4 5765   0.501   2.391   0.250 -0.0874  0.2258  0.9101
  382MPD2    C5 5766   0.596   2.492   0.249  0.6438  0.3000 -0.1171
  382MPD2     H 5767   0.291   2.528   0.017 -0.2670  0.3832 -0.2922
  382MPD2    H1 5768   0.510   2.308   0.319 -1.5470  0.1254  0.9849
  382MPD2    H2 5769   0.634   2.690   0.179 -0.0500  0.0827 -0.5153
  382MPD2    H3 5770   0.687   2.485   0.308  0.0484 -1.8923  0.5556
  382MPD2     N 5771   0.301   2.297   0.162  0.5093 -0.0289 -0.0270
  382MPD2    H5 5772   0.301   2.230   0.238  3.3178 -0.6693 -0.5932
  382MPD2    N1 5773   0.440   2.731   0.006 -0.3421  0.8209  0.2490
  382MPD2    H7 5774   0.359   2.744  17.701  0.1258  2.5838 -0.0173
  383TMC3    C1 5775   0.096   2.184   0.127  0.6070 -0.0932 -0.6622
  383TMC3    C2 5776   4.722   2.158   0.051 -0.3711 -0.1120  0.2799
  383TMC3    C3 5777   4.634   2.070   0.099  0.4245 -0.3794  0.8646
  383TMC3    C4 5778   0.124   2.111   0.235  0.2775  0.1904 -0.3012
  383TMC3    C5 5779   0.035   2.023   0.281  0.3026  0.0754  0.4911
  383TMC3    C6 5780   4.651   2.009   0.213  0.0777  0.1628 -0.0135
  383TMC3     C 5781   0.188   2.290   0.083 -0.2059  0.9198 -0.0891
  383TMC3     O 5782   0.158   2.350  17.729 -0.8270 -0.4759 -0.0236
  383TMC3     H 5783   4.710   2.207  17.709 -0.6295  1.4608  1.1028
  383TMC3    H1 5784   0.209   2.132   0.299  0.8739 -1.2554 -0.6120
  383TMC3    H2 5785   4.572   1.953   0.262 -0.1428  1.5709  1.2335
  383TMC3    C7 5786   0.049   1.940   0.398  0.5685 -0.4061 -0.4910
  383TMC3    C8 5787   4.550   1.999  17.752 -0.1940  0.3127 -0.0613
  383TMC3    O1 5788   4.686   1.887   0.440 -0.4708 -0.5233 -1.1185
  383TMC3    O2 5789   4.528   2.068  17.653  0.1843 -0.3115 -0.0545
  384MPD2     C 5790   2.149   4.266  11.948 -0.1318 -0.1513 -0.0998
  384MPD2    C1 5791   2.174   4.184  12.058 -0.0853  0.5357 -0.0911
  384MPD2    C2 5792   2.272   4.103  12.050 -0.0448 -0.6302 -0.5183
  384MPD2    C3 5793   2.361   4.091  11.949 -0.2836 -0.8698  0.1583
  384MPD2    C4 5794   2.341   4.177  11.842 -0.3308 -0.3674 -0.1569
  384MPD2    C5 5795   2.236   4.262  11.839 -0.3276  1.0160 -0.0660
  384MPD2     H 5796   2.288   4.039  12.136  0.7791 -0.9824 -0.9376
  384MPD2    H1 5797   2.409   4.167  11.759 -1.2540  1.9216 -1.1983
  384MPD2    H2 5798   2.065   4.333  11.939 -0.0644 -0.4289 -2.8124
  384MPD2    H3 5799   2.220   4.323  11.751 -0.4756  0.2045 -0.6088
  384MPD2     N 5800   2.458   3.985  11.958 -0.2805 -0.3196  0.4418
  384MPD2    H5 5801   2.460   3.936  12.047 -0.0472 -0.8576  0.1389
  384MPD2    N1 5802   2.098   4.179  12.179 -0.3985 -0.1952 -0.1221
  384MPD2    H7 5803   2.125   4.117  12.254  1.8737  3.7994  2.3878
  385TMC3    C1 5804   2.605   3.821  11.915  0.9094 -0.9657 -0.1996
  385TMC3    C2 5805   2.533   3.707  11.876 -0.1907  0.1339 -0.1073
  385TMC3    C3 5806   2.528   3.601  11.963 -0.1578 -0.2471 -0.0378
  385TMC3    C4 5807   2.647   3.827  12.049 -0.2804 -0.3455  0.0819
  385TMC3    C5 5808   2.620   3.728  12.137  0.2748  0.1405 -0.3334
  385TMC3    C6 5809   2.563   3.610  12.095 -0.6948  0.5055  0.1678
  385TMC3     C 5810   2.550   3.942  11.865  0.0278  0.1371 -0.9492
  385TMC3     O 5811   2.558   3.965  11.747 -0.2181 -0.5644  0.2688
  385TMC3     H 5812   2.510   3.694  11.771  0.8394 -0.0756 -0.2983
  385TMC3    H1 5813   2.676   3.924  12.087  0.5834 -0.6688  0.2377
  385TMC3    H2 5814   2.544   3.530  12.166 -2.4681  1.0125  0.2746
  385TMC3    C7 5815   2.552   3.779  12.251 -0.2311 -0.2811  0.5995
  385TMC3    C8 5816   2.454   3.481  11.921 -0.0612  0.0518 -0.0076
  385TMC3    O1 5817   2.495   3.887  12.236  0.2176 -0.0329 -0.3219
  385TMC3    O2 5818   2.444   3.396  12.008 -0.1440  0.3862  0.1420
  386TMC3    C1 5819   2.528   0.947  11.352 -0.0665 -0.4218  0.7092
  386TMC3    C2 5820   2.449   0.945  11.239 -0.6931  0.6903  0.2083
  386TMC3    C3 5821   2.316   0.944  11.257 -0.0503  0.1767 -0.7894
  386TMC3    C4 5822   2.484   0.921  11.480 -0.9183  0.7820  0.5197
  386TMC3    C5 5823   2.346   0.906  11.492  0.0200  0.8010 -0.7850
  386TMC3    C6 5824   2.265   0.914  11.382 -0.0782 -0.2781 -0.7680
  386TMC3     C 5825   2.675   0.942  11.325  0.2979 -0.4269  0.4977
  386TMC3     O 5826   2.699   0.969  11.211 -0.0957 -0.4371 -0.3159
  386TMC3     H 5827   2.483   0.965  11.138  0.5033 -0.8860  0.3044
  386TMC3    H1 5828   2.545   0.929  11.569 -0.4925 -1.7199  0.4298
  386TMC3    H2 5829   2.159   0.895  11.387  0.3634 -2.4873  0.2234
  386TMC3    C7 5830   2.296   0.935  11.620 -0.0205 -0.1054  0.8372
  386TMC3    C8 5831   2.225   1.022  11.177 -0.4008 -1.3700 -0.7319
  386TMC3    O1 5832   2.365   0.894  11.718  0.2734 -0.4813 -0.2742
  386TMC3    O2 5833   2.103   1.001  11.193 -0.5136  0.3098  0.1059
  387MPD2     C 5834   0.091   1.013   9.839 -0.0998 -0.0368 -0.6867
  387MPD2    C1 5835   0.210   1.023   9.893  0.0809  0.1628  0.1604
  387MPD2    C2 5836   0.266   0.911   9.941  0.6470 -0.1858 -0.7264
  387MPD2    C3 5837   0.214   0.787   9.914  0.5421 -0.6221  0.0461
  387MPD2    C4 5838   0.091   0.773   9.858  0.1316  0.3908 -0.1581
  387MPD2    C5 5839   0.028   0.891   9.828 -0.3334 -0.2576  0.7922
  387MPD2     H 5840   0.363   0.917   9.988 -0.5852 -1.4977  2.0006
  387MPD2    H1 5841   0.054   0.674   9.833 -0.8490  0.4720  0.9839
  387MPD2    H2 5842   0.034   1.095   9.795 -1.6026  0.9517  3.1484
  387MPD2    H3 5843   4.675   0.899   9.770  1.3398 -2.3983 -2.1278
  387MPD2     N 5844   0.296   0.677   9.951 -0.5112  0.5469  0.4070
  387MPD2    H5 5845   0.373   0.696  10.013 -0.1951  1.3227 -0.2208
  387MPD2    N1 5846   0.296   1.138   9.889 -0.0580  0.8752  0.3010
  387MPD2    H7 5847   0.389   1.139   9.932  0.7706  0.5206 -1.4827
  388TMC3    C1 5848   0.387   1.337   9.826  0.2709 -0.9034  0.6474
  388TMC3    C2 5849   0.384   1.468   9.846 -0.0722  0.0944 -0.0602
  388TMC3    C3 5850   0.496   1.542   9.848  0.0528  0.2094 -0.5014
  388TMC3    C4 5851   0.508   1.268   9.831 -0.4189  0.0356 -1.1250
  388TMC3    C5 5852   0.626   1.348   9.843 -0.6537  0.1255 -0.5470
  388TMC3    C6 5853   0.620   1.483   9.844  0.1244 -0.1383 -0.5493
  388TMC3     C 5854   0.265   1.259   9.848 -0.6620 -0.3234 -0.3336
  388TMC3     O 5855   0.161   1.311   9.814  0.1594 -0.1081 -0.2814
  388TMC3     H 5856   0.283   1.502   9.864 -0.9421 -2.3338 -0.3034
  388TMC3    H1 5857   0.511   1.167   9.790  0.4231  0.0734 -1.1697
  388TMC3    H2 5858   0.715   1.535   9.836 -0.1198  0.3341 -0.4095
  388TMC3    C7 5859   0.753   1.284   9.805 -0.2454  0.5163 -0.0529
  388TMC3    C8 5860   0.490   1.680   9.877 -0.1173  0.0293  0.4318
  388TMC3    O1 5861   0.831   1.342   9.734  0.3572 -0.4541  0.0601
  388TMC3    O2 5862   0.598   1.733   9.898 -0.5613 -0.7260  0.3263
  389MPD2     C 5863   4.310   3.649  10.578  0.6507  0.1267 -0.3370
  389MPD2    C1 5864   4.179   3.695  10.566  0.2735  0.4407 -0.6624
  389MPD2    C2 5865   4.081   3.641  10.645 -0.3126  0.2038  0.5525
  389MPD2    C3 5866   4.119   3.560  10.751 -0.0689  0.4896 -0.3086
  389MPD2    C4 5867   4.251   3.529  10.769 -0.4947 -0.0661 -0.1275
  389MPD2    C5 5868   4.344   3.567  10.678 -0.2600  0.3261 -0.4574
  389MPD2     H 5869   3.980   3.681  10.638 -0.7147 -0.9990 -0.5391
  389MPD2    H1 5870   4.276   3.470  10.857  0.3699 -0.1100 -0.4051
  389MPD2    H2 5871   4.385   3.700  10.519  0.8959  0.1519  0.0018
  389MPD2    H3 5872   4.450   3.552  10.697 -0.3346 -0.8363 -0.9282
  389MPD2     N 5873   4.025   3.512  10.847 -0.2576  0.1535  0.6086
  389MPD2    H5 5874   4.073   3.465  10.923 -1.3031 -0.7813  0.6953
  389MPD2    N1 5875   4.158   3.801  10.476  0.2200 -0.1380  0.5291
  389MPD2    H7 5876   4.243   3.825  10.426  0.8732  0.5319  1.9582
  390TMC3    C1 5877   3.828   3.498  10.972  0.4813  0.6456 -1.0731
  390TMC3    C2 5878   3.694   3.491  10.965  0.4548  0.3915 -0.1772
  390TMC3    C3 5879   3.618   3.565  11.054  0.0871 -0.0891 -0.6830
  390TMC3    C4 5880   3.884   3.568  11.071  0.0048 -0.3701  0.2419
  390TMC3    C5 5881   3.811   3.631  11.165 -0.0256 -0.5167  0.0066
  390TMC3    C6 5882   3.674   3.631  11.160 -0.0339  0.0656  0.0701
  390TMC3     C 5883   3.892   3.520  10.847  0.1380  0.1210 -0.6411
  390TMC3     O 5884   3.819   3.533  10.747  0.3192  0.2325  0.4641
  390TMC3     H 5885   3.645   3.432  10.888 -1.2030  1.0014  0.4049
  390TMC3    H1 5886   3.991   3.582  11.081 -0.1988  0.9732  0.5115
  390TMC3    H2 5887   3.615   3.690  11.229 -2.9364 -0.6996 -1.7388
  390TMC3    C7 5888   3.882   3.680  11.280 -0.2565  0.0280 -0.3094
  390TMC3    C8 5889   3.477   3.561  11.043  0.5312  0.7481 -0.1604
  390TMC3    O1 5890   3.996   3.706  11.258 -0.0269 -0.2877 -0.1781
  390TMC3    O2 5891   3.423   3.465  10.983  0.1512 -0.6183  0.4527
  391MPD2     C 5892   3.320   0.881  10.927  0.5892 -0.2909  0.4171
  391MPD2    C1 5893   3.387   1.001  10.947 -0.0439 -0.1102 -0.0468
  391MPD2    C2 5894   3.402   1.086  10.834  0.3316  0.3734  0.3117
  391MPD2    C3 5895   3.347   1.052  10.708 -0.5985 -0.3391 -0.0858
  391MPD2    C4 5896   3.284   0.925  10.697 -0.2996 -0.0428 -0.6630
  391MPD2    C5 5897   3.269   0.846  10.805 -0.1978  0.0758 -0.3594
  391MPD2     H 5898   3.449   1.183  10.840  1.5607 -0.1158 -1.5805
  391MPD2    H1 5899   3.252   0.887  10.601 -0.5541 -3.2142  0.6837
  391MPD2    H2 5900   3.307   0.815  11.012 -2.5145 -0.2548 -0.0350
  391MPD2    H3 5901   3.223   0.748  10.794  1.4317 -0.8171  0.7220
  391MPD2     N 5902   3.363   1.142  10.600 -0.0023  0.1263  0.4107
  391MPD2    H5 5903   3.412   1.228  10.621 -1.5727  1.2500 -0.5341
  391MPD2    N1 5904   3.451   1.036  11.072 -0.4491  0.0178  0.5960
  391MPD2    H7 5905   3.461   0.962  11.141 -3.2933 -1.3897 -0.5052
  392TMC3    C1 5906   3.341   1.228  10.386  0.2543 -0.2391 -0.8776
  392TMC3    C2 5907   3.279   1.228  10.262  0.2480  0.9201  0.2094
  392TMC3    C3 5908   3.323   1.316  10.160 -0.7111  0.0462  0.5639
  392TMC3    C4 5909   3.452   1.306  10.401 -0.7886 -0.0917 -0.0871
  392TMC3    C5 5910   3.500   1.385  10.301  0.5011 -0.1925  0.4613
  392TMC3    C6 5911   3.436   1.397  10.181  0.0729 -0.1659 -0.0708
  392TMC3     C 5912   3.322   1.114  10.474  0.5739  0.0427 -0.4016
  392TMC3     O 5913   3.276   1.013  10.425  0.9728  0.5169  0.3310
  392TMC3     H 5914   3.206   1.154  10.233  1.2989  0.1301 -0.4236
  392TMC3    H1 5915   3.495   1.308  10.500  0.0055  2.9021 -0.4817
  392TMC3    H2 5916   3.483   1.438  10.092 -0.0797  1.2055  0.4882
  392TMC3    C7 5917   3.621   1.471  10.329  0.0312  0.3705  0.2823
  392TMC3    C8 5918   3.239   1.322  10.043 -0.0969  0.0950  0.0811
  392TMC3    O1 5919   3.676   1.444  10.435  0.2413 -0.2335 -0.0485
  392TMC3    O2 5920   3.174   1.217  10.014  0.3074  0.1003 -0.0832
  393TMC3    C1 5921   1.861   3.822  10.147  0.1953  0.1782  0.2112
  393TMC3    C2 5922   1.778   3.802  10.046 -0.6574 -0.3702 -0.1269
  393TMC3    C3 5923   1.771   3.676   9.995  0.7352  0.1961  0.6099
  393TMC3    C4 5924   1.937   3.714  10.201 -0.2370  0.6350  0.0924
  393TMC3    C5 5925   1.921   3.592  10.152  0.0016  0.3547 -0.5117
  393TMC3    C6 5926   1.833   3.573  10.056  0.3901 -0.0896  0.3247
  393TMC3     C 5927   1.888   3.955  10.187 -0.8183 -0.2845  0.4175
  393TMC3     O 5928   1.828   4.049  10.141 -0.3644  0.2822 -1.0006
  393TMC3     H 5929   1.741   3.888   9.991  2.2480 -0.3778 -2.1348
  393TMC3    H1 5930   2.014   3.736  10.274  1.2188  1.2618 -1.6372
  393TMC3    H2 5931   1.804   3.472  10.029  3.1126 -0.4931 -1.0957
  393TMC3    C7 5932   2.005   3.480  10.187  0.1605  0.1335  0.5602
  393TMC3    C8 5933   1.660   3.645   9.918  0.2111  0.5057  0.1489
  393TMC3    O1 5934   2.032   3.397  10.106  0.4509 -0.2738  0.0693
  393TMC3    O2 5935   1.677   3.651   9.797  0.2117  0.0873 -0.0567
  394TMC3    C1 5936   4.058   3.947  10.313  0.2729 -0.6053 -0.2717
  394TMC3    C2 5937   3.939   3.959  10.250 -0.1923 -0.5286  0.2231
  394TMC3    C3 5938   3.937   4.037  10.145 -0.0953 -0.0299  0.4251
  394TMC3    C4 5939   4.175   4.001  10.265 -0.3913 -0.6411 -0.5740
  394TMC3    C5 5940   4.171   4.078  10.154  0.2803  0.1312 -0.3500
  394TMC3    C6 5941   4.046   4.107  10.103 -0.2396  0.2106 -0.9512
  394TMC3     C 5942   4.040   3.864  10.442 -0.6869 -0.4288 -0.0460
  394TMC3     O 5943   3.934   3.852  10.501 -0.1744  0.2597 -0.0545
  394TMC3     H 5944   3.852   3.910  10.292  0.3550 -1.5079  0.2291
  394TMC3    H1 5945   4.273   3.966  10.295  1.2926  5.8611  1.4956
  394TMC3    H2 5946   4.032   4.172  10.017 -1.4536  2.4036  0.8952
  394TMC3    C7 5947   4.279   4.181  10.143  0.9239 -0.5643 -0.1443
  394TMC3    C8 5948   3.826   4.025  10.061 -0.4560  0.2165  0.1056
  394TMC3    O1 5949   4.258   4.259  10.051  0.1365 -0.4271  0.3815
  394TMC3    O2 5950   3.785   4.111   9.983 -0.0206  0.3943  0.0774
  395TMC3    C1 5951   3.994   1.361  15.199 -0.3715  1.0064  0.7111
  395TMC3    C2 5952   3.873   1.422  15.170 -0.1014 -0.6064 -0.5359
  395TMC3    C3 5953   3.883   1.561  15.166 -0.7368  0.0925  0.2449
  395TMC3    C4 5954   4.117   1.421  15.210  0.1389 -0.2266 -0.6526
  395TMC3    C5 5955   4.118   1.557  15.188  0.1943  0.1222 -0.7690
  395TMC3    C6 5956   4.006   1.623  15.167 -0.0645 -0.2991  0.3923
  395TMC3     C 5957   3.989   1.221  15.241 -0.7699  0.1345 -0.5238
  395TMC3     O 5958   4.085   1.176  15.300  0.2532  0.2794  0.2143
  395TMC3     H 5959   3.777   1.377  15.195  0.6432 -0.9323  1.6594
  395TMC3    H1 5960   4.206   1.375  15.251  1.2955  3.3607  0.8175
  395TMC3    H2 5961   4.011   1.724  15.127 -0.3600 -0.4619 -0.0538
  395TMC3    C7 5962   4.238   1.620  15.146  0.0781 -0.6307  0.5482
  395TMC3    C8 5963   3.779   1.631  15.099  0.4770 -0.0706  0.4042
  395TMC3    O1 5964   4.227   1.742  15.135 -0.2955  0.0915 -0.2247
  395TMC3    O2 5965   3.791   1.753  15.096 -0.1654 -0.3284 -0.6551
  396MPD2     C 5966   3.564   2.248  16.639  0.1828 -0.2833  0.1309
  396MPD2    C1 5967   3.653   2.302  16.729  0.2641  0.4616 -0.1087
  396MPD2    C2 5968   3.764   2.379  16.688 -0.8436 -0.1773  0.4822
  396MPD2    C3 5969   3.775   2.395  16.550  0.0468 -0.3669 -0.0877
  396MPD2    C4 5970   3.673   2.370  16.466  0.7544 -0.2426 -0.3476
  396MPD2    C5 5971   3.573   2.285  16.507 -0.1841  0.3665 -0.0516
  396MPD2     H 5972   3.848   2.408  16.749  0.2421  2.0415 -2.0839
  396MPD2    H1 5973   3.671   2.415  16.368  0.9652  1.6940  0.5407
  396MPD2    H2 5974   3.482   2.183  16.669 -0.9889  0.5048 -1.3472
  396MPD2    H3 5975   3.493   2.263  16.438 -1.0162 -0.5989  1.2405
  396MPD2     N 5976   3.890   2.469  16.503  0.3833 -0.3829 -0.0208
  396MPD2    H5 5977   3.947   2.502  16.580 -3.3075  1.0028  2.0949
  396MPD2    N1 5978   3.627   2.263  16.863  0.1013  0.3463 -0.2643
  396MPD2    H7 5979   3.556   2.191  16.878  1.9782 -1.6708 -1.0528
  397TMC3    C1 5980   3.674   2.206  17.081  0.3830 -0.3634 -0.8101
  397TMC3    C2 5981   3.779   2.129  17.061  0.0056 -0.0134  0.0142
  397TMC3    C3 5982   3.764   2.004  16.999  0.9457  0.0039 -0.2186
  397TMC3    C4 5983   3.551   2.146  17.072  0.3112 -0.3376  0.1792
  397TMC3    C5 5984   3.538   2.017  17.027 -0.5016 -0.3001  0.9841
  397TMC3    C6 5985   3.641   1.945  16.991 -0.6155  0.3733  0.2071
  397TMC3     C 5986   3.684   2.305  16.978 -1.2713 -0.1517  0.5582
  397TMC3     O 5987   3.779   2.386  16.984 -0.0033 -0.5830 -0.3149
  397TMC3     H 5988   3.866   2.190  17.043 -0.1805  0.6646  1.3972
  397TMC3    H1 5989   3.462   2.206  17.090 -1.1438 -2.4507  0.0159
  397TMC3    H2 5990   3.618   1.849  16.946 -0.6470  0.8629 -0.8422
  397TMC3    C7 5991   3.412   1.950  17.040 -0.7498 -0.1423 -0.1703
  397TMC3    C8 5992   3.842   1.991  16.876 -0.2392 -0.8194  0.4428
  397TMC3    O1 5993   3.367   1.901  16.936 -0.9235 -0.5802  0.2767
  397TMC3    O2 5994   3.810   1.900  16.796 -0.1744  0.4008 -0.4947
  398MPD2     C 5995   1.517   3.793   0.021 -0.0495  0.5459 -0.0278
  398MPD2    C1 5996   1.602   3.705  17.710 -0.2126 -0.1565  0.2800
  398MPD2    C2 5997   1.740   3.727  17.716  0.3893 -0.3333  0.6563
  398MPD2    C3 5998   1.786   3.845   0.029 -0.1874  0.8018 -0.1807
  398MPD2    C4 5999   1.691   3.932   0.083  0.7035  0.0318  0.6176
  398MPD2    C5 6000   1.556   3.908   0.076  0.0208 -0.1209 -0.0577
  398MPD2     H 6001   1.807   3.663  17.660  1.5041  1.1233  0.3521
  398MPD2    H1 6002   1.713   4.010   0.155  0.5459 -0.3073  1.0281
  398MPD2    H2 6003   1.411   3.782   0.039  0.2584 -2.4299 -0.0351
  398MPD2    H3 6004   1.489   3.981   0.120  3.3834  2.4723  0.6780
  398MPD2     N 6005   1.922   3.858   0.041 -0.4459 -0.0199  0.7566
  398MPD2    H5 6006   1.987   3.796  17.748 -1.5072  0.4380 -1.2822
  398MPD2    N1 6007   1.566   3.580  17.654  0.4929 -0.9942  0.2921
  398MPD2    H7 6008   1.643   3.515  17.640  1.2544 -0.1246  0.4200
  399TMC3    C1 6009   1.427   3.401  17.629 -0.2588 -0.5464  0.5465
  399TMC3    C2 6010   1.523   3.320  17.691  0.3352 -0.8181  0.0067
  399TMC3    C3 6011   1.488   3.204  17.749 -0.1482 -0.9414 -0.0353
  399TMC3    C4 6012   1.295   3.362  17.637 -0.5162 -0.3613  0.7369
  399TMC3    C5 6013   1.260   3.254  17.716  0.0964 -0.4229 -0.2832
  399TMC3    C6 6014   1.357   3.167   0.012 -0.2034 -0.4078 -0.4393
  399TMC3     C 6015   1.437   3.545  17.626  0.3036  0.2639  0.1226
  399TMC3     O 6016   1.340   3.616  17.611  0.0179  1.0689 -0.2570
  399TMC3     H 6017   1.630   3.324  17.678  0.4571  0.9025  1.5997
  399TMC3    H1 6018   1.221   3.420  17.583  1.6678  1.8180  0.0658
  399TMC3    H2 6019   1.334   3.083   0.077  2.1353 -0.5266  0.2439
  399TMC3    C7 6020   1.127   3.236   0.020  0.2105 -0.7568  0.5542
  399TMC3    C8 6021   1.585   3.116   0.057  0.1459 -0.1857  0.1490
  399TMC3    O1 6022   1.122   3.157   0.112 -0.0061 -0.4300  0.6483
  399TMC3    O2 6023   1.691   3.165   0.085  0.4195 -0.0355 -0.5900
  400TMC3    C1 6024   4.726   1.514  17.350 -0.1700  0.0842 -0.4336
  400TMC3    C2 6025   4.658   1.409  17.299 -0.1587  0.3350  0.6763
  400TMC3    C3 6026   4.600   1.419  17.174  1.2739  0.6069  0.2687
  400TMC3    C4 6027   4.721   1.640  17.284 -0.7427  0.4850  0.0476
  400TMC3    C5 6028   4.645   1.647  17.171  0.3602  0.5104 -0.3716
  400TMC3    C6 6029   4.585   1.537  17.107 -0.3425 -0.1551 -0.6684
  400TMC3     C 6030   0.038   1.492  17.486  0.8664  0.2914  0.4111
  400TMC3     O 6031   0.055   1.376  17.523  0.2876 -0.4449 -0.2074
  400TMC3     H 6032   4.664   1.311  17.343  1.2086  0.9820  1.9471
  400TMC3    H1 6033   0.053   1.718  17.309 -0.7974 -0.2886  2.5622
  400TMC3    H2 6034   4.529   1.561  17.017  0.1117  0.5504 -0.7664
  400TMC3    C7 6035   4.648   1.772  17.101  0.2221 -0.4089 -0.0263
  400TMC3    C8 6036   4.521   1.313  17.130 -0.2351 -0.0330 -0.2945
  400TMC3    O1 6037   4.617   1.770  16.982 -0.3879  0.1607 -0.1395
  400TMC3    O2 6038   4.478   1.235  17.217  0.7415  0.4189  0.5763
  401MPD2     C 6039   3.575   0.310   0.017 -0.0304 -0.5725  0.0727
  401MPD2    C1 6040   3.695   0.256   0.061 -0.4214  0.3259  0.8655
  401MPD2    C2 6041   3.693   0.128   0.101 -0.5373 -0.3400  0.7318
  401MPD2    C3 6042   3.583   0.048   0.095  0.4975 -0.5497  0.2549
  401MPD2    C4 6043   3.463   0.096   0.040 -0.5257  0.9684 -0.7096
  401MPD2    C5 6044   3.465   0.230   0.003  0.6175 -0.3852  0.6371
  401MPD2     H 6045   3.783   0.078   0.136  0.3132 -1.8451 -3.6115
  401MPD2    H1 6046   3.373   0.040   0.017  0.8557 -2.0965  1.3176
  401MPD2    H2 6047   3.580   0.413  17.740 -0.5152 -0.1647  1.3365
  401MPD2    H3 6048   3.374   0.273  17.718  0.7037  1.0363  2.0136
  401MPD2     N 6049   3.590   4.658   0.161 -0.0319 -0.2359  0.3182
  401MPD2    H5 6050   3.675   4.619   0.200  0.2929  0.0770 -0.0734
  401MPD2    N1 6051   3.815   0.334   0.063 -0.2360 -0.3995  0.0144
  401MPD2    H7 6052   3.806   0.434   0.049 -1.2513 -0.7688 -1.9040
  402TMC3    C1 6053   3.515   4.452   0.245 -0.3806  0.4976 -0.2668
  402TMC3    C2 6054   3.639   4.422   0.293 -0.2175 -0.0962 -0.0346
  402TMC3    C3 6055   3.649   4.323   0.392  0.1942 -0.1189  0.0593
  402TMC3    C4 6056   3.404   4.380   0.281 -0.2329  0.4587  0.0158
  402TMC3    C5 6057   3.422   4.272   0.364  0.2693 -0.4813 -0.1416
  402TMC3    C6 6058   3.545   4.245   0.427 -0.1402 -0.1198  0.1760
  402TMC3     C 6059   3.481   4.573   0.172  0.1832 -0.5597  0.6186
  402TMC3     O 6060   3.365   4.585   0.135 -0.6736  0.3312 -0.8175
  402TMC3     H 6061   3.720   4.476   0.245 -1.0473 -1.1069 -2.5703
  402TMC3    H1 6062   3.309   4.406   0.237 -0.5552  1.7443  1.4811
  402TMC3    H2 6063   3.550   4.179   0.513  0.3211  0.2306  0.4130
  402TMC3    C7 6064   3.319   4.178   0.375  0.4664  0.1383 -0.5198
  402TMC3    C8 6065   3.779   4.287   0.449 -0.2739 -0.0195  0.3221
  402TMC3    O1 6066   3.209   4.200   0.328 -0.3158  0.6521  0.4822
  402TMC3    O2 6067   3.790   4.183   0.514 -0.4374 -0.4413 -0.2822
  403MPD2     C 6068   1.831   3.221  13.125  0.1068  0.9633 -0.3886
  403MPD2    C1 6069   1.774   3.289  13.227  0.2832  0.1166  0.1496
  403MPD2    C2 6070   1.825   3.281  13.356  0.5324  0.1044 -0.2569
  403MPD2    C3 6071   1.944   3.213  13.378 -0.2232  0.0032  0.3823
  403MPD2    C4 6072   2.006   3.148  13.279 -0.4371 -0.2360 -0.4183
  403MPD2    C5 6073   1.948   3.146  13.157  0.4386 -0.4277  0.4360
  403MPD2     H 6074   1.784   3.333  13.441  0.5556 -0.5042  0.1292
  403MPD2    H1 6075   2.097   3.095  13.300  0.7462  1.3069 -1.6603
  403MPD2    H2 6076   1.785   3.219  13.027  0.3650 -2.2529 -0.4303
  403MPD2    H3 6077   2.004   3.094  13.079  1.8451 -0.4984  1.4959
  403MPD2     N 6078   1.998   3.229  13.507  0.3770  0.3539  0.9447
  403MPD2    H5 6079   1.939   3.286  13.567  0.3034 -1.1127  2.2493
  403MPD2    N1 6080   1.656   3.362  13.192 -0.0010 -0.0839  0.1441
  403MPD2    H7 6081   1.627   3.352  13.095  1.4345  3.4107 -0.6437
  404TMC3    C1 6082   1.456   3.469  13.207  0.1744 -0.0755 -0.2681
  404TMC3    C2 6083   1.346   3.412  13.267  0.1691  0.5404  0.2644
  404TMC3    C3 6084   1.278   3.318  13.187 -0.6100 -0.6262  0.0703
  404TMC3    C4 6085   1.474   3.458  13.071  0.0978 -0.2225 -0.4370
  404TMC3    C5 6086   1.385   3.394  12.989  0.3271 -0.6021 -0.2308
  404TMC3    C6 6087   1.293   3.316  13.049 -0.8721 -0.1753 -0.0267
  404TMC3     C 6088   1.573   3.432  13.280 -0.0648 -0.2181 -0.4806
  404TMC3     O 6089   1.567   3.423  13.400 -0.4244  0.4041  0.1490
  404TMC3     H 6090   1.325   3.411  13.373  1.8478 -0.5868  0.5911
  404TMC3    H1 6091   1.551   3.521  13.028  1.4713 -1.5629  0.0736
  404TMC3    H2 6092   1.242   3.239  12.992  0.5683  2.0786 -4.3560
  404TMC3    C7 6093   1.420   3.403  12.854 -0.1453  0.5788  0.1775
  404TMC3    C8 6094   1.292   3.177  13.233  0.7155 -0.6972  0.2586
  404TMC3    O1 6095   1.529   3.446  12.819 -0.8702 -0.0013 -0.1321
  404TMC3    O2 6096   1.327   3.092  13.150  0.0214 -0.2989  0.2647
  405MPD2     C 6097   2.125   3.982  15.295 -0.4996  0.0956  0.0499
  405MPD2    C1 6098   2.030   3.894  15.247 -0.1773 -0.5997 -0.3638
  405MPD2    C2 6099   1.954   3.937  15.145  0.1537  0.7013 -0.3145
  405MPD2    C3 6100   1.965   4.073  15.102  0.3972 -0.0831  0.3832
  405MPD2    C4 6101   2.067   4.153  15.142 -0.7657  0.1272 -0.4049
  405MPD2    C5 6102   2.143   4.113  15.251  0.0374  0.0504  0.0063
  405MPD2     H 6103   1.865   3.884  15.110 -0.0454  0.2173  0.9214
  405MPD2    H1 6104   2.088   4.254  15.110  0.1638 -0.2090 -0.8599
  405MPD2    H2 6105   2.191   3.954  15.377 -0.0507  2.5468  0.5255
  405MPD2    H3 6106   2.213   4.179  15.301  1.3262 -0.3720 -1.2475
  405MPD2     N 6107   1.864   4.117  15.015 -0.3720 -0.3896 -0.2092
  405MPD2    H5 6108   1.794   4.048  14.988 -0.1496  0.4874 -3.0452
  405MPD2    N1 6109   2.038   3.758  15.294  0.0026  0.4931 -0.3143
  405MPD2    H7 6110   2.124   3.729  15.339 -1.5261  0.0966  2.3544
  406TMC3    C1 6111   1.508   4.274  14.812  0.1119 -0.3042  0.4177
  406TMC3    C2 6112   1.425   4.214  14.910  0.0987 -0.0675 -0.8122
  406TMC3    C3 6113   1.491   4.157  15.020 -0.4030  0.7551  0.0582
  406TMC3    C4 6114   1.644   4.293  14.839 -0.8251  0.7586  0.5861
  406TMC3    C5 6115   1.693   4.249  14.959 -0.6008 -0.3682  0.2880
  406TMC3    C6 6116   1.616   4.178  15.050 -0.5361 -0.4880 -0.2479
  406TMC3     C 6117   1.441   4.379  14.738  0.3733 -0.1294  0.0042
  406TMC3     O 6118   1.502   4.482  14.718 -0.6166  0.5833 -0.0127
  406TMC3     H 6119   1.320   4.190  14.905  0.3045 -1.0065 -0.7454
  406TMC3    H1 6120   1.714   4.315  14.759 -1.4283  0.1592 -0.1048
  406TMC3    H2 6121   1.662   4.142  15.142  2.1214 -0.2173 -1.4549
  406TMC3    C7 6122   1.833   4.248  14.984  0.3967  0.0116  0.0442
  406TMC3    C8 6123   1.411   4.068  15.100 -0.7743 -0.1223 -0.3318
  406TMC3    O1 6124   1.888   4.362  14.984  0.3681 -0.1374  0.0086
  406TMC3    O2 6125   1.292   4.091  15.118 -0.6423 -0.1729  0.0662
  407MPD2     C 6126   4.594   0.251   9.559  0.0563 -1.0833  0.1598
  407MPD2    C1 6127   4.677   0.349   9.614 -0.2341 -0.3486  0.4062
  407MPD2    C2 6128   4.615   0.456   9.681 -0.0849  0.3875  0.7648
  407MPD2    C3 6129   4.477   0.471   9.672 -0.3367 -0.2140  0.0270
  407MPD2    C4 6130   4.399   0.382   9.594 -0.1705 -0.0460  0.6542
  407MPD2    C5 6131   4.463   0.264   9.545 -0.6203 -0.2517 -0.1021
  407MPD2     H 6132   4.673   0.536   9.725  0.7703 -0.9689  2.1010
  407MPD2    H1 6133   4.293   0.401   9.582  0.2251  1.2870 -0.7287
  407MPD2    H2 6134   4.639   0.158   9.525  0.9457 -1.5032  2.5244
  407MPD2    H3 6135   4.399   0.186   9.504 -2.3853  1.5809 -0.8241
  407MPD2     N 6136   4.406   0.576   9.745 -0.2475 -0.5878 -0.4970
  407MPD2    H5 6137   4.308   0.597   9.734 -0.5477 -2.1147 -0.8280
  407MPD2    N1 6138   0.079   0.349   9.612 -0.4230 -0.3661 -0.1784
  407MPD2    H7 6139   0.128   0.421   9.665 -1.3580 -0.1289  0.3611
  408TMC3    C1 6140   0.297   0.305   9.544 -0.7943 -0.8078  0.1530
  408TMC3    C2 6141   0.384   0.211   9.508 -0.6002  0.7062 -0.0026
  408TMC3    C3 6142   0.502   0.257   9.464 -0.5166 -0.0417  0.1095
  408TMC3    C4 6143   0.326   0.440   9.549  0.0847 -0.2597  0.1137
  408TMC3    C5 6144   0.450   0.483   9.516 -0.3211  0.2972  0.1768
  408TMC3    C6 6145   0.536   0.392   9.460  0.6766  0.3245 -0.3275
  408TMC3     C 6146   0.163   0.257   9.549 -0.0198  0.0704  0.6333
  408TMC3     O 6147   0.133   0.151   9.501 -0.3746 -0.4000 -0.0813
  408TMC3     H 6148   0.363   0.105   9.518  2.4166 -0.0854 -1.8894
  408TMC3    H1 6149   0.261   0.512   9.598 -0.5329 -0.1364 -0.8879
  408TMC3    H2 6150   0.626   0.422   9.408  1.7455  0.0288  1.3354
  408TMC3    C7 6151   0.489   0.624   9.499 -0.0286 -0.3585 -0.4944
  408TMC3    C8 6152   0.611   0.157   9.448 -0.3544 -0.4991 -0.4316
  408TMC3    O1 6153   0.611   0.637   9.483 -0.1706 -0.0898 -0.4809
  408TMC3    O2 6154   0.570   0.043   9.433  0.1156  0.5294 -0.4494
  409MPD2     C 6155   3.519   1.413  16.925 -0.3085 -0.2672 -0.5256
  409MPD2    C1 6156   3.606   1.397  17.033 -0.5175  0.6709 -0.2333
  409MPD2    C2 6157   3.700   1.493  17.051 -0.0979  0.2901  0.0935
  409MPD2    C3 6158   3.733   1.584  16.954  0.0599 -0.3440  0.6168
  409MPD2    C4 6159   3.645   1.601  16.843 -0.8606 -0.5896 -0.6158
  409MPD2    C5 6160   3.537   1.512  16.838 -0.0134  0.2119  0.4080
  409MPD2     H 6161   3.759   1.491  17.141  0.7915 -1.2320 -0.5339
  409MPD2    H1 6162   3.659   1.668  16.758  0.8165  0.4716  0.5019
  409MPD2    H2 6163   3.441   1.338  16.912 -0.3419 -0.7310  2.2276
  409MPD2    H3 6164   3.480   1.502  16.746  3.6143 -0.6147 -1.7401
  409MPD2     N 6165   3.848   1.668  16.962  0.4995  0.7209  0.0635
  409MPD2    H5 6166   3.850   1.742  16.892 -0.1193 -0.8475 -1.6051
  409MPD2    N1 6167   3.609   1.289  17.122  0.4496 -0.6456  0.0482
  409MPD2    H7 6168   3.678   1.292  17.197 -0.7478  0.1502  1.1160
  410TMC3    C1 6169   4.034   1.779  17.058  0.0960 -0.0706  0.6624
  410TMC3    C2 6170   4.081   1.815  17.177  0.1394 -0.3978 -0.5736
  410TMC3    C3 6171   4.203   1.870  17.173 -0.1971 -0.0145 -0.2829
  410TMC3    C4 6172   4.096   1.794  16.944 -0.2024 -0.0565 -0.5819
  410TMC3    C5 6173   4.217   1.853  16.944 -0.1677 -0.1504 -0.1675
  410TMC3    C6 6174   4.277   1.883  17.059 -0.3178  0.2201 -0.0315
  410TMC3     C 6175   3.937   1.668  17.070  0.5224  0.3783 -0.0270
  410TMC3     O 6176   3.937   1.606  17.179 -0.1152  0.1799  0.3937
  410TMC3     H 6177   4.042   1.790  17.275 -0.1159  1.7573 -0.1363
  410TMC3    H1 6178   4.051   1.759  16.851  1.9498 -1.6051 -1.0344
  410TMC3    H2 6179   4.379   1.919  17.057 -0.0648 -0.3263  2.5676
  410TMC3    C7 6180   4.306   1.856  16.827  0.5073  0.6421 -0.3608
  410TMC3    C8 6181   4.285   1.884  17.299 -0.2621  0.0907  0.5823
  410TMC3    O1 6182   4.290   1.771  16.743 -0.0116  0.9871  0.3130
  410TMC3    O2 6183   4.331   1.995  17.324 -0.4387  0.3017 -0.7216
  411MPD2     C 6184   4.045   1.908  14.715  0.8680  0.2416  0.1637
  411MPD2    C1 6185   3.979   1.914  14.590  0.0856  0.4017 -0.2373
  411MPD2    C2 6186   3.940   1.803  14.526 -0.7232  0.7928  0.2594
  411MPD2    C3 6187   3.956   1.679  14.592  0.1023 -0.4526 -0.0775
  411MPD2    C4 6188   4.007   1.673  14.723 -0.3945  0.3810  0.7855
  411MPD2    C5 6189   4.051   1.785  14.783 -0.1259 -0.0857  0.7069
  411MPD2     H 6190   3.888   1.810  14.431  0.6473  0.6156 -0.5043
  411MPD2    H1 6191   4.030   1.580  14.772 -0.4711 -0.4853 -0.8082
  411MPD2    H2 6192   4.092   1.995  14.759  2.3620 -0.4425 -0.0565
  411MPD2    H3 6193   4.103   1.780  14.878  1.2840  1.1333  0.0101
  411MPD2     N 6194   3.927   1.553  14.539 -0.4057 -0.0901 -0.0568
  411MPD2    H5 6195   3.950   1.477  14.602 -2.5783 -0.1467  0.6670
  411MPD2    N1 6196   3.957   2.047  14.540  0.0469 -0.6585  0.2138
  411MPD2    H7 6197   3.998   2.113  14.606  0.1568  1.0909 -1.6204
  412TMC3    C1 6198   3.895   1.399  14.374  0.3978  0.3534 -0.0514
  412TMC3    C2 6199   3.823   1.367  14.260  0.2124 -0.4501 -0.4824
  412TMC3    C3 6200   3.875   1.290  14.161  0.0542  0.2401 -0.4201
  412TMC3    C4 6201   4.029   1.366  14.380 -0.0831 -0.1481 -0.1239
  412TMC3    C5 6202   4.087   1.309  14.266  0.0547  0.1092  0.0103
  412TMC3    C6 6203   4.006   1.257  14.165 -0.2615 -0.5955 -0.4577
  412TMC3     C 6204   3.873   1.529  14.419 -0.5020  0.0589  0.3098
  412TMC3     O 6205   3.837   1.611  14.337 -0.1867 -0.2339  0.2193
  412TMC3     H 6206   3.727   1.413  14.237  0.1887  0.3858  1.2827
  412TMC3    H1 6207   4.090   1.402  14.461  3.6283  0.9465 -3.4054
  412TMC3    H2 6208   4.049   1.198  14.085  3.4817 -0.5832  1.5757
  412TMC3    C7 6209   4.189   1.389  14.200  0.6348  0.0042 -0.4814
  412TMC3    C8 6210   3.829   1.314  14.028 -0.1963 -0.2231  0.3737
  412TMC3    O1 6211   4.206   1.357  14.083  0.0430 -0.8482 -0.9733
  412TMC3    O2 6212   3.708   1.318  14.005  0.1413 -0.5501 -0.6773
  413MPD2     C 6213   0.827   0.015  14.746  0.6270  0.0496 -0.2301
  413MPD2    C1 6214   0.908   0.120  14.749  0.2089  0.3050  0.0628
  413MPD2    C2 6215   1.038   0.106  14.803  0.5037 -1.0485  0.4202
  413MPD2    C3 6216   1.081   4.724  14.850 -0.4365  0.6266 -0.2750
  413MPD2    C4 6217   0.988   4.619  14.853  0.1482 -0.2585 -0.2234
  413MPD2    C5 6218   0.866   4.636  14.802 -0.1978 -0.0879 -0.2483
  413MPD2     H 6219   1.099   0.195  14.810 -2.7486  1.2738 -0.7634
  413MPD2    H1 6220   1.015   4.520  14.886 -0.5232 -0.5353 -0.4960
  413MPD2    H2 6221   0.731   0.027  14.699  0.3477 -0.5565  0.1926
  413MPD2    H3 6222   0.797   4.552  14.798 -1.9938  1.2991  1.3316
  413MPD2     N 6223   1.210   4.703  14.916  0.0582  0.9198  0.1278
  413MPD2    H5 6224   1.270   0.046  14.918 -0.3840  1.1665  3.5157
  413MPD2    N1 6225   0.854   0.242  14.700 -0.0627  0.1410  0.2771
  413MPD2    H7 6226   0.767   0.235  14.648  1.6564 -1.9743 -2.3059
  414TMC3    C1 6227   1.391   4.616  15.031  0.0529  0.4406  0.6134
  414TMC3    C2 6228   1.422   4.545  15.138  0.2646  0.4904 -0.1483
  414TMC3    C3 6229   1.548   4.514  15.181  0.8874 -0.2716 -0.3590
  414TMC3    C4 6230   1.492   4.677  14.958 -0.0786  0.3432 -0.6177
  414TMC3    C5 6231   1.621   4.645  15.006 -0.0458 -0.9566  0.6997
  414TMC3    C6 6232   1.652   4.568  15.116 -0.6631 -0.0461  0.3900
  414TMC3     C 6233   1.253   4.600  14.987 -0.1064 -0.3149 -0.3400
  414TMC3     O 6234   1.197   4.493  15.021 -0.1274  0.2048  0.0320
  414TMC3     H 6235   1.337   4.500  15.187 -1.6090  0.3294 -3.5726
  414TMC3    H1 6236   1.471   4.729  14.865 -1.1325  2.2901  0.7096
  414TMC3    H2 6237   1.756   4.558  15.146 -0.3286  0.2415 -0.6581
  414TMC3    C7 6238   1.736   4.705  14.941 -0.2248 -0.1744  0.9226
  414TMC3    C8 6239   1.558   4.428  15.291  0.2641  0.6429 -0.6857
  414TMC3    O1 6240   1.842   4.709  15.000 -0.2318 -0.2759 -0.0306
  414TMC3    O2 6241   1.453   4.405  15.357 -0.1928  0.1202  0.2153
  415TMC3    C1 6242   1.487   3.266   9.759 -0.1497 -0.2529 -1.1152
  415TMC3    C2 6243   1.588   3.333   9.694 -0.4600 -0.2666  0.0868
  415TMC3    C3 6244   1.575   3.345   9.559  0.1181 -0.1294 -0.4534
  415TMC3    C4 6245   1.382   3.206   9.693 -0.4375  0.1583  0.2999
  415TMC3    C5 6246   1.375   3.219   9.556  0.0029  0.3174  0.0893
  415TMC3    C6 6247   1.470   3.286   9.489 -0.3436  0.0799  0.6366
  415TMC3     C 6248   1.494   3.246   9.897 -0.0057 -0.2546 -0.5590
  415TMC3     O 6249   1.387   3.199   9.937  0.4466  0.1548 -0.3408
  415TMC3     H 6250   1.681   3.366   9.739 -0.3138  0.9946 -1.1415
  415TMC3    H1 6251   1.298   3.156   9.742  0.7576 -0.4862  1.7109
  415TMC3    H2 6252   1.447   3.289   9.383  1.0633  0.9543  0.3577
  415TMC3    C7 6253   1.310   3.113   9.478  0.5257 -0.5778 -0.2588
  415TMC3    C8 6254   1.685   3.395   9.472  0.1063  0.1628 -0.2016
  415TMC3    O1 6255   1.288   3.138   9.361 -0.1202  0.3249 -0.2587
  415TMC3    O2 6256   1.678   3.350   9.364 -0.0191 -0.6391 -0.0024
  416MPD2     C 6257   3.717   2.198  11.355  0.1915  0.5371 -0.0357
  416MPD2    C1 6258   3.602   2.129  11.389  0.2945  0.2433 -0.2017
  416MPD2    C2 6259   3.593   2.000  11.350  0.0606 -0.2339 -0.4497
  416MPD2    C3 6260   3.685   1.939  11.261 -1.1459 -0.4321 -0.0436
  416MPD2    C4 6261   3.798   2.011  11.227  0.5765  0.7409 -0.0251
  416MPD2    C5 6262   3.817   2.137  11.284  0.0206  0.2008  0.1516
  416MPD2     H 6263   3.511   1.937  11.385  2.5100 -1.8569  2.3040
  416MPD2    H1 6264   3.876   1.966  11.167  1.2942  2.4417 -0.3747
  416MPD2    H2 6265   3.733   2.304  11.375 -1.9483  1.1151 -1.4376
  416MPD2    H3 6266   3.905   2.196  11.259  0.5804 -0.2810  1.0109
  416MPD2     N 6267   3.653   1.817  11.210  0.5949 -0.2403  0.3900
  416MPD2    H5 6268   3.567   1.773  11.241  0.6369 -1.8235 -1.7768
  416MPD2    N1 6269   3.512   2.193  11.478 -0.2561 -0.4332 -0.3085
  416MPD2    H7 6270   3.536   2.291  11.489  1.1145 -0.9455  1.2272
  417TMC3    C1 6271   3.299   2.254  11.555  0.5340  0.2504 -0.0176
  417TMC3    C2 6272   3.343   2.311  11.672 -0.6083 -0.8668 -0.2821
  417TMC3    C3 6273   3.249   2.392  11.727  0.3274  0.6326 -0.1272
  417TMC3    C4 6274   3.172   2.252  11.504  0.0256 -0.3695  0.3197
  417TMC3    C5 6275   3.078   2.319  11.575 -0.1807  0.6330 -0.1212
  417TMC3    C6 6276   3.116   2.391  11.688  0.0069 -0.1282  0.0436
  417TMC3     C 6277   3.382   2.151  11.497 -0.5620 -0.0627 -0.2278
  417TMC3     O 6278   3.318   2.058  11.450 -0.5103 -0.4218 -0.2068
  417TMC3     H 6279   3.434   2.278  11.720 -0.1226  0.6367 -0.1876
  417TMC3    H1 6280   3.149   2.193  11.416 -2.0619  0.1805  0.4972
  417TMC3    H2 6281   3.038   2.447  11.736 -0.8580  0.7506 -2.3643
  417TMC3    C7 6282   2.967   2.376  11.506 -0.2302  0.2889  0.0752
  417TMC3    C8 6283   3.262   2.403  11.877  0.6129 -0.2376  0.2068
  417TMC3    O1 6284   2.941   2.498  11.510  0.5537 -0.4462 -0.1639
  417TMC3    O2 6285   3.159   2.378  11.938 -0.6690  0.0113 -0.6491
  418TMC3    C1 6286   2.343   3.920   0.073 -1.3668  0.1571 -0.7838
  418TMC3    C2 6287   2.213   3.954   0.053 -0.6816 -0.2606  0.0613
  418TMC3    C3 6288   2.123   3.915   0.143  0.1900 -1.0164  0.4269
  418TMC3    C4 6289   2.383   3.844   0.180 -0.0087  0.3538  0.3473
  418TMC3    C5 6290   2.285   3.798   0.257 -0.5901  0.2564 -0.2182
  418TMC3    C6 6291   2.158   3.839   0.250 -0.3447 -0.3372 -0.2447
  418TMC3     C 6292   2.432   3.950  17.720  0.2064  0.1076 -0.9899
  418TMC3     O 6293   2.425   4.057  17.664  0.1478 -0.1580  0.1859
  418TMC3     H 6294   2.183   4.000  17.714  1.7982  1.0288 -0.1006
  418TMC3    H1 6295   2.485   3.811   0.191 -0.3707 -1.6460 -2.1585
  418TMC3    H2 6296   2.082   3.793   0.311 -0.2177  1.3488  1.1635
  418TMC3    C7 6297   2.307   3.680   0.334 -0.3083  0.0811 -0.2679
  418TMC3    C8 6298   1.979   3.945   0.133  0.2667 -0.3375  0.3428
  418TMC3    O1 6299   2.218   3.598   0.332  0.4078  0.5566  0.1233
  418TMC3    O2 6300   1.927   4.003   0.231 -0.3067  0.5046  0.6114
  419MPD2     C 6301   0.317   1.551  12.307 -0.3910  1.2338 -0.2260
  419MPD2    C1 6302   0.285   1.682  12.288  0.3624 -0.3519 -0.4367
  419MPD2    C2 6303   0.198   1.741  12.383  0.0507 -0.6975  0.2945
  419MPD2    C3 6304   0.143   1.687  12.497  0.3695  0.0150  0.4978
  419MPD2    C4 6305   0.168   1.548  12.508 -0.6006 -0.5312 -0.1065
  419MPD2    C5 6306   0.253   1.487  12.415 -0.2769  0.3399  0.2273
  419MPD2     H 6307   0.180   1.844  12.353 -0.7259 -0.4292  1.6979
  419MPD2    H1 6308   0.117   1.484  12.579 -0.5382  0.5047  0.8698
  419MPD2    H2 6309   0.397   1.506  12.250  0.1679 -0.3432  1.8083
  419MPD2    H3 6310   0.269   1.384  12.444  2.1819  1.0874  1.5387
  419MPD2     N 6311   0.059   1.750  12.592 -0.2567 -0.0439  0.2352
  419MPD2    H5 6312   0.045   1.697  12.678  4.1353 -0.4176  0.7369
  419MPD2    N1 6313   0.349   1.770  12.200 -0.5165 -0.1135 -0.4859
  419MPD2    H7 6314   0.338   1.871  12.212 -0.8747 -0.0926 -0.9444
  420TMC3    C1 6315   4.721   1.941  12.707  0.2985 -0.3005  0.5995
  420TMC3    C2 6316   4.659   2.059  12.665 -0.0411 -0.4233 -0.0670
  420TMC3    C3 6317   4.682   2.171  12.730 -0.0406 -0.3553 -0.3438
  420TMC3    C4 6318   0.068   1.938  12.819  0.3908  0.6922 -0.3202
  420TMC3    C5 6319   0.081   2.058  12.878 -0.1137  0.0289 -0.2347
  420TMC3    C6 6320   0.035   2.178  12.832 -0.6695  0.4089 -0.5537
  420TMC3     C 6321   0.030   1.882  12.589 -0.1275 -0.1474 -0.2484
  420TMC3     O 6322   0.035   1.955  12.490 -0.1429 -0.0050  0.2308
  420TMC3     H 6323   4.590   2.055  12.582 -0.6939 -0.5757  0.4873
  420TMC3    H1 6324   0.128   1.851  12.846  1.2961  0.8168 -1.9184
  420TMC3    H2 6325   0.074   2.275  12.862  0.4141 -0.3535  0.5077
  420TMC3    C7 6326   0.148   2.055  13.004 -0.7062 -0.4255  0.2155
  420TMC3    C8 6327   4.650   2.302  12.667  0.0904 -0.0082 -0.6224
  420TMC3    O1 6328   0.212   1.953  13.030 -0.4969 -0.4734  0.2609
  420TMC3    O2 6329   4.738   2.385  12.683  0.3705  0.6516  0.8896
  421TMC3    C1 6330   2.114   3.146  13.702  0.3335 -0.0947  0.1736
  421TMC3    C2 6331   2.015   3.187  13.788  0.6766  0.4261 -0.0258
  421TMC3    C3 6332   2.049   3.187  13.925 -0.0532 -0.4737 -0.3468
  421TMC3    C4 6333   2.240   3.102  13.748  0.3131  0.6573 -0.5808
  421TMC3    C5 6334   2.258   3.088  13.886  0.1909  0.0329 -0.5538
  421TMC3    C6 6335   2.165   3.136  13.978 -0.8772  0.6874 -0.1289
  421TMC3     C 6336   2.109   3.164  13.553 -0.4025 -0.0753 -0.2271
  421TMC3     O 6337   2.192   3.104  13.487 -0.4156  0.1126  0.1891
  421TMC3     H 6338   1.914   3.208  13.754 -0.8396 -1.5844  3.3434
  421TMC3    H1 6339   2.313   3.058  13.681  0.2672  0.0119 -0.2157
  421TMC3    H2 6340   2.195   3.149  14.081 -0.3056  1.2166 -0.3586
  421TMC3    C7 6341   2.388   3.062  13.933 -0.4440 -0.3324 -0.2542
  421TMC3    C8 6342   1.962   3.246  14.024 -0.3970  0.9200 -0.7105
  421TMC3    O1 6343   2.422   3.133  14.026  0.6416  0.0528  0.7757
  421TMC3    O2 6344   2.009   3.253  14.141 -0.0361 -0.0924  0.2516
  422TMC3    C1 6345   4.134   0.488  12.481 -0.6300  0.2277  0.0238
  422TMC3    C2 6346   4.198   0.500  12.598 -0.1178  0.2663 -0.6131
  422TMC3    C3 6347   4.122   0.496  12.711 -0.1550 -0.5543  0.0288
  422TMC3    C4 6348   4.002   0.452  12.477 -0.0021 -0.4213  0.1371
  422TMC3    C5 6349   3.936   0.423  12.596  0.7180  0.3855  0.2018
  422TMC3    C6 6350   3.998   0.444  12.716  0.0379 -0.3560  0.6848
  422TMC3     C 6351   4.197   0.568  12.376  0.1459  0.4422 -0.2531
  422TMC3     O 6352   4.319   0.563  12.377 -0.5364  0.3692  0.2303
  422TMC3     H 6353   4.298   0.542  12.606  0.0321 -0.0618 -0.7440
  422TMC3    H1 6354   3.947   0.452  12.383  2.3855 -0.6270 -1.2469
  422TMC3    H2 6355   3.942   0.431  12.808 -0.1462 -2.2241  0.3081
  422TMC3    C7 6356   3.815   0.342  12.597 -0.2016 -0.1686  0.5927
  422TMC3    C8 6357   4.179   0.571  12.828  1.3625 -0.8158 -0.0151
  422TMC3    O1 6358   3.795   0.264  12.686  0.1599 -0.0039 -0.1434
  422TMC3    O2 6359   4.290   0.622  12.815  0.3417  0.2350 -0.6704
  423MPD2     C 6360   1.141   1.430   0.547  0.2715  0.4429 -0.1139
  423MPD2    C1 6361   1.194   1.304   0.571 -0.8569  0.4348 -0.8586
  423MPD2    C2 6362   1.215   1.220   0.457  0.0740 -0.5943  0.2417
  423MPD2    C3 6363   1.189   1.261   0.325 -0.7892 -0.0181 -0.1068
  423MPD2    C4 6364   1.147   1.390   0.313  0.0763  0.7288  0.1348
  423MPD2    C5 6365   1.119   1.472   0.420  0.0472  0.1995 -0.5834
  423MPD2     H 6366   1.268   1.126   0.472  2.1834  0.1766 -2.3055
  423MPD2    H1 6367   1.124   1.443   0.221 -2.3085  1.5773  1.2351
  423MPD2    H2 6368   1.118   1.500   0.626 -1.5864  1.5171 -1.6123
  423MPD2    H3 6369   1.079   1.571   0.405 -0.8634 -0.0896 -0.0824
  423MPD2     N 6370   1.221   1.188   0.208 -0.0717  0.0804 -0.3910
  423MPD2    H5 6371   1.206   1.229   0.116 -0.8192  0.1469 -0.2335
  423MPD2    N1 6372   1.237   1.255   0.694 -0.1220 -0.7783 -0.1457
  423MPD2    H7 6373   1.271   1.159   0.700  0.4015 -0.6107 -0.4665
  424TMC3    C1 6374   1.251   1.219   0.919  1.2123  0.5098 -1.2486
  424TMC3    C2 6375   1.362   1.136   0.885 -0.1310 -0.2023 -0.2229
  424TMC3    C3 6376   1.394   1.039   0.972  0.2584  0.4357 -0.0736
  424TMC3    C4 6377   1.171   1.194   1.021  0.0684  0.6401 -0.7981
  424TMC3    C5 6378   1.201   1.091   1.104  0.2664  0.2168  0.2318
  424TMC3    C6 6379   1.314   1.015   1.078  0.4884  0.1532  0.2569
  424TMC3     C 6380   1.207   1.305   0.816  0.4118  0.3246 -0.0431
  424TMC3     O 6381   1.145   1.403   0.848  0.8281  0.4024  0.4305
  424TMC3     H 6382   1.429   1.170   0.807  1.0761  0.2083  0.9883
  424TMC3    H1 6383   1.078   1.249   1.030  1.1781  2.5708 -1.2614
  424TMC3    H2 6384   1.347   0.940   1.149  1.9734 -1.2985 -1.9743
  424TMC3    C7 6385   1.107   1.037   1.203 -0.0835 -1.7649  0.3649
  424TMC3    C8 6386   1.503   0.940   0.944  0.2691 -0.5491  0.6560
  424TMC3    O1 6387   1.159   0.967   1.290 -0.9889 -0.0523 -0.0722
  424TMC3    O2 6388   1.491   0.826   0.994  0.3007  0.1393  1.1790
  425MPD2     C 6389   4.386   0.449  17.543 -0.2210 -0.2069  0.5486
  425MPD2    C1 6390   4.323   0.340  17.486  0.2575  0.2020  0.1668
  425MPD2    C2 6391   4.186   0.340  17.469 -0.9622 -0.2957 -0.5656
  425MPD2    C3 6392   4.112   0.443  17.518 -0.2053 -0.0626 -0.8382
  425MPD2    C4 6393   4.171   0.549  17.586  0.3141 -0.2503  0.1102
  425MPD2    C5 6394   4.309   0.547  17.601 -0.0329 -0.4674 -0.1555
  425MPD2     H 6395   4.138   0.257  17.419 -0.0144  0.1328 -2.1942
  425MPD2    H1 6396   4.121   0.640  17.618  0.4941  0.3870 -1.3906
  425MPD2    H2 6397   4.494   0.445  17.555  0.0044 -0.7535 -1.6648
  425MPD2    H3 6398   4.362   0.627  17.652 -1.5840 -0.5436  1.5663
  425MPD2     N 6399   3.978   0.438  17.491 -0.4964 -0.5699 -0.1885
  425MPD2    H5 6400   3.956   0.366  17.424 -2.8563  0.1468 -0.2224
  425MPD2    N1 6401   4.408   0.241  17.427 -0.0989  0.0422  0.0017
  425MPD2    H7 6402   4.508   0.256  17.440 -0.0359  0.1036 -0.5307
  426TMC3    C1 6403   4.478   0.040  17.330  0.2937  0.1335  0.0633
  426TMC3    C2 6404   4.556   0.096  17.235  0.5944 -0.4210  0.1152
  426TMC3    C3 6405   4.610   0.016  17.138  0.2663 -0.2433 -0.1657
  426TMC3    C4 6406   4.443   4.643  17.314 -0.2474  0.2287  0.4504
  426TMC3    C5 6407   4.503   4.563  17.213  0.7546  0.2949  1.1987
  426TMC3    C6 6408   4.589   4.621  17.123 -0.2060 -0.8703 -0.2930
  426TMC3     C 6409   4.368   0.121  17.371  1.3312 -0.0406 -0.2875
  426TMC3     O 6410   4.261   0.072  17.341  0.1760 -0.4002  0.1238
  426TMC3     H 6411   4.564   0.204  17.236 -1.4941 -0.2606  0.7281
  426TMC3    H1 6412   4.374   4.596  17.384 -0.2715 -1.3288 -0.6126
  426TMC3    H2 6413   4.652   4.555  17.065 -0.9930 -0.4285 -1.6728
  426TMC3    C7 6414   4.471   4.421  17.206  0.1740  0.5158  0.1972
  426TMC3    C8 6415   4.677   0.083  17.030 -0.1522 -0.0608  0.3839
  426TMC3    O1 6416   4.511   4.363  17.105  0.3665  0.6647  0.2608
  426TMC3    O2 6417   0.004   0.178  17.065 -0.2226 -0.6830 -0.1826
  427MPD2     C 6418   2.671   1.840  14.567 -0.3014  0.6843  0.1567
  427MPD2    C1 6419   2.793   1.902  14.565  0.2392 -0.9245 -0.7087
  427MPD2    C2 6420   2.806   2.038  14.543 -0.1154  0.5087  0.4660
  427MPD2    C3 6421   2.690   2.111  14.527 -0.0805  0.5686 -0.1271
  427MPD2    C4 6422   2.566   2.047  14.550  0.2497  0.9134  0.4332
  427MPD2    C5 6423   2.559   1.909  14.562  0.1174  0.6502 -0.6623
  427MPD2     H 6424   2.903   2.086  14.543  1.2863 -2.4136 -1.3279
  427MPD2    H1 6425   2.473   2.102  14.559 -0.5052  0.0922 -2.3514
  427MPD2    H2 6426   2.659   1.734  14.586 -1.2732  0.9561  1.0677
  427MPD2    H3 6427   2.465   1.857  14.563  1.1811 -1.3314 -3.0160
  427MPD2     N 6428   2.693   2.258  14.527  0.6117  0.1838  0.1469
  427MPD2    H5 6429   2.599   2.295  14.539  0.7865  0.3417  1.0321
  427MPD2    N1 6430   2.918   1.832  14.581  0.2160  0.4363 -0.8020
  427MPD2    H7 6431   3.008   1.878  14.580 -0.8630  2.5946  0.1145
  428TMC3    C1 6432   3.054   1.644  14.644 -0.5319  0.2564 -0.1236
  428TMC3    C2 6433   3.083   1.509  14.629  0.6138  0.8987 -0.4182
  428TMC3    C3 6434   3.165   1.448  14.717 -0.2043 -0.1380  0.1696
  428TMC3    C4 6435   3.121   1.724  14.736  0.6322 -0.1714 -0.2380
  428TMC3    C5 6436   3.208   1.665  14.816 -0.1719 -0.2473  0.6335
  428TMC3    C6 6437   3.232   1.526  14.812 -1.3258 -0.2286 -0.1702
  428TMC3     C 6438   2.928   1.691  14.583  0.5396 -0.4709 -0.0963
  428TMC3     O 6439   2.838   1.610  14.564 -0.3308  0.4400  0.0019
  428TMC3     H 6440   3.028   1.447  14.559 -1.9735  0.8472  1.6341
  428TMC3    H1 6441   3.103   1.831  14.742 -1.2203 -0.3318 -2.7928
  428TMC3    H2 6442   3.303   1.490  14.885 -2.1793  0.8548  1.1882
  428TMC3    C7 6443   3.244   1.730  14.936  0.4261  0.0222  0.2039
  428TMC3    C8 6444   3.207   1.311  14.702  0.8543  0.2653 -0.1578
  428TMC3    O1 6445   3.273   1.850  14.925 -0.0858  0.1276 -0.0655
  428TMC3    O2 6446   3.283   1.266  14.787 -0.5616  0.7111 -0.1311
  429MPD2     C 6447   4.010   2.266   0.031 -0.1338 -0.2921 -0.8100
  429MPD2    C1 6448   4.131   2.213   0.080  0.4132  0.1273  0.7512
  429MPD2    C2 6449   4.253   2.283   0.053 -0.5933  0.2295  0.2590
  429MPD2    C3 6450   4.243   2.408  17.742 -0.0568  0.4440  0.2885
  429MPD2    C4 6451   4.123   2.464  17.708  0.6064 -0.3730 -0.4204
  429MPD2    C5 6452   4.006   2.390  17.731  0.6111  0.0977 -0.8977
  429MPD2     H 6453   4.348   2.243   0.087 -1.1346 -2.5586 -1.5444
  429MPD2    H1 6454   4.107   2.566  17.677  3.2319  0.1919  0.0299
  429MPD2    H2 6455   3.918   2.212   0.045 -0.2179 -0.0315 -0.3640
  429MPD2    H3 6456   3.912   2.441  17.719 -0.5481 -1.9750 -0.5770
  429MPD2     N 6457   4.358   2.487  17.720 -0.0359  0.0219  0.2017
  429MPD2    H5 6458   4.440   2.442   0.005 -0.3407  0.1822  1.0294
  429MPD2    N1 6459   4.129   2.082   0.129 -0.0245  0.2372  0.2299
  429MPD2    H7 6460   4.039   2.037   0.115  0.3788 -1.0201  1.6301
  430TMC3    C1 6461   4.516   2.595  17.589  0.4880  0.3218 -0.3995
  430TMC3    C2 6462   4.565   2.720  17.547 -0.1766 -0.4846 -0.2956
  430TMC3    C3 6463   4.662   2.715  17.453 -0.0110 -0.2256  0.2497
  430TMC3    C4 6464   4.575   2.481  17.554  0.5055 -0.4259  0.5657
  430TMC3    C5 6465   4.672   2.484  17.463 -0.5803  0.0647 -0.2970
  430TMC3    C6 6466   4.715   2.601  17.402 -0.6267  0.0296  0.0261
  430TMC3     C 6467   4.377   2.581  17.617  0.2353  0.0510 -0.5694
  430TMC3     O 6468   4.301   2.637  17.537  0.1651 -0.0078 -0.7897
  430TMC3     H 6469   4.504   2.808  17.563  1.9289  1.0544 -0.6151
  430TMC3    H1 6470   4.544   2.381  17.585  2.9751 -1.5783 -0.6468
  430TMC3    H2 6471   0.068   2.605  17.346  0.9421  1.6336  2.7471
  430TMC3    C7 6472   4.684   2.354  17.396  0.4549 -0.0350  0.4597
  430TMC3    C8 6473   4.663   2.830  17.370  0.7663  0.1028 -0.1559
  430TMC3    O1 6474   4.705   2.262  17.472 -0.0857  0.5798  0.1232
  430TMC3    O2 6475   4.658   2.942  17.421 -0.4017  0.0038  0.2530
  431MPD2     C 6476   0.609   2.527  12.454  0.5015 -0.2990 -0.0926
  431MPD2    C1 6477   0.653   2.530  12.329 -0.2676  0.1210 -0.4018
  431MPD2    C2 6478   0.637   2.423  12.242  0.3641  0.0483 -0.4052
  431MPD2    C3 6479   0.582   2.309  12.290  0.4738  0.4965 -0.5563
  431MPD2    C4 6480   0.539   2.302  12.416  0.5230 -0.0479 -0.2566
  431MPD2    C5 6481   0.544   2.414  12.494 -0.9323 -0.0653  0.3645
  431MPD2     H 6482   0.657   2.431  12.136 -0.2212  1.1717 -0.4243
  431MPD2    H1 6483   0.495   2.210  12.453  0.0194 -0.3953 -1.7275
  431MPD2    H2 6484   0.626   2.606  12.526 -0.7240 -0.6728  0.6216
  431MPD2    H3 6485   0.507   2.407  12.595  3.1312  2.8112  2.0570
  431MPD2     N 6486   0.552   2.193  12.207 -0.0599 -0.2756  0.0288
  431MPD2    H5 6487   0.493   2.126  12.255 -1.4986 -1.7932 -3.8728
  431MPD2    N1 6488   0.727   2.642  12.280 -0.4007  0.7172 -0.0317
  431MPD2    H7 6489   0.775   2.637  12.190  0.9397  1.2816  0.6556
  432TMC3    C1 6490   0.540   2.058  12.003  0.2620 -0.3107  0.3429
  432TMC3    C2 6491   0.591   2.049  11.876  0.3453  0.1460  0.7277
  432TMC3    C3 6492   0.573   1.927  11.812 -0.2510 -0.1475  0.2276
  432TMC3    C4 6493   0.463   1.966  12.060  0.7470  0.0054  0.2752
  432TMC3    C5 6494   0.461   1.839  12.001 -0.3997 -0.4346 -0.7351
  432TMC3    C6 6495   0.514   1.818  11.882  0.4108 -0.1741 -0.2979
  432TMC3     C 6496   0.574   2.183  12.070 -0.0234 -0.2489  1.1409
  432TMC3     O 6497   0.644   2.255  12.000  0.3596 -0.4870 -0.3695
  432TMC3     H 6498   0.623   2.139  11.825 -0.4713  0.3615  0.5949
  432TMC3    H1 6499   0.419   1.978  12.158 -1.2157 -2.8724 -0.2480
  432TMC3    H2 6500   0.524   1.722  11.834  1.0551 -0.6488  0.7986
  432TMC3    C7 6501   0.417   1.733  12.088 -0.6585  0.4166 -0.3057
  432TMC3    C8 6502   0.647   1.904  11.683 -0.8693  0.7088 -0.0432
  432TMC3    O1 6503   0.435   1.620  12.047 -0.2078  0.2555  0.4424
  432TMC3    O2 6504   0.627   1.808  11.613 -0.3238 -0.5471  0.1222
  433MPD2     C 6505   4.251   1.127  10.764  0.4487 -0.5613  0.1832
  433MPD2    C1 6506   4.229   1.021  10.842  0.2726 -0.4303  0.0626
  433MPD2    C2 6507   4.238   1.032  10.984  0.4200 -0.0079 -0.3050
  433MPD2    C3 6508   4.283   1.147  11.038  0.0104 -0.2606 -0.3178
  433MPD2    C4 6509   4.307   1.254  10.955  0.2380 -0.0962  0.5144
  433MPD2    C5 6510   4.278   1.245  10.821  0.1369  0.1348  0.2512
  433MPD2     H 6511   4.242   0.944  11.047  1.4721  0.6981  0.6252
  433MPD2    H1 6512   4.340   1.349  10.996 -0.4041  0.9113 -1.2961
  433MPD2    H2 6513   4.243   1.129  10.655  1.1379 -0.3277  0.1322
  433MPD2    H3 6514   4.301   1.331  10.759  1.7090 -0.5061 -0.0618
  433MPD2     N 6515   4.283   1.159  11.177  0.1395 -0.6583 -0.0263
  433MPD2    H5 6516   4.267   1.075  11.231 -1.8194 -1.1448 -1.3811
  433MPD2    N1 6517   4.210   0.901  10.774  0.2387 -0.2683  0.0534
  433MPD2    H7 6518   4.214   0.918  10.674  0.5044 -0.2074  0.0718
  434TMC3    C1 6519   4.143   0.683  10.747  0.9229  0.5463  0.3665
  434TMC3    C2 6520   4.181   0.565  10.806 -0.1346 -0.3841 -0.1930
  434TMC3    C3 6521   4.234   0.468  10.723  0.2644  0.4397  0.0536
  434TMC3    C4 6522   4.149   0.698  10.611 -0.2036 -0.7101 -0.0435
  434TMC3    C5 6523   4.189   0.595  10.532 -0.7748  0.3002  0.8675
  434TMC3    C6 6524   4.239   0.481  10.588  0.0882 -1.0030  0.1106
  434TMC3     C 6525   4.167   0.788  10.834 -0.3301 -0.0251 -0.0045
  434TMC3     O 6526   4.151   0.766  10.955  0.2434 -0.3901 -0.8201
  434TMC3     H 6527   4.175   0.543  10.912 -0.9740  1.0636  0.0491
  434TMC3    H1 6528   4.095   0.772  10.554 -0.4867 -1.6657 -1.0157
  434TMC3    H2 6529   4.305   0.417  10.530  2.1852  0.6228  0.6913
  434TMC3    C7 6530   4.097   0.569  10.424  0.0656  0.1372 -0.6905
  434TMC3    C8 6531   4.295   0.356  10.790  0.5001 -0.1084  0.0253
  434TMC3    O1 6532   4.025   0.654  10.372  0.4611 -0.2696  0.0550
  434TMC3    O2 6533   4.242   0.343  10.903 -0.2549 -0.0665  0.0922
  435MPD2     C 6534   1.673   1.259  15.296 -0.2184 -0.4273  0.8663
  435MPD2    C1 6535   1.701   1.306  15.426 -0.4143 -0.0598  0.6316
  435MPD2    C2 6536   1.823   1.281  15.477  0.4278  0.5905 -0.0085
  435MPD2    C3 6537   1.906   1.190  15.412  0.2572  0.6409  0.3022
  435MPD2    C4 6538   1.877   1.146  15.284 -0.1258 -0.5342 -0.4226
  435MPD2    C5 6539   1.759   1.180  15.227  1.4043 -0.0348  0.3794
  435MPD2     H 6540   1.852   1.335  15.567  0.2828 -2.1389  1.6764
  435MPD2    H1 6541   1.929   1.068  15.230  0.9808 -1.2266  1.6429
  435MPD2    H2 6542   1.578   1.277  15.248 -1.0550 -1.7191  2.0228
  435MPD2    H3 6543   1.723   1.140  15.133 -1.2650 -1.0942  1.8563
  435MPD2     N 6544   2.011   1.139  15.490  0.2129 -0.4933 -0.3332
  435MPD2    H5 6545   2.005   1.166  15.588 -0.4849  0.1605 -0.5544
  435MPD2    N1 6546   1.613   1.386  15.502 -0.0010 -0.0071 -0.1827
  435MPD2    H7 6547   1.656   1.411  15.590 -4.2375 -2.5613  2.6239
  436TMC3    C1 6548   1.386   1.553  15.803  0.4692  0.3421 -0.6193
  436TMC3    C2 6549   1.472   1.506  15.707 -0.3448 -0.2383 -0.4200
  436TMC3    C3 6550   1.421   1.510  15.581 -0.1440  0.3122  0.3324
  436TMC3    C4 6551   1.262   1.604  15.768 -0.4783 -0.1331 -0.4325
  436TMC3    C5 6552   1.227   1.605  15.635  0.1397  0.3312 -0.3164
  436TMC3    C6 6553   1.307   1.569  15.541 -0.6524 -0.2405  0.0323
  436TMC3     C 6554   1.435   1.557  15.935 -0.2750  0.7568  0.0433
  436TMC3     O 6555   1.542   1.503  15.954 -0.0411 -0.1517 -0.2408
  436TMC3     H 6556   1.565   1.462  15.741 -0.7179 -0.7800 -0.0937
  436TMC3    H1 6557   1.195   1.635  15.848  0.5970 -0.0544  0.4345
  436TMC3    H2 6558   1.288   1.568  15.434 -1.7855  2.1065  0.2220
  436TMC3    C7 6559   1.087   1.635  15.592 -0.3614 -0.3853  0.4881
  436TMC3    C8 6560   1.493   1.444  15.469 -0.3009  0.3134 -0.0889
  436TMC3    O1 6561   1.050   1.583  15.493 -0.1788  0.3019 -0.0403
  436TMC3    O2 6562   1.440   1.431  15.356  0.1698 -0.4322 -0.1012
  437TMC3    C1 6563   4.739   3.364  12.059 -0.6675  0.7499  0.7949
  437TMC3    C2 6564   4.636   3.388  11.971 -0.1466 -0.3297 -0.4758
  437TMC3    C3 6565   4.669   3.420  11.841  0.6374  0.3867  0.0863
  437TMC3    C4 6566   0.131   3.378  12.020  0.4476  0.4504  0.0145
  437TMC3    C5 6567   0.160   3.405  11.891  0.6501  0.3983 -0.4687
  437TMC3    C6 6568   0.059   3.420  11.800 -0.1388  0.9748  0.5459
  437TMC3     C 6569   4.715   3.328  12.198  0.5050  0.5294  0.2765
  437TMC3     O 6570   0.075   3.287  12.258 -0.1626 -0.2911 -0.1257
  437TMC3     H 6571   4.535   3.389  12.011 -0.3788  1.1619 -1.1276
  437TMC3    H1 6572   0.213   3.354  12.086 -1.3456 -1.4347  1.5410
  437TMC3    H2 6573   0.088   3.458  11.703  0.9002 -0.6590  0.2142
  437TMC3    C7 6574   0.299   3.417  11.852  0.2819  0.1699  0.2941
  437TMC3    C8 6575   4.572   3.498  11.763  0.0945 -0.7375  0.0670
  437TMC3    O1 6576   0.309   3.433  11.731 -0.0494 -0.4039 -0.2889
  437TMC3    O2 6577   4.591   3.495  11.645  0.0594  0.0278 -0.3406
  438MPD2     C 6578   2.457   3.886  16.505  0.9489  0.1683 -0.0718
  438MPD2    C1 6579   2.513   3.784  16.577 -0.1455 -0.5340  0.3391
  438MPD2    C2 6580   2.502   3.790  16.717 -1.4696  0.4115 -0.1827
  438MPD2    C3 6581   2.429   3.889  16.780  0.0967 -0.5275  0.8856
  438MPD2    C4 6582   2.358   3.979  16.702 -0.3944 -0.3318 -0.2760
  438MPD2    C5 6583   2.378   3.978  16.569  0.4535 -0.2512 -0.1511
  438MPD2     H 6584   2.553   3.717  16.779  0.1927  0.8896 -0.9957
  438MPD2    H1 6585   2.290   4.057  16.736 -0.1033 -1.1612  2.2316
  438MPD2    H2 6586   2.463   3.895  16.397 -2.3043  0.6589 -0.2344
  438MPD2    H3 6587   2.313   4.030  16.499  2.6028  0.4422 -1.6300
  438MPD2     N 6588   2.415   3.877  16.918 -0.2607 -0.1827 -0.1988
  438MPD2    H5 6589   2.475   3.807  16.960 -0.4364  0.5468  1.2684
  438MPD2    N1 6590   2.578   3.672  16.526  0.3774  0.3994 -0.2302
  438MPD2    H7 6591   2.606   3.599  16.591 -4.0584 -1.9303 -0.9267
  439TMC3    C1 6592   2.666   3.525  16.355 -0.3933  0.1673  0.1536
  439TMC3    C2 6593   2.674   3.488  16.223  0.5758  0.1255 -0.2339
  439TMC3    C3 6594   2.739   3.372  16.194  0.1483  0.5855 -0.6963
  439TMC3    C4 6595   2.718   3.447  16.456  0.2551 -0.1404  0.3770
  439TMC3    C5 6596   2.790   3.333  16.418  0.1493  0.3683 -0.6466
  439TMC3    C6 6597   2.800   3.294  16.285 -0.2066 -0.0950  0.4409
  439TMC3     C 6598   2.595   3.647  16.391 -0.6284 -0.1240 -0.4833
  439TMC3     O 6599   2.547   3.705  16.296 -0.1275  0.0207  0.2920
  439TMC3     H 6600   2.627   3.551  16.148 -0.8176  1.3865  1.6932
  439TMC3    H1 6601   2.713   3.462  16.563  0.7601  0.1966  0.3517
  439TMC3    H2 6602   2.859   3.209  16.256 -0.5661  0.0914 -0.8309
  439TMC3    C7 6603   2.858   3.263  16.522  0.5886 -0.0545  0.1400
  439TMC3    C8 6604   2.804   3.361  16.060 -0.3032  0.1195 -0.1426
  439TMC3    O1 6605   2.894   3.324  16.620  0.3182 -0.7330 -0.3770
  439TMC3    O2 6606   2.863   3.257  16.038  0.0404 -0.7804  0.1940
  440MPD2     C 6607   0.671   4.260  15.281 -0.0587  0.4841 -0.3118
  440MPD2    C1 6608   0.784   4.326  15.323 -0.3454 -0.2162  0.3633
  440MPD2    C2 6609   0.878   4.253  15.391 -0.7455  0.2426  0.0158
  440MPD2    C3 6610   0.856   4.124  15.434  1.1195 -0.3348 -0.0646
  440MPD2    C4 6611   0.740   4.063  15.391 -0.2758 -0.0832 -0.3685
  440MPD2    C5 6612   0.651   4.129  15.311  0.0874  0.0462  0.6197
  440MPD2     H 6613   0.969   4.302  15.423 -0.0416 -1.2624  0.3588
  440MPD2    H1 6614   0.723   3.961  15.425 -1.5905 -0.6190 -2.6449
  440MPD2    H2 6615   0.591   4.312  15.230  0.8424  0.3607 -1.8905
  440MPD2    H3 6616   0.563   4.073  15.281  0.2367 -1.1621  2.4683
  440MPD2     N 6617   0.946   4.048  15.513  0.9265 -0.6933 -0.4128
  440MPD2    H5 6618   0.905   3.957  15.530  1.0952 -0.3333  1.8411
  440MPD2    N1 6619   0.812   4.463  15.286 -0.1812 -0.1050  0.1509
  440MPD2    H7 6620   0.906   4.495  15.303 -0.4528  0.0621  1.3725
  441TMC3    C1 6621   1.136   3.967  15.632 -0.2913  0.6759  0.5686
  441TMC3    C2 6622   1.264   3.962  15.614 -0.0949  0.3614  0.2323
  441TMC3    C3 6623   1.342   3.915  15.718 -0.3863  0.7629 -0.2080
  441TMC3    C4 6624   1.084   3.949  15.759 -0.2191  0.0266  0.3253
  441TMC3    C5 6625   1.165   3.907  15.864  0.3806 -0.7341 -0.3923
  441TMC3    C6 6626   1.292   3.875  15.837 -0.0543  0.0357  0.4822
  441TMC3     C 6627   1.074   4.074  15.550 -0.0045  0.3195 -0.4971
  441TMC3     O 6628   1.145   4.164  15.514 -0.3913 -0.3378 -0.0320
  441TMC3     H 6629   1.305   3.984  15.516  0.0953 -0.8659  0.0399
  441TMC3    H1 6630   0.988   3.993  15.784  1.3649  2.5011  2.0093
  441TMC3    H2 6631   1.363   3.865  15.919 -0.9767 -0.6812  1.1947
  441TMC3    C7 6632   1.095   3.883  15.990  0.3998  0.1222 -0.0696
  441TMC3    C8 6633   1.483   3.939  15.700  0.2946  0.6745  0.2085
  441TMC3    O1 6634   0.989   3.943  16.017 -0.3179  0.4416  0.1910
  441TMC3    O2 6635   1.561   3.855  15.744  0.1575  0.0566 -0.4221
  442MPD2     C 6636   4.322   4.635  16.227 -0.2914  0.4569 -0.4638
  442MPD2    C1 6637   4.226   4.545  16.256 -0.1922  0.5926  0.4618
  442MPD2    C2 6638   4.180   4.457  16.154  0.0625  0.6617  0.0966
  442MPD2    C3 6639   4.243   4.459  16.032 -0.1244 -0.3043 -0.6924
  442MPD2    C4 6640   4.356   4.537  16.011 -0.0266 -0.5338 -0.3390
  442MPD2    C5 6641   4.401   4.617  16.115  0.0019  0.1992 -0.4501
  442MPD2     H 6642   4.098   4.391  16.182 -0.4297  1.0316 -0.4838
  442MPD2    H1 6643   4.414   4.532  15.920  0.9318  1.2407  0.1829
  442MPD2    H2 6644   4.364   4.705  16.299  1.2201  0.6751 -1.5515
  442MPD2    H3 6645   4.481   4.689  16.102 -0.0054  0.0909 -1.0766
  442MPD2     N 6646   4.206   4.373  15.932 -0.3633  0.6626  0.2799
  442MPD2    H5 6647   4.258   4.376  15.845 -2.9957  0.3243 -1.3300
  442MPD2    N1 6648   4.153   4.546  16.372  0.3517 -1.1518 -0.1399
  442MPD2    H7 6649   4.069   4.489  16.379 -1.6966  2.0232  0.9724
  443TMC3    C1 6650   4.056   4.634  16.565 -0.4361 -0.0443 -0.1008
  443TMC3    C2 6651   4.015   0.025  16.589  0.8882  0.6439 -0.0922
  443TMC3    C3 6652   3.878   0.050  16.597  0.2349  0.8210 -0.3070
  443TMC3    C4 6653   3.960   4.537  16.551  0.5885 -0.2532  0.5854
  443TMC3    C5 6654   3.835   4.564  16.596 -0.2879 -0.5201 -0.5397
  443TMC3    C6 6655   3.793   4.692  16.626 -0.3565  0.2459 -0.6343
  443TMC3     C 6656   4.172   4.630  16.475  0.0532 -0.4176 -0.4388
  443TMC3     O 6657   4.260   4.713  16.505  0.6733  0.0323 -0.6799
  443TMC3     H 6658   4.082   0.110  16.585  3.2937 -1.3059 -1.1130
  443TMC3    H1 6659   3.990   4.437  16.520  3.3420  1.3562 -1.9977
  443TMC3    H2 6660   3.688   4.700  16.651 -0.4718 -1.0334 -0.6778
  443TMC3    C7 6661   3.751   4.443  16.609  0.0816 -0.0606 -0.6851
  443TMC3    C8 6662   3.841   0.187  16.618  0.6513 -0.6148  1.1038
  443TMC3    O1 6663   3.782   4.353  16.530 -0.6349 -0.2604 -0.1326
  443TMC3    O2 6664   3.758   0.198  16.705  0.2883 -0.5050  0.2577
  444MPD2     C 6665   4.070   4.303  16.794  0.4314 -0.2308 -0.0846
  444MPD2    C1 6666   4.004   4.184  16.821  0.0868 -0.0851  0.0361
  444MPD2    C2 6667   4.047   4.069  16.764 -0.1055  0.5267  0.2227
  444MPD2    C3 6668   4.166   4.056  16.698 -0.4141 -0.0071  0.3203
  444MPD2    C4 6669   4.232   4.175  16.670 -0.2113  0.2569  0.9096
  444MPD2    C5 6670   4.185   4.293  16.720  0.2915 -0.2894 -0.0485
  444MPD2     H 6671   3.997   3.975  16.788  0.8743 -0.4319 -1.4642
  444MPD2    H1 6672   4.329   4.181  16.624 -1.6760 -2.2668 -2.4684
  444MPD2    H2 6673   4.040   4.398  16.837  0.5605 -0.4732  0.5396
  444MPD2    H3 6674   4.238   4.385  16.699  0.9618 -0.2844  1.6329
  444MPD2     N 6675   4.218   3.930  16.674  0.4725 -0.1973  0.4008
  444MPD2    H5 6676   4.164   3.857  16.721 -0.5411  0.9902  1.0703
  444MPD2    N1 6677   3.886   4.180  16.894 -0.3595  0.2966  0.2217
  444MPD2    H7 6678   3.839   4.091  16.888  1.4186 -0.5635 -1.0066
  445TMC3    C1 6679   4.367   3.756  16.601 -0.3667  0.1627  0.1646
  445TMC3    C2 6680   4.284   3.660  16.658  0.1655 -0.3972  1.1152
  445TMC3    C3 6681   4.339   3.533  16.672  0.0467 -0.0033 -0.2617
  445TMC3    C4 6682   4.495   3.723  16.563  0.0238 -0.4059  0.5271
  445TMC3    C5 6683   4.540   3.602  16.592 -0.1066  0.1656  0.0386
  445TMC3    C6 6684   4.467   3.507  16.654 -0.3410  0.5191  0.2326
  445TMC3     C 6685   4.333   3.900  16.600  0.1513 -0.2573  0.2245
  445TMC3     O 6686   4.400   3.978  16.535  0.0317  0.2725  0.1190
  445TMC3     H 6687   4.178   3.679  16.674 -0.2781 -1.8480 -0.1326
  445TMC3    H1 6688   4.561   3.791  16.509 -3.1905  2.2528 -0.0448
  445TMC3    H2 6689   4.504   3.409  16.682 -1.4297  0.6838  2.2287
  445TMC3    C7 6690   4.686   3.586  16.579 -0.7639 -0.4685  0.8924
  445TMC3    C8 6691   4.254   3.421  16.710 -0.8921 -0.3756  0.3895
  445TMC3    O1 6692   0.004   3.689  16.549 -0.0087 -0.4342  0.2064
  445TMC3    O2 6693   4.268   3.316  16.652 -0.0893  0.0531 -0.4339
  446MPD2     C 6694   4.025   0.412  11.344  0.1101  0.2617 -0.4317
  446MPD2    C1 6695   4.083   0.451  11.223  0.5255  0.8899 -0.0348
  446MPD2    C2 6696   4.185   0.541  11.225  0.3984  0.1340  0.4127
  446MPD2    C3 6697   4.227   0.592  11.341  0.2402  0.1553 -0.4424
  446MPD2    C4 6698   4.159   0.558  11.457  0.4404  0.5059  0.0825
  446MPD2    C5 6699   4.063   0.463  11.460  0.7143  0.2129  0.2280
  446MPD2     H 6700   4.235   0.566  11.132  0.0722  1.0434  0.4786
  446MPD2    H1 6701   4.181   0.594  11.557  0.2206 -0.9784  0.6660
  446MPD2    H2 6702   3.945   0.338  11.339  1.1719 -0.9862  0.8254
  446MPD2    H3 6703   4.014   0.431  11.551  1.7754 -0.6602  0.4979
  446MPD2     N 6704   4.333   0.688  11.346  0.5419  0.1959  0.5457
  446MPD2    H5 6705   4.346   0.732  11.436 -1.2439  1.3690  0.2141
  446MPD2    N1 6706   4.047   0.399  11.100  0.4457 -0.5655 -0.6365
  446MPD2    H7 6707   4.087   0.442  11.017  1.5867 -1.4806 -0.5658
  447TMC3    C1 6708   4.467   0.632  11.152 -0.2884 -0.0891 -0.7612
  447TMC3    C2 6709   4.471   0.674  11.025  0.0101 -0.1610 -0.7385
  447TMC3    C3 6710   4.564   0.605  10.947  0.2887  0.0955  0.4421
  447TMC3    C4 6711   4.550   0.539  11.206 -0.1537 -0.2936 -0.7616
  447TMC3    C5 6712   4.634   0.472  11.124 -0.0097 -0.2425  0.6420
  447TMC3    C6 6713   4.644   0.507  10.988  0.2120  0.3451  0.2049
  447TMC3     C 6714   4.396   0.735  11.229  0.3231 -0.7058 -0.6392
  447TMC3     O 6715   4.452   0.846  11.213  0.4850 -0.4251 -0.3998
  447TMC3     H 6716   4.404   0.746  10.980  0.3475  0.2838 -0.5311
  447TMC3    H1 6717   4.520   0.499  11.302 -1.6726 -1.0570 -1.5574
  447TMC3    H2 6718   4.712   0.466  10.914  0.5847 -0.7691  1.1632
  447TMC3    C7 6719   0.016   0.424  11.183  0.1370 -0.2774  0.5299
  447TMC3    C8 6720   4.559   0.627  10.805  0.2690  0.4440 -0.6231
  447TMC3    O1 6721   0.082   0.352  11.109  0.5660 -0.6694 -0.4724
  447TMC3    O2 6722   4.591   0.538  10.726  0.4335  0.1450 -0.1742
  448TMC3    C1 6723   2.739   0.589  16.718 -0.6809  0.4162 -0.0725
  448TMC3    C2 6724   2.656   0.477  16.723 -0.1322 -0.7976 -0.0989
  448TMC3    C3 6725   2.639   0.422  16.842 -0.0039  0.0127 -0.8010
  448TMC3    C4 6726   2.805   0.638  16.826  0.2084 -0.2910 -0.0309
  448TMC3    C5 6727   2.788   0.569  16.949 -0.1895 -0.1861  0.2334
  448TMC3    C6 6728   2.696   0.467  16.959  0.4898  0.6377  0.5325
  448TMC3     C 6729   2.807   0.609  16.589  0.5350 -0.4673  0.4682
  448TMC3     O 6730   2.785   0.519  16.510 -0.0085 -0.3943 -0.3933
  448TMC3     H 6731   2.608   0.432  16.636  0.1930 -1.6157  0.1461
  448TMC3    H1 6732   2.881   0.714  16.815 -0.1028  0.1994  1.2700
  448TMC3    H2 6733   2.679   0.417  17.053  1.7680 -0.5446  0.1369
  448TMC3    C7 6734   2.861   0.617  17.063  0.4255 -0.5681  0.2452
  448TMC3    C8 6735   2.589   0.286  16.834  0.0672  0.5802 -0.6668
  448TMC3    O1 6736   2.903   0.729  17.046 -0.0153 -0.2170 -0.0740
  448TMC3    O2 6737   2.606   0.230  16.727  0.5626 -0.3465  0.4827
  449MPD2     C 6738   3.971   3.417  13.523  0.7964  0.0821  0.3563
  449MPD2    C1 6739   3.860   3.497  13.522 -0.0370  0.4986  0.2189
  449MPD2    C2 6740   3.744   3.460  13.578  0.5020 -0.5410  0.0526
  449MPD2    C3 6741   3.725   3.347  13.648 -0.2264  0.1576  0.2177
  449MPD2    C4 6742   3.831   3.263  13.656  0.4116  0.3791 -1.3696
  449MPD2    C5 6743   3.952   3.300  13.600 -0.0130 -0.0031  0.4275
  449MPD2     H 6744   3.667   3.536  13.590  1.8256  0.7146  0.4672
  449MPD2    H1 6745   3.827   3.175  13.719  1.8675  1.3344  0.0562
  449MPD2    H2 6746   4.070   3.442  13.485  1.1949  0.8551  1.8878
  449MPD2    H3 6747   4.041   3.245  13.628  0.0780  0.3298  0.7912
  449MPD2     N 6748   3.607   3.343  13.719  0.1691 -0.1062  0.0544
  449MPD2    H5 6749   3.534   3.412  13.704  0.7971  0.7988  1.1348
  449MPD2    N1 6750   3.867   3.624  13.461  0.7167 -0.1606 -0.1171
  449MPD2    H7 6751   3.786   3.684  13.474  0.0592 -1.0172 -0.2267
  450TMC3    C1 6752   3.909   3.803  13.325 -0.2362 -0.1602  0.0958
  450TMC3    C2 6753   3.906   3.825  13.194 -0.5071  0.1327  0.0179
  450TMC3    C3 6754   3.799   3.899  13.144 -0.2720  0.1996  0.3393
  450TMC3    C4 6755   3.824   3.867  13.405  0.0989 -0.7628  0.0280
  450TMC3    C5 6756   3.713   3.930  13.357  0.2656 -0.6046 -0.0317
  450TMC3    C6 6757   3.692   3.945  13.225  0.4549  0.5051 -0.3105
  450TMC3     C 6758   3.951   3.672  13.367  0.1254  0.1249 -0.6080
  450TMC3     O 6759   4.026   3.606  13.292  0.4435  0.1287  0.2474
  450TMC3     H 6760   3.982   3.780  13.130  0.0674  1.5517 -0.2967
  450TMC3    H1 6761   3.836   3.865  13.513 -0.2929 -1.2424  0.0632
  450TMC3    H2 6762   3.606   3.995  13.182 -0.1453  1.2370  1.6902
  450TMC3    C7 6763   3.598   3.863  13.427 -0.1415 -0.1779  0.5746
  450TMC3    C8 6764   3.801   3.952  13.006  0.5040  0.7982 -0.3551
  450TMC3    O1 6765   3.636   3.795  13.520 -0.1352 -0.3090 -0.4009
  450TMC3    O2 6766   3.695   3.997  12.961 -0.3858  0.2369 -0.0161
  451MPD2     C 6767   0.068   2.156   1.375  0.0324 -0.8410 -0.1247
  451MPD2    C1 6768   0.093   2.203   1.247  0.2782 -0.1963 -0.0861
  451MPD2    C2 6769   0.228   2.215   1.209  0.3940 -0.1825 -0.3086
  451MPD2    C3 6770   0.330   2.182   1.296 -0.4962  0.1333  0.0892
  451MPD2    C4 6771   0.306   2.132   1.421  0.7985  0.1837 -0.2571
  451MPD2    C5 6772   0.171   2.129   1.454 -0.7942 -0.4563  0.0236
  451MPD2     H 6773   0.253   2.239   1.106  1.0813  1.5370  0.2571
  451MPD2    H1 6774   0.379   2.091   1.490 -0.9940 -1.3753  0.6911
  451MPD2    H2 6775   4.707   2.139   1.412 -1.5750  1.3642 -3.4802
  451MPD2    H3 6776   0.147   2.092   1.554 -0.0840  1.5813  0.9407
  451MPD2     N 6777   0.464   2.188   1.249  0.1138  0.1075  0.1574
  451MPD2    H5 6778   0.474   2.238   1.161 -0.3937  0.4724  0.3111
  451MPD2    N1 6779   4.726   2.221   1.152  0.4359  0.7222  0.0970
  451MPD2    H7 6780   4.636   2.193   1.189  0.0652  0.8518 -0.7231
  452TMC3    C1 6781   0.691   2.153   1.208 -0.7642 -0.3390  0.3018
  452TMC3    C2 6782   0.739   2.039   1.157  0.2657  0.0988 -0.1327
  452TMC3    C3 6783   0.833   2.046   1.061  0.3340 -0.5250 -0.4652
  452TMC3    C4 6784   0.735   2.274   1.177 -0.4413 -0.2139 -0.5451
  452TMC3    C5 6785   0.830   2.282   1.079 -0.0439  0.4392 -0.2988
  452TMC3    C6 6786   0.881   2.168   1.022 -0.1808 -0.1570 -0.5276
  452TMC3     C 6787   0.581   2.143   1.304  0.8610 -0.3519 -0.7496
  452TMC3     O 6788   0.603   2.082   1.406 -0.2482 -0.0565  0.4430
  452TMC3     H 6789   0.700   1.952   1.209 -1.4068  0.4440 -0.7928
  452TMC3    H1 6790   0.690   2.361   1.224 -0.0675 -0.8928  1.0834
  452TMC3    H2 6791   0.943   2.174   0.934  2.3738 -1.4188  1.2012
  452TMC3    C7 6792   0.825   2.406   1.003  0.3731 -0.3760  0.3852
  452TMC3    C8 6793   0.849   1.938   0.968 -0.8273 -0.3848 -0.3315
  452TMC3    O1 6794   0.718   2.467   1.007 -0.3284 -0.0256  0.6642
  452TMC3    O2 6795   0.904   1.967   0.865  0.0172  0.4093 -0.5516
  453TMC3    C1 6796   1.181   0.042  11.998 -0.3555  0.2610  0.1247
  453TMC3    C2 6797   1.097   4.676  11.978  0.1635 -0.2135  0.6765
  453TMC3    C3 6798   1.067   4.635  11.851  0.4575 -0.2450  0.6273
  453TMC3    C4 6799   1.248   0.108  11.893  0.0085 -0.5300  0.3816
  453TMC3    C5 6800   1.212   0.061  11.770 -0.4633  0.2347 -0.2904
  453TMC3    C6 6801   1.125   4.691  11.744 -0.0343  0.1705  0.0287
  453TMC3     C 6802   1.268   0.024  12.106  0.5226  0.3838  0.1270
  453TMC3     O 6803   1.317   0.124  12.156  0.3113  0.4401 -0.0583
  453TMC3     H 6804   1.037   4.635  12.059 -2.5565  2.1156 -0.1528
  453TMC3    H1 6805   1.337   0.167  11.912 -0.2714  0.7127 -2.2301
  453TMC3    H2 6806   1.093   4.659  11.646 -0.2158 -0.2514  0.2265
  453TMC3    C7 6807   1.260   0.135  11.650 -0.1732  0.0591 -0.5213
  453TMC3    C8 6808   1.035   4.495  11.846 -0.3497 -0.0781 -0.9660
  453TMC3    O1 6809   1.181   0.127  11.556 -0.7990 -0.0604 -0.1084
  453TMC3    O2 6810   0.935   4.457  11.905 -0.1283  0.3488 -0.3084
  454MPD2     C 6811   0.270   3.865  16.369 -0.5902 -0.0375 -0.7431
  454MPD2    C1 6812   0.268   3.909  16.241  0.2220 -1.1247 -0.2000
  454MPD2    C2 6813   0.232   4.039  16.204 -0.3904 -0.5349  0.3594
  454MPD2    C3 6814   0.209   4.129  16.306 -0.4631  0.2650  0.1730
  454MPD2    C4 6815   0.227   4.088  16.435 -0.2453 -0.0854  0.2733
  454MPD2    C5 6816   0.254   3.957  16.468 -0.2973 -0.0649 -0.2050
  454MPD2     H 6817   0.231   4.064  16.099  0.8451  0.4271  0.5734
  454MPD2    H1 6818   0.229   4.162  16.515 -0.7205 -2.3724  2.3934
  454MPD2    H2 6819   0.302   3.765  16.396 -0.6196  0.1687  0.0454
  454MPD2    H3 6820   0.274   3.926  16.570 -1.1348  0.1333  0.0159
  454MPD2     N 6821   0.174   4.265  16.282  0.6627  0.0507 -0.3993
  454MPD2    H5 6822   0.122   4.306  16.359  1.3722 -0.5319  0.3948
  454MPD2    N1 6823   0.290   3.822  16.130 -0.3506 -0.5854  0.7065
  454MPD2    H7 6824   0.296   3.861  16.037  4.1650  0.8138  1.6167
  455TMC3    C1 6825   0.066   4.423  16.146 -0.6706  0.6696  0.1618
  455TMC3    C2 6826   0.035   4.482  16.265  0.1808  0.8602  0.2204
  455TMC3    C3 6827   4.653   4.462  16.325  0.5021  0.1050 -0.6458
  455TMC3    C4 6828   4.704   4.347  16.090 -0.1259 -0.3678 -0.6624
  455TMC3    C5 6829   4.579   4.331  16.148 -0.0348  0.7367  0.9154
  455TMC3    C6 6830   4.557   4.385  16.273 -0.5924 -0.3474  0.0762
  455TMC3     C 6831   0.172   4.326  16.159 -0.4271 -0.1878  0.0322
  455TMC3     O 6832   0.231   4.293  16.057  0.4373 -0.0350 -0.1321
  455TMC3     H 6833   0.105   4.544  16.320  0.0921  0.5121  0.7302
  455TMC3    H1 6834   4.731   4.282  16.007 -0.4487 -2.2001  0.6552
  455TMC3    H2 6835   4.453   4.380  16.304 -0.5050  2.3967  0.8286
  455TMC3    C7 6836   4.541   4.194  16.106 -1.0146  0.0951  0.0516
  455TMC3    C8 6837   4.619   4.550  16.439  0.2098 -0.5007  0.4732
  455TMC3    O1 6838   4.463   4.173  16.017  0.3315 -0.2612  0.8499
  455TMC3    O2 6839   4.551   4.491  16.521 -0.4046 -0.3104 -0.0285
  456MPD2     C 6840   2.468   4.045  15.821  0.7000  0.2485 -0.0183
  456MPD2    C1 6841   2.593   4.016  15.888 -0.1907  0.4291 -0.2427
  456MPD2    C2 6842   2.607   4.044  16.022  0.1670 -0.4941 -0.4678
  456MPD2    C3 6843   2.503   4.095  16.101 -0.2899 -0.0703  0.1787
  456MPD2    C4 6844   2.382   4.110  16.046  0.4917  0.0180  0.1656
  456MPD2    C5 6845   2.367   4.085  15.908  0.2341  0.5125 -0.0101
  456MPD2     H 6846   2.704   4.037  16.068 -0.3195  0.2344  0.6702
  456MPD2    H1 6847   2.298   4.142  16.107  0.5986 -0.1060  0.3752
  456MPD2    H2 6848   2.447   4.020  15.718 -0.1447 -2.2210  0.7496
  456MPD2    H3 6849   2.267   4.097  15.869 -0.0939 -1.2953  0.2540
  456MPD2     N 6850   2.536   4.148  16.229  0.0706  0.3504 -0.8731
  456MPD2    H5 6851   2.633   4.152  16.259 -0.7027 -3.4151  2.1273
  456MPD2    N1 6852   2.697   3.961  15.805  0.6485 -0.2998  0.1167
  456MPD2    H7 6853   2.679   3.938  15.707 -0.5842 -0.4608  0.3816
  457TMC3    C1 6854   2.520   4.281  16.431  0.6502 -0.4001 -0.2397
  457TMC3    C2 6855   2.462   4.395  16.482  0.4063  0.0238 -0.5671
  457TMC3    C3 6856   2.476   4.419  16.611  0.2714  0.8116  0.8889
  457TMC3    C4 6857   2.592   4.192  16.509  0.3188  0.1338 -0.3098
  457TMC3    C5 6858   2.599   4.222  16.641 -0.1497 -0.1707  0.3342
  457TMC3    C6 6859   2.551   4.338  16.690  0.1375  0.5776  0.3329
  457TMC3     C 6860   2.463   4.235  16.306  0.0668 -0.5792  0.5089
  457TMC3     O 6861   2.351   4.273  16.281 -0.3068 -0.2952  0.4850
  457TMC3     H 6862   2.424   4.465  16.408 -0.6206 -1.0266 -1.0294
  457TMC3    H1 6863   2.617   4.098  16.461 -1.9399 -0.2469 -0.7669
  457TMC3    H2 6864   2.592   4.372  16.785 -3.3640  0.3945  1.9283
  457TMC3    C7 6865   2.672   4.133  16.730 -0.2334 -0.1225  0.6155
  457TMC3    C8 6866   2.437   4.543  16.671 -0.3109 -0.1733  0.6078
  457TMC3    O1 6867   2.649   4.155  16.849 -0.3031 -0.1141  0.4038
  457TMC3    O2 6868   2.434   4.645  16.604 -0.4352  0.2803 -0.1823
  458MPD2     C 6869   0.807   3.403  11.881 -0.1509  0.0010 -0.6872
  458MPD2    C1 6870   0.752   3.391  12.008 -0.3339 -0.2084 -0.4073
  458MPD2    C2 6871   0.608   3.384  12.019 -0.2528 -0.0856  0.2139
  458MPD2    C3 6872   0.531   3.394  11.911  0.1792 -0.5235  0.4841
  458MPD2    C4 6873   0.583   3.404  11.790 -0.3649 -0.1514  0.2838
  458MPD2    C5 6874   0.723   3.396  11.771 -0.0161 -0.1423  0.2007
  458MPD2     H 6875   0.561   3.375  12.116  0.8844 -1.2441  0.6562
  458MPD2    H1 6876   0.532   3.395  11.694  0.1561 -2.7519  0.2483
  458MPD2    H2 6877   0.915   3.403  11.870 -0.1401  0.4967 -0.6117
  458MPD2    H3 6878   0.761   3.409  11.670 -0.6440  1.5721  0.1899
  458MPD2     N 6879   0.393   3.387  11.945  0.2323  0.2297  0.0432
  458MPD2    H5 6880   0.369   3.373  12.042 -1.4760 -2.4564 -0.7730
  458MPD2    N1 6881   0.832   3.392  12.123 -0.1499  0.2171  0.1663
  458MPD2    H7 6882   0.930   3.398  12.094 -0.7539 -0.1412 -1.9351
  459TMC3    C1 6883   0.872   3.443  12.360  0.5163 -0.1493 -0.0122
  459TMC3    C2 6884   0.962   3.541  12.339  0.0794  0.4815 -0.1654
  459TMC3    C3 6885   1.050   3.579  12.441 -0.4055  0.0521  0.5155
  459TMC3    C4 6886   0.866   3.388  12.487 -0.0904 -0.6667  0.2429
  459TMC3    C5 6887   0.940   3.442  12.594 -0.5561 -0.5248  0.2747
  459TMC3    C6 6888   1.025   3.544  12.577 -0.3002 -0.1655  0.3221
  459TMC3     C 6889   0.791   3.384  12.253  0.0136  1.0276 -0.1708
  459TMC3     O 6890   0.691   3.330  12.297 -0.0254 -0.0411  0.0843
  459TMC3     H 6891   0.979   3.586  12.242 -0.0537  0.0496 -0.3871
  459TMC3    H1 6892   0.795   3.308  12.505 -2.4173  1.1467 -0.8769
  459TMC3    H2 6893   1.080   3.589  12.659 -0.9893  1.2353  0.0182
  459TMC3    C7 6894   0.929   3.373  12.720  0.5763  0.8022  0.4282
  459TMC3    C8 6895   1.143   3.693  12.432 -0.1536  0.2768 -0.5093
  459TMC3    O1 6896   1.012   3.395  12.805  0.7208 -0.2431 -0.7282
  459TMC3    O2 6897   1.222   3.727  12.520  0.4430 -0.2445  0.4442
  460MPD2     C 6898   4.545   0.965  10.654 -0.6019  0.3508  0.0142
  460MPD2    C1 6899   4.530   0.831  10.650 -0.6456  0.8758  0.4155
  460MPD2    C2 6900   4.462   0.781  10.535 -0.0579 -0.1972  0.4348
  460MPD2    C3 6901   4.408   0.865  10.433  0.1822  0.4006 -0.3326
  460MPD2    C4 6902   4.431   0.999  10.445  0.3538 -0.8040 -0.0591
  460MPD2    C5 6903   4.497   1.050  10.558 -0.0658 -0.0702  0.3920
  460MPD2     H 6904   4.449   0.674  10.531  3.4944 -0.6163  0.4824
  460MPD2    H1 6905   4.407   1.060  10.359 -1.5239 -0.9859  0.3411
  460MPD2    H2 6906   4.594   1.009  10.740  2.1854 -0.9557 -0.8993
  460MPD2    H3 6907   4.512   1.157  10.566 -0.4061 -0.1166  1.7449
  460MPD2     N 6908   4.347   0.812  10.315  0.0884  0.2722  0.6651
  460MPD2    H5 6909   4.371   0.716  10.293  1.1056  0.7904 -0.4888
  460MPD2    N1 6910   4.559   0.764  10.770  0.3401 -0.0115  0.1832
  460MPD2    H7 6911   4.569   0.838  10.838  1.1025  0.9150 -0.9469
  461TMC3    C1 6912   4.248   0.826  10.096  0.3456  0.7985 -0.3927
  461TMC3    C2 6913   4.354   0.743  10.049  0.7387  0.4149  0.0047
  461TMC3    C3 6914   4.372   0.739   9.917 -0.5562 -1.0287  0.8192
  461TMC3    C4 6915   4.156   0.889  10.017 -0.4290  0.0616  0.0887
  461TMC3    C5 6916   4.172   0.863   9.881 -0.0898 -0.2159 -0.9556
  461TMC3    C6 6917   4.280   0.786   9.836  0.8000  0.5811 -0.7137
  461TMC3     C 6918   4.271   0.883  10.228 -0.1059 -0.1280  1.2263
  461TMC3     O 6919   4.222   0.993  10.247  0.7217  0.8905  0.0418
  461TMC3     H 6920   4.416   0.688  10.119  0.6887 -0.9809 -1.0266
  461TMC3    H1 6921   4.067   0.944  10.048 -0.9857 -0.4285 -0.6368
  461TMC3    H2 6922   4.294   0.777   9.729  0.4901  1.6113 -0.8327
  461TMC3    C7 6923   4.100   0.938   9.780 -0.2657 -0.6757 -0.0006
  461TMC3    C8 6924   4.460   0.638   9.855  0.6068 -0.1655  0.3473
  461TMC3    O1 6925   4.027   1.031   9.822  0.4353  0.0456 -0.7301
  461TMC3    O2 6926   4.561   0.610   9.917 -0.3012 -0.2387  0.3709
  462TMC3    C1 6927   4.406   2.061   0.614 -0.1312  0.1529  0.3434
  462TMC3    C2 6928   4.449   1.989   0.720 -0.2139 -0.1449 -0.4155
  462TMC3    C3 6929   4.358   1.938   0.805 -0.1179 -0.1196 -0.2523
  462TMC3    C4 6930   4.284   2.112   0.603  0.0076  0.5166  0.1069
  462TMC3    C5 6931   4.185   2.058   0.690  0.6673  1.1307  0.2487
  462TMC3    C6 6932   4.225   1.980   0.795 -0.7570 -0.0155 -0.0974
  462TMC3     C 6933   4.517   2.131   0.560 -0.1785 -0.1634  0.5623
  462TMC3     O 6934   4.610   2.140   0.639  0.7416 -0.1114  0.2140
  462TMC3     H 6935   4.547   1.943   0.715 -0.0837 -0.0657  1.4924
  462TMC3    H1 6936   4.249   2.154   0.509  0.9791 -2.9211 -1.8093
  462TMC3    H2 6937   4.154   1.921   0.852  0.3086  1.5853  2.8601
  462TMC3    C7 6938   4.055   2.019   0.631 -0.1799 -0.1719  0.2408
  462TMC3    C8 6939   4.402   1.829   0.886  0.0008  0.1994  0.1993
  462TMC3    O1 6940   4.002   1.921   0.681  0.2344  0.3724  0.1601
  462TMC3    O2 6941   4.357   1.820   0.999 -0.6067 -0.3362  0.7014
  463MPD2     C 6942   1.918   0.084   1.106  0.5560  0.3208  1.5346
  463MPD2    C1 6943   1.806   0.161   1.119 -0.1966  0.0707 -0.2682
  463MPD2    C2 6944   1.812   0.299   1.088  1.1951 -0.4585  0.5725
  463MPD2    C3 6945   1.932   0.361   1.065  0.3241  0.2580  0.5713
  463MPD2    C4 6946   2.045   0.286   1.056  0.0645  0.0913  0.2304
  463MPD2    C5 6947   2.035   0.153   1.085  0.4994  0.3244  0.1244
  463MPD2     H 6948   1.723   0.361   1.097  0.9798 -0.7594  0.5026
  463MPD2    H1 6949   2.141   0.329   1.032 -1.2235  1.6423 -2.1100
  463MPD2    H2 6950   1.925   4.715   1.115 -2.1497  0.1187  1.3451
  463MPD2    H3 6951   2.124   0.092   1.083 -0.4245 -0.9646 -1.3748
  463MPD2     N 6952   1.942   0.504   1.051 -0.0947  0.1420  0.1613
  463MPD2    H5 6953   2.037   0.537   1.050  0.3036 -1.0643 -2.5498
  463MPD2    N1 6954   1.676   0.106   1.153 -0.4017  0.0425 -0.1064
  463MPD2    H7 6955   1.600   0.170   1.172 -0.6522 -1.0648  2.4966
  464TMC3    C1 6956   1.501   4.677   1.178  0.0492  0.5900 -0.2091
  464TMC3    C2 6957   1.416   0.037   1.215  0.6461 -0.1382 -0.5228
  464TMC3    C3 6958   1.286   4.737   1.224  0.9077  0.5769  0.3947
  464TMC3    C4 6959   1.466   4.542   1.155  0.6556 -0.0195  0.6253
  464TMC3    C5 6960   1.329   4.524   1.145  0.3489 -0.0693 -0.4012
  464TMC3    C6 6961   1.242   4.624   1.175 -0.6163 -0.2039 -0.8811
  464TMC3     C 6962   1.645   4.705   1.161  0.2955  0.3346 -0.1185
  464TMC3     O 6963   1.722   4.613   1.137  0.7957 -0.3004  0.2526
  464TMC3     H 6964   1.449   0.134   1.250 -0.4994  0.3941 -0.9427
  464TMC3    H1 6965   1.541   4.468   1.130 -1.3807 -2.1909  0.9929
  464TMC3    H2 6966   1.137   4.599   1.170 -1.0243  1.0427  1.6594
  464TMC3    C7 6967   1.298   4.394   1.081 -0.6000  0.7328  0.1928
  464TMC3    C8 6968   1.186   0.079   1.294  0.1600 -1.0243 -0.1345
  464TMC3    O1 6969   1.386   4.311   1.072  0.2511 -0.0982  0.0836
  464TMC3    O2 6970   1.070   0.047   1.277 -0.0780  0.0527  0.3685
  465MPD2     C 6971   2.096   3.756  16.714  0.0538  0.1423  0.6027
  465MPD2    C1 6972   1.990   3.807  16.788 -0.3127  0.3955 -0.3198
  465MPD2    C2 6973   1.912   3.899  16.731  0.4382  0.4194  0.4304
  465MPD2    C3 6974   1.923   3.935  16.598 -0.3620 -0.4903 -0.6545
  465MPD2    C4 6975   2.026   3.884  16.517  0.8471  0.1618  0.3308
  465MPD2    C5 6976   2.111   3.798  16.581  0.0806  0.4256  0.7404
  465MPD2     H 6977   1.834   3.941  16.793 -0.1898  0.0294 -0.1027
  465MPD2    H1 6978   2.045   3.906  16.412  1.5438 -0.8626  0.2473
  465MPD2    H2 6979   2.168   3.685  16.753 -2.6109 -2.3336  0.9494
  465MPD2    H3 6980   2.202   3.774  16.527 -1.0042 -1.6378 -0.1828
  465MPD2     N 6981   1.825   4.019  16.551 -0.1326 -0.7665  0.3149
  465MPD2    H5 6982   1.755   4.049  16.618 -1.0442 -0.9147 -0.5817
  465MPD2    N1 6983   1.957   3.754  16.916  0.3844  0.0758  0.5345
  465MPD2    H7 6984   1.857   3.772  16.927  0.7594  1.5715  1.4268
  466TMC3    C1 6985   1.557   4.318  16.510  0.3541 -0.1759  0.5431
  466TMC3    C2 6986   1.603   4.430  16.448 -0.6068  0.9139  0.5192
  466TMC3    C3 6987   1.710   4.420  16.370 -0.5718 -0.5206  0.6736
  466TMC3    C4 6988   1.619   4.196  16.488  0.1752 -0.1455 -0.5955
  466TMC3    C5 6989   1.734   4.190  16.412  0.0918 -0.1938  0.1105
  466TMC3    C6 6990   1.783   4.308  16.350  0.1388  0.7795  0.4970
  466TMC3     C 6991   1.467   4.335  16.623 -0.0067  0.4056 -0.5612
  466TMC3     O 6992   1.451   4.448  16.668  0.3962 -0.1802  0.3329
  466TMC3     H 6993   1.542   4.519  16.461 -0.6426  1.0760 -0.7604
  466TMC3    H1 6994   1.568   4.109  16.527 -0.8453  0.1851 -1.2004
  466TMC3    H2 6995   1.884   4.316  16.310 -0.4530  1.7095 -0.8195
  466TMC3    C7 6996   1.834   4.086  16.429 -0.0636  1.1884  0.3952
  466TMC3    C8 6997   1.769   4.542  16.319  0.3462  0.9630  0.1734
  466TMC3    O1 6998   1.915   4.083  16.339 -0.7821 -0.1433  0.6636
  466TMC3    O2 6999   1.833   4.536  16.211  0.0888  0.0166 -0.0493
  467TMC3    C1 7000   2.815   2.506  13.564 -0.4044 -0.3303 -0.4152
  467TMC3    C2 7001   2.845   2.642  13.557 -0.1144  0.7048 -0.4687
  467TMC3    C3 7002   2.751   2.728  13.515 -0.5299 -0.2488 -0.5450
  467TMC3    C4 7003   2.684   2.469  13.562 -0.4445  0.3439  0.5490
  467TMC3    C5 7004   2.590   2.571  13.536 -0.4198 -0.6270  0.1102
  467TMC3    C6 7005   2.620   2.699  13.523  1.1203  0.6394  0.6981
  467TMC3     C 7006   2.914   2.403  13.602  0.2090  0.2326 -0.4512
  467TMC3     O 7007   2.874   2.289  13.635 -0.0361  0.3769 -0.3325
  467TMC3     H 7008   2.948   2.674  13.561 -0.0915  0.7002 -0.9981
  467TMC3    H1 7009   2.657   2.365  13.576 -1.2555  0.2637 -1.5985
  467TMC3    H2 7010   2.548   2.780  13.529  1.3998  0.8457  1.2443
  467TMC3    C7 7011   2.453   2.547  13.483  0.1342  0.3420  0.3843
  467TMC3    C8 7012   2.785   2.868  13.474 -0.6308  0.0739 -0.4566
  467TMC3    O1 7013   2.426   2.611  13.383 -0.1162 -0.0585  0.5097
  467TMC3    O2 7014   2.696   2.952  13.490  0.1742 -0.6249  0.0201
  468MPD2     C 7015   1.429   0.976  10.460 -0.1900 -0.1887 -0.2205
  468MPD2    C1 7016   1.545   0.991  10.528 -0.4201  0.1276  0.0476
  468MPD2    C2 7017   1.618   0.877  10.559 -0.1716 -0.1508 -0.1454
  468MPD2    C3 7018   1.576   0.748  10.530 -0.3354 -0.8747  0.6274
  468MPD2    C4 7019   1.451   0.734  10.472  0.1343  0.3667  0.8108
  468MPD2    C5 7020   1.390   0.846  10.425 -0.0567 -0.2295  0.3755
  468MPD2     H 7021   1.705   0.895  10.622 -0.3266 -1.0565  0.3158
  468MPD2    H1 7022   1.406   0.636  10.460 -0.8397  0.9887 -0.7066
  468MPD2    H2 7023   1.370   1.060  10.425  0.0558  0.0056 -0.1662
  468MPD2    H3 7024   1.304   0.832  10.359  0.7103  0.0070 -0.6768
  468MPD2     N 7025   1.637   0.630  10.571 -0.7064  0.0863 -1.1861
  468MPD2    H5 7026   1.602   0.542  10.535 -1.2259 -1.0305  2.0189
  468MPD2    N1 7027   1.586   1.119  10.577  0.1493  0.5772 -0.4092
  468MPD2    H7 7028   1.678   1.125  10.620  0.2533 -0.5201 -0.4885
  469TMC3    C1 7029   1.566   1.349  10.650  0.0588  0.7512 -0.0679
  469TMC3    C2 7030   1.686   1.342  10.722 -0.3865  0.5268  0.3742
  469TMC3    C3 7031   1.723   1.451  10.800  0.0277  0.3991  0.1897
  469TMC3    C4 7032   1.487   1.454  10.664  0.9464 -0.2276  0.0537
  469TMC3    C5 7033   1.536   1.563  10.735 -0.4860  0.1771 -0.4942
  469TMC3    C6 7034   1.654   1.567  10.801  0.5310 -0.7454 -0.3209
  469TMC3     C 7035   1.503   1.234  10.583  0.6837  0.0982  0.3582
  469TMC3     O 7036   1.404   1.264  10.518  0.0309 -0.5697 -0.2298
  469TMC3     H 7037   1.731   1.243  10.724  0.4413  0.9166  1.0462
  469TMC3    H1 7038   1.393   1.468  10.611 -0.7046  2.8144  3.7450
  469TMC3    H2 7039   1.703   1.654  10.842 -1.4625  0.4803 -0.5444
  469TMC3    C7 7040   1.432   1.643  10.798 -0.0787  0.6061  0.0610
  469TMC3    C8 7041   1.861   1.458  10.824  0.5373 -0.4898 -0.1803
  469TMC3    O1 7042   1.320   1.615  10.759  0.1564 -0.5881 -0.0052
  469TMC3    O2 7043   1.913   1.558  10.776  0.1818  0.1072 -0.0930
  470TMC3    C1 7044   3.450   1.860   0.396  0.2650 -0.2783 -0.3614
  470TMC3    C2 7045   3.432   1.995   0.399  0.4789  0.1718  0.6381
  470TMC3    C3 7046   3.425   2.048   0.524 -0.2967 -0.3950 -0.0285
  470TMC3    C4 7047   3.478   1.783   0.508 -0.3739 -0.4392  0.1392
  470TMC3    C5 7048   3.474   1.843   0.631  0.4437  0.1155  0.2263
  470TMC3    C6 7049   3.464   1.982   0.635  1.0546  0.1039 -0.1732
  470TMC3     C 7050   3.388   1.800   0.281  0.0106 -0.4571  0.4673
  470TMC3     O 7051   3.372   1.866   0.181  0.1209  0.3910 -0.2983
  470TMC3     H 7052   3.423   2.058   0.311 -1.0042  0.9248  1.3147
  470TMC3    H1 7053   3.525   1.686   0.499 -0.3385 -0.4406  0.3275
  470TMC3    H2 7054   3.468   2.035   0.730 -2.3827  0.3783 -0.1815
  470TMC3    C7 7055   3.521   1.774   0.745  0.2950  0.5454 -0.0586
  470TMC3    C8 7056   3.433   2.191   0.540  0.1189 -0.3331  0.2995
  470TMC3    O1 7057   3.580   1.674   0.718  0.2461 -0.5996 -0.1205
  470TMC3    O2 7058   3.519   2.226   0.614 -0.3292 -0.0495  0.1864
  471MPD2     C 7059   0.048   3.019  16.907  0.3976  0.5106 -0.4942
  471MPD2    C1 7060   4.726   2.889  16.895  0.2343  0.3464  0.0939
  471MPD2    C2 7061   4.679   2.825  17.004  0.6702  0.4780 -0.0894
  471MPD2    C3 7062   4.688   2.881  17.131  0.0988  0.1467  0.3797
  471MPD2    C4 7063   0.012   3.008  17.143 -0.1811 -0.8206 -0.1015
  471MPD2    C5 7064   0.058   3.070  17.034 -0.4183  0.6598  0.4059
  471MPD2     H 7065   4.626   2.732  16.994 -1.0840  1.2520  2.0587
  471MPD2    H1 7066   0.026   3.049  17.242  3.2887  0.8956 -1.3131
  471MPD2    H2 7067   0.074   3.076  16.819 -1.5876  0.2244 -1.2808
  471MPD2    H3 7068   0.110   3.165  17.040  0.0665  0.5691 -2.6045
  471MPD2     N 7069   4.656   2.797  17.237  0.4606 -0.2336  0.3874
  471MPD2    H5 7070   4.629   2.702  17.213  0.7531 -0.3348  0.4616
  471MPD2    N1 7071   4.704   2.819  16.777 -0.7938 -0.3221  0.3690
  471MPD2    H7 7072   4.653   2.733  16.789 -3.0080  0.9221 -0.0867
  472TMC3    C1 7073   0.002   2.728  16.575 -0.1973 -0.1530 -0.5390
  472TMC3    C2 7074   4.716   2.760  16.444 -0.0940  0.2957 -0.6648
  472TMC3    C3 7075   4.654   2.662  16.372  0.1605  0.2643 -0.3041
  472TMC3    C4 7076   4.715   2.603  16.636  0.7297 -1.0364  0.1654
  472TMC3    C5 7077   4.666   2.511  16.558  0.0606 -0.0277 -0.5622
  472TMC3    C6 7078   4.633   2.532  16.422 -0.7960 -0.0639  0.3983
  472TMC3     C 7079   0.034   2.840  16.661  0.5373  0.1508 -0.8267
  472TMC3     O 7080   0.112   2.931  16.629 -0.6959 -0.4609 -0.4357
  472TMC3     H 7081   4.707   2.863  16.409 -0.5759  0.4232 -0.1643
  472TMC3    H1 7082   0.033   2.569  16.721  0.3628  0.9152  1.2011
  472TMC3    H2 7083   4.607   2.459  16.347 -0.3994  0.8255 -0.6145
  472TMC3    C7 7084   4.635   2.390  16.626  0.1490 -0.2027  0.4243
  472TMC3    C8 7085   4.572   2.717  16.259  0.0841 -0.6204 -0.5791
  472TMC3    O1 7086   4.623   2.388  16.747  0.8027 -0.2005 -0.0802
  472TMC3    O2 7087   4.572   2.836  16.234  0.5316  0.2698 -0.3765
  473MPD2     C 7088   0.234   0.417  13.592  0.3907  0.4345  0.0495
  473MPD2    C1 7089   0.108   0.464  13.621 -0.5049  0.0391  0.2295
  473MPD2    C2 7090   0.086   0.523  13.749  0.6523  0.1319 -0.7696
  473MPD2    C3 7091   0.192   0.537  13.836  0.3585  0.6298  0.0238
  473MPD2    C4 7092   0.317   0.504  13.800 -0.3944 -0.0522  0.4393
  473MPD2    C5 7093   0.334   0.439  13.684  0.4490 -0.4295 -0.2482
  473MPD2     H 7094   4.725   0.558  13.768 -0.3081 -2.5075 -1.0139
  473MPD2    H1 7095   0.406   0.514  13.860  0.5147 -1.7257 -0.6025
  473MPD2    H2 7096   0.254   0.368  13.497  2.8749  0.5642  0.4840
  473MPD2    H3 7097   0.434   0.403  13.661  0.6843 -0.7218  1.2093
  473MPD2     N 7098   0.177   0.599  13.968 -0.2878 -0.7486  0.4682
  473MPD2    H5 7099   0.254   0.591  14.033  1.0722  3.2540 -0.6416
  473MPD2    N1 7100   4.737   0.452  13.531 -0.0587  0.8258 -0.6430
  473MPD2    H7 7101   4.647   0.490  13.561 -0.4705 -1.0473  0.5009
  474TMC3    C1 7102   0.077   0.734  14.143  0.4282  0.4877  0.4197
  474TMC3    C2 7103   4.700   0.776  14.201  0.1544 -0.6079  0.2146
  474TMC3    C3 7104   4.716   0.847  14.321  0.4312  0.5049  0.5462
  474TMC3    C4 7105   0.199   0.773  14.189 -0.4439  0.4812  0.2458
  474TMC3    C5 7106   0.209   0.845  14.309 -0.3285  0.6215 -0.2329
  474TMC3    C6 7107   0.096   0.882  14.372 -0.2873 -0.1243  0.0298
  474TMC3     C 7108   0.069   0.668  14.011 -0.5577 -0.3585  0.2508
  474TMC3     O 7109   4.695   0.656  13.965  0.1027 -0.0036  0.2004
  474TMC3     H 7110   4.602   0.757  14.159  0.9613 -1.9703 -1.0543
  474TMC3    H1 7111   0.286   0.744  14.132 -0.8040  0.0845 -0.1009
  474TMC3    H2 7112   0.100   0.936  14.467  0.3930  0.6647 -0.4367
  474TMC3    C7 7113   0.343   0.863  14.349 -1.0903  0.2551 -0.7803
  474TMC3    C8 7114   4.597   0.915  14.366  0.3672 -0.3484  0.3187
  474TMC3    O1 7115   0.423   0.861  14.260  0.4635 -0.3845 -0.3459
  474TMC3    O2 7116   4.498   0.845  14.361 -0.6663 -0.4282  0.5840
  475MPD2     C 7117   2.358   3.296  10.520  0.1611 -0.4786  0.2456
  475MPD2    C1 7118   2.318   3.418  10.560  1.2428 -0.0035  0.3815
  475MPD2    C2 7119   2.217   3.482  10.497 -0.7895  0.4271  0.7832
  475MPD2    C3 7120   2.165   3.436  10.379 -0.2507  0.1449 -0.1121
  475MPD2    C4 7121   2.208   3.308  10.337 -0.0517  0.5785  0.7308
  475MPD2    C5 7122   2.301   3.233  10.414 -0.5674 -0.0226  0.3097
  475MPD2     H 7123   2.176   3.579  10.523  0.1409  0.7853  0.9245
  475MPD2    H1 7124   2.168   3.264  10.246  1.2444 -3.2023  2.0071
  475MPD2    H2 7125   2.428   3.246  10.585  1.6060 -0.5509 -1.3616
  475MPD2    H3 7126   2.327   3.135  10.377 -2.2943  0.7322 -2.9186
  475MPD2     N 7127   2.064   3.505  10.311 -0.6892  0.2142 -0.5306
  475MPD2    H5 7128   2.029   3.586  10.360 -0.6262 -0.3463  0.4509
  475MPD2    N1 7129   2.392   3.479  10.663  0.5716 -0.2194  0.1133
  475MPD2    H7 7130   2.481   3.433  10.682  1.0452  0.0143 -1.5340
  476TMC3    C1 7131   2.492   3.672  10.750 -0.1415 -0.7332  0.2375
  476TMC3    C2 7132   2.558   3.705  10.635  0.6897 -0.2113  0.1408
  476TMC3    C3 7133   2.582   3.838  10.613  0.2456  0.2205 -0.1068
  476TMC3    C4 7134   2.474   3.763  10.849 -0.2647  0.1957  0.2097
  476TMC3    C5 7135   2.535   3.883  10.836  0.1357 -0.3290  0.0631
  476TMC3    C6 7136   2.597   3.919  10.721 -0.8285 -0.0091 -0.8533
  476TMC3     C 7137   2.367   3.599  10.718  0.2976 -0.5906  1.0300
  476TMC3     O 7138   2.265   3.654  10.748  0.1984 -0.3538 -0.2295
  476TMC3     H 7139   2.563   3.629  10.557 -1.3786 -2.2675  2.0028
  476TMC3    H1 7140   2.411   3.740  10.935 -0.6645 -0.5504 -0.2798
  476TMC3    H2 7141   2.635   4.019  10.707 -0.6189  0.2042  1.2120
  476TMC3    C7 7142   2.559   3.949  10.956 -0.1081  0.3786  0.4191
  476TMC3    C8 7143   2.515   3.906  10.504  0.1358 -0.2794 -0.5635
  476TMC3    O1 7144   2.507   3.900  11.060 -0.0876  0.7337  0.1507
  476TMC3    O2 7145   2.503   4.027  10.512  0.1541  0.0906 -0.4171
  477MPD2     C 7146   0.534   0.258  11.567 -0.2133 -0.2622  0.2623
  477MPD2    C1 7147   0.434   0.164  11.548 -0.1206 -0.0105 -0.5143
  477MPD2    C2 7148   0.467   0.032  11.567 -0.2741  1.1334  0.2110
  477MPD2    C3 7149   0.596   4.737  11.595  0.5694  0.4452  0.2942
  477MPD2    C4 7150   0.693   0.091  11.621 -0.5066 -0.1402  0.3875
  477MPD2    C5 7151   0.658   0.220  11.613  0.9144  0.3558  0.4622
  477MPD2     H 7152   0.396   4.690  11.557  0.5695  0.1813  1.9620
  477MPD2    H1 7153   0.796   0.059  11.634 -0.6260 -0.2738  1.0140
  477MPD2    H2 7154   0.514   0.363  11.547 -0.4735  0.1908  2.9528
  477MPD2    H3 7155   0.735   0.296  11.628  1.1352  0.1433  0.4052
  477MPD2     N 7156   0.621   4.599  11.606 -0.1038  0.3800 -0.5961
  477MPD2    H5 7157   0.539   4.540  11.602  0.6097 -0.7617  1.8736
  477MPD2    N1 7158   0.304   0.209  11.524  0.2096  0.6078  0.0597
  477MPD2    H7 7159   0.292   0.310  11.527  1.1987  0.7754 -1.7319
  478TMC3    C1 7160   0.079   0.199  11.432 -0.7031  0.3501 -0.4342
  478TMC3    C2 7161   0.037   0.309  11.510 -0.0596 -1.0683 -0.3045
  478TMC3    C3 7162   4.641   0.335  11.512 -0.2629 -0.7507 -0.0077
  478TMC3    C4 7163   4.730   0.123  11.359 -0.9749  0.4941  0.1469
  478TMC3    C5 7164   4.592   0.161  11.360 -0.0614 -0.1827 -0.1813
  478TMC3    C6 7165   4.543   0.268  11.441 -0.0799 -0.2801 -0.0782
  478TMC3     C 7166   0.201   0.129  11.463 -0.1131 -0.4447 -0.6222
  478TMC3     O 7167   0.211   0.012  11.432  0.6057 -0.3825  0.1489
  478TMC3     H 7168   0.097   0.350  11.591 -0.9674 -2.0657  0.8881
  478TMC3    H1 7169   0.036   0.048  11.296 -1.7013  0.0807  0.1138
  478TMC3    H2 7170   4.439   0.297  11.448 -0.0061 -0.5236  2.0577
  478TMC3    C7 7171   4.531   0.159  11.227  0.4501  0.6551 -0.3339
  478TMC3    C8 7172   4.592   0.444  11.598 -0.2650  0.1772 -0.2360
  478TMC3    O1 7173   4.429   0.229  11.221  0.7308  0.5659 -0.1727
  478TMC3    O2 7174   4.662   0.543  11.608  0.1527 -0.3592  0.3922
  479MPD2     C 7175   3.240   1.559  15.267 -0.4709 -0.3818  0.0254
  479MPD2    C1 7176   3.274   1.660  15.174  0.3599  0.3760  0.9256
  479MPD2    C2 7177   3.327   1.774  15.214  0.3344  0.3708 -0.2695
  479MPD2    C3 7178   3.352   1.798  15.351  0.2117 -0.2267 -0.3533
  479MPD2    C4 7179   3.325   1.698  15.441 -0.9044  0.0413 -0.1296
  479MPD2    C5 7180   3.260   1.586  15.400  0.6480 -0.1379  0.1641
  479MPD2     H 7181   3.343   1.859  15.149  2.0978  0.9978  0.9524
  479MPD2    H1 7182   3.354   1.713  15.545  1.8739 -1.7629 -0.6550
  479MPD2    H2 7183   3.198   1.463  15.239  0.4107  0.1322 -3.0051
  479MPD2    H3 7184   3.243   1.502  15.467  0.3306 -0.3043 -0.1292
  479MPD2     N 7185   3.412   1.924  15.402 -0.3594 -0.4874  0.9257
  479MPD2    H5 7186   3.407   1.938  15.502  2.3151 -1.0744  1.1389
  479MPD2    N1 7187   3.232   1.639  15.041 -0.6706  0.7776 -0.1522
  479MPD2    H7 7188   3.207   1.543  15.017  1.3518  0.6175 -1.5793
  480TMC3    C1 7189   3.703   2.161  15.566 -0.2959 -0.5362 -0.6198
  480TMC3    C2 7190   3.738   2.283  15.507 -0.2452 -1.2578 -0.4000
  480TMC3    C3 7191   3.686   2.303  15.381  0.6602 -0.2033  0.5033
  480TMC3    C4 7192   3.619   2.068  15.511  0.2984  0.4721 -0.3462
  480TMC3    C5 7193   3.556   2.108  15.399  0.1517  0.3111 -0.0292
  480TMC3    C6 7194   3.595   2.215  15.323 -0.3426 -0.1992 -0.5307
  480TMC3     C 7195   3.792   2.111  15.670 -0.0159 -1.1331  0.1829
  480TMC3     O 7196   3.765   1.996  15.704 -0.2297 -0.3393 -0.2636
  480TMC3     H 7197   3.813   2.353  15.540 -1.0091  0.5454 -2.4346
  480TMC3    H1 7198   3.622   1.965  15.544 -1.1589  0.2946 -0.7977
  480TMC3    H2 7199   3.545   2.229  15.228  0.9859 -0.3774 -1.2528
  480TMC3    C7 7200   3.480   2.013  15.322  0.2990  0.0305 -1.0159
  480TMC3    C8 7201   3.683   2.431  15.317  0.1841  0.5173 -0.3849
  480TMC3    O1 7202   3.495   2.014  15.199 -0.5432  0.1660 -0.0607
  480TMC3    O2 7203   3.710   2.524  15.397 -0.3046  0.1532  0.7412
  481MPD2     C 7204   1.126   1.925  13.941  0.8645  0.3677  0.5878
  481MPD2    C1 7205   0.993   1.904  13.966 -0.1068 -0.4692  0.3959
  481MPD2    C2 7206   0.953   1.878  14.099  0.1926 -0.1139  0.0132
  481MPD2    C3 7207   1.043   1.898  14.202  0.0946  0.1829  0.4814
  481MPD2    C4 7208   1.179   1.912  14.173  0.6468 -0.2622 -0.7891
  481MPD2    C5 7209   1.223   1.922  14.041  0.4544 -0.0379 -0.8514
  481MPD2     H 7210   0.849   1.858  14.118  0.5339 -0.7739  1.2005
  481MPD2    H1 7211   1.251   1.912  14.254  0.6741 -2.1716 -0.8176
  481MPD2    H2 7212   1.158   1.937  13.838  0.1167  5.3578  0.9483
  481MPD2    H3 7213   1.330   1.935  14.025  0.8958 -2.8683 -0.2100
  481MPD2     N 7214   1.014   1.886  14.342  0.0716 -0.1068 -0.7859
  481MPD2    H5 7215   1.083   1.926  14.405  1.6547 -1.4990 -1.6365
  481MPD2    N1 7216   0.894   1.891  13.855 -0.4257 -0.3306  0.3241
  481MPD2    H7 7217   0.934   1.910  13.763 -0.4390 -0.6423  0.2523
  482TMC3    C1 7218   0.686   1.881  13.749 -0.2059 -0.1229 -0.1288
  482TMC3    C2 7219   0.728   1.791  13.652 -0.1369  0.3561  0.1632
  482TMC3    C3 7220   0.648   1.773  13.542  0.7432  0.0373 -1.2885
  482TMC3    C4 7221   0.564   1.948  13.744 -0.4859 -0.3595  0.9647
  482TMC3    C5 7222   0.493   1.930  13.631 -0.3673  0.3112  1.1163
  482TMC3    C6 7223   0.531   1.846  13.528  0.7445  0.3640 -0.3515
  482TMC3     C 7224   0.759   1.900  13.874 -0.3758  0.0459  0.6812
  482TMC3     O 7225   0.691   1.903  13.973 -0.6342  0.3856  0.1742
  482TMC3     H 7226   0.808   1.722  13.674  0.1686  0.4071 -0.7680
  482TMC3    H1 7227   0.527   2.004  13.828  0.6483  0.5763  0.8463
  482TMC3    H2 7228   0.467   1.829  13.443 -0.8513  0.6145  0.7976
  482TMC3    C7 7229   0.399   2.039  13.605 -0.6771  0.9362  0.5873
  482TMC3    C8 7230   0.677   1.660  13.462 -0.3740  0.2787  0.3184
  482TMC3    O1 7231   0.429   2.142  13.668 -0.1366  0.4289 -0.0267
  482TMC3    O2 7232   0.584   1.604  13.407  0.3892  0.3831  0.1943
  483TMC3    C1 7233   4.051   0.362   0.110  0.3595 -0.2759  0.2966
  483TMC3    C2 7234   4.025   0.485   0.152  1.2487 -0.0574 -0.3004
  483TMC3    C3 7235   4.127   0.553   0.217 -0.5254  0.1888  0.0873
  483TMC3    C4 7236   4.172   0.307   0.120  0.1365  0.1625 -0.2870
  483TMC3    C5 7237   4.265   0.363   0.204  0.0122 -0.3934 -0.1168
  483TMC3    C6 7238   4.243   0.484   0.255  0.4366 -0.7648  0.2697
  483TMC3     C 7239   3.941   0.274   0.071 -0.1276  0.5025 -0.4150
  483TMC3     O 7240   3.974   0.162   0.063  0.6434  0.3096  0.0632
  483TMC3     H 7241   3.940   0.543   0.116  2.2552  1.2128 -0.6508
  483TMC3    H1 7242   4.191   0.205   0.089 -0.4820  0.1279 -0.5566
  483TMC3    H2 7243   4.329   0.533   0.299  0.3235 -0.7156  0.4362
  483TMC3    C7 7244   4.369   0.276   0.264  0.4109  0.5953 -0.2285
  483TMC3    C8 7245   4.118   0.697   0.240  0.0004 -0.1397  0.2277
  483TMC3    O1 7246   4.380   0.166   0.207 -0.1463 -0.2247  0.0496
  483TMC3    O2 7247   4.050   0.760   0.163 -0.5358  0.5490  0.3354
  484MPD2     C 7248   1.171   3.926  12.151 -0.0915  0.0358 -0.0792
  484MPD2    C1 7249   1.218   3.857  12.262  0.0508  0.0714  0.1080
  484MPD2    C2 7250   1.347   3.882  12.307 -1.0150  0.6616  0.0275
  484MPD2    C3 7251   1.420   3.976  12.243 -0.2082 -0.6462 -0.0494
  484MPD2    C4 7252   1.367   4.055  12.144  0.1069 -0.4915 -0.4205
  484MPD2    C5 7253   1.242   4.028  12.098  0.1912 -0.6095 -0.2270
  484MPD2     H 7254   1.393   3.820  12.383 -2.4233  0.0248  0.3612
  484MPD2    H1 7255   1.428   4.131  12.095 -0.2291 -0.4768 -0.8153
  484MPD2    H2 7256   1.072   3.911  12.112 -0.1105 -0.0114 -0.0139
  484MPD2    H3 7257   1.199   4.093  12.023  2.2502 -0.7554 -1.5336
  484MPD2     N 7258   1.557   4.003  12.267  0.2798  0.7524  0.2172
  484MPD2    H5 7259   1.593   4.085  12.220 -1.7249  0.5872 -1.6455
  484MPD2    N1 7260   1.132   3.755  12.314  0.2873 -0.2639  0.1084
  484MPD2    H7 7261   1.055   3.725  12.256 -0.8200  0.0064  1.4511
  485TMC3    C1 7262   1.774   3.990  12.348 -0.0780  0.9091  0.0371
  485TMC3    C2 7263   1.868   3.931  12.425 -0.1463  0.2853 -0.0611
  485TMC3    C3 7264   1.982   4.009  12.461 -0.2744  1.2291  0.9881
  485TMC3    C4 7265   1.790   4.113  12.284  0.4058 -0.6736  0.7446
  485TMC3    C5 7266   1.913   4.177  12.308  0.4336  0.0217 -0.1431
  485TMC3    C6 7267   2.000   4.132  12.403 -0.5188  0.2463  0.0190
  485TMC3     C 7268   1.641   3.928  12.344 -0.5152 -0.3366 -0.2810
  485TMC3     O 7269   1.637   3.814  12.387 -0.4335 -0.3147 -0.0858
  485TMC3     H 7270   1.862   3.829  12.463 -0.2628  0.1779 -0.3675
  485TMC3    H1 7271   1.725   4.159  12.211  2.0873 -0.4661 -0.6490
  485TMC3    H2 7272   2.088   4.189  12.428 -0.1057 -0.1842 -0.4383
  485TMC3    C7 7273   1.971   4.227  12.187 -0.1678  0.1735  0.0179
  485TMC3    C8 7274   2.102   3.936  12.452 -0.3008 -0.8260  0.0379
  485TMC3    O1 7275   1.893   4.279  12.111  0.1083 -0.2015  0.3628
  485TMC3    O2 7276   2.173   3.979  12.363 -0.0309 -0.2213  0.1975
  486MPD2     C 7277   3.480   2.641  13.017  0.7633  0.3716 -0.4332
  486MPD2    C1 7278   3.460   2.609  12.884 -0.9084  0.7812 -0.4930
  486MPD2    C2 7279   3.376   2.689  12.796  0.4228  0.2673  0.1798
  486MPD2    C3 7280   3.319   2.802  12.854  0.2267 -0.6020  0.1145
  486MPD2    C4 7281   3.343   2.834  12.980  0.3314 -0.6131  0.1690
  486MPD2    C5 7282   3.433   2.757  13.060  0.2750 -0.3759  0.5176
  486MPD2     H 7283   3.366   2.661  12.692 -0.1987 -0.7366  0.5072
  486MPD2    H1 7284   3.298   2.923  13.023  1.0535 -1.0244  1.8073
  486MPD2    H2 7285   3.543   2.587  13.086  0.4321 -1.2855 -1.4333
  486MPD2    H3 7286   3.468   2.783  13.159  3.0433 -0.3603 -0.4614
  486MPD2     N 7287   3.232   2.883  12.771  0.1313 -0.2705  0.3402
  486MPD2    H5 7288   3.221   2.846  12.677  0.9777 -0.5064  0.3290
  486MPD2    N1 7289   3.519   2.484  12.841 -0.1045 -0.1362 -0.2070
  486MPD2    H7 7290   3.587   2.451  12.908 -0.6486  1.8771  1.3407
  487TMC3    C1 7291   3.540   2.275  12.749 -0.2610 -0.2058 -0.2505
  487TMC3    C2 7292   3.457   2.175  12.720 -0.2152 -0.0030 -0.2330
  487TMC3    C3 7293   3.492   2.049  12.755 -0.4168  0.4828  0.0063
  487TMC3    C4 7294   3.655   2.249  12.816  0.6267  0.1049  0.4238
  487TMC3    C5 7295   3.679   2.125  12.854  0.1572 -0.0618 -0.0280
  487TMC3    C6 7296   3.603   2.021  12.818 -0.3513  0.1606  0.2579
  487TMC3     C 7297   3.491   2.413  12.729  0.2377 -0.2908  0.1986
  487TMC3     O 7298   3.406   2.436  12.638 -0.1690  0.0128 -0.1680
  487TMC3     H 7299   3.373   2.198  12.655  0.4826  1.8705 -0.4759
  487TMC3    H1 7300   3.727   2.329  12.833  0.4036  0.8266 -1.9603
  487TMC3    H2 7301   3.619   1.924  12.864 -0.6677  0.3315  0.7320
  487TMC3    C7 7302   3.779   2.095  12.956  0.2106  0.0968  1.2338
  487TMC3    C8 7303   3.385   1.946  12.757  0.2371 -0.2683  0.0983
  487TMC3    O1 7304   3.813   1.978  12.959  0.5230  0.2472  0.0447
  487TMC3    O2 7305   3.267   1.984  12.741  0.0270  0.2764  0.3942
  488MPD2     C 7306   3.521   4.200  15.873  0.4876  0.6035  0.5149
  488MPD2    C1 7307   3.638   4.221  15.939  0.0439 -0.4298  0.7749
  488MPD2    C2 7308   3.673   4.151  16.054 -0.3075 -0.2213 -0.8261
  488MPD2    C3 7309   3.589   4.048  16.086  0.4654 -0.2679 -0.1452
  488MPD2    C4 7310   3.476   4.017  16.010 -0.3582 -0.4338 -0.1801
  488MPD2    C5 7311   3.440   4.096  15.909  0.1227 -0.1717  0.3210
  488MPD2     H 7312   3.764   4.181  16.105 -0.3974 -2.1656  0.4871
  488MPD2    H1 7313   3.403   3.942  16.038 -0.9264  0.4476  0.7317
  488MPD2    H2 7314   3.507   4.232  15.770 -0.7955 -1.3153  0.0938
  488MPD2    H3 7315   3.354   4.074  15.846  1.4004 -0.2798 -1.3713
  488MPD2     N 7316   3.636   3.971  16.200 -0.0501 -0.0434  0.7526
  488MPD2    H5 7317   3.725   3.989  16.245  0.0894  0.1686  0.3962
  488MPD2    N1 7318   3.723   4.329  15.917  0.4327 -0.1155 -0.1236
  488MPD2    H7 7319   3.791   4.351  15.989 -0.6663  2.7113  0.0449
  489TMC3    C1 7320   3.642   3.819  16.372 -0.4363  0.0007  0.0378
  489TMC3    C2 7321   3.579   3.839  16.497 -0.2673  0.7119  0.2404
  489TMC3    C3 7322   3.657   3.815  16.612 -0.3698 -0.0367  0.4814
  489TMC3    C4 7323   3.774   3.780  16.358  0.3081  0.6297  0.6652
  489TMC3    C5 7324   3.842   3.746  16.480 -0.0753  1.2922 -0.2612
  489TMC3    C6 7325   3.783   3.768  16.600 -0.0416  0.1396  0.8078
  489TMC3     C 7326   3.576   3.861  16.251  0.2890  1.0498 -0.1759
  489TMC3     O 7327   3.456   3.832  16.242  0.0892  0.1448 -0.0247
  489TMC3     H 7328   3.477   3.875  16.503 -0.9484 -1.6517  2.7855
  489TMC3    H1 7329   3.824   3.762  16.264 -0.9197 -1.4372  0.3963
  489TMC3    H2 7330   3.848   3.761  16.686  0.4642 -0.3741  0.3805
  489TMC3    C7 7331   3.967   3.686  16.472 -0.5205 -0.5632  0.1353
  489TMC3    C8 7332   3.643   3.921  16.714 -0.1513 -0.2044 -0.4204
  489TMC3    O1 7333   3.995   3.600  16.556  0.2081  0.1080  0.5679
  489TMC3    O2 7334   3.742   3.964  16.775 -0.0117  0.2435 -0.1031
  490MPD2     C 7335   4.136   3.599  17.293 -0.5139 -0.1487 -0.6240
  490MPD2    C1 7336   4.248   3.533  17.245 -0.5880 -0.2620  0.5006
  490MPD2    C2 7337   4.357   3.615  17.211  0.4383  0.5473  0.1326
  490MPD2    C3 7338   4.349   3.754  17.207 -0.7789 -0.1029  0.1045
  490MPD2    C4 7339   4.236   3.814  17.256 -0.3395 -0.6213  0.7667
  490MPD2    C5 7340   4.132   3.734  17.298  0.0007  0.5376 -0.2068
  490MPD2     H 7341   4.451   3.568  17.184  0.3882  0.9165 -0.6873
  490MPD2    H1 7342   4.228   3.922  17.259 -1.1487 -0.7026  1.8112
  490MPD2    H2 7343   4.049   3.552  17.338 -0.5147 -0.6565 -1.1483
  490MPD2    H3 7344   4.047   3.782  17.346 -0.7676  1.1997 -2.2222
  490MPD2     N 7345   4.458   3.832  17.166 -0.1908 -0.0197  0.1152
  490MPD2    H5 7346   4.453   3.932  17.183  3.0521  0.5782 -2.3268
  490MPD2    N1 7347   4.262   3.391  17.248 -0.3998 -0.0053 -0.4264
  490MPD2    H7 7348   4.340   3.350  17.198 -0.6463 -1.0926  0.0788
  491TMC3    C1 7349   4.203   3.175  17.293  0.0220  0.6080  0.3259
  491TMC3    C2 7350   4.161   3.081  17.385  0.6465  0.1168 -0.1343
  491TMC3    C3 7351   4.163   2.947  17.359  0.0719  0.9670  0.5228
  491TMC3    C4 7352   4.237   3.139  17.168  0.6914  0.1541 -0.6747
  491TMC3    C5 7353   4.240   3.005  17.149 -0.6569 -0.2295 -0.0025
  491TMC3    C6 7354   4.211   2.903  17.238 -0.2579 -0.1722  0.2925
  491TMC3     C 7355   4.196   3.312  17.328 -0.1338 -0.0284 -0.0925
  491TMC3     O 7356   4.118   3.342  17.421 -0.2863  0.1068  0.1267
  491TMC3     H 7357   4.131   3.111  17.485 -2.1068 -2.1201 -0.3129
  491TMC3    H1 7358   4.248   3.204  17.082  2.7932 -0.0319 -0.5623
  491TMC3    H2 7359   4.212   2.798  17.210  1.9468  0.1652 -0.8462
  491TMC3    C7 7360   4.290   2.960  17.020  0.4665  0.4860  0.2932
  491TMC3    C8 7361   4.036   2.895  17.405  0.4632 -0.2633  0.1048
  491TMC3    O1 7362   4.267   2.841  16.982  0.1996  0.2084 -0.2836
  491TMC3    O2 7363   3.963   2.977  17.465  0.1080 -0.0735  0.0649
  492MPD2     C 7364   0.312   3.249  10.861 -0.0291  0.0009  0.5397
  492MPD2    C1 7365   0.180   3.200  10.861 -0.0110 -0.1343  0.2616
  492MPD2    C2 7366   0.130   3.139  10.977 -0.5805 -0.5351 -0.2694
  492MPD2    C3 7367   0.215   3.105  11.081 -0.1733 -0.0857 -0.4058
  492MPD2    C4 7368   0.348   3.148  11.073 -0.1912 -0.4514 -0.0361
  492MPD2    C5 7369   0.394   3.220  10.966  0.0404  0.5394 -0.1088
  492MPD2     H 7370   0.024   3.117  10.987 -1.1431  2.2582  0.0537
  492MPD2    H1 7371   0.419   3.127  11.151  0.7343  1.0992 -0.4565
  492MPD2    H2 7372   0.345   3.309  10.777  1.3181  1.3329  2.0109
  492MPD2    H3 7373   0.491   3.269  10.965  1.5450 -2.3872  3.0606
  492MPD2     N 7374   0.169   3.035  11.190 -0.3895 -0.2675 -0.7336
  492MPD2    H5 7375   0.227   3.028  11.273 -0.8908  3.0882 -0.1016
  492MPD2    N1 7376   0.098   3.229  10.752  0.0067  0.2054  0.3708
  492MPD2    H7 7377   0.150   3.270  10.675  1.8706 -0.4210  1.3018
  493TMC3    C1 7378   4.643   3.227  10.604 -0.5165  0.1646  0.3060
  493TMC3    C2 7379   4.689   3.340  10.534  0.0362  0.8283 -0.2847
  493TMC3    C3 7380   4.599   3.407  10.449  0.0581  0.8138  0.4709
  493TMC3    C4 7381   4.511   3.187  10.587 -0.4766  0.1336  0.0801
  493TMC3    C5 7382   4.427   3.255  10.506 -0.1849  0.0948  0.4392
  493TMC3    C6 7383   4.469   3.362  10.428  0.1182 -0.6727 -0.0643
  493TMC3     C 7384   4.703   3.191  10.736  0.3790 -0.1978 -0.2915
  493TMC3     O 7385   4.643   3.109  10.806 -0.1523 -0.1856 -0.2897
  493TMC3     H 7386   0.038   3.393  10.566 -1.0487  1.2507  2.0802
  493TMC3    H1 7387   4.475   3.097  10.636 -1.6854  0.5941  0.0247
  493TMC3    H2 7388   4.398   3.423  10.374 -0.6181 -0.2138  1.4111
  493TMC3    C7 7389   4.283   3.228  10.508  0.3982  0.7672  0.5711
  493TMC3    C8 7390   4.636   3.538  10.407  0.1418 -0.0693  1.1398
  493TMC3    O1 7391   4.222   3.260  10.408 -0.2702  0.1535 -0.4578
  493TMC3    O2 7392   4.701   3.601  10.486 -0.1199 -0.1112  0.5494
  494TMC3    C1 7393   0.535   0.491   0.447  0.0610  0.0724 -0.0796
  494TMC3    C2 7394   0.539   0.365   0.390 -0.1613 -0.5864  0.7671
  494TMC3    C3 7395   0.618   0.351   0.282  0.1000 -0.7661  0.5727
  494TMC3    C4 7396   0.604   0.594   0.394 -0.5713  0.5014 -0.5585
  494TMC3    C5 7397   0.686   0.573   0.291 -0.0442  0.2604 -0.1272
  494TMC3    C6 7398   0.693   0.450   0.232  0.3862 -0.5916 -0.3557
  494TMC3     C 7399   0.487   0.507   0.581  0.4516 -0.5008  0.4542
  494TMC3     O 7400   0.549   0.579   0.654  0.5473 -0.0211  0.5686
  494TMC3     H 7401   0.502   0.280   0.446  1.6585 -1.4705  0.6352
  494TMC3    H1 7402   0.592   0.684   0.454  1.1706  2.3349 -2.9850
  494TMC3    H2 7403   0.760   0.428   0.149  1.0477 -0.2425  0.0806
  494TMC3    C7 7404   0.742   0.683   0.208 -0.0638  0.0449 -0.3905
  494TMC3    C8 7405   0.678   0.223   0.272 -0.0272 -0.1063  0.3524
  494TMC3    O1 7406   0.781   0.654   0.098 -0.0348  0.0126  0.0483
  494TMC3    O2 7407   0.800   0.214   0.293  0.0371  0.2745 -0.3494
  495TMC3    C1 7408   3.900   2.245  14.410 -0.7136  0.0601 -0.1941
  495TMC3    C2 7409   3.802   2.287  14.331  0.5116 -0.1728  0.1874
  495TMC3    C3 7410   3.738   2.404  14.356  0.5935 -0.1565  0.0265
  495TMC3    C4 7411   3.924   2.319  14.526 -0.0384 -0.2266  0.0452
  495TMC3    C5 7412   3.850   2.430  14.556 -0.3071 -0.1955  0.1716
  495TMC3    C6 7413   3.756   2.479  14.469 -0.1485 -0.1219 -0.3368
  495TMC3     C 7414   3.897   2.096  14.425 -0.2101  0.8449 -1.0201
  495TMC3     O 7415   3.833   2.035  14.342 -0.1236  0.3390  0.0322
  495TMC3     H 7416   3.777   2.232  14.241 -0.3565  1.1197 -0.3620
  495TMC3    H1 7417   3.984   2.265  14.598 -1.5584 -0.9066  0.7914
  495TMC3    H2 7418   3.687   2.558  14.495  0.9587  0.7204  0.0997
  495TMC3    C7 7419   3.816   2.436  14.698 -0.4632  0.5467  0.7130
  495TMC3    C8 7420   3.631   2.438  14.271  0.3669 -0.1776 -0.1060
  495TMC3    O1 7421   3.842   2.337  14.761  0.2467  0.1567 -0.2810
  495TMC3    O2 7422   3.582   2.345  14.210 -0.2237  0.7064 -0.0590
  496MPD2     C 7423   0.892   2.918  14.985 -0.1543  0.0082  0.3482
  496MPD2    C1 7424   0.955   2.850  15.088  0.0602  0.2805 -0.2163
  496MPD2    C2 7425   0.890   2.837  15.212 -0.1214  0.5225  0.6959
  496MPD2    C3 7426   0.755   2.881  15.222  0.0552 -0.2398 -0.1815
  496MPD2    C4 7427   0.703   2.958  15.122  0.6644  0.5718 -0.3268
  496MPD2    C5 7428   0.776   2.981  15.005 -0.5573  0.2463  0.4204
  496MPD2     H 7429   0.938   2.785  15.294 -2.1417 -2.3745  0.0738
  496MPD2    H1 7430   0.602   2.996  15.128  0.8161  1.3482 -2.6432
  496MPD2    H2 7431   0.928   2.913  14.883 -0.6020 -0.0765  0.1912
  496MPD2    H3 7432   0.727   3.034  14.924  2.4413  2.7349  0.2183
  496MPD2     N 7433   0.674   2.868  15.339 -0.2965 -0.4919 -0.8634
  496MPD2    H5 7434   0.582   2.910  15.342 -0.3219 -0.5050 -1.3937
  496MPD2    N1 7435   1.087   2.808  15.066  0.2198  0.5408  0.2424
  496MPD2    H7 7436   1.111   2.812  14.967  1.0394 -0.5991  0.3917
  497TMC3    C1 7437   0.600   2.834  15.562 -0.8345  0.4064 -0.0920
  497TMC3    C2 7438   0.475   2.788  15.526 -0.1884 -0.6408 -0.3487
  497TMC3    C3 7439   0.393   2.770  15.632 -0.2725 -1.4921  0.2032
  497TMC3    C4 7440   0.651   2.863  15.693  0.2673 -0.6847 -0.1641
  497TMC3    C5 7441   0.554   2.841  15.792 -0.3056 -0.0130  0.4330
  497TMC3    C6 7442   0.431   2.788  15.765 -0.0706  0.2837 -1.2299
  497TMC3     C 7443   0.708   2.810  15.458  0.1675 -0.5646  0.8017
  497TMC3     O 7444   0.819   2.764  15.499 -0.1625 -0.3860  0.9215
  497TMC3     H 7445   0.437   2.778  15.425  1.0674 -2.0639 -0.6831
  497TMC3    H1 7446   0.745   2.912  15.714  0.5979 -1.8059  1.0062
  497TMC3    H2 7447   0.361   2.776  15.847  2.0215  1.0053  0.6488
  497TMC3    C7 7448   0.587   2.902  15.919 -0.4384  0.0181  0.1053
  497TMC3    C8 7449   0.262   2.730  15.601 -0.5081 -0.1406  0.7111
  497TMC3    O1 7450   0.491   2.927  15.997 -0.2415  0.0537  0.9019
  497TMC3    O2 7451   0.209   2.795  15.509  0.7201 -0.5757 -0.7292
  498MPD2     C 7452   2.158   3.568   9.403  0.3158  0.2765  0.8993
  498MPD2    C1 7453   2.106   3.624   9.523  0.5081  0.2442  0.2499
  498MPD2    C2 7454   1.981   3.595   9.565 -0.1143 -0.4393 -0.5909
  498MPD2    C3 7455   1.908   3.505   9.489 -0.7296  0.0189 -0.9358
  498MPD2    C4 7456   1.956   3.454   9.369  0.0646  0.4365  0.1260
  498MPD2    C5 7457   2.082   3.489   9.326  0.7446  0.6417 -0.4710
  498MPD2     H 7458   1.934   3.644   9.649  0.7880  0.5216 -0.6469
  498MPD2    H1 7459   1.895   3.387   9.309  1.1670  1.0074 -1.6239
  498MPD2    H2 7460   2.244   3.611   9.354 -1.8662  2.4433 -1.0591
  498MPD2    H3 7461   2.116   3.465   9.225  0.2108  0.1750 -0.5393
  498MPD2     N 7462   1.779   3.467   9.541  0.1751  0.3066  0.4733
  498MPD2    H5 7463   1.747   3.497   9.633 -0.1909  0.9044  0.1506
  498MPD2    N1 7464   2.184   3.729   9.591 -0.0626  0.2553 -0.4897
  498MPD2    H7 7465   2.131   3.778   9.663  1.1236 -0.3688  0.7974
  499TMC3    C1 7466   2.368   3.854   9.654  0.2829 -1.2439  0.1418
  499TMC3    C2 7467   2.487   3.826   9.719 -0.2400  0.5261 -0.0102
  499TMC3    C3 7468   2.530   3.908   9.815 -0.1156  0.2747 -0.0213
  499TMC3    C4 7469   2.282   3.953   9.698 -0.0331 -0.6073 -0.0128
  499TMC3    C5 7470   2.335   4.040   9.788  0.1938  0.6906 -0.0444
  499TMC3    C6 7471   2.451   4.012   9.853  0.3288  0.0081  0.1446
  499TMC3     C 7472   2.314   3.747   9.570 -0.3183  1.2527 -0.2358
  499TMC3     O 7473   2.399   3.684   9.505  0.5128  0.0299  0.2394
  499TMC3     H 7474   2.535   3.734   9.686  1.4536  2.5405 -3.2112
  499TMC3    H1 7475   2.194   3.969   9.636 -1.4128 -0.3968  2.0006
  499TMC3    H2 7476   2.493   4.100   9.900  0.5896  1.4454 -2.7966
  499TMC3    C7 7477   2.296   4.177   9.772 -0.3748 -0.2585  0.5565
  499TMC3    C8 7478   2.640   3.865   9.906  0.6300  0.3626 -0.1453
  499TMC3    O1 7479   2.378   4.262   9.798  0.0980  0.2838 -0.2027
  499TMC3    O2 7480   2.689   3.753   9.879  0.1716  0.4956  0.0060
  500MPD2     C 7481   3.495   4.126  10.474 -0.2545  0.3410 -0.4254
  500MPD2    C1 7482   3.540   4.196  10.368 -0.5913  0.3858  0.9056
  500MPD2    C2 7483   3.459   4.207  10.256 -0.2720 -0.1156 -0.6140
  500MPD2    C3 7484   3.326   4.159  10.261 -0.0603 -0.1734 -0.6103
  500MPD2    C4 7485   3.275   4.106  10.379  0.0699  0.1902 -0.3009
  500MPD2    C5 7486   3.364   4.087  10.480 -0.1086  0.4094 -0.3780
  500MPD2     H 7487   3.485   4.266  10.169 -2.9946  0.8497 -0.7803
  500MPD2    H1 7488   3.170   4.081  10.392  0.3021  0.2171  1.7090
  500MPD2    H2 7489   3.548   4.102  10.565  0.5857  0.3208 -0.9185
  500MPD2    H3 7490   3.324   4.059  10.577 -1.4990 -0.9695 -1.3499
  500MPD2     N 7491   3.241   4.176  10.144  0.4775 -0.1913 -0.6549
  500MPD2    H5 7492   3.148   4.134  10.139  1.3416 -2.0667 -1.1143
  500MPD2    N1 7493   3.669   4.253  10.365  0.3065  0.2048  0.3040
  500MPD2    H7 7494   3.704   4.309  10.289 -0.9211  1.5801  0.7415
  501TMC3    C1 7495   3.888   4.306  10.437 -0.1925  0.3649  0.4018
  501TMC3    C2 7496   3.893   4.442  10.401  0.0874  0.1297  0.1156
  501TMC3    C3 7497   4.007   4.515  10.431 -0.0760  0.0025  0.3006
  501TMC3    C4 7498   3.999   4.250  10.495 -0.2526  0.2290  0.1757
  501TMC3    C5 7499   4.106   4.324  10.525 -0.0684  0.4872  0.1704
  501TMC3    C6 7500   4.113   4.456  10.490  0.1321 -0.3352  0.4459
  501TMC3     C 7501   3.761   4.244  10.470  0.3414  0.0939 -0.4466
  501TMC3     O 7502   3.747   4.180  10.571 -0.2988  0.2346  0.2044
  501TMC3     H 7503   3.805   4.486  10.355 -1.4116 -1.1126  1.8222
  501TMC3    H1 7504   3.996   4.147  10.529  1.8697  0.8138  2.1256
  501TMC3    H2 7505   4.212   4.500  10.495 -0.4084  0.7316  1.8260
  501TMC3    C7 7506   4.228   4.258  10.570 -0.4745  0.6143 -0.6938
  501TMC3    C8 7507   4.015   4.656  10.409 -0.1674 -0.1598  0.5182
  501TMC3    O1 7508   4.234   4.131  10.558 -0.1823  0.1865  0.6118
  501TMC3    O2 7509   4.124   4.700  10.445  0.1105 -0.1834  0.0322
  502TMC3    C1 7510   3.560   3.584  14.727  0.6011  0.1264 -0.3192
  502TMC3    C2 7511   3.536   3.710  14.683 -0.3341  0.5707 -0.5555
  502TMC3    C3 7512   3.411   3.770  14.714  0.0020  0.4009 -0.5657
  502TMC3    C4 7513   3.461   3.512  14.778  0.5628  0.4074 -0.0938
  502TMC3    C5 7514   3.337   3.571  14.799 -0.1582 -0.1355 -0.2346
  502TMC3    C6 7515   3.314   3.705  14.777 -0.3727 -0.1231 -0.4158
  502TMC3     C 7516   3.678   3.587  14.809 -0.6119  0.6758 -0.0708
  502TMC3     O 7517   3.759   3.674  14.781 -0.3907 -0.3401  0.6488
  502TMC3     H 7518   3.618   3.767  14.642  1.7507 -2.8584 -1.1272
  502TMC3    H1 7519   3.473   3.408  14.806 -1.5674  0.4074  0.8489
  502TMC3    H2 7520   3.219   3.755  14.796  0.1957  0.4114  1.0232
  502TMC3    C7 7521   3.250   3.492  14.880 -0.6504 -0.4150  0.1944
  502TMC3    C8 7522   3.413   3.909  14.721 -0.1921 -0.6284  0.0329
  502TMC3    O1 7523   3.304   3.395  14.937 -0.3272  0.0811  0.0361
  502TMC3    O2 7524   3.449   3.969  14.616  0.0200  0.4246 -0.5815
  503MPD2     C 7525   0.730   4.400  16.870 -0.0271 -0.5170  0.0027
  503MPD2    C1 7526   0.743   4.432  17.000 -0.0605 -0.3478  0.7042
  503MPD2    C2 7527   0.772   4.333  17.093  0.7654  0.4912 -0.1456
  503MPD2    C3 7528   0.771   4.197  17.055  0.4302  0.2432 -0.3777
  503MPD2    C4 7529   0.734   4.166  16.922  0.6158 -0.5345 -0.3248
  503MPD2    C5 7530   0.722   4.268  16.835 -0.2449 -0.0817  0.2897
  503MPD2     H 7531   0.768   4.348  17.200  1.7869  0.1314 -0.0559
  503MPD2    H1 7532   0.724   4.064  16.886  2.6457 -0.8253 -0.0820
  503MPD2    H2 7533   0.741   4.472  16.789 -1.6732 -1.5796 -1.1744
  503MPD2    H3 7534   0.728   4.241  16.730  2.2861  2.0185 -0.0993
  503MPD2     N 7535   0.806   4.103  17.153 -0.3174  0.0409  0.3733
  503MPD2    H5 7536   0.832   4.143  17.243  0.3273  0.3806  0.0395
  503MPD2    N1 7537   0.760   4.568  17.039  0.0613 -0.0852  0.3232
  503MPD2    H7 7538   0.789   4.585  17.135 -3.0544  1.2944  1.0336
  504TMC3    C1 7539   0.938   3.906  17.204  0.0022 -0.2161  0.2950
  504TMC3    C2 7540   0.930   3.923  17.338 -0.9228  0.5087 -0.4181
  504TMC3    C3 7541   1.026   3.859  17.417 -0.0859 -0.0402  0.1826
  504TMC3    C4 7542   1.035   3.829  17.145  0.0683  0.4457  0.7502
  504TMC3    C5 7543   1.126   3.773  17.225 -0.0008 -0.1786  0.4833
  504TMC3    C6 7544   1.120   3.778  17.361 -0.8001  1.3011  0.0675
  504TMC3     C 7545   0.836   3.968  17.117  0.9068  0.4592 -0.0924
  504TMC3     O 7546   0.815   3.913  17.007  0.0978 -0.3935 -0.3065
  504TMC3     H 7547   0.840   3.968  17.378 -0.7654 -1.1759  1.8688
  504TMC3    H1 7548   1.051   3.838  17.038  0.5427 -3.1178  0.5177
  504TMC3    H2 7549   1.200   3.732  17.417 -0.6758  3.4508  1.6685
  504TMC3    C7 7550   1.254   3.739  17.161 -0.2010 -0.7188  0.2382
  504TMC3    C8 7551   0.986   3.837  17.562  0.0778  0.3725  0.7330
  504TMC3    O1 7552   1.293   3.805  17.068  0.2316  0.1354  0.4265
  504TMC3    O2 7553   0.913   3.926  17.594 -0.2256  0.0511 -0.1522
  505MPD2     C 7554   0.717   2.551  10.147  1.1687  0.2935  0.0086
  505MPD2    C1 7555   0.847   2.511  10.176  0.3004 -0.2954 -0.3586
  505MPD2    C2 7556   0.918   2.577  10.276 -0.2361  0.3082 -0.0389
  505MPD2    C3 7557   0.860   2.687  10.340 -0.2964  0.1529 -0.1740
  505MPD2    C4 7558   0.744   2.742  10.292  0.1803 -0.1969  0.3461
  505MPD2    C5 7559   0.669   2.666  10.200 -0.8474  0.4782  0.4834
  505MPD2     H 7560   1.008   2.536  10.319  0.5325  0.5853 -1.4019
  505MPD2    H1 7561   0.707   2.836  10.332  1.3186  0.1048  0.6975
  505MPD2    H2 7562   0.664   2.493  10.072  0.3433  0.1370  0.7202
  505MPD2    H3 7563   0.571   2.701  10.169 -0.1046  0.9498 -1.3144
  505MPD2     N 7564   0.945   2.752  10.433  0.5350  0.0386  0.5281
  505MPD2    H5 7565   1.038   2.714  10.446  0.1006  0.0310  3.6978
  505MPD2    N1 7566   0.897   2.410  10.098  0.5222  0.0205 -0.1528
  505MPD2    H7 7567   0.838   2.368  10.027 -1.7083 -0.7564  2.1607
  506TMC3    C1 7568   1.051   2.282   9.984  0.7823 -0.2346  0.0633
  506TMC3    C2 7569   1.014   2.342   9.867 -0.5702 -0.6599  0.1503
  506TMC3    C3 7570   1.109   2.359   9.773 -0.0115  0.6675  0.6222
  506TMC3    C4 7571   1.186   2.238   9.998  0.4505 -0.0616  0.1078
  506TMC3    C5 7572   1.283   2.275   9.905  1.0499  0.2542  1.1494
  506TMC3    C6 7573   1.238   2.342   9.798 -0.5101  0.0479  0.6216
  506TMC3     C 7574   1.024   2.377  10.091 -0.3064  0.1072 -0.0341
  506TMC3     O 7575   1.117   2.398  10.166  0.5753 -0.1968  0.3302
  506TMC3     H 7576   0.911   2.366   9.842  0.3419  0.5483 -2.3719
  506TMC3    H1 7577   1.212   2.176  10.083  0.8829 -0.6920 -0.4852
  506TMC3    H2 7578   1.312   2.373   9.725 -1.0575  1.5186  0.6953
  506TMC3    C7 7579   1.403   2.334   9.952 -0.6356 -0.3741 -0.4672
  506TMC3    C8 7580   1.082   2.440   9.658  0.4975 -0.5584  0.3026
  506TMC3    O1 7581   1.493   2.353   9.872 -0.7975  0.0182 -0.1767
  506TMC3    O2 7582   0.982   2.403   9.593 -0.9542 -0.3204 -0.0441
  507TMC3    C1 7583   1.957   3.465  15.546  0.6973 -0.1413 -0.5214
  507TMC3    C2 7584   1.841   3.390  15.528  0.0096 -0.6489  0.4578
  507TMC3    C3 7585   1.779   3.395  15.403 -0.3596 -0.2874  0.5229
  507TMC3    C4 7586   2.012   3.542  15.447 -0.0317 -0.2150 -0.3519
  507TMC3    C5 7587   1.957   3.527  15.322  1.1981 -0.2081 -0.0271
  507TMC3    C6 7588   1.848   3.451  15.296  0.3453  0.1577  0.4110
  507TMC3     C 7589   2.021   3.441  15.675 -0.2051  0.3651 -0.2339
  507TMC3     O 7590   1.991   3.337  15.734  0.4786 -0.1052 -0.1109
  507TMC3     H 7591   1.780   3.358  15.612 -1.1499 -0.0522 -0.1520
  507TMC3    H1 7592   2.107   3.592  15.463  0.7311 -1.0961 -2.1467
  507TMC3    H2 7593   1.806   3.443  15.196  0.6177 -0.1729  0.3237
  507TMC3    C7 7594   1.952   3.653  15.250  0.4396 -0.0730 -0.5084
  507TMC3    C8 7595   1.642   3.438  15.399 -0.8511  0.3989 -0.2322
  507TMC3    O1 7596   1.874   3.654  15.160 -0.4555 -0.0990  0.3939
  507TMC3    O2 7597   1.561   3.382  15.471  0.2907 -0.2228  0.3470
  508MPD2     C 7598   2.828   1.349  15.775 -0.2936 -0.3171  0.0813
  508MPD2    C1 7599   2.943   1.419  15.759  0.1372  0.3419  0.4044
  508MPD2    C2 7600   2.957   1.520  15.666 -0.6970 -0.1057 -0.3822
  508MPD2    C3 7601   2.855   1.527  15.575  0.8265 -0.5005 -0.3397
  508MPD2    C4 7602   2.741   1.444  15.585  0.0451 -0.4874 -0.1989
  508MPD2    C5 7603   2.728   1.360  15.688  0.1098 -0.0772  0.4435
  508MPD2     H 7604   3.048   1.577  15.653 -1.6045  1.6778  1.0625
  508MPD2    H1 7605   2.664   1.451  15.510 -0.3155  3.8323  0.5732
  508MPD2    H2 7606   2.817   1.274  15.852  0.0296  0.5725  0.9949
  508MPD2    H3 7607   2.637   1.301  15.690  0.1946 -0.2251 -0.1086
  508MPD2     N 7608   2.868   1.629  15.480 -0.3730  0.1428 -0.0749
  508MPD2    H5 7609   2.945   1.693  15.498 -1.1739  1.2223 -0.4625
  508MPD2    N1 7610   3.038   1.386  15.855 -0.2666  0.1601 -0.0253
  508MPD2    H7 7611   3.017   1.312  15.922  0.7281  2.8264  3.2461
  509TMC3    C1 7612   2.774   2.003  15.279 -0.1032  0.4056 -0.3897
  509TMC3    C2 7613   2.892   2.048  15.328 -0.4029  0.4761 -0.2939
  509TMC3    C3 7614   2.992   1.965  15.358 -0.7669  0.4998  0.1628
  509TMC3    C4 7615   2.756   1.870  15.261 -0.1390 -0.0786  0.3908
  509TMC3    C5 7616   2.852   1.778  15.310  0.1265 -0.8009  0.5786
  509TMC3    C6 7617   2.967   1.830  15.358 -0.0918 -0.6435  0.1077
  509TMC3     C 7618   2.671   2.098  15.242  0.0908 -0.6338  0.0164
  509TMC3     O 7619   2.561   2.054  15.201 -0.0749  0.2993  0.0468
  509TMC3     H 7620   2.899   2.152  15.358 -1.6637  1.0424 -1.9349
  509TMC3    H1 7621   2.658   1.831  15.233 -0.0043  0.9640 -1.5713
  509TMC3    H2 7622   3.056   1.769  15.365  0.1500 -0.0836  1.8756
  509TMC3    C7 7623   2.799   1.656  15.370 -0.3969 -1.3260  0.6166
  509TMC3    C8 7624   3.062   1.994  15.476  0.3973 -0.0412  0.5270
  509TMC3    O1 7625   2.706   1.596  15.317 -0.0509  0.4303 -0.0677
  509TMC3    O2 7626   3.063   1.913  15.566 -0.4365 -0.1247  0.5218
  510MPD2     C 7627   0.627   3.169  14.502 -0.2052 -0.8829  0.2896
  510MPD2    C1 7628   0.688   3.055  14.561  0.1621 -0.0999 -0.3665
  510MPD2    C2 7629   0.799   3.001  14.504  0.0972 -0.2873  0.9483
  510MPD2    C3 7630   0.862   3.047  14.391 -0.4435  0.1466 -0.7013
  510MPD2    C4 7631   0.804   3.162  14.330 -0.2653 -0.4674 -0.1807
  510MPD2    C5 7632   0.690   3.220  14.393 -0.3981 -0.1188 -0.1383
  510MPD2     H 7633   0.832   2.905  14.543 -1.4816 -1.9752 -1.8498
  510MPD2    H1 7634   0.840   3.221  14.247 -0.5698 -0.4481 -0.2992
  510MPD2    H2 7635   0.538   3.220  14.536  0.1606 -0.8723  1.2197
  510MPD2    H3 7636   0.648   3.308  14.346  0.1972  0.2969  0.1108
  510MPD2     N 7637   0.975   2.990  14.333  0.4987 -0.4927  0.1499
  510MPD2    H5 7638   1.018   2.912  14.382 -0.8576 -0.2392  1.7169
  510MPD2    N1 7639   0.627   2.979  14.666 -0.0460 -0.3050 -0.1772
  510MPD2    H7 7640   0.677   2.903  14.711  1.3540  2.1327  2.4093
  511TMC3    C1 7641   0.473   2.922  14.833  0.0218 -0.3692  0.1682
  511TMC3    C2 7642   0.397   2.979  14.933  0.2853  0.4404  0.8051
  511TMC3    C3 7643   0.329   2.906  15.024 -0.0815  0.3550 -0.4014
  511TMC3    C4 7644   0.476   2.787  14.816  0.9262 -0.6852  0.7081
  511TMC3    C5 7645   0.420   2.714  14.921  0.3974 -0.1517  0.4658
  511TMC3    C6 7646   0.346   2.767  15.026  0.6610 -0.0733 -0.3565
  511TMC3     C 7647   0.507   3.006  14.718 -0.5741  0.0225 -0.6533
  511TMC3     O 7648   0.435   3.103  14.699  0.4949  0.3445  0.3070
  511TMC3     H 7649   0.378   3.086  14.933 -2.9934 -0.1359  1.9024
  511TMC3    H1 7650   0.526   2.726  14.741 -0.8684 -1.6889  0.3311
  511TMC3    H2 7651   0.297   2.704  15.100  1.8819 -2.2504 -1.3942
  511TMC3    C7 7652   0.418   2.571  14.896  0.5702 -1.1675  0.3751
  511TMC3    C8 7653   0.209   2.962  15.087 -0.0244 -0.3605  0.7707
  511TMC3    O1 7654   0.503   2.512  14.828 -0.1636  0.5974 -0.1598
  511TMC3    O2 7655   0.218   3.086  15.103  0.6207  0.2792 -0.0533
  512TMC3    C1 7656   0.033   2.013  13.673  0.1034  0.1289 -0.3384
  512TMC3    C2 7657   0.010   2.007  13.534  0.7292  0.0255  0.1619
  512TMC3    C3 7658   4.712   1.883  13.495 -0.5629  0.5080 -0.1907
  512TMC3    C4 7659   0.041   1.909  13.761 -1.3468  0.1269 -0.0230
  512TMC3    C5 7660   0.010   1.784  13.709  0.0680  0.3622 -0.5186
  512TMC3    C6 7661   4.712   1.774  13.581  0.7093  0.3701  0.1264
  512TMC3     C 7662   0.065   2.137  13.731 -0.1461 -0.1046  0.2149
  512TMC3     O 7663   0.119   2.137  13.842  0.1643  0.2560  0.2014
  512TMC3     H 7664   0.013   2.098  13.474 -0.3434  0.0645  0.1696
  512TMC3    H1 7665   0.057   1.919  13.868  1.4797 -1.2413 -0.3232
  512TMC3    H2 7666   4.674   1.678  13.548 -0.8275  0.6446  1.0864
  512TMC3    C7 7667   4.718   1.681  13.804 -0.6051  0.0128  0.4747
  512TMC3    C8 7668   4.652   1.863  13.363 -0.6585  0.1046  0.0201
  512TMC3    O1 7669   4.674   1.717  13.915 -0.2744  0.0951 -0.2465
  512TMC3    O2 7670   4.630   1.748  13.325 -0.2923 -0.2816 -0.7391
  513MPD2     C 7671   0.895   2.468  13.120  0.0798  0.1107 -0.5413
  513MPD2    C1 7672   0.965   2.391  13.037  0.1298  0.0778  0.1154
  513MPD2    C2 7673   1.077   2.329  13.082 -0.0009  0.0279 -0.0689
  513MPD2    C3 7674   1.133   2.361  13.208 -0.1350 -0.7833  0.0536
  513MPD2    C4 7675   1.061   2.442  13.290  0.0208  0.4477 -0.2641
  513MPD2    C5 7676   0.940   2.496  13.249  0.1562  0.8906 -0.1627
  513MPD2     H 7677   1.129   2.277  13.002  0.3533 -0.2683  0.3574
  513MPD2    H1 7678   1.091   2.463  13.392  0.3114 -2.0701  0.1702
  513MPD2    H2 7679   0.808   2.526  13.090 -0.3898 -0.3672 -0.1078
  513MPD2    H3 7680   0.873   2.556  13.310  0.5351 -1.2841  2.3727
  513MPD2     N 7681   1.262   2.321  13.239 -0.6206 -0.2297 -0.2876
  513MPD2    H5 7682   1.305   2.270  13.163  1.7617 -1.0410  1.6143
  513MPD2    N1 7683   0.936   2.375  12.900 -0.0065  1.3272 -0.5981
  513MPD2    H7 7684   1.002   2.309  12.861 -0.3412  0.1514  0.8067
  514TMC3    C1 7685   0.862   2.387  12.687  0.6004 -0.0451 -0.5983
  514TMC3    C2 7686   0.884   2.499  12.610  0.1763 -0.0151 -0.3815
  514TMC3    C3 7687   0.981   2.485  12.516 -0.4880 -0.4423  0.4288
  514TMC3    C4 7688   0.933   2.268  12.672 -0.0339 -0.6780 -0.3607
  514TMC3    C5 7689   1.045   2.269  12.586  0.1240 -0.4667 -0.3616
  514TMC3    C6 7690   1.062   2.376  12.504  0.1261 -0.2058  0.1213
  514TMC3     C 7691   0.839   2.424  12.822  0.6724 -0.5374 -0.0121
  514TMC3     O 7692   0.770   2.522  12.846 -0.2550  0.0276  0.4913
  514TMC3     H 7693   0.849   2.600  12.629  1.9429  0.2778  1.3917
  514TMC3    H1 7694   0.918   2.186  12.742 -1.7325  0.9993  1.2482
  514TMC3    H2 7695   1.150   2.388  12.442  0.6625 -2.1805  0.4952
  514TMC3    C7 7696   1.162   2.233  12.665 -0.0931 -0.2763 -0.0978
  514TMC3    C8 7697   1.032   2.615  12.466  0.1255 -0.7363 -0.4215
  514TMC3    O1 7698   1.129   2.185  12.775 -0.6067 -0.4355  0.1059
  514TMC3    O2 7699   1.022   2.713  12.537 -0.3161  0.4299 -0.1816
  515MPD2     C 7700   4.175   4.521  14.311  0.2866 -0.6109 -0.1527
  515MPD2    C1 7701   4.219   4.392  14.325  0.3204 -0.0644  0.1573
  515MPD2    C2 7702   4.311   4.361  14.422 -0.2607 -0.5434  0.2385
  515MPD2    C3 7703   4.353   4.460  14.513  0.4500 -0.1751 -0.1019
  515MPD2    C4 7704   4.298   4.586  14.499 -0.0061 -0.5716 -0.0614
  515MPD2    C5 7705   4.222   4.618  14.395 -0.2809 -0.4072  0.6433
  515MPD2     H 7706   4.347   4.259  14.423 -2.3751 -1.2863 -0.2769
  515MPD2    H1 7707   4.323   4.676  14.555 -0.5181 -0.6887  0.3557
  515MPD2    H2 7708   4.097   4.553  14.243  1.0263 -0.7815 -1.0827
  515MPD2    H3 7709   4.178   4.717  14.388  2.1790  0.5934 -1.2006
  515MPD2     N 7710   4.440   4.444  14.620 -0.0444  0.3320  0.2410
  515MPD2    H5 7711   4.466   4.531  14.665 -1.4467 -0.0637  1.8336
  515MPD2    N1 7712   4.177   4.281  14.250 -0.1830 -0.0737  0.2318
  515MPD2    H7 7713   4.199   4.187  14.280  2.1344  0.4626  0.1846
  516TMC3    C1 7714   4.048   4.161  14.084  0.4737 -0.5053 -0.6527
  516TMC3    C2 7715   3.936   4.166  14.000  0.8315 -0.7457 -0.3729
  516TMC3    C3 7716   3.834   4.081  14.009 -0.1744  0.0737 -0.6618
  516TMC3    C4 7717   4.057   4.050  14.167  0.3039  0.4106 -0.5856
  516TMC3    C5 7718   3.946   3.962  14.167  0.5382 -0.5846  0.0444
  516TMC3    C6 7719   3.833   3.977  14.092  0.4740  0.0363  0.1501
  516TMC3     C 7720   4.107   4.285  14.133  0.4391 -0.2071 -0.5890
  516TMC3     O 7721   4.088   4.383  14.064 -0.4892 -0.4973  0.2537
  516TMC3     H 7722   3.909   4.254  13.942 -3.2738 -1.3814  0.6004
  516TMC3    H1 7723   4.138   4.042  14.239 -1.3669  1.3401  1.3833
  516TMC3    H2 7724   3.750   3.908  14.091 -0.4395  1.1105  2.1348
  516TMC3    C7 7725   3.951   3.865  14.278 -0.4066 -0.6829  0.5478
  516TMC3    C8 7726   3.704   4.106  13.953  0.1898  0.0458 -0.0941
  516TMC3    O1 7727   4.040   3.890  14.357 -0.1127  0.1227  0.1480
  516TMC3    O2 7728   3.601   4.103  14.018 -0.2390 -0.0383  0.2241
  517MPD2     C 7729   3.327   0.972  17.504  0.0768  0.3518  0.2889
  517MPD2    C1 7730   3.438   0.924  17.579  0.1046 -0.6880  0.1361
  517MPD2    C2 7731   3.503   1.008  17.674 -0.6253 -0.0336  0.1987
  517MPD2    C3 7732   3.466   1.143  17.676  0.4219 -0.8166 -0.5792
  517MPD2    C4 7733   3.351   1.180  17.606  0.3333  0.0829 -0.6065
  517MPD2    C5 7734   3.288   1.101  17.515  0.8033 -1.1218  0.2389
  517MPD2     H 7735   3.583   0.963  17.731 -0.8841  0.3221  0.8399
  517MPD2    H1 7736   3.314   1.281  17.607  2.9267  0.9988  1.1021
  517MPD2    H2 7737   3.276   0.903  17.438  0.9837 -0.2317  0.1978
  517MPD2    H3 7738   3.200   1.136  17.463  0.1976  0.5215  2.3783
  517MPD2     N 7739   3.527   1.242   0.006 -0.4376  0.6480  0.0094
  517MPD2    H5 7740   3.508   1.339  17.736 -3.5608  0.3852  1.3230
  517MPD2    N1 7741   3.479   0.790  17.573  0.2503 -0.9678 -0.1542
  517MPD2    H7 7742   3.533   0.754  17.651  1.7086 -1.7203 -1.4971
  518TMC3    C1 7743   3.528   0.568  17.489  0.4980  0.1762 -0.5901
  518TMC3    C2 7744   3.486   0.453  17.424 -0.3389 -0.0363  0.8159
  518TMC3    C3 7745   3.574   0.365  17.379 -0.1485  0.2000 -0.1871
  518TMC3    C4 7746   3.658   0.591  17.530  0.3507  0.1405 -1.0402
  518TMC3    C5 7747   3.750   0.495  17.486 -0.6076  0.6128  0.0366
  518TMC3    C6 7748   3.709   0.385  17.413  0.0985 -0.7171  0.0591
  518TMC3     C 7749   3.441   0.688  17.482  0.2316 -0.0615 -0.9299
  518TMC3     O 7750   3.353   0.690  17.392 -0.2176  0.2441 -0.2608
  518TMC3     H 7751   3.389   0.451  17.376  0.3346 -1.6497 -0.5020
  518TMC3    H1 7752   3.682   0.691  17.566 -1.0116  0.1783 -0.2389
  518TMC3    H2 7753   3.785   0.313  17.382  2.0489  1.0068  0.8733
  518TMC3    C7 7754   3.881   0.519  17.538 -0.9880 -0.4628  0.0624
  518TMC3    C8 7755   3.532   0.234  17.329 -0.8234  0.5083  0.1745
  518TMC3    O1 7756   3.893   0.614  17.618  0.0267  0.5640  0.6256
  518TMC3    O2 7757   3.616   0.143  17.339  0.3631 -0.6873 -0.1721
  519MPD2     C 7758   0.375   4.003  14.094  0.0018 -0.1636 -0.7785
  519MPD2    C1 7759   0.369   3.960  13.967 -0.3499  0.0050 -0.7615
  519MPD2    C2 7760   0.440   3.847  13.932 -0.4378 -0.2644  0.0301
  519MPD2    C3 7761   0.501   3.773  14.034  0.3757  0.4082  0.0640
  519MPD2    C4 7762   0.496   3.819  14.168  0.7069 -0.2297  0.1590
  519MPD2    C5 7763   0.433   3.936  14.193  0.2101 -0.2051  0.3072
  519MPD2     H 7764   0.452   3.822  13.828 -0.1383  1.0436 -0.2516
  519MPD2    H1 7765   0.530   3.760  14.252  2.6770  0.7426  0.0361
  519MPD2    H2 7766   0.323   4.093  14.121  0.0118 -0.6225  0.7821
  519MPD2    H3 7767   0.412   3.977  14.291 -1.1363 -0.1363 -0.0197
  519MPD2     N 7768   0.567   3.650  14.010  0.0080 -0.7090  0.0791
  519MPD2    H5 7769   0.574   3.620  13.913 -0.8762 -2.4785  0.5774
  519MPD2    N1 7770   0.294   4.037  13.874 -0.6528 -0.0801  0.2348
  519MPD2    H7 7771   0.257   4.118  13.924 -1.9437 -0.3067 -0.3515
  520TMC3    C1 7772   0.639   3.433  14.027 -0.0650  0.3676 -0.2619
  520TMC3    C2 7773   0.591   3.308  14.067 -0.9264  0.4135 -0.7912
  520TMC3    C3 7774   0.652   3.197  14.016 -0.2937 -0.4697  0.2717
  520TMC3    C4 7775   0.734   3.452  13.927  0.1526 -0.3122 -0.4016
  520TMC3    C5 7776   0.800   3.338  13.891  0.5842 -0.1380 -0.0365
  520TMC3    C6 7777   0.760   3.211  13.936  0.1667  0.5626  0.1276
  520TMC3     C 7778   0.577   3.540  14.098  0.3392 -0.4277  0.5300
  520TMC3     O 7779   0.519   3.517  14.206 -0.4662 -0.4910  0.0995
  520TMC3     H 7780   0.524   3.298  14.151 -2.3145  0.0525 -1.9548
  520TMC3    H1 7781   0.776   3.550  13.909 -1.9550  0.3647 -1.6411
  520TMC3    H2 7782   0.820   3.128  13.900  0.9787  0.7444  1.0611
  520TMC3    C7 7783   0.931   3.359  13.836  0.3127 -0.0208  0.3774
  520TMC3    C8 7784   0.560   3.086  14.010 -0.6745 -0.3392 -0.2623
  520TMC3    O1 7785   0.940   3.392  13.716  0.0574  0.3263  0.0487
  520TMC3    O2 7786   0.614   2.979  14.024 -0.4149  0.6682  0.0898
  521MPD2     C 7787   1.833   1.540  17.200 -0.0070 -0.1357  0.5061
  521MPD2    C1 7788   1.861   1.654  17.125  0.0237 -0.3225  0.0895
  521MPD2    C2 7789   1.982   1.662  17.056 -0.3053 -0.6747 -0.2109
  521MPD2    C3 7790   2.082   1.563  17.061 -0.1587  0.0283 -0.1008
  521MPD2    C4 7791   2.046   1.447  17.129  0.4758  1.4295 -0.0095
  521MPD2    C5 7792   1.930   1.442  17.195 -0.4816 -0.5161 -0.2602
  521MPD2     H 7793   2.001   1.746  16.991 -0.6060  0.4670  1.1710
  521MPD2    H1 7794   2.115   1.367  17.152 -1.4945  0.0662  1.1143
  521MPD2    H2 7795   1.742   1.527  17.257 -0.2920 -0.5178 -0.0345
  521MPD2    H3 7796   1.896   1.348  17.237 -1.4308 -0.7813 -1.6180
  521MPD2     N 7797   2.205   1.577  16.985  0.6924 -0.4282 -0.0667
  521MPD2    H5 7798   2.206   1.659  16.925  4.0359 -1.3718 -1.3008
  521MPD2    N1 7799   1.761   1.750  17.115 -0.6510 -0.3909 -0.7779
  521MPD2    H7 7800   1.677   1.732  17.168  0.0233  0.9726  0.7420
  522TMC3    C1 7801   2.419   1.524  16.886  0.1107 -0.1913 -0.0962
  522TMC3    C2 7802   2.545   1.494  16.925 -0.1735 -0.8123  0.0286
  522TMC3    C3 7803   2.657   1.545  16.864 -0.0018 -0.0471  0.1245
  522TMC3    C4 7804   2.402   1.613  16.782  0.9650  0.2200 -0.2339
  522TMC3    C5 7805   2.515   1.658  16.712  0.1011  0.4942  0.3363
  522TMC3    C6 7806   2.642   1.622  16.751  0.0984 -0.0756 -0.4829
  522TMC3     C 7807   2.310   1.489  16.979  0.1060  0.1479  0.4265
  522TMC3     O 7808   2.341   1.410  17.071 -0.1471  0.2399 -0.1603
  522TMC3     H 7809   2.563   1.420  17.003  2.6837  0.1124  0.2380
  522TMC3    H1 7810   2.302   1.624  16.741  1.6848  0.0051 -2.0248
  522TMC3    H2 7811   2.732   1.656  16.701 -0.1852 -0.3204 -1.1590
  522TMC3    C7 7812   2.505   1.735  16.595 -0.5870 -0.3827  0.0970
  522TMC3    C8 7813   2.779   1.470  16.883 -0.1708 -0.3273  0.3227
  522TMC3    O1 7814   2.607   1.792  16.559  0.2965  0.2874 -0.3631
  522TMC3    O2 7815   2.804   1.425  16.994 -0.6057 -0.0652 -0.0427
  523MPD2     C 7816   4.061   0.903   9.417 -0.3140 -0.6072 -0.5934
  523MPD2    C1 7817   4.070   0.971   9.537 -0.4656  0.3034  0.5094
  523MPD2    C2 7818   4.063   1.111   9.541 -0.6929 -0.9620  0.4738
  523MPD2    C3 7819   4.037   1.183   9.426 -0.3197 -0.3946  0.6387
  523MPD2    C4 7820   4.025   1.111   9.308 -0.3193  0.2034 -0.2768
  523MPD2    C5 7821   4.038   0.974   9.305  0.0962  0.3462 -0.6521
  523MPD2     H 7822   4.080   1.158   9.638 -0.9911 -1.3497  0.7137
  523MPD2    H1 7823   4.013   1.157   9.211 -2.0563  0.7214  0.1940
  523MPD2    H2 7824   4.080   0.796   9.414  0.6340 -0.4732  1.0765
  523MPD2    H3 7825   4.028   0.919   9.212  1.3180  1.2083 -1.2981
  523MPD2     N 7826   4.021   1.328   9.426 -0.1536  0.3374  0.5332
  523MPD2    H5 7827   4.006   1.370   9.335 -2.7683  1.4162  1.4649
  523MPD2    N1 7828   4.103   0.887   9.648 -0.2994 -0.2321 -0.2623
  523MPD2    H7 7829   4.131   0.791   9.627 -2.6079 -0.4450 -2.3149
  524TMC3    C1 7830   4.021   1.547   9.500 -0.3083 -0.0608 -0.0335
  524TMC3    C2 7831   4.011   1.595   9.371  0.0024 -0.2849 -0.4884
  524TMC3    C3 7832   3.991   1.732   9.348  0.1888 -0.4420 -0.2343
  524TMC3    C4 7833   4.017   1.637   9.604  0.4000 -0.2697 -0.2050
  524TMC3    C5 7834   3.997   1.772   9.578  0.8176 -0.1256 -0.0633
  524TMC3    C6 7835   3.984   1.817   9.455  0.2150 -0.0310 -0.3336
  524TMC3     C 7836   4.050   1.408   9.529  0.0821  0.0446 -0.3900
  524TMC3     O 7837   4.111   1.387   9.633  0.3410 -0.4329  0.1324
  524TMC3     H 7838   4.043   1.522   9.297 -1.0727 -1.5182  0.2722
  524TMC3    H1 7839   4.012   1.591   9.702 -0.7315 -0.0436 -0.1608
  524TMC3    H2 7840   3.957   1.920   9.432 -1.8367 -0.9534 -2.0480
  524TMC3    C7 7841   3.924   1.838   9.690  0.4145  0.2622  0.4137
  524TMC3    C8 7842   3.911   1.779   9.231 -0.2334  0.4987 -0.5825
  524TMC3    O1 7843   3.901   1.765   9.784  0.7567  0.6669  0.1418
  524TMC3    O2 7844   3.902   1.902   9.221 -0.2122 -0.7159 -0.0822
  525MPD2     C 7845   2.030   3.665  14.202  0.1175 -0.6732  0.4654
  525MPD2    C1 7846   2.165   3.647  14.222 -0.5959 -0.3782  0.0193
  525MPD2    C2 7847   2.255   3.747  14.185 -0.4641 -0.6294 -0.2381
  525MPD2    C3 7848   2.212   3.866  14.135  0.0691 -0.0896  0.2470
  525MPD2    C4 7849   2.074   3.883  14.120  0.1181 -0.2896 -0.2916
  525MPD2    C5 7850   1.985   3.780  14.150 -0.4673 -0.8319  0.4007
  525MPD2     H 7851   2.361   3.739  14.207 -0.2743 -0.4121 -1.0656
  525MPD2    H1 7852   2.039   3.979  14.084 -1.0184 -0.3550  0.6534
  525MPD2    H2 7853   1.956   3.598  14.244 -0.7852  0.3207  0.4688
  525MPD2    H3 7854   1.878   3.789  14.132 -0.3286  0.6880  0.3427
  525MPD2     N 7855   2.288   3.978  14.105 -0.2294  0.2930  0.2868
  525MPD2    H5 7856   2.246   4.066  14.077 -0.6240 -0.4121 -1.3805
  525MPD2    N1 7857   2.222   3.530  14.273  0.6442  0.0457  0.3239
  525MPD2    H7 7858   2.317   3.508  14.245  1.3848  0.9469  2.1777
  526TMC3    C1 7859   2.223   3.322  14.400  0.3778  0.7688  0.4380
  526TMC3    C2 7860   2.160   3.244  14.494 -0.8785  0.5220  0.1287
  526TMC3    C3 7861   2.219   3.127  14.534 -0.6837 -0.1986  0.5797
  526TMC3    C4 7862   2.337   3.286  14.340  0.6856  0.3962  0.5316
  526TMC3    C5 7863   2.384   3.160  14.369  0.1829  0.3573  1.0051
  526TMC3    C6 7864   2.322   3.078  14.462 -0.5519 -0.0825  0.5797
  526TMC3     C 7865   2.152   3.444  14.356 -1.3381  0.4374  0.5422
  526TMC3     O 7866   2.048   3.467  14.418  0.1085 -0.4810 -0.2007
  526TMC3     H 7867   2.072   3.292  14.537  0.4432  1.5035  1.7403
  526TMC3    H1 7868   2.397   3.355  14.282 -2.5033  3.1088  0.4830
  526TMC3    H2 7869   2.380   3.000  14.509  1.6513  1.4668  0.4276
  526TMC3    C7 7870   2.534   3.157  14.373 -0.1903 -0.3005  0.1709
  526TMC3    C8 7871   2.217   3.081  14.672 -0.1812  0.7560  0.1874
  526TMC3    O1 7872   2.594   3.264  14.389 -0.1796 -0.1510 -0.3297
  526TMC3    O2 7873   2.311   3.023  14.721  0.2307 -0.2642 -0.9270
  527MPD2     C 7874   0.621   0.922   1.348  0.3521 -0.3271 -0.7118
  527MPD2    C1 7875   0.624   0.958   1.212  0.2041  0.4075 -0.6525
  527MPD2    C2 7876   0.743   1.010   1.151  0.0282 -0.1697  0.0863
  527MPD2    C3 7877   0.859   1.020   1.224 -0.7476 -0.1854  0.4133
  527MPD2    C4 7878   0.859   0.974   1.354 -0.2150  0.1723 -0.1895
  527MPD2    C5 7879   0.745   0.925   1.415  1.0517  0.1350  0.2817
  527MPD2     H 7880   0.738   1.039   1.047  3.7204 -1.9633 -0.5772
  527MPD2    H1 7881   0.950   0.964   1.412  0.0062 -1.0721 -0.7435
  527MPD2    H2 7882   0.534   0.887   1.401  0.7494 -0.7129 -0.3153
  527MPD2    H3 7883   0.754   0.906   1.522 -1.1740  0.6884  0.5539
  527MPD2     N 7884   0.978   1.056   1.160  0.2029  0.0897 -0.4392
  527MPD2    H5 7885   0.974   1.096   1.067 -2.7199  1.6099  0.3250
  527MPD2    N1 7886   0.512   0.948   1.128  0.2529  0.1284  0.2156
  527MPD2    H7 7887   0.524   0.983   1.034  0.3328  1.3354  0.6709
  528TMC3    C1 7888   0.311   0.881   1.050  0.1665  0.4988 -0.0660
  528TMC3    C2 7889   0.380   0.842   0.936  0.1271  0.9914  0.1227
  528TMC3    C3 7890   0.308   0.817   0.829  0.3610  0.0695 -0.2773
  528TMC3    C4 7891   0.172   0.889   1.052 -0.7432  0.2062 -0.2058
  528TMC3    C5 7892   0.102   0.867   0.938 -0.1348 -0.1218  0.1083
  528TMC3    C6 7893   0.172   0.842   0.826  0.3109 -0.1093 -0.4881
  528TMC3     C 7894   0.382   0.923   1.166  0.3448 -0.1492  0.2756
  528TMC3     O 7895   0.339   0.913   1.281 -0.8212 -0.0549 -0.3145
  528TMC3     H 7896   0.482   0.806   0.939 -0.4969 -0.7133  1.4317
  528TMC3    H1 7897   0.117   0.909   1.143  0.6435  0.3724  0.5950
  528TMC3    H2 7898   0.121   0.835   0.731 -0.4470 -0.8763 -0.0215
  528TMC3    C7 7899   4.703   0.891   0.926 -0.4837  0.0745  0.4344
  528TMC3    C8 7900   0.380   0.861   0.706 -0.3222  0.5139  0.9818
  528TMC3    O1 7901   4.642   0.835   0.834 -0.0428 -0.3148 -0.8046
  528TMC3    O2 7902   0.470   0.942   0.734  0.0581  0.0998 -0.5509
  529MPD2     C 7903   3.701   0.073   0.548 -0.0830 -0.0812 -0.3676
  529MPD2    C1 7904   3.594   4.733   0.565 -0.2542 -0.4258  0.1114
  529MPD2    C2 7905   3.470   0.023   0.506 -0.3865 -0.1758  0.6322
  529MPD2    C3 7906   3.459   0.134   0.419  1.0424 -0.6626 -0.3456
  529MPD2    C4 7907   3.565   0.222   0.418  0.0249  0.1508  0.2710
  529MPD2    C5 7908   3.681   0.192   0.485 -0.3935 -0.5691 -0.3466
  529MPD2     H 7909   3.402   4.678   0.505  1.3521 -1.5970  0.9276
  529MPD2    H1 7910   3.566   0.315   0.362 -1.1693 -0.0164 -0.0078
  529MPD2    H2 7911   3.796   0.061   0.599 -0.5700 -0.4705  0.4466
  529MPD2    H3 7912   3.760   0.266   0.480 -1.0430  0.1123 -0.5648
  529MPD2     N 7913   3.340   0.174   0.348  0.0084 -0.5286 -0.9450
  529MPD2    H5 7914   3.343   0.260   0.295  0.2170  0.4040  0.5705
  529MPD2    N1 7915   3.596   4.623   0.646 -0.2621  0.0707 -0.3145
  529MPD2    H7 7916   3.510   4.572   0.661 -1.4999  2.0386 -0.6427
  530TMC3    C1 7917   3.688   4.461   0.801 -0.8333  0.4423 -0.5620
  530TMC3    C2 7918   3.785   4.372   0.828  0.3456 -0.0618 -0.2766
  530TMC3    C3 7919   3.774   4.288   0.936  0.1558  0.3378  0.6718
  530TMC3    C4 7920   3.583   4.478   0.885 -0.3648  0.5266 -0.1474
  530TMC3    C5 7921   3.576   4.404   0.991  0.0065 -0.1165  0.3176
  530TMC3    C6 7922   3.664   4.304   1.025 -0.2499  0.5026 -0.0185
  530TMC3     C 7923   3.712   4.574   0.716  0.9663 -0.0454 -0.4404
  530TMC3     O 7924   3.831   4.614   0.714 -0.0129 -0.3935  0.0556
  530TMC3     H 7925   3.868   4.365   0.758  0.6749  1.8084 -0.0934
  530TMC3    H1 7926   3.516   4.559   0.862  0.7404  1.3424 -0.5098
  530TMC3    H2 7927   3.652   4.263   1.125  1.4468 -2.6583 -1.1136
  530TMC3    C7 7928   3.443   4.407   1.040 -0.1299 -0.0879  0.0677
  530TMC3    C8 7929   3.897   4.223   0.981 -0.2693  0.4557  0.2532
  530TMC3    O1 7930   3.370   4.502   1.017  0.3512 -0.2669 -0.3086
  530TMC3    O2 7931   4.004   4.256   0.929 -0.8149 -0.4214 -0.2700
  531MPD2     C 7932   1.679   2.185  12.763 -0.3442  0.0906  0.6909
  531MPD2    C1 7933   1.568   2.176  12.850  0.6320 -0.2954 -0.7775
  531MPD2    C2 7934   1.438   2.192  12.795 -0.0077 -0.3846 -0.2165
  531MPD2    C3 7935   1.415   2.208  12.657  0.1384 -0.1148 -0.0253
  531MPD2    C4 7936   1.528   2.200  12.574 -0.3291  0.0073  0.4174
  531MPD2    C5 7937   1.653   2.186  12.631  0.1890 -0.1783 -0.0990
  531MPD2     H 7938   1.355   2.191  12.865 -1.6371  1.4405 -2.1446
  531MPD2    H1 7939   1.519   2.214  12.466  0.5567 -1.2488  0.1765
  531MPD2    H2 7940   1.781   2.177  12.799  0.6704  0.1990 -2.1698
  531MPD2    H3 7941   1.735   2.187  12.560  0.4857  1.4099  0.2498
  531MPD2     N 7942   1.287   2.233  12.600 -0.7035 -0.1789  0.4564
  531MPD2    H5 7943   1.293   2.271  12.507 -0.5199  0.0346  0.5568
  531MPD2    N1 7944   1.567   2.171  12.987  0.1082 -0.0159 -0.0448
  531MPD2    H7 7945   1.474   2.167  13.027 -0.4049 -3.8802 -1.6212
  532TMC3    C1 7946   1.632   2.233  13.191  0.4971  0.4144  0.5316
  532TMC3    C2 7947   1.505   2.292  13.209 -0.4534  1.2751  0.7279
  532TMC3    C3 7948   1.474   2.323  13.336 -0.2673  0.0764 -0.3021
  532TMC3    C4 7949   1.714   2.199  13.295 -0.0886 -0.3761 -0.7333
  532TMC3    C5 7950   1.672   2.225  13.424  0.7249  0.0958 -0.6222
  532TMC3    C6 7951   1.551   2.283  13.445 -0.4642 -0.5553 -0.6953
  532TMC3     C 7952   1.680   2.200  13.065  0.1173 -0.3132 -0.0990
  532TMC3     O 7953   1.800   2.212  13.034  0.6416 -0.4898  0.4338
  532TMC3     H 7954   1.469   2.348  13.124  1.3388 -0.1052 -0.9475
  532TMC3    H1 7955   1.801   2.143  13.260 -0.0834 -0.1027 -1.1557
  532TMC3    H2 7956   1.509   2.284  13.544  2.4089  0.4521  0.5183
  532TMC3    C7 7957   1.747   2.196  13.544  0.3984  0.1885  0.7445
  532TMC3    C8 7958   1.335   2.350  13.356  0.3687 -0.4024  0.2329
  532TMC3    O1 7959   1.695   2.221  13.649 -0.4764 -0.4890  0.3057
  532TMC3    O2 7960   1.309   2.410  13.458 -0.2127  0.0009  0.2750
  533TMC3    C1 7961   2.465   4.120  14.115 -0.4036 -0.7492 -0.1164
  533TMC3    C2 7962   2.577   4.167  14.052  0.0864  0.1941  1.0452
  533TMC3    C3 7963   2.622   4.281  14.099  0.2682  0.0727  0.3749
  533TMC3    C4 7964   2.416   4.176  14.234 -0.0298  0.0419  0.1828
  533TMC3    C5 7965   2.482   4.276  14.282 -0.8833 -0.5095 -0.1690
  533TMC3    C6 7966   2.585   4.335  14.217  0.9441 -0.4039 -0.6360
  533TMC3     C 7967   2.426   3.978  14.104 -0.1306 -0.7243 -0.1902
  533TMC3     O 7968   2.509   3.886  14.115 -0.1555 -0.0226  0.1920
  533TMC3     H 7969   2.625   4.129  13.962 -1.0071  0.5057  0.3276
  533TMC3    H1 7970   2.327   4.151  14.291  0.5774 -1.1336  0.6332
  533TMC3    H2 7971   2.628   4.429  14.252 -1.3702  0.9262 -1.3218
  533TMC3    C7 7972   2.482   4.303  14.428  0.0963  0.3334  0.7281
  533TMC3    C8 7973   2.724   4.348  14.025  0.2942 -0.3387  0.0965
  533TMC3    O1 7974   2.532   4.414  14.450 -0.2540 -0.4124  0.4700
  533TMC3    O2 7975   2.707   4.375  13.910  0.2573  0.4803  0.0138
  534MPD2     C 7976   1.156   4.138   1.030 -0.2968 -0.0174  0.6135
  534MPD2    C1 7977   1.102   4.263   1.029  0.3273 -0.7548  0.8516
  534MPD2    C2 7978   0.969   4.273   0.992 -0.2548  0.4726  0.1244
  534MPD2    C3 7979   0.901   4.163   0.942 -0.5636 -0.2620  0.3471
  534MPD2    C4 7980   0.958   4.040   0.949  0.0085 -1.1575 -0.0045
  534MPD2    C5 7981   1.088   4.027   0.985 -0.4828  0.2957 -0.0577
  534MPD2     H 7982   0.932   4.375   0.995  2.5335  1.4629  1.0668
  534MPD2    H1 7983   0.910   3.950   0.912 -0.7390 -0.6831 -0.1810
  534MPD2    H2 7984   1.250   4.115   1.077 -0.4233  0.8551  1.2688
  534MPD2    H3 7985   1.137   3.932   0.996  0.3111  0.6243 -0.7604
  534MPD2     N 7986   0.768   4.169   0.884  0.9296 -0.6869  0.1422
  534MPD2    H5 7987   0.724   4.085   0.847 -0.4869  0.5178 -0.9748
  534MPD2    N1 7988   1.169   4.377   1.078 -0.0303 -0.1956  0.3716
  534MPD2    H7 7989   1.110   4.454   1.108 -1.8508 -0.8134 -1.5952
  535TMC3    C1 7990   0.584   4.269   0.769  0.3503 -0.4075  0.5511
  535TMC3    C2 7991   0.546   4.135   0.763  0.4185 -0.4611 -0.2970
  535TMC3    C3 7992   0.477   4.107   0.646 -0.2646  0.1485  0.8754
  535TMC3    C4 7993   0.556   4.366   0.679  0.0434  0.1007 -0.2484
  535TMC3    C5 7994   0.483   4.328   0.566 -0.4605  0.4589 -0.1277
  535TMC3    C6 7995   0.450   4.194   0.548 -0.3360 -0.0856 -1.2424
  535TMC3     C 7996   0.701   4.294   0.851 -0.0098 -0.0099 -0.2933
  535TMC3     O 7997   0.746   4.408   0.863  0.2834 -0.7021 -0.1716
  535TMC3     H 7998   0.536   4.078   0.855 -0.0488  0.3110  0.1391
  535TMC3    H1 7999   0.600   4.465   0.686 -0.2676  0.3856 -2.4235
  535TMC3    H2 8000   0.393   4.169   0.459 -0.5980 -0.1130 -1.0648
  535TMC3    C7 8001   0.383   4.416   0.514  0.0825 -0.4137 -0.2040
  535TMC3    C8 8002   0.373   4.004   0.652  0.6827 -0.4046 -0.1625
  535TMC3    O1 8003   0.318   4.376   0.420  0.7523 -0.3447 -0.1417
  535TMC3    O2 8004   0.272   4.025   0.587 -0.4381 -0.3579 -0.0576
  536MPD2     C 8005   4.154   3.228  16.042  0.0292  0.2148  0.3176
  536MPD2    C1 8006   4.052   3.131  16.040 -0.1318  1.0145  1.0674
  536MPD2    C2 8007   3.935   3.152  15.967  0.0695 -0.4210  0.6830
  536MPD2    C3 8008   3.924   3.272  15.896  0.7027 -0.2833 -0.4927
  536MPD2    C4 8009   4.023   3.369  15.894 -0.4974  0.1795 -0.0270
  536MPD2    C5 8010   4.138   3.341  15.964 -0.1728  0.3496 -0.0249
  536MPD2     H 8011   3.865   3.071  15.951 -1.2146  0.9126 -0.4592
  536MPD2    H1 8012   4.015   3.464  15.841  2.7739 -0.1934 -1.1769
  536MPD2    H2 8013   4.247   3.220  16.097 -0.1657 -1.2413  0.4239
  536MPD2    H3 8014   4.221   3.408  15.946  0.1123 -0.2518 -0.9294
  536MPD2     N 8015   3.807   3.290  15.822  0.6997  0.4535  0.3160
  536MPD2    H5 8016   3.811   3.368  15.756 -0.2404 -0.2381 -0.5741
  536MPD2    N1 8017   4.072   3.014  16.122  0.1115  0.2917  0.3072
  536MPD2    H7 8018   4.164   3.010  16.164  0.8175  0.0763 -1.2455
  537TMC3    C1 8019   4.038   2.816  16.251 -0.5444 -0.2885 -0.0981
  537TMC3    C2 8020   4.131   2.853  16.345  0.2777  0.0456  0.1039
  537TMC3    C3 8021   4.169   2.752  16.435  0.1961 -0.0079 -0.2146
  537TMC3    C4 8022   3.978   2.691  16.247 -0.4243  0.5423  0.1599
  537TMC3    C5 8023   4.013   2.609  16.356 -0.0349 -0.2281  0.2944
  537TMC3    C6 8024   4.105   2.630  16.450  0.1459  0.2414 -0.1286
  537TMC3     C 8025   3.990   2.909  16.150  0.1004 -0.3317  0.0809
  537TMC3     O 8026   3.881   2.883  16.099 -0.0218  0.5677 -0.6950
  537TMC3     H 8027   4.173   2.953  16.338  1.4100 -0.5840 -2.1334
  537TMC3    H1 8028   3.896   2.655  16.185  1.3859 -1.1270 -1.2487
  537TMC3    H2 8029   4.132   2.561  16.529 -0.4487 -0.5556 -0.6216
  537TMC3    C7 8030   3.918   2.506  16.373  0.3475 -0.3175  0.6255
  537TMC3    C8 8031   4.266   2.782  16.539 -0.7237 -0.1381 -0.2830
  537TMC3    O1 8032   3.865   2.460  16.273  0.3728 -0.3004  0.1127
  537TMC3    O2 8033   4.254   2.712  16.640 -0.1161  0.3211  0.0294
  538TMC3    C1 8034   0.377   1.057  10.897 -0.9862 -0.0279  0.2347
  538TMC3    C2 8035   0.503   1.020  10.861  0.6817 -0.5580  0.0860
  538TMC3    C3 8036   0.538   1.024  10.728  0.0720 -0.4038  0.2730
  538TMC3    C4 8037   0.281   1.081  10.801  0.1925 -0.2032 -0.1539
  538TMC3    C5 8038   0.322   1.075  10.665  0.2081  0.0222  0.1804
  538TMC3    C6 8039   0.453   1.050  10.628  0.4472 -0.8711 -0.2719
  538TMC3     C 8040   0.339   1.090  11.031 -0.3289  0.0910  0.2615
  538TMC3     O 8041   0.223   1.130  11.053 -0.2423 -0.3233  0.6758
  538TMC3     H 8042   0.568   0.980  10.937  0.8768  0.3770  0.4105
  538TMC3    H1 8043   0.178   1.093  10.833 -0.1619  0.4941 -1.5182
  538TMC3    H2 8044   0.486   1.062  10.525 -0.4630  1.8284 -0.2615
  538TMC3    C7 8045   0.238   1.125  10.558  0.0734  0.7424  0.3204
  538TMC3    C8 8046   0.675   0.983  10.694 -0.6454  0.3219 -0.1540
  538TMC3    O1 8047   0.268   1.089  10.441 -0.0481  0.2872  0.0417
  538TMC3    O2 8048   0.729   0.904  10.773 -0.6295  0.2261 -0.4842
  539MPD2     C 8049   4.293   0.495  11.805  0.2455 -0.0716 -0.5152
  539MPD2    C1 8050   4.395   0.525  11.722  0.6777  0.3904 -0.5815
  539MPD2    C2 8051   4.412   0.655  11.696 -0.5976 -0.1297 -0.2355
  539MPD2    C3 8052   4.339   0.758  11.754 -0.4617 -0.4061 -0.1686
  539MPD2    C4 8053   4.258   0.731  11.858 -0.0552  0.1634  0.3158
  539MPD2    C5 8054   4.231   0.597  11.873 -1.0522 -0.0585  0.2016
  539MPD2     H 8055   4.487   0.676  11.621 -1.2696 -0.1829 -0.9224
  539MPD2    H1 8056   4.206   0.808  11.914  0.2103  0.6642 -0.1363
  539MPD2    H2 8057   4.260   0.395  11.832 -1.1605  0.3301 -0.7218
  539MPD2    H3 8058   4.151   0.559  11.935 -1.5289 -0.9582 -0.9639
  539MPD2     N 8059   4.345   0.898  11.710 -0.2943  0.3309 -0.6164
  539MPD2    H5 8060   4.281   0.958  11.760 -0.3509 -2.1647  2.3480
  539MPD2    N1 8061   4.463   0.421  11.658 -0.2966 -0.5562 -0.0467
  539MPD2    H7 8062   4.423   0.328  11.658  0.3143 -0.8179  0.3327
  540TMC3    C1 8063   4.366   1.078  11.559 -0.0457 -0.1403 -0.3657
  540TMC3    C2 8064   4.373   1.109  11.430 -0.3150 -0.8777  0.3685
  540TMC3    C3 8065   4.331   1.235  11.389  0.0473  0.3452 -0.0790
  540TMC3    C4 8066   4.326   1.174  11.650 -0.0467 -0.3258 -0.4609
  540TMC3    C5 8067   4.289   1.294  11.608  0.2137  0.2605  0.2161
  540TMC3    C6 8068   4.293   1.331  11.479  0.3409  0.5169 -0.9102
  540TMC3     C 8069   4.409   0.938  11.598 -0.0568 -0.4301  0.2206
  540TMC3     O 8070   4.474   0.872  11.519  0.4097 -0.1678  0.4172
  540TMC3     H 8071   4.415   1.031  11.366  2.3993  1.2863 -0.4916
  540TMC3    H1 8072   4.338   1.154  11.756 -0.3534 -2.1272 -0.7625
  540TMC3    H2 8073   4.236   1.418  11.449  0.8966 -0.0327 -3.5820
  540TMC3    C7 8074   4.218   1.379  11.701 -0.0648  0.6212 -0.1205
  540TMC3    C8 8075   4.314   1.266  11.248 -0.2649  0.0451 -0.1516
  540TMC3    O1 8076   4.164   1.322  11.795 -0.0851 -0.2624  0.0856
  540TMC3    O2 8077   4.319   1.388  11.221  0.4681  0.4051  0.3819
  541MPD2     C 8078   2.537   2.173  12.901  0.5325  0.6085 -0.0802
  541MPD2    C1 8079   2.674   2.138  12.915  0.6281  0.4633  0.6602
  541MPD2    C2 8080   2.770   2.208  12.841  0.4336  0.4586 -0.3509
  541MPD2    C3 8081   2.728   2.325  12.775  0.1237  0.0446 -0.8077
  541MPD2    C4 8082   2.598   2.356  12.765  0.0083 -0.3758 -0.8483
  541MPD2    C5 8083   2.501   2.277  12.824  0.0319 -0.0125  0.2377
  541MPD2     H 8084   2.876   2.189  12.851  0.3516  0.5453  0.6464
  541MPD2    H1 8085   2.557   2.443  12.716  0.5696  1.1658  1.4081
  541MPD2    H2 8086   2.461   2.112  12.950 -0.1269  1.3432 -0.1949
  541MPD2    H3 8087   2.398   2.306  12.808 -0.4128 -1.3515  0.7139
  541MPD2     N 8088   2.813   2.425  12.720 -0.3160  0.0672  0.0568
  541MPD2    H5 8089   2.771   2.506  12.675 -0.2150  0.1574  0.1234
  541MPD2    N1 8090   2.720   2.029  12.997  0.0744  0.2182 -0.3338
  541MPD2    H7 8091   2.808   1.982  12.976  0.6559  0.3090  1.9006
  542TMC3    C1 8092   3.011   2.546  12.684  0.3827  0.2440 -0.5044
  542TMC3    C2 8093   3.106   2.534  12.592 -0.2063 -0.3870  0.3661
  542TMC3    C3 8094   3.118   2.628  12.493  0.0751  0.6041  0.3896
  542TMC3    C4 8095   2.921   2.652  12.686 -0.2240  0.4470  0.3182
  542TMC3    C5 8096   2.930   2.747  12.588 -0.0029 -0.4962  0.4355
  542TMC3    C6 8097   3.030   2.733  12.491  0.2256 -0.2388 -0.3299
  542TMC3     C 8098   2.954   2.419  12.728 -0.1536  0.2312  0.0799
  542TMC3     O 8099   3.031   2.328  12.757 -0.5230 -0.6741 -0.2007
  542TMC3     H 8100   3.175   2.451  12.601  2.9419  2.0498 -1.2431
  542TMC3    H1 8101   2.856   2.659  12.772  1.1902 -0.2947  1.4575
  542TMC3    H2 8102   3.036   2.811  12.416 -0.3693 -0.4767 -0.6268
  542TMC3    C7 8103   2.825   2.848  12.570  0.0172 -0.0992 -0.0499
  542TMC3    C8 8104   3.185   2.593  12.369 -0.6139 -0.3090 -0.7811
  542TMC3    O1 8105   2.758   2.867  12.670  0.1251  0.1770 -0.0831
  542TMC3    O2 8106   3.160   2.663  12.269 -0.2574  0.5601 -0.1720
  543TMC3    C1 8107   2.320   3.917  17.133 -0.1368 -0.9257 -0.4137
  543TMC3    C2 8108   2.379   3.800  17.170  0.4557  0.6276 -0.2729
  543TMC3    C3 8109   2.339   3.742  17.281  0.1490 -0.2142  0.2637
  543TMC3    C4 8110   2.226   3.979  17.206  0.0538  0.3729  0.3184
  543TMC3    C5 8111   2.189   3.918  17.323  0.0143 -0.3441  0.0079
  543TMC3    C6 8112   2.244   3.802  17.360 -0.3492  0.3166  0.5226
  543TMC3     C 8113   2.330   3.955  16.993  0.0262 -0.4501 -0.0621
  543TMC3     O 8114   2.269   4.058  16.969 -0.0730  0.3690  0.4854
  543TMC3     H 8115   2.451   3.750  17.107  0.1567  1.4526 -1.2749
  543TMC3    H1 8116   2.197   4.081  17.180 -0.9502 -0.0452 -0.1835
  543TMC3    H2 8117   2.215   3.750  17.451  0.0655 -0.3008  0.3064
  543TMC3    C7 8118   2.073   3.962  17.391 -0.0903 -0.1692  0.0156
  543TMC3    C8 8119   2.334   3.599  17.284  0.2690  0.1384 -0.4909
  543TMC3    O1 8120   2.045   3.900  17.492 -0.0599 -0.1875 -0.7901
  543TMC3    O2 8121   2.331   3.541  17.388  0.1630  0.2184 -0.4929
  544MPD2     C 8122   2.398   3.134  17.087 -0.0302 -0.3203  0.4791
  544MPD2    C1 8123   2.337   3.216  16.990 -0.2824  0.5973  0.2119
  544MPD2    C2 8124   2.319   3.351  17.017  0.3237  0.4606 -0.0046
  544MPD2    C3 8125   2.351   3.405  17.137  0.0365 -0.0476 -0.0942
  544MPD2    C4 8126   2.421   3.322  17.225  0.4746 -0.0299 -0.0244
  544MPD2    C5 8127   2.442   3.191  17.201 -0.8862  0.5004  0.1767
  544MPD2     H 8128   2.281   3.418  16.940  2.1429  1.7481  0.2164
  544MPD2    H1 8129   2.468   3.364  17.313  2.3497  1.1123 -1.5796
  544MPD2    H2 8130   2.415   3.028  17.068  3.2493  0.3574 -0.3774
  544MPD2    H3 8131   2.486   3.132  17.281  0.6407  2.5406  0.8469
  544MPD2     N 8132   2.328   3.542  17.162  0.4775  0.0100 -0.4445
  544MPD2    H5 8133   2.297   3.605  17.089 -1.7162 -1.8579 -1.1434
  544MPD2    N1 8134   2.288   3.150  16.872  0.0345  0.6574 -0.9500
  544MPD2    H7 8135   2.293   3.049  16.868 -1.8176  0.5087  0.3867
  545TMC3    C1 8136   2.161   3.120  16.678 -0.0867  0.3349  0.6075
  545TMC3    C2 8137   2.049   3.156  16.608  0.2725 -0.8264 -0.2932
  545TMC3    C3 8138   2.015   3.086  16.495 -0.7243 -0.6734 -0.4484
  545TMC3    C4 8139   2.248   3.022  16.636 -0.7622  0.4512 -0.2500
  545TMC3    C5 8140   2.206   2.956  16.522  0.2102  0.6015  0.4720
  545TMC3    C6 8141   2.095   2.992  16.449  0.1887  0.6471  0.1952
  545TMC3     C 8142   2.195   3.209  16.788  0.9539  0.3047  0.0427
  545TMC3     O 8143   2.117   3.299  16.812 -0.2014 -0.3973  0.4488
  545TMC3     H 8144   1.979   3.232  16.642  3.7484  2.5447 -0.5866
  545TMC3    H1 8145   2.338   2.983  16.683 -1.4658 -0.2908  0.4787
  545TMC3    H2 8146   2.071   2.929  16.365 -2.3972  0.5474  1.0081
  545TMC3    C7 8147   2.281   2.841  16.469 -0.2065 -0.3522  0.5400
  545TMC3    C8 8148   1.900   3.128  16.413  0.7934 -0.0357 -0.5726
  545TMC3    O1 8149   2.273   2.809  16.348 -0.2200  0.1500 -0.4577
  545TMC3    O2 8150   1.913   3.110  16.294 -0.2252 -0.0116 -0.1919
  546MPD2     C 8151   3.739   3.533  17.412 -0.2249 -0.3126 -0.1315
  546MPD2    C1 8152   3.660   3.534  17.301  0.3797  1.2477  0.2911
  546MPD2    C2 8153   3.619   3.649  17.243  0.3028  0.5822 -0.5437
  546MPD2    C3 8154   3.669   3.768  17.290  0.1026  0.2253  0.8693
  546MPD2    C4 8155   3.754   3.773  17.396 -0.1458 -0.2529 -0.6800
  546MPD2    C5 8156   3.788   3.656  17.451  0.1146  0.3797 -0.1972
  546MPD2     H 8157   3.543   3.655  17.166 -2.0983  2.0489  1.9174
  546MPD2    H1 8158   3.795   3.864  17.438 -0.8290 -0.5637  0.6716
  546MPD2    H2 8159   3.764   3.439  17.460 -1.2529 -1.4075 -1.7301
  546MPD2    H3 8160   3.845   3.650  17.542 -2.1789 -2.3717  1.0501
  546MPD2     N 8161   3.644   3.898  17.231  0.6267  0.3749 -0.1923
  546MPD2    H5 8162   3.705   3.974  17.259  1.2992  0.1836 -1.1586
  546MPD2    N1 8163   3.609   3.410  17.252 -0.0448 -0.1975 -0.2162
  546MPD2    H7 8164   3.644   3.320  17.281 -1.5826 -1.4003 -2.1047
  547TMC3    C1 8165   3.474   3.250  17.130  0.0427  0.2512 -0.2265
  547TMC3    C2 8166   3.403   3.222  17.008 -0.2648 -0.2677  0.5598
  547TMC3    C3 8167   3.301   3.130  17.021  0.0297  0.3984  0.0687
  547TMC3    C4 8168   3.454   3.174  17.245 -0.2979 -0.1662  0.3057
  547TMC3    C5 8169   3.346   3.086  17.246  0.1982 -0.1875  0.0824
  547TMC3    C6 8170   3.266   3.070  17.140  0.3079  0.4548  0.3938
  547TMC3     C 8171   3.528   3.387  17.143  0.1683 -0.0383  0.5487
  547TMC3     O 8172   3.476   3.461  17.060 -0.4153  0.0985  0.7034
  547TMC3     H 8173   3.421   3.288  16.924  0.6571 -0.0300  0.9323
  547TMC3    H1 8174   3.512   3.190  17.335  0.4041  0.2179 -0.2181
  547TMC3    H2 8175   3.167   3.025  17.143  0.3843  0.3537  1.3602
  547TMC3    C7 8176   3.278   3.103  17.364 -0.7134  0.0897 -0.2360
  547TMC3    C8 8177   3.207   3.131  16.902  0.2728  0.3220 -0.6946
  547TMC3    O1 8178   3.283   3.210  17.424 -0.2285 -0.0997  0.4648
  547TMC3    O2 8179   3.208   3.233  16.837 -0.0452 -0.4777  0.6909
  548MPD2     C 8180   3.149   4.362  12.367  0.0043  0.1316  0.2531
  548MPD2    C1 8181   3.127   4.256  12.451  1.1740  0.3980 -0.4812
  548MPD2    C2 8182   3.218   4.152  12.448  0.5513 -0.3013  0.4768
  548MPD2    C3 8183   3.340   4.155  12.382  0.0540 -0.1841  0.6294
  548MPD2    C4 8184   3.363   4.272  12.306 -0.7359  0.0084  0.4158
  548MPD2    C5 8185   3.273   4.371  12.303 -0.0956  0.0845 -0.5619
  548MPD2     H 8186   3.209   4.065  12.512 -1.8968 -1.4484 -1.4213
  548MPD2    H1 8187   3.451   4.287  12.246 -0.5902  0.8490  0.8336
  548MPD2    H2 8188   3.078   4.442  12.349 -0.6957 -0.8112 -1.1893
  548MPD2    H3 8189   3.300   4.457  12.242 -0.4249  1.0669  0.6798
  548MPD2     N 8190   3.427   4.044  12.371  0.2443  0.3881  0.1359
  548MPD2    H5 8191   3.391   3.955  12.403  1.7731  0.1145  1.1012
  548MPD2    N1 8192   2.996   4.240  12.508 -0.2161  0.0243 -0.0672
  548MPD2    H7 8193   2.935   4.320  12.492  0.8985  0.9529  0.3474
  549TMC3    C1 8194   2.800   4.134  12.581  0.1048  0.0887  0.5144
  549TMC3    C2 8195   2.727   4.186  12.475  0.3079 -0.1284 -0.0132
  549TMC3    C3 8196   2.599   4.138  12.460 -0.4529  0.0403  0.4181
  549TMC3    C4 8197   2.749   4.042  12.667  0.0187 -0.0619 -0.2632
  549TMC3    C5 8198   2.610   4.018  12.652 -0.3385  0.0599 -0.9888
  549TMC3    C6 8199   2.536   4.065  12.553  0.2511 -0.2997  0.9532
  549TMC3     C 8200   2.944   4.136  12.572  0.8119 -0.2731  0.7151
  549TMC3     O 8201   3.007   4.038  12.615 -0.5583 -0.2311  0.6447
  549TMC3     H 8202   2.767   4.245  12.394  1.0587  3.4863  3.0141
  549TMC3    H1 8203   2.798   4.005  12.757  0.6249 -0.9037 -0.9419
  549TMC3    H2 8204   2.433   4.034  12.536  0.4591 -0.2988 -0.3287
  549TMC3    C7 8205   2.558   3.907  12.721  0.2867  0.5425 -0.1694
  549TMC3    C8 8206   2.516   4.192  12.354  0.1963 -0.5292 -0.2298
  549TMC3    O1 8207   2.448   3.927  12.769  0.3196 -0.0389  0.1538
  549TMC3    O2 8208   2.402   4.230  12.385 -0.1080 -0.2169  0.0198
  550TMC3    C1 8209   2.452   2.313  11.444  0.1911 -0.1823  0.1454
  550TMC3    C2 8210   2.517   2.344  11.560 -0.4781 -0.2906 -0.0098
  550TMC3    C3 8211   2.501   2.465  11.616 -0.1498 -0.4546  0.0815
  550TMC3    C4 8212   2.371   2.403  11.374 -0.0515 -0.2541  0.2211
  550TMC3    C5 8213   2.355   2.528  11.435  0.3830  0.1761 -0.0864
  550TMC3    C6 8214   2.424   2.552  11.553 -0.1379  0.6707 -0.6641
  550TMC3     C 8215   2.406   2.172  11.447 -0.0351  0.4514 -0.8734
  550TMC3     O 8216   2.474   2.079  11.486  0.0197 -0.0389 -0.2499
  550TMC3     H 8217   2.565   2.264  11.617 -0.4284 -1.6602 -1.9959
  550TMC3    H1 8218   2.304   2.375  11.292 -0.2359  3.0144 -0.7366
  550TMC3    H2 8219   2.437   2.652  11.592 -1.6350  0.4020  0.5222
  550TMC3    C7 8220   2.212   2.539  11.442  0.1934  0.1532  0.0535
  550TMC3    C8 8221   2.559   2.478  11.746  0.0959  0.5245 -0.0387
  550TMC3    O1 8222   2.151   2.436  11.436  0.3489 -0.0775  0.3966
  550TMC3    O2 8223   2.639   2.393  11.785  0.0127 -0.5359 -0.0932
  551TMC3    C1 8224   0.095   4.440  12.861  0.5552  0.1705 -0.6027
  551TMC3    C2 8225   0.233   4.438  12.847  0.9260  0.2053  0.2860
  551TMC3    C3 8226   0.300   4.556  12.888  0.0128 -0.4158 -0.6877
  551TMC3    C4 8227   0.031   4.546  12.921  0.0154  0.2643 -0.0285
  551TMC3    C5 8228   0.107   4.650  12.971  0.4947  0.0576  1.0713
  551TMC3    C6 8229   0.244   4.657  12.954 -0.1562 -0.1603  0.1547
  551TMC3     C 8230   0.005   4.336  12.817  0.1780  0.0584  0.3994
  551TMC3     O 8231   4.646   4.314  12.891 -0.1453 -0.0807 -0.0474
  551TMC3     H 8232   0.291   4.355  12.808  0.1241 -0.4346  0.4560
  551TMC3    H1 8233   4.663   4.536  12.930 -0.2147  0.3515 -2.7390
  551TMC3    H2 8234   0.308   4.735  12.993  1.5552 -2.8517  2.7466
  551TMC3    C7 8235   0.050   0.003  13.069 -0.3388  0.2698  0.1071
  551TMC3    C8 8236   0.411   4.583  12.798 -0.0534 -0.5982 -0.1639
  551TMC3    O1 8237   0.125   0.083  13.118 -0.3286 -0.5376 -0.2563
  551TMC3    O2 8238   0.442   4.494  12.719  0.4276  0.0609  0.5817
  552MPD2     C 8239   1.531   1.977  13.837 -0.1663  0.0194 -1.2233
  552MPD2    C1 8240   1.553   1.839  13.860  0.3877  0.7943 -0.0696
  552MPD2    C2 8241   1.646   1.801  13.955  0.1088  0.0033 -0.3957
  552MPD2    C3 8242   1.718   1.898  14.026  0.6021  0.8022 -0.1672
  552MPD2    C4 8243   1.703   2.033  13.998  0.1412  0.2441 -0.6206
  552MPD2    C5 8244   1.604   2.075  13.904  0.5250  0.3558 -0.0026
  552MPD2     H 8245   1.665   1.696  13.976  0.9704  0.4748  1.2277
  552MPD2    H1 8246   1.766   2.114  14.033 -0.1788 -1.1912  3.1872
  552MPD2    H2 8247   1.461   2.011  13.761  0.5983  1.8342 -1.1210
  552MPD2    H3 8248   1.589   2.177  13.871  0.8008  0.6392  0.7558
  552MPD2     N 8249   1.828   1.874  14.113  0.5870  0.3708 -0.0951
  552MPD2    H5 8250   1.889   1.952  14.135 -0.4134  1.2134 -0.3241
  552MPD2    N1 8251   1.488   1.737  13.791 -0.7538 -0.0242  0.0945
  552MPD2    H7 8252   1.528   1.644  13.795  1.0538  0.7207 -0.6045
  553TMC3    C1 8253   1.349   1.624  13.656 -0.7008 -0.3786  0.8668
  553TMC3    C2 8254   1.333   1.631  13.519 -0.2115 -1.1916  0.4648
  553TMC3    C3 8255   1.379   1.530  13.439 -0.6623 -0.2553  0.2116
  553TMC3    C4 8256   1.411   1.515  13.712  0.2949 -0.4409 -0.1672
  553TMC3    C5 8257   1.460   1.413  13.634 -0.1017  0.1031  0.2481
  553TMC3    C6 8258   1.427   1.417  13.499 -0.0423  0.5053  0.2940
  553TMC3     C 8259   1.376   1.748  13.710  0.0150  0.1481  0.0792
  553TMC3     O 8260   1.304   1.842  13.680  0.3293 -0.2083  0.3768
  553TMC3     H 8261   1.308   1.728  13.477  0.5284 -0.8841  0.7227
  553TMC3    H1 8262   1.432   1.511  13.818  0.2007 -0.1319 -0.1355
  553TMC3    H2 8263   1.470   1.336  13.441  1.0108 -0.5027  2.4779
  553TMC3    C7 8264   1.607   1.403  13.650 -0.6092 -0.3734  0.8655
  553TMC3    C8 8265   1.453   1.566  13.328 -0.0183 -1.0259  0.4929
  553TMC3    O1 8266   1.674   1.387  13.552 -0.1501  0.2749  0.1545
  553TMC3    O2 8267   1.410   1.655  13.258  0.3804 -0.3506 -0.6947
  554TMC3    C1 8268   3.637   1.132  11.450 -0.0983 -0.3187 -0.1038
  554TMC3    C2 8269   3.572   1.095  11.335  0.4398  0.0143 -0.2212
  554TMC3    C3 8270   3.620   1.131  11.208 -0.5274  0.0353 -0.9684
  554TMC3    C4 8271   3.753   1.202  11.433 -0.5194 -0.4035  0.6230
  554TMC3    C5 8272   3.798   1.248  11.311  0.3845  0.1441  0.7733
  554TMC3    C6 8273   3.732   1.215  11.200  0.2482 -0.1597 -0.0395
  554TMC3     C 8274   3.606   1.073  11.576  0.1887 -0.0983 -0.0720
  554TMC3     O 8275   3.697   1.066  11.659  0.0457  0.7382 -0.1118
  554TMC3     H 8276   3.479   1.040  11.346  0.5438 -0.5748 -2.1826
  554TMC3    H1 8277   3.813   1.237  11.517 -0.2539 -0.5987  0.5163
  554TMC3    H2 8278   3.763   1.266  11.110 -0.9554 -1.4565 -1.1972
  554TMC3    C7 8279   3.920   1.324  11.290 -0.3177 -0.2739  0.2388
  554TMC3    C8 8280   3.529   1.146  11.099  0.3727  0.7139  0.1388
  554TMC3    O1 8281   3.981   1.290  11.190 -0.3394  0.5528 -0.7588
  554TMC3    O2 8282   3.546   1.246  11.027  0.0707 -0.0496 -0.1832
  555TMC3    C1 8283   3.014   0.879  15.056 -0.1309  0.1700  0.3452
  555TMC3    C2 8284   3.016   0.879  15.193 -0.2051 -0.1002  0.3181
  555TMC3    C3 8285   2.972   0.766  15.254 -0.4449 -0.2595  0.2848
  555TMC3    C4 8286   2.980   0.761  14.982 -0.9089 -0.1278  0.5122
  555TMC3    C5 8287   2.927   0.650  15.054 -0.5851 -0.0413 -0.1145
  555TMC3    C6 8288   2.923   0.650  15.191  0.2092 -0.0194 -0.1372
  555TMC3     C 8289   2.966   0.997  14.989  0.4496 -0.7131 -0.1653
  555TMC3     O 8290   3.044   1.089  14.968  0.1213  0.5378 -0.5075
  555TMC3     H 8291   3.029   0.976  15.241  0.4329 -1.3424  2.6235
  555TMC3    H1 8292   2.970   0.762  14.874  0.0550  0.5043  0.4305
  555TMC3    H2 8293   2.874   0.576  15.254  1.3381 -2.8433 -2.5735
  555TMC3    C7 8294   2.861   0.548  14.974  1.0059  0.3794  0.1201
  555TMC3    C8 8295   2.934   0.785  15.392  0.0623  0.2510 -0.2480
  555TMC3    O1 8296   2.835   0.578  14.860  0.3641  0.1058 -0.1151
  555TMC3    O2 8297   2.828   0.734  15.430 -0.0659 -0.2649 -0.6506
  556MPD2     C 8298   1.421   2.026  10.154  0.0598  1.1170  0.2157
  556MPD2    C1 8299   1.297   1.988  10.215  0.4419  0.1605  0.2112
  556MPD2    C2 8300   1.228   1.877  10.161  0.2176 -0.4720  0.7423
  556MPD2    C3 8301   1.273   1.806  10.048 -0.8349  0.0133 -0.0270
  556MPD2    C4 8302   1.389   1.858   9.993 -0.3236  0.4927 -0.5440
  556MPD2    C5 8303   1.462   1.961  10.045 -0.5250 -0.0086 -0.6909
  556MPD2     H 8304   1.145   1.832  10.215 -1.0175  1.3955  0.4224
  556MPD2    H1 8305   1.427   1.822   9.898  2.4823 -1.5811  1.3411
  556MPD2    H2 8306   1.489   2.102  10.189  0.5530  0.3362  0.9560
  556MPD2    H3 8307   1.547   1.987   9.983 -0.0351 -0.6987 -0.3085
  556MPD2     N 8308   1.215   1.687   9.986  0.7195  0.6141  0.0807
  556MPD2    H5 8309   1.274   1.641   9.918  0.5352 -0.1674  0.4541
  556MPD2    N1 8310   1.239   2.055  10.327  0.3108 -0.8741  0.7103
  556MPD2    H7 8311   1.148   2.019  10.354  0.9780 -2.1395  1.2524
  557TMC3    C1 8312   1.058   1.515   9.952  0.3848  0.0621  0.0639
  557TMC3    C2 8313   1.139   1.459   9.861 -0.0152 -0.2954  0.2303
  557TMC3    C3 8314   1.160   1.322   9.859 -0.6130 -0.5022  0.3291
  557TMC3    C4 8315   0.983   1.439  10.037  0.2142  0.9709  0.2769
  557TMC3    C5 8316   1.006   1.305  10.040 -0.9395  0.4554  0.6928
  557TMC3    C6 8317   1.097   1.248   9.959 -0.4073 -0.9937 -0.0632
  557TMC3     C 8318   1.083   1.652   9.999  0.5193  0.0067  0.0386
  557TMC3     O 8319   1.002   1.710  10.071  0.0859 -0.0757 -0.1844
  557TMC3     H 8320   1.192   1.524   9.792  0.5178 -1.0266 -0.0440
  557TMC3    H1 8321   0.911   1.479  10.108  1.1527 -0.1693  1.8770
  557TMC3    H2 8322   1.116   1.143   9.979 -1.7709 -1.1696  0.3668
  557TMC3    C7 8323   0.939   1.222  10.135  0.5847  0.1741 -0.3757
  557TMC3    C8 8324   1.270   1.274   9.783 -0.1521 -0.5388 -0.3744
  557TMC3    O1 8325   0.832   1.265  10.169  0.0046  0.0870 -0.0339
  557TMC3    O2 8326   1.336   1.356   9.733 -0.2369 -0.1427  0.3069
  558TMC3    C1 8327   3.131   4.256   9.950 -0.2449 -0.1230 -0.1704
  558TMC3    C2 8328   3.012   4.231  10.017  0.4544  0.4653 -0.5838
  558TMC3    C3 8329   2.900   4.256   9.944 -0.0281 -0.2564 -0.0653
  558TMC3    C4 8330   3.142   4.317   9.830  0.2431 -0.3740 -0.5329
  558TMC3    C5 8331   3.026   4.362   9.779 -0.7621  0.6355  0.0391
  558TMC3    C6 8332   2.902   4.324   9.827 -0.0526 -0.2872  0.2277
  558TMC3     C 8333   3.261   4.233  10.019 -0.5097 -0.7668  0.0775
  558TMC3     O 8334   3.366   4.251   9.964  0.1343 -0.1334  0.2470
  558TMC3     H 8335   3.000   4.199  10.120  1.7631  4.2013  0.7258
  558TMC3    H1 8336   3.233   4.368   9.800 -0.8334  1.8185 -0.1106
  558TMC3    H2 8337   2.811   4.379   9.804 -1.3131 -2.4380  0.1014
  558TMC3    C7 8338   3.031   4.463   9.676  0.1861  0.7183 -0.5024
  558TMC3    C8 8339   2.780   4.276  10.022 -0.5532  0.0506 -0.3467
  558TMC3    O1 8340   3.144   4.489   9.620 -0.6506  0.4818  0.5255
  558TMC3    O2 8341   2.672   4.244   9.969 -0.6411 -0.7061 -0.3585
  559MPD2     C 8342   3.529   0.850  10.406 -0.6442  0.7613  0.0410
  559MPD2    C1 8343   3.472   0.724  10.408 -0.9627 -0.8768 -0.4886
  559MPD2    C2 8344   3.535   0.616  10.470  0.0506 -0.1451  0.7297
  559MPD2    C3 8345   3.661   0.635  10.529  0.0995  0.0803 -0.3233
  559MPD2    C4 8346   3.727   0.755  10.511  0.9957  0.7708 -1.0384
  559MPD2    C5 8347   3.659   0.866  10.453 -0.2543 -0.7510  0.5306
  559MPD2     H 8348   3.486   0.519  10.468  1.6054 -0.9273  0.2172
  559MPD2    H1 8349   3.826   0.771  10.553  0.7782  0.8310 -0.5482
  559MPD2    H2 8350   3.479   0.936  10.361  1.7275  1.3620 -1.4300
  559MPD2    H3 8351   3.708   0.962  10.456  1.2001 -1.4802  0.1904
  559MPD2     N 8352   3.717   0.525  10.591  0.3281 -0.0813 -0.4513
  559MPD2    H5 8353   3.672   0.435  10.586  0.9685 -0.2980 -2.3319
  559MPD2    N1 8354   3.330   0.728  10.373 -0.5097 -0.5441  0.2970
  559MPD2    H7 8355   3.296   0.821  10.354 -0.1171 -0.3579  0.5165
  560TMC3    C1 8356   3.833   0.400  10.755  0.6999  0.2331 -0.4447
  560TMC3    C2 8357   3.813   0.283  10.684  0.0666 -0.1691  0.1573
  560TMC3    C3 8358   3.853   0.174  10.754 -0.4181  0.0334 -0.1096
  560TMC3    C4 8359   3.903   0.406  10.875  0.0564 -0.3392  0.6571
  560TMC3    C5 8360   3.935   0.292  10.942 -0.9349 -0.3655 -0.0542
  560TMC3    C6 8361   3.892   0.175  10.888 -0.0195 -0.7892 -0.6528
  560TMC3     C 8362   3.812   0.525  10.689 -0.1625 -0.3350 -0.1787
  560TMC3     O 8363   3.868   0.621  10.734 -0.5280 -0.6255 -0.3048
  560TMC3     H 8364   3.788   0.280  10.579 -2.1862  1.7486  0.6413
  560TMC3    H1 8365   3.922   0.501  10.923 -1.0941  0.1457  0.1688
  560TMC3    H2 8366   3.940   0.087  10.930  0.0998 -0.8759 -0.9724
  560TMC3    C7 8367   3.968   0.291  11.081 -1.0427 -0.8789  0.1029
  560TMC3    C8 8368   3.813   0.047  10.703 -0.5520 -0.7281 -0.2715
  560TMC3    O1 8369   3.953   0.191  11.151 -0.3298 -0.5500 -0.3319
  560TMC3    O2 8370   3.897   4.695  10.704  0.2389  0.0737  0.4070
  561TMC3    C1 8371   1.860   4.310  11.211  0.4765  0.0852  0.2751
  561TMC3    C2 8372   1.791   4.201  11.252 -0.4156 -0.4704  0.3667
  561TMC3    C3 8373   1.680   4.218  11.327  0.8127 -0.5334 -0.4333
  561TMC3    C4 8374   1.838   4.434  11.269  0.2663  0.1858 -0.6989
  561TMC3    C5 8375   1.736   4.440  11.363  0.5690 -0.5058  0.5481
  561TMC3    C6 8376   1.651   4.333  11.398  0.2885  0.2544 -0.6249
  561TMC3     C 8377   1.978   4.285  11.127  0.5079 -0.2277  1.0748
  561TMC3     O 8378   1.987   4.169  11.095 -0.3811  0.5285  0.1570
  561TMC3     H 8379   1.821   4.101  11.223  0.6910 -0.2883  0.8695
  561TMC3    H1 8380   1.907   4.514  11.245  2.6237 -1.8585 -0.7765
  561TMC3    H2 8381   1.564   4.351  11.460  1.6639 -0.7463  1.6161
  561TMC3    C7 8382   1.660   4.558  11.350 -0.0602 -0.3320 -0.2996
  561TMC3    C8 8383   1.584   4.104  11.330 -0.3746  0.0900 -0.0466
  561TMC3    O1 8384   1.580   4.579  11.441 -0.2188  0.3226  0.2781
  561TMC3    O2 8385   1.624   3.993  11.292 -0.3816  0.1090  0.1397
  562TMC3    C1 8386   2.501   0.983  16.379  0.5801 -0.4054  0.4221
  562TMC3    C2 8387   2.559   1.091  16.316 -0.2321 -0.1800  0.5091
  562TMC3    C3 8388   2.542   1.107  16.186  0.4075  0.2925 -0.6994
  562TMC3    C4 8389   2.438   0.889  16.304 -0.0241 -0.3277 -0.5439
  562TMC3    C5 8390   2.427   0.902  16.171  0.6835 -0.6659 -0.6966
  562TMC3    C6 8391   2.470   1.019  16.105  0.4622  0.0368  0.0684
  562TMC3     C 8392   2.539   0.946  16.512  0.6389 -0.3860 -0.8196
  562TMC3     O 8393   2.500   0.835  16.546 -0.1373 -0.6391 -0.0484
  562TMC3     H 8394   2.600   1.173  16.372  0.3744 -0.3559  0.3189
  562TMC3    H1 8395   2.397   0.800  16.351 -1.0542  0.6334  0.3964
  562TMC3    H2 8396   2.469   1.028  15.997 -1.2814 -0.6195  0.0288
  562TMC3    C7 8397   2.459   0.780  16.098  0.3783 -0.2733 -0.7162
  562TMC3    C8 8398   2.564   1.242  16.131  0.1883  0.2657  0.6089
  562TMC3    O1 8399   2.451   0.794  15.976 -0.5519  0.2905 -0.5171
  562TMC3    O2 8400   2.650   1.303  16.198 -0.0384  0.3196  0.4295
  563MPD2     C 8401   0.194   1.976  15.474  0.6937  0.0374  0.4402
  563MPD2    C1 8402   0.255   2.046  15.574  0.1638 -0.3492 -0.5040
  563MPD2    C2 8403   0.381   2.096  15.551 -0.1568  0.1472 -0.9210
  563MPD2    C3 8404   0.442   2.088  15.429 -0.6060  0.4585  0.6576
  563MPD2    C4 8405   0.381   2.011  15.330  0.0560 -0.6534 -0.5611
  563MPD2    C5 8406   0.259   1.955  15.353  0.2533 -0.1033 -0.0332
  563MPD2     H 8407   0.419   2.149  15.638 -0.8954  2.8761 -2.2635
  563MPD2    H1 8408   0.432   1.979  15.239 -1.9027 -0.8859 -1.5730
  563MPD2    H2 8409   0.099   1.924  15.484  0.2997  0.2687 -2.0648
  563MPD2    H3 8410   0.212   1.895  15.275  1.0341 -1.4611  0.5359
  563MPD2     N 8411   0.578   2.124  15.413 -0.3180 -0.5459 -0.7548
  563MPD2    H5 8412   0.626   2.094  15.329  3.3972  1.0313  0.7881
  563MPD2    N1 8413   0.181   2.055  15.694 -0.0444  0.0445 -0.5315
  563MPD2    H7 8414   0.088   2.016  15.682  0.9882 -2.5970  0.1263
  564TMC3    C1 8415   0.126   2.081  15.914  0.2376 -0.1217  0.2800
  564TMC3    C2 8416   0.052   1.973  15.911  0.3755 -0.0409 -0.5190
  564TMC3    C3 8417   4.739   1.928  16.038  0.0285 -0.1708 -0.5667
  564TMC3    C4 8418   0.132   2.157  16.027 -0.2576 -0.1700  0.0037
  564TMC3    C5 8419   0.066   2.123  16.141 -1.1131  0.5478 -0.1274
  564TMC3    C6 8420   0.003   2.002  16.149 -0.6031  1.3981 -0.5478
  564TMC3     C 8421   0.226   2.103  15.818 -0.6554  0.2748  0.3357
  564TMC3     O 8422   0.336   2.140  15.860 -0.2732 -0.3000  0.3890
  564TMC3     H 8423   0.053   1.903  15.829 -2.7410  1.6750 -2.0374
  564TMC3    H1 8424   0.191   2.248  16.032  0.7923 -0.9057  0.9233
  564TMC3    H2 8425   4.707   1.959  16.242  1.5912  0.4689 -0.1456
  564TMC3    C7 8426   0.115   2.180  16.262  0.2925 -0.1702  0.5454
  564TMC3    C8 8427   4.688   1.797  16.050 -0.3093  0.1771  0.3419
  564TMC3    O1 8428   0.086   2.295  16.287 -0.0259 -0.0588  0.2219
  564TMC3    O2 8429   4.600   1.773  16.130 -0.3359  1.0094  0.0902
  565TMC3    C1 8430   0.489   3.601  10.171 -0.0575 -0.6326  0.5203
  565TMC3    C2 8431   0.468   3.481  10.232 -0.0664  0.3168  0.7620
  565TMC3    C3 8432   0.402   3.386  10.157  0.7174 -0.3016  0.4834
  565TMC3    C4 8433   0.457   3.620  10.040  0.2952 -0.0094 -0.2221
  565TMC3    C5 8434   0.395   3.522   9.969 -0.3400 -0.7856  0.2045
  565TMC3    C6 8435   0.366   3.404  10.020 -0.0845  0.5673 -0.2270
  565TMC3     C 8436   0.595   3.692  10.224 -0.7936 -0.1756  0.4162
  565TMC3     O 8437   0.648   3.762  10.140 -0.0134  0.0745 -0.2039
  565TMC3     H 8438   0.485   3.467  10.338  0.1899 -1.6279  0.4583
  565TMC3    H1 8439   0.472   3.722  10.006  1.5238 -0.0977  0.0417
  565TMC3    H2 8440   0.337   3.319   9.960  3.1934 -0.7054 -0.0117
  565TMC3    C7 8441   0.384   3.537   9.821  0.2200  0.0824  0.6461
  565TMC3    C8 8442   0.404   3.259  10.216 -0.1139  0.7104  0.3732
  565TMC3    O1 8443   0.276   3.484   9.788 -0.4098 -0.0242 -0.4386
  565TMC3    O2 8444   0.432   3.260  10.331  0.3895 -0.0425 -0.2396
  566MPD2     C 8445   2.151   0.397  14.116 -0.4766  0.1871 -0.3328
  566MPD2    C1 8446   2.185   0.452  13.996 -0.1310  0.8450  0.3466
  566MPD2    C2 8447   2.091   0.435  13.890 -0.6060 -0.6023 -0.2969
  566MPD2    C3 8448   1.967   0.372  13.910 -0.1911  0.4503 -0.0884
  566MPD2    C4 8449   1.939   0.316  14.030  0.1139 -0.0229  0.7049
  566MPD2    C5 8450   2.025   0.336  14.133  0.2914 -0.3222  0.2392
  566MPD2     H 8451   2.113   0.467  13.789 -0.6179 -0.3604 -0.2229
  566MPD2    H1 8452   1.841   0.273  14.046 -0.5294  2.0088  2.2635
  566MPD2    H2 8453   2.208   0.411  14.206  1.7632 -2.5976 -1.3277
  566MPD2    H3 8454   1.983   0.309  14.229 -2.5481 -1.3520 -1.2765
  566MPD2     N 8455   1.881   0.352  13.803 -0.3364  1.4487  0.6680
  566MPD2    H5 8456   1.805   0.287  13.821  2.7664 -2.0041  1.1085
  566MPD2    N1 8457   2.314   0.517  13.984 -0.1408  0.3482 -0.3864
  566MPD2    H7 8458   2.381   0.509  14.059 -0.8667 -1.6797  0.0506
  567TMC3    C1 8459   2.470   0.661  13.881 -0.4505 -0.2792 -0.6393
  567TMC3    C2 8460   2.523   0.704  13.760 -0.5420 -0.1654 -0.5082
  567TMC3    C3 8461   2.609   0.809  13.766  0.6552 -0.6482 -0.1295
  567TMC3    C4 8462   2.511   0.711  13.999 -0.5194  0.0879  0.3032
  567TMC3    C5 8463   2.601   0.817  13.996 -0.9204 -0.2834  0.0667
  567TMC3    C6 8464   2.646   0.867  13.880 -0.1847  0.0584 -0.0027
  567TMC3     C 8465   2.347   0.593  13.875  0.5472 -0.3750  0.6306
  567TMC3     O 8466   2.274   0.618  13.785  0.3551  0.0112  0.2547
  567TMC3     H 8467   2.480   0.665  13.668 -2.9636 -2.1678  1.4607
  567TMC3    H1 8468   2.445   0.704  14.085  0.5408 -0.5941  1.0622
  567TMC3    H2 8469   2.720   0.945  13.891 -0.2411  0.3640 -1.8012
  567TMC3    C7 8470   2.679   0.853  14.109  0.2900  0.4027  0.5625
  567TMC3    C8 8471   2.581   0.885  13.651 -0.0730  0.4055  0.4488
  567TMC3    O1 8472   2.732   0.965  14.123 -0.4630  0.0006  0.1494
  567TMC3    O2 8473   2.484   0.857  13.579 -0.0366  0.2088  0.1004
  568MPD2     C 8474   4.438   0.257  16.424  0.3228  0.5864 -0.3190
  568MPD2    C1 8475   4.461   0.356  16.510 -0.6536  0.0846  0.1165
  568MPD2    C2 8476   4.451   0.485  16.464  0.4206  0.4373 -0.0037
  568MPD2    C3 8477   4.435   0.514  16.336 -0.6688 -0.3494  0.5168
  568MPD2    C4 8478   4.434   0.408  16.242  0.1889  0.6599  0.1460
  568MPD2    C5 8479   4.428   0.281  16.290 -0.2907 -0.3047 -0.2049
  568MPD2     H 8480   4.451   0.570  16.531  1.6614 -1.3128  2.1937
  568MPD2    H1 8481   4.433   0.428  16.135  0.8802 -4.0694 -0.7156
  568MPD2    H2 8482   4.414   0.158  16.460  1.4725  0.5013  0.2115
  568MPD2    H3 8483   4.416   0.196  16.224 -0.3253 -1.2680  1.0317
  568MPD2     N 8484   4.425   0.651  16.309 -0.5734  0.0585  0.3403
  568MPD2    H5 8485   4.432   0.714  16.389  0.4272  1.9623 -1.2561
  568MPD2    N1 8486   4.466   0.324  16.652  0.0561 -0.8140 -0.5824
  568MPD2    H7 8487   4.453   0.226  16.677 -2.6317 -0.5139 -0.8113
  569TMC3    C1 8488   4.408   0.859  16.223  0.1908  0.2953 -0.0492
  569TMC3    C2 8489   4.353   0.910  16.339 -0.6157  0.0146  0.3804
  569TMC3    C3 8490   4.363   1.049  16.357 -0.2071 -0.4704 -0.0906
  569TMC3    C4 8491   4.460   0.946  16.128  0.2032  0.2058 -0.4258
  569TMC3    C5 8492   4.482   1.080  16.160  0.5330 -0.1468 -0.4759
  569TMC3    C6 8493   4.423   1.139  16.270 -0.0165 -0.0502  0.5252
  569TMC3     C 8494   4.418   0.716  16.193  0.1696  0.3244  0.8142
  569TMC3     O 8495   4.406   0.672  16.080 -0.2573  0.0052 -0.3461
  569TMC3     H 8496   4.300   0.849  16.410  0.6307 -1.5988 -0.0651
  569TMC3    H1 8497   4.499   0.896  16.040 -0.8457 -1.5282  0.1128
  569TMC3    H2 8498   4.424   1.246  16.285 -1.8259  0.1653 -0.8103
  569TMC3    C7 8499   4.573   1.148  16.070  0.4142  0.8015 -0.0942
  569TMC3    C8 8500   4.284   1.096  16.471 -0.1660 -0.2036 -0.5301
  569TMC3    O1 8501   4.634   1.072  15.996  0.3785  0.2731  0.0210
  569TMC3    O2 8502   4.171   1.052  16.480  0.4690  0.5055 -0.7012
  570TMC3    C1 8503   3.807   4.525  15.836  0.2243  0.1790  0.4623
  570TMC3    C2 8504   3.880   4.570  15.727 -0.6566  0.2511  0.3500
  570TMC3    C3 8505   3.979   4.662  15.753 -0.3030  0.2780 -0.1009
  570TMC3    C4 8506   3.840   4.566  15.961 -0.8922  0.6884  0.5684
  570TMC3    C5 8507   3.940   4.659  15.983  0.7660  0.1815  0.3167
  570TMC3    C6 8508   4.014   4.700  15.880  0.5270  0.4876 -0.3531
  570TMC3     C 8509   3.732   4.405  15.805 -0.6524 -0.5588 -0.4414
  570TMC3     O 8510   3.676   4.394  15.695  0.5255 -0.1878  0.3227
  570TMC3     H 8511   3.859   4.539  15.625 -0.4232 -1.2455  0.7595
  570TMC3    H1 8512   3.787   4.528  16.047  0.5138  0.4002  1.3081
  570TMC3    H2 8513   4.095   0.033  15.882  0.1718  0.8567  1.1785
  570TMC3    C7 8514   3.927   4.737  16.101 -0.3757 -0.5693  0.1213
  570TMC3    C8 8515   4.085   4.676  15.653 -0.2249 -0.5300  0.5246
  570TMC3    O1 8516   3.857   4.693  16.194 -0.8245 -0.4325 -0.0579
  570TMC3    O2 8517   4.202   4.684  15.688  0.3185 -0.6793 -0.2067
  571MPD2     C 8518   1.781   0.992  17.748  0.1626 -0.5930  1.0065
  571MPD2    C1 8519   1.695   1.042   0.088  0.4306  0.2473 -0.5139
  571MPD2    C2 8520   1.636   1.163   0.075  0.6056 -0.0649 -0.0235
  571MPD2    C3 8521   1.682   1.249  17.726  0.3673 -0.0303  0.4443
  571MPD2    C4 8522   1.771   1.201  17.630 -0.2157  0.8395  0.7932
  571MPD2    C5 8523   1.813   1.069  17.636  0.0987  0.4223  0.5405
  571MPD2     H 8524   1.564   1.197   0.148  1.9595 -0.0575  1.3141
  571MPD2    H1 8525   1.799   1.262  17.546 -1.8536 -1.4891 -1.4556
  571MPD2    H2 8526   1.814   0.888  17.752  0.3372 -0.6336 -1.6891
  571MPD2    H3 8527   1.868   1.028  17.551  0.1514 -0.3974  0.9646
  571MPD2     N 8528   1.645   1.391  17.718  0.0747 -0.9506  0.1909
  571MPD2    H5 8529   1.706   1.452  17.665 -0.7031 -1.6599 -1.5230
  571MPD2    N1 8530   1.654   0.957   0.190  0.0144 -0.7055 -0.3714
  571MPD2    H7 8531   1.672   0.858   0.173  0.3136 -0.7253  0.0669
  572TMC3    C1 8532   1.508   1.593  17.736 -0.3703 -0.3827  0.3145
  572TMC3    C2 8533   1.404   1.652   0.057 -0.2045 -0.2606 -0.0384
  572TMC3    C3 8534   1.378   1.781   0.027 -0.0902 -0.8436 -0.6144
  572TMC3    C4 8535   1.588   1.669  17.649 -0.4403 -0.1059 -0.0335
  572TMC3    C5 8536   1.546   1.795  17.620  1.2613  0.1521 -0.2052
  572TMC3    C6 8537   1.437   1.854  17.683  0.4150  1.0931  0.1668
  572TMC3     C 8538   1.537   1.451   0.023  0.4834  0.4874 -0.0046
  572TMC3     O 8539   1.446   1.391   0.082  0.2866  0.2640  0.1849
  572TMC3     H 8540   1.328   1.585   0.096  2.7304 -3.2007  0.6298
  572TMC3    H1 8541   1.661   1.614  17.590  1.6514  1.5101  1.0803
  572TMC3    H2 8542   1.411   1.958  17.672 -0.1962  0.6859 -2.3987
  572TMC3    C7 8543   1.615   1.864  17.516 -0.4171 -0.5937  0.1147
  572TMC3    C8 8544   1.273   1.843   0.107  0.1906  0.1278  0.7489
  572TMC3    O1 8545   1.556   1.952  17.463  0.2836 -0.3189 -0.6277
  572TMC3    O2 8546   1.201   1.922   0.046  0.1306 -0.7894  0.1378
  573MPD2     C 8547   2.170   2.405  17.436 -0.4081 -0.1660 -0.9776
  573MPD2    C1 8548   2.251   2.306  17.471  0.7983  0.3601 -0.2854
  573MPD2    C2 8549   2.365   2.283  17.397 -0.1012  0.0706 -0.1478
  573MPD2    C3 8550   2.396   2.367  17.289  0.2849  0.2889 -0.0551
  573MPD2    C4 8551   2.312   2.468  17.262  0.2304  0.4136  0.7056
  573MPD2    C5 8552   2.206   2.494  17.342 -0.1218 -0.4948 -0.0702
  573MPD2     H 8553   2.420   2.190  17.412 -1.2915 -0.2708  2.1094
  573MPD2    H1 8554   2.332   2.527  17.174  0.0099  2.7385  2.2182
  573MPD2    H2 8555   2.077   2.422  17.489 -0.1187 -2.0701  0.1445
  573MPD2    H3 8556   2.144   2.578  17.314  1.1975  0.2758 -0.6915
  573MPD2     N 8557   2.506   2.346  17.203 -0.3005 -0.5060 -0.5620
  573MPD2    H5 8558   2.509   2.411  17.126 -2.6463  0.6195  0.3023
  573MPD2    N1 8559   2.203   2.211  17.566 -0.1652  0.6408 -0.8589
  573MPD2    H7 8560   2.113   2.233  17.607  0.3373  0.9821  0.0367
  574TMC3    C1 8561   2.684   2.224  17.104  0.6805 -0.0251  0.3521
  574TMC3    C2 8562   2.663   2.299  16.991 -0.3110  0.7049  0.5738
  574TMC3    C3 8563   2.766   2.295  16.896  0.1626 -0.1805 -0.1591
  574TMC3    C4 8564   2.803   2.157  17.128 -0.1623  0.0861  0.2093
  574TMC3    C5 8565   2.904   2.157  17.034  0.1950 -0.1907 -0.4277
  574TMC3    C6 8566   2.881   2.224  16.917  0.0623 -0.2721  0.3349
  574TMC3     C 8567   2.600   2.243  17.220 -0.5821  0.3002 -0.3895
  574TMC3     O 8568   2.640   2.190  17.323  0.2410 -0.1742  0.1377
  574TMC3     H 8569   2.567   2.346  16.972  0.2601  0.6590 -2.4074
  574TMC3    H1 8570   2.815   2.080  17.203 -0.9409 -1.7227 -1.5018
  574TMC3    H2 8571   2.955   2.214  16.838 -0.2125  2.4548 -0.2773
  574TMC3    C7 8572   3.025   2.202  17.107 -0.3158  0.6120  0.4077
  574TMC3    C8 8573   2.748   2.343  16.760 -0.5842  0.0188 -0.1840
  574TMC3    O1 8574   3.033   2.195  17.228  0.1721 -0.2620  0.0793
  574TMC3    O2 8575   2.811   2.294  16.665  0.5474 -0.2189 -0.6201
  575TMC3    C1 8576   0.687   2.716  10.837 -0.1362  0.1305 -0.6880
  575TMC3    C2 8577   0.723   2.594  10.803  0.6068 -0.0653 -0.5859
  575TMC3    C3 8578   0.694   2.546  10.676 -0.5289  0.0769  0.6995
  575TMC3    C4 8579   0.626   2.792  10.740 -0.0078 -0.0584 -0.3519
  575TMC3    C5 8580   0.586   2.739  10.619 -0.0186  0.0451 -0.3950
  575TMC3    C6 8581   0.627   2.615  10.582  0.0759 -0.4769 -0.2262
  575TMC3     C 8582   0.710   2.767  10.972  0.8993  0.5673  0.2702
  575TMC3     O 8583   0.739   2.679  11.055 -0.3894 -0.0521 -0.4149
  575TMC3     H 8584   0.770   2.525  10.872 -2.9157 -0.2008  1.6711
  575TMC3    H1 8585   0.588   2.891  10.764 -0.7715  0.0112 -1.8373
  575TMC3    H2 8586   0.607   2.575  10.483 -4.2107  3.3824 -0.9298
  575TMC3    C7 8587   0.535   2.827  10.526  0.1737 -0.0570  0.3809
  575TMC3    C8 8588   0.698   2.400  10.660 -0.9895  0.0342  0.2307
  575TMC3    O1 8589   0.561   2.945  10.539 -0.5047 -0.4078 -0.1599
  575TMC3    O2 8590   0.718   2.329  10.758  0.1958 -0.3533  0.7985
  576MPD2     C 8591   0.326   4.096  12.057  1.2827 -0.2425 -0.5155
  576MPD2    C1 8592   0.359   4.222  12.010 -0.2391 -0.0404  0.2743
  576MPD2    C2 8593   0.315   4.331  12.068 -0.3339 -0.1751 -0.6382
  576MPD2    C3 8594   0.270   4.322  12.200  0.3261  0.4092  0.6097
  576MPD2    C4 8595   0.250   4.202  12.265  0.5394  0.1670  0.2671
  576MPD2    C5 8596   0.272   4.088  12.189 -0.2834  0.1515  0.6280
  576MPD2     H 8597   0.330   4.424  12.013 -1.3202  1.0424  1.1409
  576MPD2    H1 8598   0.226   4.192  12.370  1.4499  3.2146  0.7661
  576MPD2    H2 8599   0.347   4.003  12.007  2.4505 -0.6889  0.8013
  576MPD2    H3 8600   0.251   3.988  12.224  0.5981  1.6307  5.3702
  576MPD2     N 8601   0.264   4.445  12.261 -0.3342  0.4255  0.1554
  576MPD2    H5 8602   0.280   4.526  12.201  0.6964 -1.2386 -1.8288
  576MPD2    N1 8603   0.441   4.250  11.896  0.4433 -0.2705  0.9503
  576MPD2    H7 8604   0.444   4.347  11.866  2.0493 -0.4387  0.5725
  577TMC3    C1 8605   0.595   4.206  11.717  0.0347 -0.1362 -0.0548
  577TMC3    C2 8606   0.681   4.123  11.646  0.1456  0.2708  0.0065
  577TMC3    C3 8607   0.788   4.180  11.576 -0.1827 -0.1799  0.1212
  577TMC3    C4 8608   0.620   4.344  11.712  0.3148 -0.3701 -0.1376
  577TMC3    C5 8609   0.733   4.392  11.648 -0.1457 -0.0009 -0.0735
  577TMC3    C6 8610   0.825   4.314  11.581  0.8584  0.9523 -0.4749
  577TMC3     C 8611   0.514   4.151  11.826 -0.3541 -0.5817 -0.4714
  577TMC3     O 8612   0.511   4.028  11.845 -0.2415  0.4318 -0.1695
  577TMC3     H 8613   0.667   4.017  11.661 -0.1610  0.1885 -0.9059
  577TMC3    H1 8614   0.562   4.424  11.758  1.7403  0.4089  0.3389
  577TMC3    H2 8615   0.902   4.360  11.519  1.4325  0.5345 -0.0679
  577TMC3    C7 8616   0.743   4.532  11.621 -0.2885  0.6585  0.1023
  577TMC3    C8 8617   0.875   4.084  11.509  0.0191 -0.0071 -0.4355
  577TMC3    O1 8618   0.852   4.576  11.592  0.0549  0.3576 -0.0440
  577TMC3    O2 8619   0.846   3.962  11.492 -0.3743 -0.0961  0.4125
  578MPD2     C 8620   4.110   4.455   0.456  0.1825 -0.2797 -0.0129
  578MPD2    C1 8621   4.017   4.358   0.476  0.7496 -0.7583  0.5433
  578MPD2    C2 8622   4.060   4.252   0.555  0.5173 -0.3083  0.2242
  578MPD2    C3 8623   4.185   4.248   0.619  0.2131 -0.0877 -0.2095
  578MPD2    C4 8624   4.268   4.359   0.611  0.3439  0.2023 -0.7550
  578MPD2    C5 8625   4.230   4.458   0.528  0.4012 -0.3545  0.0160
  578MPD2     H 8626   3.999   4.166   0.578 -0.1796 -0.3284 -1.7305
  578MPD2    H1 8627   4.357   4.361   0.671 -0.7309 -2.3647  0.9220
  578MPD2    H2 8628   4.078   4.545   0.405  0.9897  0.7275  1.2546
  578MPD2    H3 8629   4.295   4.544   0.525  1.2328 -0.9853 -0.0633
  578MPD2     N 8630   4.204   4.128   0.690 -0.2171  0.5536 -0.1578
  578MPD2    H5 8631   4.118   4.074   0.690 -1.0349  1.8700 -1.6338
  578MPD2    N1 8632   3.882   4.375   0.423  1.0150 -0.1088  0.3556
  578MPD2    H7 8633   3.867   4.462   0.373  0.9300 -1.2818 -1.6610
  579TMC3    C1 8634   4.323   3.940   0.776  0.1445  0.2454 -0.3580
  579TMC3    C2 8635   4.441   3.859   0.754 -0.2523  0.5259 -0.3360
  579TMC3    C3 8636   4.435   3.729   0.801  0.1416  0.2879 -0.7561
  579TMC3    C4 8637   4.206   3.881   0.815 -0.5356 -0.7070  0.6481
  579TMC3    C5 8638   4.204   3.749   0.856 -0.3154  0.4726 -0.0150
  579TMC3    C6 8639   4.322   3.676   0.853  0.5945  0.3478  0.4854
  579TMC3     C 8640   4.321   4.086   0.746  0.1619  0.0036  0.2118
  579TMC3     O 8641   4.431   4.143   0.753 -0.2229 -0.1760 -0.4544
  579TMC3     H 8642   4.528   3.910   0.714 -0.1941  0.2211 -0.6049
  579TMC3    H1 8643   4.133   3.944   0.865 -0.5870 -1.4337  1.4919
  579TMC3    H2 8644   4.330   3.573   0.886 -0.6751 -0.3045 -1.3075
  579TMC3    C7 8645   4.081   3.689   0.900 -0.6006  0.7562 -0.5606
  579TMC3    C8 8646   4.558   3.678   0.851  0.5657 -0.2050  0.2977
  579TMC3    O1 8647   4.092   3.571   0.941  0.7355 -0.0349 -0.4072
  579TMC3    O2 8648   4.559   3.604   0.947 -0.2634 -0.4864 -0.5356
  580TMC3    C1 8649   3.307   4.048  12.049 -0.0600  0.4689 -0.0211
  580TMC3    C2 8650   3.433   4.063  11.999 -0.3096 -0.4788 -0.1733
  580TMC3    C3 8651   3.508   3.952  11.971  0.2448 -0.2222  0.4055
  580TMC3    C4 8652   3.264   3.925  12.097  0.0479 -0.6272 -0.2208
  580TMC3    C5 8653   3.345   3.817  12.060  0.2294 -0.2882  0.5152
  580TMC3    C6 8654   3.465   3.823  11.990  0.2165  0.8338  0.6127
  580TMC3     C 8655   3.203   4.142  12.010 -0.2046  0.8323 -0.1095
  580TMC3     O 8656   3.097   4.134  12.070  0.0485 -0.6014 -0.3373
  580TMC3     H 8657   3.466   4.161  11.966  2.0862 -1.6808 -1.3663
  580TMC3    H1 8658   3.174   3.910  12.156  0.3392 -0.5916  0.2357
  580TMC3    H2 8659   3.532   3.740  11.967 -0.0056  0.6635  0.5777
  580TMC3    C7 8660   3.298   3.692  12.106 -0.5384  0.0589  0.2273
  580TMC3    C8 8661   3.633   3.969  11.905  0.0886 -0.2244  0.2876
  580TMC3    O1 8662   3.233   3.691  12.205 -0.1537 -0.4629  0.2431
  580TMC3    O2 8663   3.708   4.057  11.935  0.1324 -0.7941 -0.6730
  581MPD2     C 8664   0.756   3.616  14.632  0.1131  0.0786  0.3544
  581MPD2    C1 8665   0.694   3.664  14.747  0.3149 -0.3911 -0.0475
  581MPD2    C2 8666   0.552   3.676  14.753 -0.3350  0.0373 -0.7206
  581MPD2    C3 8667   0.474   3.639  14.643  0.0508  0.6816  0.0737
  581MPD2    C4 8668   0.541   3.595  14.533  0.0429  0.0507  0.2218
  581MPD2    C5 8669   0.675   3.595  14.520  0.2690  0.2496 -0.4508
  581MPD2     H 8670   0.507   3.720  14.841  0.7833  0.1346 -0.2001
  581MPD2    H1 8671   0.482   3.545  14.457  3.2418 -1.6965 -1.1110
  581MPD2    H2 8672   0.864   3.609  14.628 -0.0468 -1.7865 -0.9292
  581MPD2    H3 8673   0.727   3.561  14.432  0.3856 -1.1183  0.1550
  581MPD2     N 8674   0.335   3.670  14.656 -0.3445  0.0802 -0.2717
  581MPD2    H5 8675   0.301   3.715  14.741 -1.2784 -1.3293  0.0989
  581MPD2    N1 8676   0.778   3.691  14.854  0.4039  0.4759  1.2874
  581MPD2    H7 8677   0.877   3.669  14.843 -0.7896 -2.5243 -3.2867
  582TMC3    C1 8678   0.827   3.650  15.088  0.3754 -0.5054 -0.1363
  582TMC3    C2 8679   0.842   3.705  15.210  0.0196  0.7318  0.2139
  582TMC3    C3 8680   0.894   3.628  15.306 -0.4856  0.8508 -0.1454
  582TMC3    C4 8681   0.843   3.521  15.068 -0.6965  0.3244 -0.3755
  582TMC3    C5 8682   0.896   3.442  15.170  0.4970 -0.2609 -0.3227
  582TMC3    C6 8683   0.928   3.496  15.287  0.8161 -0.0700  0.0328
  582TMC3     C 8684   0.742   3.716  14.987 -0.2422  0.6533 -1.0012
  582TMC3     O 8685   0.635   3.747  15.035  0.2421 -0.1763  0.2756
  582TMC3     H 8686   0.838   3.811  15.236  0.7818  0.8103  0.0152
  582TMC3    H1 8687   0.830   3.480  14.968 -1.3829  0.0771 -0.1840
  582TMC3    H2 8688   0.952   3.431  15.371 -1.4386 -2.3243 -1.0462
  582TMC3    C7 8689   0.918   3.302  15.133  0.5291 -0.3877 -0.3562
  582TMC3    C8 8690   0.914   3.674  15.441  0.9595 -1.0490 -0.0120
  582TMC3    O1 8691   0.962   3.282  15.019  0.4636  0.1540 -0.3763
  582TMC3    O2 8692   0.855   3.772  15.487  0.7989 -0.2670  0.2015
  583MPD2     C 8693   1.576   0.584  16.970  0.2835  0.6957 -0.2269
  583MPD2    C1 8694   1.482   0.635  16.884 -0.1504 -0.1309 -0.9282
  583MPD2    C2 8695   1.387   0.729  16.925 -0.7072  0.3741  0.6049
  583MPD2    C3 8696   1.382   0.766  17.054  0.7622  0.0366  0.1882
  583MPD2    C4 8697   1.478   0.719  17.140 -0.3922 -0.1729 -0.1386
  583MPD2    C5 8698   1.577   0.633  17.095  0.3508 -0.5896  0.0877
  583MPD2     H 8699   1.330   0.770  16.842 -0.8481  0.0585  0.5450
  583MPD2    H1 8700   1.477   0.737  17.246  0.8103  1.1917 -0.3550
  583MPD2    H2 8701   1.661   0.525  16.937  0.0235 -0.5031  1.2185
  583MPD2    H3 8702   1.660   0.607  17.160  0.9796 -0.1842 -0.5688
  583MPD2     N 8703   1.283   0.849  17.100  0.4630  0.4499 -0.3177
  583MPD2    H5 8704   1.225   0.905  17.039 -1.0808 -1.0676 -0.2460
  583MPD2    N1 8705   1.499   0.621  16.743  0.3698 -0.1299  0.7272
  583MPD2    H7 8706   1.432   0.674  16.687  0.4548 -0.5452  0.2297
  584TMC3    C1 8707   1.124   0.927  17.261  0.0628 -0.1047 -0.2432
  584TMC3    C2 8708   1.150   1.056  17.232 -0.6224  0.8994  0.4524
  584TMC3    C3 8709   1.110   1.156  17.311 -0.1665 -0.2085  0.7483
  584TMC3    C4 8710   1.052   0.901  17.374 -0.0234  0.2043  0.2341
  584TMC3    C5 8711   1.005   1.002  17.454  0.1011  0.9652 -0.3162
  584TMC3    C6 8712   1.045   1.134  17.428  0.8221  0.1119 -0.3637
  584TMC3     C 8713   1.223   0.828  17.225 -0.2838 -0.1935  0.3608
  584TMC3     O 8714   1.244   0.742  17.310 -0.2252 -0.2147  0.3977
  584TMC3     H 8715   1.209   1.087  17.146 -0.3789 -0.0750  0.2611
  584TMC3    H1 8716   1.017   0.801  17.392 -1.2378  0.6162  0.1520
  584TMC3    H2 8717   1.012   1.214  17.493  0.8356 -1.0481  1.0749
  584TMC3    C7 8718   0.973   0.952  17.590 -0.7170 -0.0741  0.4754
  584TMC3    C8 8719   1.120   1.294  17.279  0.6474 -0.4355 -0.9015
  584TMC3    O1 8720   0.966   0.833  17.607  0.0642  0.0371 -0.0597
  584TMC3    O2 8721   1.149   1.372  17.368  0.3469  0.1421 -0.0721
  585MPD2     C 8722   4.522   4.476  17.652 -0.0794 -0.0869  0.2847
  585MPD2    C1 8723   4.631   4.500  17.567  0.0309 -0.4641  0.1145
  585MPD2    C2 8724   4.674   4.395  17.487  0.1686  0.4720  0.1985
  585MPD2    C3 8725   4.622   4.271  17.495  0.7507 -0.1879  0.1954
  585MPD2    C4 8726   4.512   4.251  17.572 -0.7234  0.6400 -0.2102
  585MPD2    C5 8727   4.459   4.351  17.650 -0.1821 -0.5772  0.3561
  585MPD2     H 8728   0.022   4.409  17.425  0.2311 -2.5291 -0.3616
  585MPD2    H1 8729   4.462   4.155  17.582 -1.3341  0.9613 -0.2251
  585MPD2    H2 8730   4.483   4.554  17.716 -1.8077 -2.4372  2.1034
  585MPD2    H3 8731   4.379   4.329  17.720 -1.0553  2.0308  0.1505
  585MPD2     N 8732   4.665   4.157  17.422 -0.0416  0.3668  0.0502
  585MPD2    H5 8733   4.610   4.072  17.432 -2.0654  1.5387 -1.1443
  585MPD2    N1 8734   4.695   4.627  17.579  0.3264 -0.4553 -0.4793
  585MPD2    H7 8735   4.650   4.691  17.645  1.1912  0.7653 -1.0878
  586TMC3    C1 8736   0.053   4.017  17.275  0.5311 -0.8405 -0.2081
  586TMC3    C2 8737   0.176   3.960  17.238 -0.7240 -0.9195  0.0833
  586TMC3    C3 8738   0.175   3.859  17.151  0.4060  0.8250  0.5538
  586TMC3    C4 8739   4.674   3.977  17.226 -0.6830  0.5336  0.1376
  586TMC3    C5 8740   4.682   3.875  17.127 -0.2084 -0.7946  1.3669
  586TMC3    C6 8741   0.060   3.816  17.094 -0.1419  0.0684  0.3774
  586TMC3     C 8742   0.046   4.135  17.362 -0.2595  0.3009  0.4394
  586TMC3     O 8743   0.137   4.219  17.367  0.7500  0.2531 -0.0484
  586TMC3     H 8744   0.262   3.994  17.295  1.0149 -1.1285 -2.4167
  586TMC3    H1 8745   4.578   4.021  17.252 -0.3560  1.1280  0.3525
  586TMC3    H2 8746   0.069   3.738  17.019  0.1589 -0.9731  1.5151
  586TMC3    C7 8747   4.570   3.784  17.104  0.2890 -0.1092 -0.7052
  586TMC3    C8 8748   0.266   3.745  17.165 -0.4758 -0.1268 -0.1855
  586TMC3    O1 8749   4.589   3.681  17.041 -0.6597 -0.6958  0.2353
  586TMC3    O2 8750   0.233   3.636  17.127  0.2155 -0.0450  0.2586
  587TMC3    C1 8751   2.404   2.817  16.031  0.4445 -0.1764 -0.3771
  587TMC3    C2 8752   2.404   2.928  16.116 -0.5445 -0.0121 -0.3587
  587TMC3    C3 8753   2.531   2.959  16.166 -0.1035  0.4752  0.5693
  587TMC3    C4 8754   2.514   2.754  15.988  0.3350 -0.9190  0.1932
  587TMC3    C5 8755   2.634   2.790  16.041 -0.0035  0.3963 -0.1243
  587TMC3    C6 8756   2.644   2.895  16.135  0.0498 -0.0336 -0.5092
  587TMC3     C 8757   2.279   2.764  15.972 -0.5057  0.5965  0.7556
  587TMC3     O 8758   2.286   2.713  15.863  0.2443  0.3352 -0.2261
  587TMC3     H 8759   2.315   2.958  16.171  1.1233 -1.9630  3.4062
  587TMC3    H1 8760   2.508   2.661  15.932 -1.2815  0.7916 -2.5119
  587TMC3    H2 8761   2.738   2.906  16.189 -0.3612  0.0165  0.2022
  587TMC3    C7 8762   2.732   2.682  16.058  0.8724 -0.1565  0.4123
  587TMC3    C8 8763   2.538   3.043  16.284  0.5693  0.6332 -0.0648
  587TMC3    O1 8764   2.686   2.569  16.045  0.2133  0.8300  0.1362
  587TMC3    O2 8765   2.647   3.041  16.345  0.1329 -0.3762  0.0900
  588TMC3    C1 8766   0.420   0.487   9.913  0.0426  0.4688  0.2538
  588TMC3    C2 8767   0.418   0.350   9.923 -0.4112 -0.4167 -0.2199
  588TMC3    C3 8768   0.529   0.287   9.865 -0.0647 -0.5065  0.2273
  588TMC3    C4 8769   0.523   0.556   9.853  0.4993 -0.8808  0.0349
  588TMC3    C5 8770   0.627   0.489   9.796  0.3281  0.0917 -0.1182
  588TMC3    C6 8771   0.635   0.353   9.803 -0.1569  0.7466 -0.1244
  588TMC3     C 8772   0.289   0.549   9.904  0.3977 -0.0512  1.0025
  588TMC3     O 8773   0.204   0.492   9.838  0.6353 -0.0791 -0.5886
  588TMC3     H 8774   0.323   0.304   9.948  0.4267 -0.3824  3.0695
  588TMC3    H1 8775   0.513   0.663   9.839 -2.3921 -1.3837 -1.5803
  588TMC3    H2 8776   0.718   0.298   9.760 -0.5222 -0.9830  1.3905
  588TMC3    C7 8777   0.755   0.567   9.782  0.2255 -0.3241  0.0172
  588TMC3    C8 8778   0.510   0.146   9.832  0.1835  0.1556  0.5814
  588TMC3    O1 8779   0.835   0.531   9.697 -0.4506  0.2709 -1.2766
  588TMC3    O2 8780   0.560   0.119   9.727  0.8011  0.2592 -0.0239
  589TMC3    C1 8781   3.459   2.798   1.178  0.0690  0.1239 -0.8427
  589TMC3    C2 8782   3.535   2.732   1.273 -0.7209  0.8413 -0.3418
  589TMC3    C3 8783   3.553   2.598   1.251 -0.2311  0.1241  0.6468
  589TMC3    C4 8784   3.395   2.731   1.080  0.0594 -0.0763 -0.3716
  589TMC3    C5 8785   3.439   2.607   1.052 -0.1712  0.4947  0.2345
  589TMC3    C6 8786   3.511   2.538   1.140 -0.1987 -0.0814 -0.4812
  589TMC3     C 8787   3.452   2.943   1.177 -0.3240  0.0300 -0.0174
  589TMC3     O 8788   3.450   2.986   1.065  0.0389  0.1324  0.0041
  589TMC3     H 8789   3.585   2.791   1.349 -0.6617  1.0648 -0.5535
  589TMC3    H1 8790   3.339   2.793   1.010 -1.9834 -1.7230 -0.1829
  589TMC3    H2 8791   3.521   2.432   1.122 -1.7723 -0.1335 -1.0643
  589TMC3    C7 8792   3.410   2.535   0.929 -0.3126 -0.2630 -0.1604
  589TMC3    C8 8793   3.656   2.531   1.324  0.2508 -0.0007  0.8033
  589TMC3    O1 8794   3.492   2.449   0.898 -0.1372 -0.5217  0.2194
  589TMC3    O2 8795   3.671   2.571   1.434  0.0001 -0.1705 -0.1246
  590MPD2     C 8796   3.826   1.226  16.272 -0.1195 -0.5701 -0.3724
  590MPD2    C1 8797   3.788   1.326  16.190 -0.3336  0.3624  1.1113
  590MPD2    C2 8798   3.886   1.390  16.109  0.7361 -0.4878 -0.0386
  590MPD2    C3 8799   4.017   1.351  16.110 -0.0144  0.0095  0.2673
  590MPD2    C4 8800   4.057   1.256  16.200 -0.8080  0.2363  0.4065
  590MPD2    C5 8801   3.961   1.197  16.282 -0.3712  0.8729  0.0027
  590MPD2     H 8802   3.863   1.464  16.034  2.3560  1.5817  1.5132
  590MPD2    H1 8803   4.160   1.231  16.221 -1.4385 -1.4314  1.5820
  590MPD2    H2 8804   3.756   1.160  16.321 -0.3363 -0.1630 -0.1393
  590MPD2    H3 8805   3.993   1.115  16.346 -1.3235  0.2098 -0.3746
  590MPD2     N 8806   4.104   1.417  16.023  0.6356 -0.0217  0.2346
  590MPD2    H5 8807   4.084   1.507  15.980  2.8353  1.0922  1.5318
  590MPD2    N1 8808   3.645   1.355  16.188  0.0906  0.4713  0.0955
  590MPD2    H7 8809   3.590   1.311  16.261  0.3022  0.8612  0.4865
  591TMC3    C1 8810   4.310   1.468  15.906 -0.5156  0.1369 -0.3002
  591TMC3    C2 8811   4.394   1.409  15.816 -0.3648  0.2670  0.1347
  591TMC3    C3 8812   4.463   1.500  15.739  0.2787 -0.0093 -0.4097
  591TMC3    C4 8813   4.300   1.598  15.927 -0.2786  0.0795 -0.3492
  591TMC3    C5 8814   4.391   1.676  15.862 -0.6100 -0.3347  0.1643
  591TMC3    C6 8815   4.458   1.634  15.754  0.6141 -0.1639  0.0565
  591TMC3     C 8816   4.230   1.381  15.991  0.0107  0.2392 -0.4720
  591TMC3     O 8817   4.286   1.273  16.016 -0.2788 -0.0489 -0.8720
  591TMC3     H 8818   4.394   1.302  15.798 -0.2580  0.9030 -3.5654
  591TMC3    H1 8819   4.249   1.648  16.009 -1.6256 -0.9158 -0.5754
  591TMC3    H2 8820   4.528   1.698  15.701  0.9302 -0.5614 -0.0058
  591TMC3    C7 8821   4.365   1.816  15.848 -0.6921 -0.1151 -0.1262
  591TMC3    C8 8822   4.544   1.434  15.635  0.3848  0.4993 -0.3778
  591TMC3    O1 8823   4.470   1.878  15.841  0.2236  0.1305 -0.5247
  591TMC3    O2 8824   4.560   1.313  15.636 -0.1015  0.1502 -0.0507
  592MPD2     C 8825   4.236   2.841  11.814 -0.4585  0.0261 -0.2405
  592MPD2    C1 8826   4.140   2.912  11.746  0.3853 -0.4706  0.0543
  592MPD2    C2 8827   4.015   2.915  11.804 -0.3362 -0.0057  0.1721
  592MPD2    C3 8828   3.987   2.866  11.933  0.3566 -0.0976 -0.1181
  592MPD2    C4 8829   4.089   2.804  12.002  0.2648  0.3553  0.1951
  592MPD2    C5 8830   4.210   2.791  11.942  0.7395  0.8131 -0.0830
  592MPD2     H 8831   3.940   2.978  11.757 -0.0664  0.7375  0.7393
  592MPD2    H1 8832   4.074   2.752  12.096 -0.9009  1.5420  0.6550
  592MPD2    H2 8833   4.338   2.838  11.777 -0.3519  1.7626 -0.0735
  592MPD2    H3 8834   4.291   2.733  11.985 -0.7500  0.1108  1.7823
  592MPD2     N 8835   3.861   2.884  11.987  0.0040 -0.1510  0.0175
  592MPD2    H5 8836   3.793   2.937  11.935 -0.6488 -0.0551  0.9759
  592MPD2    N1 8837   4.177   2.969  11.622  0.0340 -0.2916 -0.3926
  592MPD2    H7 8838   4.272   2.956  11.589 -0.3645 -1.4881 -1.0672
  593TMC3    C1 8839   4.171   3.094  11.427 -0.6737  0.4259 -0.3167
  593TMC3    C2 8840   4.111   3.196  11.360 -0.4337  0.7921 -0.7286
  593TMC3    C3 8841   4.114   3.190  11.228 -0.6186  0.5571  0.4766
  593TMC3    C4 8842   4.264   3.008  11.366  0.0482 -0.2738 -0.0191
  593TMC3    C5 8843   4.278   3.017  11.233 -0.0225  0.5143  0.2063
  593TMC3    C6 8844   4.188   3.101  11.167  0.5300  0.0959  0.0952
  593TMC3     C 8845   4.102   3.057  11.552  0.2124  0.3028 -0.4810
  593TMC3     O 8846   3.983   3.085  11.563  0.1593 -0.1246  0.2127
  593TMC3     H 8847   4.049   3.272  11.407 -1.4034 -0.2289 -0.3494
  593TMC3    H1 8848   4.319   2.934  11.424 -0.8771  1.0010  2.4855
  593TMC3    H2 8849   4.196   3.126  11.061 -0.5592  0.0263 -0.0079
  593TMC3    C7 8850   4.413   3.061  11.191  0.1055  0.4527  0.2979
  593TMC3    C8 8851   4.147   3.318  11.171  0.2372 -0.1346 -0.6807
  593TMC3    O1 8852   4.435   3.060  11.069 -0.3353  0.3451 -0.3362
  593TMC3    O2 8853   4.117   3.346  11.054  0.4628 -0.4440  0.0709
  594MPD2     C 8854   2.631   1.736  14.241 -0.3102  0.2844 -0.3513
  594MPD2    C1 8855   2.539   1.836  14.213  0.6698 -0.2372  0.0015
  594MPD2    C2 8856   2.591   1.948  14.146 -0.0241 -0.3135  0.3676
  594MPD2    C3 8857   2.719   1.965  14.110 -0.2731 -0.8922  0.0232
  594MPD2    C4 8858   2.806   1.861  14.127 -0.1497  0.5555 -0.3497
  594MPD2    C5 8859   2.755   1.749  14.192  1.1604 -0.9484  0.3465
  594MPD2     H 8860   2.525   2.032  14.128 -0.9887 -0.9341  1.0424
  594MPD2    H1 8861   2.903   1.850  14.081 -0.0932 -0.1507 -0.0622
  594MPD2    H2 8862   2.611   1.635  14.273 -0.8435  0.8996  1.2685
  594MPD2    H3 8863   2.830   1.673  14.206  1.2657 -0.8349  0.4030
  594MPD2     N 8864   2.757   2.088  14.054  0.6795  0.2882 -0.4193
  594MPD2    H5 8865   2.697   2.168  14.071  0.5034  0.2388 -0.8200
  594MPD2    N1 8866   2.415   1.822  14.257  0.3361 -0.5594 -0.4543
  594MPD2    H7 8867   2.393   1.737  14.308 -1.9560  0.2429 -0.0759
  595TMC3    C1 8868   3.045   2.443  13.957  0.1360  0.5073  0.0732
  595TMC3    C2 8869   3.000   2.314  13.936 -0.2767  0.7650 -0.4538
  595TMC3    C3 8870   2.892   2.272  14.013 -0.2188 -0.2435  0.1613
  595TMC3    C4 8871   2.981   2.531  14.044  0.3990 -0.6628  0.1153
  595TMC3    C5 8872   2.883   2.480  14.119 -0.0424  0.0450  0.5809
  595TMC3    C6 8873   2.826   2.356  14.103  0.1200  0.6552  0.5961
  595TMC3     C 8874   3.191   2.447  13.963  0.4555 -0.1086  0.2653
  595TMC3     O 8875   3.245   2.353  14.023  0.4594  0.2977 -0.1865
  595TMC3     H 8876   3.055   2.245  13.874  1.6558  0.4350  1.6485
  595TMC3    H1 8877   3.016   2.631  14.067 -0.0856 -0.5159  0.2255
  595TMC3    H2 8878   2.758   2.323  14.181 -0.6393  0.0296 -0.3223
  595TMC3    C7 8879   2.811   2.582  14.199  0.0397 -0.6476 -0.3953
  595TMC3    C8 8880   2.882   2.123  14.018  0.0135  0.0193  0.0679
  595TMC3    O1 8881   2.687   2.573  14.219  0.3694 -0.0867  0.4991
  595TMC3    O2 8882   2.962   2.046  13.969  0.4412  0.6096  0.6521
  596MPD2     C 8883   2.278   0.472  16.851  0.3424 -0.0126 -0.2273
  596MPD2    C1 8884   2.266   0.569  16.759 -0.0701  0.6991  0.1582
  596MPD2    C2 8885   2.259   0.532  16.629  0.7687 -0.6673 -0.2974
  596MPD2    C3 8886   2.264   0.403  16.575 -0.7100  0.0940  0.5121
  596MPD2    C4 8887   2.272   0.303  16.674  0.7135  0.0955 -0.0698
  596MPD2    C5 8888   2.271   0.343  16.805  0.8796 -0.2073  0.0562
  596MPD2     H 8889   2.242   0.616  16.563 -1.7013  0.6373  1.9842
  596MPD2    H1 8890   2.283   0.198  16.649  0.1508  0.0686 -0.2008
  596MPD2    H2 8891   2.283   0.485  16.958 -1.1093  3.5145 -0.6057
  596MPD2    H3 8892   2.278   0.262  16.876  0.7981  0.3910  0.7437
  596MPD2     N 8893   2.266   0.379  16.435  0.2193 -0.3728  0.2794
  596MPD2    H5 8894   2.277   0.282  16.408 -0.1551 -1.1616  2.9755
  596MPD2    N1 8895   2.241   0.704  16.788  0.0591  0.1910  0.2068
  596MPD2    H7 8896   2.219   0.761  16.707  0.7027  0.2536  0.0755
  597TMC3    C1 8897   2.217   0.894  16.921  0.1935 -0.1949 -0.2048
  597TMC3    C2 8898   2.226   0.967  16.799  0.2869  0.9086  0.4174
  597TMC3    C3 8899   2.124   1.056  16.780  0.0537  0.2558  0.6442
  597TMC3    C4 8900   2.119   0.914  17.013  0.6306 -0.2946 -0.3731
  597TMC3    C5 8901   2.031   1.013  16.990 -0.5342 -0.0128  0.3774
  597TMC3    C6 8902   2.015   1.076  16.868  0.3084  0.2947 -0.6669
  597TMC3     C 8903   2.252   0.756  16.917 -0.0583 -0.0251 -0.2192
  597TMC3     O 8904   2.285   0.702  17.019  0.7725  0.4519 -0.0775
  597TMC3     H 8905   2.301   0.949  16.722  1.8878 -0.2900  2.2502
  597TMC3    H1 8906   2.119   0.853  17.102 -0.3625 -0.4082 -0.4583
  597TMC3    H2 8907   1.936   1.149  16.854  1.0814  1.2497 -0.0677
  597TMC3    C7 8908   1.922   1.016  17.086 -0.8966 -0.2936 -0.0871
  597TMC3    C8 8909   2.139   1.166  16.690  0.3432  0.1302  0.3417
  597TMC3    O1 8910   1.912   0.930  17.167  1.0777  0.5082  0.0490
  597TMC3    O2 8911   2.040   1.214  16.638 -0.1655 -0.1631  0.6648
  598TMC3    C1 8912   4.415   2.234  15.368  0.2703 -0.5467 -0.5690
  598TMC3    C2 8913   4.355   2.126  15.420  0.3456 -0.0753  0.4060
  598TMC3    C3 8914   4.412   2.001  15.400  0.2176 -0.2026  0.2369
  598TMC3    C4 8915   4.536   2.224  15.305  0.4500  0.0296 -0.0677
  598TMC3    C5 8916   4.589   2.102  15.290  0.3051 -0.2474  0.0105
  598TMC3    C6 8917   4.530   1.988  15.336  0.4406  0.9036  0.4952
  598TMC3     C 8918   4.375   2.362  15.412 -0.7199  0.1295  0.5162
  598TMC3     O 8919   4.466   2.442  15.427  0.0222 -0.0320  0.5007
  598TMC3     H 8920   4.265   2.133  15.478 -0.1521  0.7777 -0.4599
  598TMC3    H1 8921   4.581   2.307  15.251  2.5295 -2.1103 -1.6192
  598TMC3    H2 8922   4.579   1.896  15.309 -1.1962 -0.0118  0.6702
  598TMC3    C7 8923   4.710   2.084  15.204 -0.0970  0.1160 -0.1080
  598TMC3    C8 8924   4.345   1.875  15.449 -0.0187  0.6363 -0.1555
  598TMC3    O1 8925   4.711   1.980  15.140 -0.2707 -0.5827  0.1230
  598TMC3    O2 8926   4.420   1.789  15.493 -0.5371 -0.1156 -0.5543
  599MPD2     C 8927   0.151   4.169  15.763 -0.0692  0.3982  0.1196
  599MPD2    C1 8928   0.103   4.040  15.747 -0.6553  0.2436 -0.3107
  599MPD2    C2 8929   4.709   4.012  15.723  0.1661  0.1534 -0.4172
  599MPD2    C3 8930   4.626   4.113  15.694  0.0357  0.3741  0.3672
  599MPD2    C4 8931   4.680   4.244  15.691  0.5915 -0.5991  0.4979
  599MPD2    C5 8932   0.069   4.274  15.719 -0.1535 -0.4099 -0.0499
  599MPD2     H 8933   4.675   3.909  15.732 -0.3321  0.5363  2.0595
  599MPD2    H1 8934   4.622   4.332  15.666  1.4928 -0.2406 -0.3233
  599MPD2    H2 8935   0.253   4.188  15.793  0.4721  2.5465 -3.0807
  599MPD2    H3 8936   0.109   4.375  15.716  0.2533 -0.5965 -0.9171
  599MPD2     N 8937   4.488   4.101  15.682 -0.9788  0.5359 -0.4519
  599MPD2    H5 8938   4.438   4.188  15.674 -3.1151 -0.8049 -1.7190
  599MPD2    N1 8939   0.187   3.930  15.778  0.0782 -0.5783  0.0118
  599MPD2    H7 8940   0.258   3.947  15.849  0.2839 -1.6804  0.0833
  600TMC3    C1 8941   4.268   4.025  15.726 -0.3776  0.0745 -0.3443
  600TMC3    C2 8942   4.167   3.932  15.717  0.6552  0.3907  0.0493
  600TMC3    C3 8943   4.055   3.951  15.791  0.4183  0.6519  0.2328
  600TMC3    C4 8944   4.239   4.150  15.779 -0.3147  0.5226 -0.2596
  600TMC3    C5 8945   4.121   4.175  15.843  0.0633 -0.2475 -0.0679
  600TMC3    C6 8946   4.027   4.072  15.857  0.6251 -0.5056 -0.2052
  600TMC3     C 8947   4.407   3.993  15.701  0.1054  0.5753  0.1829
  600TMC3     O 8948   4.430   3.873  15.715  0.1915 -0.4112  0.3141
  600TMC3     H 8949   4.185   3.837  15.668 -2.5718 -0.0511 -0.2322
  600TMC3    H1 8950   4.319   4.224  15.779  0.9813 -0.8851  2.4169
  600TMC3    H2 8951   3.935   4.083  15.914  1.0484  0.5580  0.2678
  600TMC3    C7 8952   4.105   4.281  15.936  0.2018 -0.3143  0.4739
  600TMC3    C8 8953   3.960   3.837  15.799  0.3336  0.5899 -0.7435
  600TMC3    O1 8954   4.016   4.263  16.021 -0.2784 -0.1832 -0.1153
  600TMC3    O2 8955   4.003   3.722  15.798  0.0419 -0.2410 -0.1074
  601MPD2     C 8956   2.060   2.030  17.316  0.1951 -0.5713 -0.2457
  601MPD2    C1 8957   1.937   2.079  17.310  0.6408  0.5978  0.3005
  601MPD2    C2 8958   1.833   2.003  17.371 -0.2266  0.2277 -0.1707
  601MPD2    C3 8959   1.854   1.891  17.448  1.0793 -0.1717  0.0625
  601MPD2    C4 8960   1.989   1.847  17.459  0.7133 -0.8904  0.2758
  601MPD2    C5 8961   2.085   1.916  17.388  0.0790  0.4640  0.9641
  601MPD2     H 8962   1.734   2.039  17.349 -1.4018 -3.1760 -0.4512
  601MPD2    H1 8963   2.011   1.754  17.509  2.7817 -0.8156 -0.4663
  601MPD2    H2 8964   2.143   2.083  17.270 -0.6325  0.8403 -0.1365
  601MPD2    H3 8965   2.189   1.886  17.394  0.2110  0.9345  1.0153
  601MPD2     N 8966   1.752   1.823  17.515 -0.2769 -0.6401 -0.2069
  601MPD2    H5 8967   1.784   1.742  17.567  0.2678  0.3455  0.9951
  601MPD2    N1 8968   1.907   2.198  17.247  0.1467  0.5910  0.2902
  601MPD2    H7 8969   1.811   2.230  17.254 -0.0380  0.5511 -1.8667
  602TMC3    C1 8970   1.928   2.382  17.118  0.2528 -0.3561  0.5161
  602TMC3    C2 8971   1.905   2.481  17.211  0.2163  0.0264 -0.3725
  602TMC3    C3 8972   1.863   2.603  17.162 -0.5721 -0.2294 -0.0470
  602TMC3    C4 8973   1.896   2.392  16.986  0.2573  0.3841  0.6132
  602TMC3    C5 8974   1.834   2.515  16.952 -0.0212 -0.0523 -0.0161
  602TMC3    C6 8975   1.821   2.627  17.035  0.4101  0.1297  1.2719
  602TMC3     C 8976   1.986   2.264  17.163  0.0200  0.5436  0.6905
  602TMC3     O 8977   2.086   2.221  17.101 -0.3305 -0.3641  0.0183
  602TMC3     H 8978   1.949   2.479  17.310  0.2223  0.1326 -0.3728
  602TMC3    H1 8979   1.911   2.309  16.917  0.4876  2.2041 -1.5319
  602TMC3    H2 8980   1.813   2.728  16.995  0.9058  0.1504  1.2191
  602TMC3    C7 8981   1.742   2.512  16.844 -0.2264 -0.4589  0.0588
  602TMC3    C8 8982   1.828   2.698  17.262  0.4377  0.2481  0.1496
  602TMC3    O1 8983   1.751   2.430  16.752  0.2733 -0.2883 -0.2817
  602TMC3    O2 8984   1.864   2.684  17.377 -0.0474 -0.3222  0.4090
  603TMC3    C1 8985   4.719   2.627  10.385  0.5246  0.1600 -0.3842
  603TMC3    C2 8986   0.008   2.590  10.518  0.0263  0.1800 -0.1991
  603TMC3    C3 8987   0.063   2.686  10.601  0.2380  1.6486  0.3342
  603TMC3    C4 8988   4.715   2.758  10.340  0.3132  0.2768  1.0368
  603TMC3    C5 8989   0.008   2.847  10.435 -0.3600  0.2205 -0.3322
  603TMC3    C6 8990   0.065   2.815  10.560 -0.0024 -0.2504 -0.0577
  603TMC3     C 8991   4.688   2.526  10.286 -0.7096  0.4273  0.1321
  603TMC3     O 8992   4.678   2.569  10.171  0.5304  0.3376  0.2362
  603TMC3     H 8993   4.726   2.488  10.547  0.8246 -0.1673 -0.8511
  603TMC3    H1 8994   4.708   2.786  10.235  0.9859 -2.7899  0.1520
  603TMC3    H2 8995   0.069   2.895  10.633 -1.1975 -0.6907  0.4889
  603TMC3    C7 8996   0.018   2.981  10.389  0.0594 -0.6727 -0.7669
  603TMC3    C8 8997   0.097   2.639  10.738  0.4180 -0.8557  0.9277
  603TMC3    O1 8998   0.097   3.054  10.452 -0.3290  0.3362  0.0178
  603TMC3    O2 8999   0.062   2.529  10.776  0.4406 -0.5280 -0.3145
  604MPD2     C 9000   1.419   1.670  16.435  0.6994  0.5641 -0.4028
  604MPD2    C1 9001   1.285   1.675  16.387 -0.1182  0.0590 -0.7248
  604MPD2    C2 9002   1.275   1.685  16.245  0.4708  0.4613  0.1018
  604MPD2    C3 9003   1.385   1.651  16.165  0.0612  0.3405 -0.1667
  604MPD2    C4 9004   1.510   1.640  16.213 -0.2779  0.0997  0.8780
  604MPD2    C5 9005   1.528   1.660  16.347 -0.1330 -0.0640 -0.0162
  604MPD2     H 9006   1.181   1.700  16.195 -1.0921  0.0857  2.9290
  604MPD2    H1 9007   1.592   1.612  16.147 -0.5395  3.2388 -0.7917
  604MPD2    H2 9008   1.442   1.681  16.541  2.9873  0.3187 -0.8849
  604MPD2    H3 9009   1.626   1.652  16.393  1.1903  1.2941 -2.6647
  604MPD2     N 9010   1.350   1.621  16.028  0.0298 -0.5193  0.3963
  604MPD2    H5 9011   1.254   1.633  16.000  1.0120  3.4034 -1.3608
  604MPD2    N1 9012   1.180   1.702  16.483  0.4303  0.2061  0.0696
  604MPD2    H7 9013   1.209   1.725  16.578 -1.7318  1.7199  0.3617
  605TMC3    C1 9014   0.969   1.760  16.569 -0.1354 -0.5682 -0.2345
  605TMC3    C2 9015   1.028   1.848  16.656 -0.2512 -0.1138  0.4188
  605TMC3    C3 9016   0.958   1.961  16.702  0.1102  0.3810  0.9400
  605TMC3    C4 9017   0.838   1.780  16.529  0.4103 -0.2739  0.2805
  605TMC3    C5 9018   0.776   1.885  16.588  0.7588  0.2851  0.0804
  605TMC3    C6 9019   0.832   1.979  16.675 -1.0949  0.1164 -0.0742
  605TMC3     C 9020   1.045   1.717  16.456 -0.5045  0.1547  0.9204
  605TMC3     O 9021   0.993   1.702  16.347 -0.0962 -0.0652 -0.1232
  605TMC3     H 9022   1.135   1.862  16.663 -0.0866  0.4687 -3.1612
  605TMC3    H1 9023   0.792   1.723  16.449  2.7553 -2.1871  0.2957
  605TMC3    H2 9024   0.777   2.069  16.700 -0.5038  0.4835 -0.0995
  605TMC3    C7 9025   0.642   1.920  16.543  0.1803 -0.5294 -0.1652
  605TMC3    C8 9026   1.043   2.080  16.710  0.5813  0.5123 -0.0726
  605TMC3    O1 9027   0.608   1.881  16.433  0.2357  0.3999  0.0963
  605TMC3    O2 9028   1.152   2.076  16.762  0.7023  0.2489 -0.2339
  606TMC3    C1 9029   2.153   4.286  17.638  0.5593 -0.1042 -0.3224
  606TMC3    C2 9030   2.245   4.297  17.738  0.0169  0.2490  0.2532
  606TMC3    C3 9031   2.196   4.292   0.111  0.7306  0.0514  0.2241
  606TMC3    C4 9032   2.020   4.303  17.659  0.4964  0.3112 -1.2811
  606TMC3    C5 9033   1.981   4.310   0.037 -0.1548  0.0633 -0.5856
  606TMC3    C6 9034   2.064   4.283   0.146  0.9464 -0.2774  0.1987
  606TMC3     C 9035   2.202   4.305  17.502 -0.7948 -0.3936 -0.7588
  606TMC3     O 9036   2.150   4.390  17.430  0.0372  0.1107 -0.0921
  606TMC3     H 9037   2.351   4.314  17.723 -0.3758  3.0103  0.6332
  606TMC3    H1 9038   1.945   4.310  17.582 -1.3872 -0.9715  0.4063
  606TMC3    H2 9039   2.024   4.290   0.246 -0.5067 -0.6866 -0.3525
  606TMC3    C7 9040   1.849   4.345   0.084  1.0531  1.0735  0.2377
  606TMC3    C8 9041   2.281   4.321   0.225 -0.2132 -0.3914  0.6542
  606TMC3    O1 9042   1.809   4.319   0.196  0.3009  0.3188  0.1893
  606TMC3    O2 9043   2.247   4.275   0.331  0.3741 -0.0229  0.0432
  607MPD2     C 9044   4.319   2.518  11.661 -0.0036 -0.1849 -0.3089
  607MPD2    C1 9045   4.446   2.562  11.702 -0.1914 -0.2121  0.3003
  607MPD2    C2 9046   4.486   2.529  11.830  0.6168  0.3618 -0.4757
  607MPD2    C3 9047   4.404   2.456  11.914  0.4335 -0.8377  0.1461
  607MPD2    C4 9048   4.280   2.408  11.867 -0.1422 -0.7617 -0.0831
  607MPD2    C5 9049   4.243   2.440  11.741  1.0297  0.1229  0.7697
  607MPD2     H 9050   4.580   2.561  11.873  1.3505 -2.9067  0.3450
  607MPD2    H1 9051   4.209   2.346  11.922 -1.7715  0.1883 -1.1216
  607MPD2    H2 9052   4.276   2.542  11.564 -0.9969 -0.5653  0.0390
  607MPD2    H3 9053   4.145   2.410  11.705  0.7240  1.2560  0.6522
  607MPD2     N 9054   4.459   2.434  12.038  0.1178  0.3407  0.0175
  607MPD2    H5 9055   4.554   2.467  12.049 -0.0431  1.1651 -0.9788
  607MPD2    N1 9056   4.534   2.649  11.632  0.2128 -0.0513  0.4290
  607MPD2    H7 9057   4.626   2.652  11.676  0.5520 -1.9547 -0.1384
  608TMC3    C1 9058   4.662   2.740  11.449 -0.2385  0.1620  0.5849
  608TMC3    C2 9059   0.031   2.710  11.534  0.4334 -0.1288 -0.3738
  608TMC3    C3 9060   0.153   2.764  11.504 -0.3175 -0.6559 -0.7944
  608TMC3    C4 9061   4.661   2.832  11.347  1.0627 -0.4390 -0.8704
  608TMC3    C5 9062   0.046   2.890  11.322  0.0931 -0.0449  0.2742
  608TMC3    C6 9063   0.161   2.850  11.393 -0.1154 -0.2181  0.2546
  608TMC3     C 9064   4.529   2.696  11.498  1.0494  0.4275 -0.0070
  608TMC3     O 9065   4.429   2.717  11.430  0.8865 -0.1279  0.0668
  608TMC3     H 9066   0.020   2.616  11.586 -1.8307 -1.0115 -2.4591
  608TMC3    H1 9067   4.573   2.843  11.286  0.0596 -0.8301  0.5183
  608TMC3    H2 9068   0.262   2.883  11.373 -0.2856  1.6078  2.4312
  608TMC3    C7 9069   0.056   2.961  11.197  0.3832  0.0465  0.4654
  608TMC3    C8 9070   0.257   2.753  11.606 -0.0667 -0.2469  0.1338
  608TMC3    O1 9071   4.703   2.937  11.120  0.2056 -0.1447  0.6137
  608TMC3    O2 9072   0.362   2.808  11.578 -0.1679  0.1187 -0.0901
  609TMC3    C1 9073   2.691   2.505   9.052  0.3458  0.2314 -0.2940
  609TMC3    C2 9074   2.601   2.462   8.950 -0.7059  0.2023 -0.7706
  609TMC3    C3 9075   2.668   2.406   8.838 -0.4504 -0.0993  0.6330
  609TMC3    C4 9076   2.825   2.512   9.044 -0.1753 -0.1563  0.0345
  609TMC3    C5 9077   2.876   2.459   8.931  0.3403  0.6720 -0.3717
  609TMC3    C6 9078   2.803   2.407   8.832  0.4163  0.2805  0.3563
  609TMC3     C 9079   2.632   2.531   9.177 -0.2990  0.2722  0.1129
  609TMC3     O 9080   2.533   2.459   9.203 -0.2574 -0.4641  0.4233
  609TMC3     H 9081   2.494   2.473   8.961 -0.5819 -0.8213  1.5021
  609TMC3    H1 9082   2.887   2.532   9.131 -0.4814  1.4564 -0.1108
  609TMC3    H2 9083   2.849   2.394   8.735  1.0376 -0.1968  0.7103
  609TMC3    C7 9084   2.999   2.387   8.959  0.1881  0.7391 -0.2834
  609TMC3    C8 9085   2.608   2.286   8.787 -0.3347  0.7283  0.2077
  609TMC3    O1 9086   3.084   2.428   9.037  0.1730 -0.2133  0.4115
  609TMC3    O2 9087   2.687   2.215   8.733  0.4116  0.1386  0.1014
  610TMC3    C1 9088   4.478   3.006  12.136 -0.8182 -0.2145  0.2254
  610TMC3    C2 9089   4.595   3.029  12.094 -0.3301 -0.7002 -0.3174
  610TMC3    C3 9090   4.710   2.983  12.153  0.0721  0.3545 -0.2964
  610TMC3    C4 9091   4.470   2.927  12.251  0.8210 -0.5429  0.5225
  610TMC3    C5 9092   4.585   2.875  12.311 -0.0580  0.4246  0.8819
  610TMC3    C6 9093   4.708   2.895  12.258  0.2013 -0.0679 -0.7057
  610TMC3     C 9094   4.367   3.068  12.064 -0.7443 -0.2119 -0.2818
  610TMC3     O 9095   4.386   3.121  11.957 -0.4703  0.3263  0.1326
  610TMC3     H 9096   4.610   3.106  12.019 -0.3510 -0.3775  0.0106
  610TMC3    H1 9097   4.372   2.888  12.275  0.2170  1.2471  0.9287
  610TMC3    H2 9098   0.059   2.841  12.286  0.9480  0.9563 -1.1438
  610TMC3    C7 9099   4.585   2.801  12.435 -0.1448  0.0149  0.7982
  610TMC3    C8 9100   0.093   3.002  12.072  0.0409  0.1986  0.3156
  610TMC3    O1 9101   4.681   2.732  12.461 -0.3376 -0.4117 -0.0380
  610TMC3    O2 9102   0.062   3.029  11.956 -0.2602 -0.1367  0.0539
  611MPD2     C 9103   3.947   2.677  10.140  0.1295 -0.5644  0.1133
  611MPD2    C1 9104   3.856   2.774  10.111 -0.2670 -0.0659 -0.7609
  611MPD2    C2 9105   3.886   2.868  10.023  0.1011 -0.3268  0.0627
  611MPD2    C3 9106   4.015   2.867   9.961 -0.2208  0.0633 -0.1079
  611MPD2    C4 9107   4.112   2.771   9.996 -0.1414 -0.0517  0.1524
  611MPD2    C5 9108   4.076   2.675  10.088  0.0124 -0.2394  0.5652
  611MPD2     H 9109   3.824   2.956  10.010 -0.7230 -0.7927  0.7847
  611MPD2    H1 9110   4.215   2.772   9.961  0.2054 -0.2606  1.1516
  611MPD2    H2 9111   3.929   2.599  10.213 -1.4112  0.7721  1.1680
  611MPD2    H3 9112   4.157   2.613  10.125  0.7641  0.2716 -0.2012
  611MPD2     N 9113   4.068   2.975   9.886  0.3112  0.3676 -0.1363
  611MPD2    H5 9114   4.169   2.973   9.871  0.2269 -0.7425 -0.6006
  611MPD2    N1 9115   3.731   2.749  10.174  0.5104  0.3065 -0.1426
  611MPD2    H7 9116   3.736   2.663  10.228  2.1651  1.6130  1.8102
  612TMC3    C1 9117   4.099   3.179   9.778 -0.5974 -0.1560  0.3125
  612TMC3    C2 9118   4.222   3.197   9.831 -0.1406 -0.4999  0.2499
  612TMC3    C3 9119   4.276   3.320   9.808  0.0673 -0.2723  0.0878
  612TMC3    C4 9120   4.033   3.273   9.700 -0.6235 -0.2460  0.1808
  612TMC3    C5 9121   4.104   3.390   9.670 -0.4474  0.4983 -0.1615
  612TMC3    C6 9122   4.217   3.418   9.733  0.3734  0.1146  0.5366
  612TMC3     C 9123   4.005   3.088   9.839 -0.2165  0.5478 -0.6048
  612TMC3     O 9124   3.887   3.117   9.839 -0.6510  0.3665  0.2632
  612TMC3     H 9125   4.256   3.132   9.911 -0.7406 -0.4985  0.5076
  612TMC3    H1 9126   3.942   3.246   9.648  0.3177  0.2852 -1.7490
  612TMC3    H2 9127   4.272   3.512   9.737 -1.8859  1.5052 -0.6786
  612TMC3    C7 9128   4.039   3.495   9.583 -0.5454 -0.9336  0.4573
  612TMC3    C8 9129   4.406   3.355   9.868  0.9359  0.7675  0.1304
  612TMC3    O1 9130   3.919   3.479   9.566 -0.5884  0.2688  0.2145
  612TMC3    O2 9131   4.472   3.449   9.823 -0.2635 -0.3392  0.4061
  613MPD2     C 9132   3.232   0.870  16.641 -0.3361 -0.3607 -0.2261
  613MPD2    C1 9133   3.297   0.801  16.546  0.1978  0.1754 -0.2100
  613MPD2    C2 9134   3.293   0.664  16.543 -0.0431 -0.1003  0.1519
  613MPD2    C3 9135   3.213   0.607  16.636  0.3203 -0.4513  0.1915
  613MPD2    C4 9136   3.159   0.673  16.741 -0.0275 -0.1757  0.5928
  613MPD2    C5 9137   3.168   0.807  16.740  0.0910 -0.0442 -0.5167
  613MPD2     H 9138   3.320   0.614  16.451  0.9694  0.5275  0.1064
  613MPD2    H1 9139   3.112   0.616  16.820  1.2332 -1.9389  0.0578
  613MPD2    H2 9140   3.224   0.978  16.645 -0.1402 -0.2850 -2.1016
  613MPD2    H3 9141   3.132   0.868  16.822 -0.2003 -0.6820 -0.1738
  613MPD2     N 9142   3.187   0.472  16.606  0.0075  0.2305 -0.3419
  613MPD2    H5 9143   3.235   0.427  16.529  2.4270  3.6626 -0.8412
  613MPD2    N1 9144   3.359   0.848  16.431 -0.5262  0.4644 -0.0117
  613MPD2    H7 9145   3.402   0.781  16.368  0.6220 -0.7110  2.0358
  614TMC3    C1 9146   3.432   0.988  16.266  0.3902 -0.0379 -0.4201
  614TMC3    C2 9147   3.522   0.889  16.225 -0.4049  0.2301  0.1083
  614TMC3    C3 9148   3.508   0.842  16.097 -0.4814  0.3820  0.8505
  614TMC3    C4 9149   3.366   1.057  16.176  0.6530 -0.2374  0.7197
  614TMC3    C5 9150   3.363   1.014  16.047 -0.0649  0.2456  0.1886
  614TMC3    C6 9151   3.425   0.904  16.002  0.2213 -0.0868 -0.4847
  614TMC3     C 9152   3.369   0.981  16.392 -0.0794  0.4974 -0.6844
  614TMC3     O 9153   3.307   1.072  16.434  0.1608 -0.2049  0.4893
  614TMC3     H 9154   3.584   0.828  16.289 -1.7874 -0.9087  0.3748
  614TMC3    H1 9155   3.300   1.138  16.207  2.0670  0.2865  2.3834
  614TMC3    H2 9156   3.408   0.860  15.904 -2.0568 -0.3626  0.0334
  614TMC3    C7 9157   3.251   1.072  15.973 -0.0441 -0.5471  0.5338
  614TMC3    C8 9158   3.475   0.699  16.111 -0.0691 -1.0959 -0.0275
  614TMC3    O1 9159   3.162   1.121  16.045  0.0954 -0.4367 -0.3121
  614TMC3    O2 9160   3.433   0.685  16.223 -0.4215 -0.6823  0.4443
  615MPD2     C 9161   2.734   2.016  15.680 -0.0215 -0.0512 -0.8013
  615MPD2    C1 9162   2.666   2.124  15.629  0.0018 -0.5628 -0.1014
  615MPD2    C2 9163   2.554   2.103  15.558 -1.2892 -0.3843  0.0989
  615MPD2    C3 9164   2.503   1.975  15.533 -0.3264  0.4000  0.2573
  615MPD2    C4 9165   2.573   1.866  15.583  0.4013 -0.1824 -0.7551
  615MPD2    C5 9166   2.686   1.889  15.657  0.4181  0.2645  0.3455
  615MPD2     H 9167   2.508   2.192  15.517  1.7865  1.4737  0.6848
  615MPD2    H1 9168   2.535   1.765  15.570 -0.0376 -0.0602 -0.4433
  615MPD2    H2 9169   2.831   2.028  15.727  0.6914 -0.6099 -2.1204
  615MPD2    H3 9170   2.749   1.808  15.692 -0.5907 -0.3806  0.6743
  615MPD2     N 9171   2.393   1.965  15.439 -0.3324  0.1596  0.0892
  615MPD2    H5 9172   2.359   2.053  15.403  1.1083  1.7150  2.5724
  615MPD2    N1 9173   2.716   2.256  15.649  0.1139 -0.9338 -0.3712
  615MPD2    H7 9174   2.674   2.333  15.598  1.1784 -1.0209 -1.3769
  616TMC3    C1 9175   2.839   2.432  15.738 -0.6993 -0.0487  0.2331
  616TMC3    C2 9176   2.960   2.474  15.781  0.1881  0.1609 -0.0111
  616TMC3    C3 9177   2.987   2.605  15.776  0.3158  0.4036 -0.2451
  616TMC3    C4 9178   2.743   2.519  15.688  0.0044  0.2421  0.1880
  616TMC3    C5 9179   2.783   2.654  15.692 -0.0091 -0.3431  0.2708
  616TMC3    C6 9180   2.895   2.693  15.737  0.4471  0.1823 -0.2498
  616TMC3     C 9181   2.822   2.291  15.730  0.4100  0.5626 -1.2310
  616TMC3     O 9182   2.902   2.229  15.796 -0.1659  0.6584  0.5158
  616TMC3     H 9183   3.034   2.403  15.815 -0.0822 -0.0182  0.1969
  616TMC3    H1 9184   2.643   2.495  15.655 -0.4549 -0.3197  1.9885
  616TMC3    H2 9185   2.924   2.797  15.724 -0.0563  0.3783  0.1983
  616TMC3    C7 9186   2.682   2.753  15.666  0.7172 -0.4837  0.2948
  616TMC3    C8 9187   3.110   2.665  15.829 -0.0561 -0.1071 -1.3827
  616TMC3    O1 9188   2.578   2.709  15.620 -0.0569 -0.3753 -0.5240
  616TMC3    O2 9189   3.131   2.775  15.782  0.5068 -0.5571  0.3997
  617MPD2     C 9190   0.185   4.427  13.208 -0.1145 -0.1038  0.1156
  617MPD2    C1 9191   0.152   4.516  13.308 -0.3502  0.0011 -0.4339
  617MPD2    C2 9192   0.044   4.486  13.388  0.2257  0.4740 -0.1307
  617MPD2    C3 9193   4.710   4.368  13.373 -0.6055 -0.1773 -0.0029
  617MPD2    C4 9194   0.009   4.275  13.275  0.0817 -0.1712 -0.9219
  617MPD2    C5 9195   0.111   4.314  13.191  0.1655 -0.1005  0.4696
  617MPD2     H 9196   0.003   4.556  13.461  0.1742 -0.2154  0.5076
  617MPD2    H1 9197   4.685   4.188  13.263 -0.4540 -0.1737  1.7667
  617MPD2    H2 9198   0.278   4.421  13.153 -0.8323  1.1393 -1.2667
  617MPD2    H3 9199   0.143   4.242  13.116  0.4816  1.0894 -0.5391
  617MPD2     N 9200   4.601   4.325  13.458 -0.4899 -0.1267 -0.8398
  617MPD2    H5 9201   4.557   4.240  13.424 -1.1324  0.3442 -1.1930
  617MPD2    N1 9202   0.238   4.623  13.314 -0.0188 -0.0960  0.0681
  617MPD2    H7 9203   0.310   4.629  13.243 -1.0710  1.3569 -0.8492
  618TMC3    C1 9204   0.356   0.071  13.415  0.8758 -0.0528  0.4500
  618TMC3    C2 9205   0.416   0.055  13.536 -0.3609  0.4323 -0.8004
  618TMC3    C3 9206   0.538   4.739  13.531 -0.1531 -0.0446  0.3884
  618TMC3    C4 9207   0.416   0.050  13.293 -1.0279 -0.4206  0.0207
  618TMC3    C5 9208   0.544   0.007  13.301  0.4070 -1.0116  0.3812
  618TMC3    C6 9209   0.601   4.708  13.418  0.8412  0.2654  0.8495
  618TMC3     C 9210   0.243   4.713  13.417 -0.1353  0.6660  0.1685
  618TMC3     O 9211   0.163   4.721  13.509 -0.3204  0.5803 -0.2503
  618TMC3     H 9212   0.369   0.075  13.632  0.5252 -2.1820  0.1726
  618TMC3    H1 9213   0.365   0.071  13.200 -0.0960 -1.0415 -0.6253
  618TMC3    H2 9214   0.701   4.667  13.412  1.3511  1.6716 -0.1165
  618TMC3    C7 9215   0.586   4.660  13.202  0.2739 -0.2747 -0.1539
  618TMC3    C8 9216   0.601   4.701  13.653  0.0898  0.0395  0.3486
  618TMC3    O1 9217   0.499   4.590  13.156  0.1705 -0.4015  0.1778
  618TMC3    O2 9218   0.586   0.039  13.744 -0.0426 -0.3207  0.2072
  619MPD2     C 9219   2.333   1.198  13.824 -0.5992 -0.0405 -1.0763
  619MPD2    C1 9220   2.232   1.244  13.737  0.4742  0.6655  0.8226
  619MPD2    C2 9221   2.114   1.175  13.733 -0.3266  0.5905 -0.4165
  619MPD2    C3 9222   2.094   1.066  13.812 -0.2718 -0.1433 -0.2605
  619MPD2    C4 9223   2.195   1.016  13.896  0.5702  0.5376  0.1092
  619MPD2    C5 9224   2.317   1.082  13.897 -0.2275 -0.2470  0.5761
  619MPD2     H 9225   2.038   1.199  13.660  1.1063  0.8972 -1.7992
  619MPD2    H1 9226   2.178   0.924  13.950 -1.5503  0.8000 -0.1155
  619MPD2    H2 9227   2.430   1.247  13.826 -1.5862  1.9309 -0.9963
  619MPD2    H3 9228   2.401   1.048  13.955 -2.3569 -2.4797  2.3647
  619MPD2     N 9229   1.968   1.009  13.804 -0.4676  0.0530 -0.1906
  619MPD2    H5 9230   1.964   0.911  13.831  1.5230 -0.3672 -1.3716
  619MPD2    N1 9231   2.245   1.358  13.658  0.5785  0.2292 -0.4964
  619MPD2    H7 9232   2.168   1.374  13.594 -0.1884 -1.2948  0.0297
  620TMC3    C1 9233   2.324   1.569  13.572  0.2520  0.1111  0.1689
  620TMC3    C2 9234   2.276   1.535  13.446 -0.2328  0.1672 -0.6976
  620TMC3    C3 9235   2.279   1.631  13.345 -0.6543 -0.0979  0.3947
  620TMC3    C4 9236   2.371   1.691  13.601  0.3342 -0.6550 -0.5664
  620TMC3    C5 9237   2.371   1.783  13.499  0.0325  0.6355  0.2135
  620TMC3    C6 9238   2.325   1.754  13.369 -0.3854  0.4510  0.2255
  620TMC3     C 9239   2.341   1.458  13.667  0.4734  0.0626  0.7004
  620TMC3     O 9240   2.422   1.470  13.756 -0.0870  0.2779  0.0141
  620TMC3     H 9241   2.254   1.435  13.411 -0.7196  0.6266 -1.7289
  620TMC3    H1 9242   2.420   1.707  13.697 -4.3032 -2.1136  2.0126
  620TMC3    H2 9243   2.304   1.829  13.294  1.4391  0.8084  0.0611
  620TMC3    C7 9244   2.327   1.918  13.538  0.0080  0.3797 -0.5555
  620TMC3    C8 9245   2.181   1.621  13.243  0.7797 -0.6067  0.0445
  620TMC3    O1 9246   2.314   1.996  13.445 -0.6663 -0.4462  0.4867
  620TMC3    O2 9247   2.212   1.671  13.137 -0.1127 -0.4751 -0.8328
  621MPD2     C 9248   2.678   1.138  10.222 -0.0393 -0.4875  0.7461
  621MPD2    C1 9249   2.629   1.152  10.098  0.7248  0.3919  0.4707
  621MPD2    C2 9250   2.638   1.275  10.039 -0.4528 -0.3140 -0.3096
  621MPD2    C3 9251   2.664   1.388  10.110 -0.0773  0.0879  0.2239
  621MPD2    C4 9252   2.693   1.374  10.244 -0.2509 -0.1163 -0.3752
  621MPD2    C5 9253   2.707   1.250  10.299 -0.3024 -0.8680 -0.3855
  621MPD2     H 9254   2.617   1.280   9.933  2.2463  1.7112 -0.7434
  621MPD2    H1 9255   2.729   1.453  10.309  3.2943 -0.8158 -1.5074
  621MPD2    H2 9256   2.700   1.040  10.261  1.0647 -1.1768 -1.5687
  621MPD2    H3 9257   2.741   1.242  10.401 -0.4337  0.5875 -0.2240
  621MPD2     N 9258   2.666   1.509  10.047 -0.3876  0.1124  0.2174
  621MPD2    H5 9259   2.658   1.512   9.945  1.2392 -1.5599  0.0277
  621MPD2    N1 9260   2.579   1.042  10.026  0.8413  0.3700 -0.4101
  621MPD2    H7 9261   2.552   1.062   9.931 -1.1802 -3.5848 -0.6424
  622TMC3    C1 9262   2.515   0.821   9.978  0.2099  0.3434 -0.1283
  622TMC3    C2 9263   2.469   0.704  10.034  0.0144  0.2116  0.6141
  622TMC3    C3 9264   2.384   0.629   9.957  0.0699  0.2896 -0.0117
  622TMC3    C4 9265   2.482   0.866   9.850  1.0617 -0.0260 -0.1958
  622TMC3    C5 9266   2.407   0.774   9.780  0.2494  1.5314 -0.4537
  622TMC3    C6 9267   2.347   0.660   9.828  0.2982  0.4634 -0.4006
  622TMC3     C 9268   2.549   0.919  10.081  1.0652 -0.2621 -0.3252
  622TMC3     O 9269   2.552   0.872  10.194  0.0698  0.1396  0.1208
  622TMC3     H 9270   2.506   0.658  10.124  2.1444  3.1185  1.1974
  622TMC3    H1 9271   2.528   0.952   9.804 -1.4524  1.1255 -0.5507
  622TMC3    H2 9272   2.254   0.628   9.781  0.2243  0.9540 -0.5906
  622TMC3    C7 9273   2.361   0.807   9.646  0.0132 -0.3308  0.0225
  622TMC3    C8 9274   2.266   0.592  10.043  0.4911 -0.3173 -0.6904
  622TMC3    O1 9275   2.335   0.714   9.571 -0.0444  0.1955 -0.4364
  622TMC3    O2 9276   2.167   0.529  10.006 -0.0496  0.0761 -0.0749
  623MPD2     C 9277   1.339   1.903  15.508  0.0018  0.2335  0.0740
  623MPD2    C1 9278   1.270   1.978  15.600 -0.2410  0.1962  0.1687
  623MPD2    C2 9279   1.314   1.988  15.731 -0.4653  0.2706  0.2164
  623MPD2    C3 9280   1.438   1.938  15.772  0.7307 -0.2321  0.8492
  623MPD2    C4 9281   1.509   1.868  15.672  0.1716  0.2384  0.6586
  623MPD2    C5 9282   1.462   1.853  15.542  0.6942  0.4528 -0.5066
  623MPD2     H 9283   1.257   2.042  15.805 -1.9017  1.0217 -1.4668
  623MPD2    H1 9284   1.604   1.826  15.702  0.4087  0.7269  0.5825
  623MPD2    H2 9285   1.303   1.903  15.406 -0.6329  0.3423  0.3006
  623MPD2    H3 9286   1.521   1.806  15.464  0.2065 -0.9834 -0.0056
  623MPD2     N 9287   1.475   1.960  15.905  0.1581 -0.1592  0.2359
  623MPD2    H5 9288   1.409   2.010  15.964 -2.6256 -3.2640 -0.2599
  623MPD2    N1 9289   1.143   2.036  15.575  0.0710 -0.0120  0.1856
  623MPD2    H7 9290   1.093   2.080  15.651 -3.2627  2.2629 -3.3453
  624TMC3    C1 9291   1.781   1.927  16.286  0.0367 -0.3410 -0.4543
  624TMC3    C2 9292   1.684   1.977  16.367  0.3772  0.4731  0.5692
  624TMC3    C3 9293   1.561   2.004  16.319  0.6385 -0.5121  0.1325
  624TMC3    C4 9294   1.753   1.913  16.149  0.1885  0.7736  0.2285
  624TMC3    C5 9295   1.626   1.939  16.101  0.2393 -0.2310  0.5944
  624TMC3    C6 9296   1.524   1.980  16.188  0.1092 -0.0407  0.0047
  624TMC3     C 9297   1.904   1.892  16.348 -0.3885  0.7576  0.5221
  624TMC3     O 9298   1.912   1.885  16.467 -0.0787  0.6298 -0.1521
  624TMC3     H 9299   1.705   1.996  16.472 -3.1149 -0.2677  1.3983
  624TMC3    H1 9300   1.833   1.883  16.082 -2.1890 -0.9607 -1.8087
  624TMC3    H2 9301   1.422   1.991  16.152 -1.1517 -2.3910  2.9507
  624TMC3    C7 9302   1.594   1.913  15.961 -0.0732  0.6752  0.4310
  624TMC3    C8 9303   1.458   2.065  16.410  0.3884 -0.4172  0.4423
  624TMC3    O1 9304   1.686   1.863  15.897  0.5340 -0.1404 -0.2608
  624TMC3    O2 9305   1.470   2.047  16.532 -0.7195  0.7129 -0.6500
  625MPD2     C 9306   1.595   3.049   0.869 -0.1751 -0.0606  0.2724
  625MPD2    C1 9307   1.618   3.046   0.738 -0.3645 -0.5311  0.1159
  625MPD2    C2 9308   1.731   2.981   0.686  0.1768 -0.1013  0.2772
  625MPD2    C3 9309   1.833   2.937   0.766  1.3657 -0.3255 -0.0342
  625MPD2    C4 9310   1.801   2.940   0.903  0.3506 -0.0740 -0.3478
  625MPD2    C5 9311   1.689   2.995   0.949 -0.2256  0.2528 -0.4125
  625MPD2     H 9312   1.745   2.969   0.579 -0.8023  2.6810 -0.1572
  625MPD2    H1 9313   1.859   2.882   0.974  0.0071 -3.2198 -2.6482
  625MPD2    H2 9314   1.497   3.077   0.905 -0.2268 -0.9704  0.8476
  625MPD2    H3 9315   1.672   2.993   1.056  1.4571  0.1135 -0.1447
  625MPD2     N 9316   1.953   2.893   0.698  0.0330  0.1769  0.4976
  625MPD2    H5 9317   1.961   2.904   0.598  0.2813 -1.9678  0.2789
  625MPD2    N1 9318   1.519   3.101   0.652 -0.5645 -0.1721  0.4813
  625MPD2    H7 9319   1.424   3.109   0.686 -0.2498  1.5548  0.9416
  626TMC3    C1 9320   1.418   3.145   0.444 -0.4363 -0.1905 -0.4603
  626TMC3    C2 9321   1.403   3.254   0.359  1.0802 -0.3653  0.1336
  626TMC3    C3 9322   1.276   3.313   0.355  0.2508  0.2449 -0.2063
  626TMC3    C4 9323   1.307   3.081   0.501  0.6775  0.3910 -0.2446
  626TMC3    C5 9324   1.182   3.126   0.472  0.0838  0.1114  0.5086
  626TMC3    C6 9325   1.166   3.239   0.400 -0.3432 -0.7094 -0.3945
  626TMC3     C 9326   1.538   3.129   0.520  0.2035  0.2207 -0.2821
  626TMC3     O 9327   1.642   3.147   0.456  0.0260 -0.0230  0.3668
  626TMC3     H 9328   1.485   3.305   0.310 -1.1232  3.0930 -0.0125
  626TMC3    H1 9329   1.304   2.996   0.567 -1.6633 -0.5537 -1.5775
  626TMC3    H2 9330   1.071   3.279   0.369  0.7756  1.1896 -1.4046
  626TMC3    C7 9331   1.073   3.057   0.546 -1.0539  0.6287 -0.5386
  626TMC3    C8 9332   1.249   3.438   0.272  0.4476 -0.0325  0.2407
  626TMC3    O1 9333   1.087   2.945   0.599 -0.2249 -0.1137  0.0996
  626TMC3    O2 9334   1.343   3.470   0.194 -0.1000  0.3975  0.2213
  627MPD2     C 9335   4.295   3.554  14.353 -0.1071  1.0453  0.3209
  627MPD2    C1 9336   4.383   3.497  14.435  0.6335 -0.1409 -0.3214
  627MPD2    C2 9337   4.363   3.367  14.475 -0.0069  0.5933  0.2713
  627MPD2    C3 9338   4.257   3.286  14.432  0.4892  0.2067 -0.8155
  627MPD2    C4 9339   4.170   3.341  14.336  1.0436 -0.1629  0.4732
  627MPD2    C5 9340   4.194   3.472  14.297  0.3098 -0.5029 -0.6600
  627MPD2     H 9341   4.429   3.316  14.544  0.8771  1.8377  0.3471
  627MPD2    H1 9342   4.082   3.292  14.296  0.0053  1.2426  1.0351
  627MPD2    H2 9343   4.307   3.653  14.310 -0.2100  0.9041 -0.0374
  627MPD2    H3 9344   4.117   3.522  14.240  1.2338  1.7331  0.0412
  627MPD2     N 9345   4.246   3.161  14.506  0.6303  0.1650  0.6239
  627MPD2    H5 9346   4.310   3.140  14.582  2.0389  0.8427 -0.3736
  627MPD2    N1 9347   4.494   3.566  14.484 -0.5905 -0.7863 -0.0311
  627MPD2    H7 9348   4.546   3.517  14.557  0.5032  0.2350 -0.1295
  628TMC3    C1 9349   4.634   3.735  14.547  0.0216 -1.0000  0.1558
  628TMC3    C2 9350   0.003   3.649  14.547 -0.3529 -0.5796 -0.9425
  628TMC3    C3 9351   0.124   3.708  14.585  0.8882 -0.3226 -0.5872
  628TMC3    C4 9352   4.653   3.866  14.574  0.3666  0.0820  0.1583
  628TMC3    C5 9353   0.038   3.921  14.600  0.4798  0.1775 -0.1001
  628TMC3    C6 9354   0.148   3.839  14.611  0.3182  0.4758  0.2264
  628TMC3     C 9355   4.521   3.696  14.469 -0.7913 -0.2377  0.4763
  628TMC3     O 9356   4.457   3.786  14.413  0.6450 -0.0439  0.2601
  628TMC3     H 9357   4.733   3.543  14.523  0.6082 -0.1659 -3.0728
  628TMC3    H1 9358   4.563   3.927  14.574  0.1916 -0.1730 -0.0862
  628TMC3    H2 9359   0.245   3.883  14.588  1.0076 -1.4322 -0.5463
  628TMC3    C7 9360   0.070   4.036  14.527 -0.1511  0.2011 -0.0191
  628TMC3    C8 9361   0.246   3.642  14.556  0.0508 -0.7355 -0.3584
  628TMC3    O1 9362   0.172   4.092  14.565 -0.1683 -1.1603  0.2642
  628TMC3    O2 9363   0.243   3.550  14.473  0.3659  0.2783 -0.0360
  629MPD2     C 9364   3.578   2.660  16.034  0.1223 -0.2210 -0.0935
  629MPD2    C1 9365   3.525   2.531  16.046 -0.6056 -0.0737  0.2518
  629MPD2    C2 9366   3.399   2.508  15.998  0.2247  0.5255 -0.1150
  629MPD2    C3 9367   3.323   2.611  15.943  0.3630 -0.2535  0.5018
  629MPD2    C4 9368   3.382   2.739  15.932 -0.3318  0.4936  0.3169
  629MPD2    C5 9369   3.509   2.763  15.985 -0.1689  0.5954  0.5244
  629MPD2     H 9370   3.374   2.403  15.990 -0.7093  0.6748  0.8039
  629MPD2    H1 9371   3.323   2.822  15.894 -1.0691  0.1232  0.6450
  629MPD2    H2 9372   3.681   2.681  16.059  0.0442  1.4042 -1.1346
  629MPD2    H3 9373   3.559   2.859  15.983 -0.0934  0.5199 -0.7636
  629MPD2     N 9374   3.192   2.577  15.888  0.0203 -0.1788 -0.3075
  629MPD2    H5 9375   3.158   2.485  15.913  1.8833 -0.0933  2.4874
  629MPD2    N1 9376   3.620   2.430  16.088  0.4542  0.1933  0.3909
  629MPD2    H7 9377   3.709   2.461  16.128  0.9770  1.1724 -1.5356
  630TMC3    C1 9378   3.739   2.233  16.086  0.1922  0.7086 -0.4504
  630TMC3    C2 9379   3.853   2.287  16.023 -0.1213  0.1385 -0.2732
  630TMC3    C3 9380   3.973   2.232  16.056 -0.1364  0.0322  0.4938
  630TMC3    C4 9381   3.740   2.113  16.154 -0.4486 -0.4738 -0.6545
  630TMC3    C5 9382   3.865   2.066  16.188 -0.3841  0.0281 -0.3101
  630TMC3    C6 9383   3.974   2.121  16.133 -0.0126  0.3937  0.5096
  630TMC3     C 9384   3.614   2.298  16.065 -0.3180  0.8968 -0.3683
  630TMC3     O 9385   3.509   2.229  16.053 -0.0567 -0.4371 -0.2913
  630TMC3     H 9386   3.841   2.372  15.956 -0.9449  0.5868  0.4430
  630TMC3    H1 9387   3.645   2.085  16.197 -0.1639 -0.2144  0.1641
  630TMC3    H2 9388   4.068   2.073  16.156  0.0358 -0.2599 -1.0500
  630TMC3    C7 9389   3.864   2.066  16.331  0.9533  0.5028  0.2416
  630TMC3    C8 9390   4.089   2.321  16.082 -0.0439 -0.2407 -0.3542
  630TMC3    O1 9391   3.771   2.025  16.399  0.1567 -0.3357  0.4469
  630TMC3    O2 9392   4.167   2.280  16.165 -0.4059 -0.2982 -0.5915
  631MPD2     C 9393   1.546   2.338  15.506  0.3483  0.4072  0.3172
  631MPD2    C1 9394   1.610   2.399  15.393  0.0955  0.1582 -0.0102
  631MPD2    C2 9395   1.716   2.332  15.334  0.3572 -0.0865  0.0516
  631MPD2    C3 9396   1.747   2.204  15.377  0.4463  0.1484 -1.0906
  631MPD2    C4 9397   1.675   2.144  15.474 -0.1797 -0.1559 -0.3670
  631MPD2    C5 9398   1.581   2.213  15.544  0.5498 -0.6339  0.1623
  631MPD2     H 9399   1.770   2.368  15.247 -1.3798  2.4822  0.0222
  631MPD2    H1 9400   1.690   2.048  15.522 -0.3482 -0.6071 -1.2118
  631MPD2    H2 9401   1.466   2.389  15.558  0.4401  1.0362 -0.1639
  631MPD2    H3 9402   1.519   2.166  15.619 -0.7747  0.7712 -0.0507
  631MPD2     N 9403   1.854   2.139  15.304  0.0927  1.1387  0.4220
  631MPD2    H5 9404   1.903   2.185  15.228  2.8673 -1.5378  0.5707
  631MPD2    N1 9405   1.560   2.517  15.329 -0.6440 -0.0174  0.3401
  631MPD2    H7 9406   1.472   2.554  15.364 -0.3684  1.3545 -0.3960
  632TMC3    C1 9407   1.525   2.668  15.160 -0.7529 -0.1699 -0.2703
  632TMC3    C2 9408   1.403   2.705  15.215  0.6989 -0.7616  0.3306
  632TMC3    C3 9409   1.320   2.772  15.128 -0.3423 -0.8896 -0.0914
  632TMC3    C4 9410   1.575   2.717  15.049 -0.8339  0.6560  1.1928
  632TMC3    C5 9411   1.500   2.805  14.984 -0.1259 -0.3099  0.2174
  632TMC3    C6 9412   1.367   2.823  15.013 -0.3789 -0.2040 -0.3682
  632TMC3     C 9413   1.621   2.580  15.223  0.1095  0.0589  0.9261
  632TMC3     O 9414   1.722   2.552  15.164 -0.2545 -0.0946 -0.2320
  632TMC3     H 9415   1.360   2.652  15.299  2.2310 -1.5162  0.6495
  632TMC3    H1 9416   1.671   2.689  15.007 -0.4752  0.3849  2.1994
  632TMC3    H2 9417   1.311   2.891  14.950  1.0702 -0.9718 -2.4871
  632TMC3    C7 9418   1.545   2.860  14.862  0.2608  0.1406  0.3122
  632TMC3    C8 9419   1.178   2.778  15.164 -0.0513 -0.2230  0.7952
  632TMC3    O1 9420   1.471   2.866  14.767  0.0805  0.0085  0.2972
  632TMC3    O2 9421   1.159   2.778  15.283 -0.1866  0.3030 -0.5589
  633MPD2     C 9422   1.738   0.454  17.390  0.3122 -0.3804  0.2555
  633MPD2    C1 9423   1.721   0.386  17.271  0.4651 -0.3488  0.7116
  633MPD2    C2 9424   1.614   0.302  17.251 -0.3474  0.9488  0.4586
  633MPD2    C3 9425   1.522   0.285  17.354  0.1270  0.6465 -0.2087
  633MPD2    C4 9426   1.540   0.355  17.473  0.3972  0.4936  0.3303
  633MPD2    C5 9427   1.653   0.440  17.495  0.1743  0.2750  0.6125
  633MPD2     H 9428   1.599   0.264  17.150 -0.9430 -2.6984  1.9277
  633MPD2    H1 9429   1.472   0.340  17.556 -2.3605  0.8350 -1.8786
  633MPD2    H2 9430   1.820   0.522  17.408 -0.3042  0.8378 -1.5347
  633MPD2    H3 9431   1.672   0.489  17.590  2.0271 -1.6979  1.2623
  633MPD2     N 9432   1.396   0.216  17.332 -0.1366 -0.1101  0.1535
  633MPD2    H5 9433   1.333   0.210  17.412 -1.2425  3.1758 -0.4978
  633MPD2    N1 9434   1.809   0.401  17.158 -0.0712 -0.3738  0.5157
  633MPD2    H7 9435   1.786   0.351  17.072 -0.2638 -0.9482  0.9028
  634TMC3    C1 9436   1.934   0.513  17.008 -0.0644  0.0883  0.3303
  634TMC3    C2 9437   1.951   0.408  16.921  0.0517  0.1555 -0.5083
  634TMC3    C3 9438   1.936   0.434  16.789 -1.0846  0.7182  0.1045
  634TMC3    C4 9439   1.921   0.644  16.963 -0.1239  0.4056 -0.4539
  634TMC3    C5 9440   1.902   0.661  16.828  0.3841  0.1388 -0.4648
  634TMC3    C6 9441   1.922   0.559  16.738 -0.0204 -0.3430 -0.4561
  634TMC3     C 9442   1.904   0.496  17.151  0.6651  0.0483 -1.1218
  634TMC3     O 9443   1.927   0.590  17.223 -0.0012  0.3605  0.4256
  634TMC3     H 9444   1.962   0.305  16.955 -1.4763 -0.3075 -1.4291
  634TMC3    H1 9445   1.916   0.729  17.031 -0.0452  0.2787 -0.2885
  634TMC3    H2 9446   1.898   0.574  16.633  0.5087 -2.3622 -0.8767
  634TMC3    C7 9447   1.853   0.791  16.776  0.0282 -0.5829 -0.1288
  634TMC3    C8 9448   1.914   0.322  16.696  0.3628 -0.3888  0.0780
  634TMC3    O1 9449   1.871   0.808  16.659  0.1616 -0.1820  0.5012
  634TMC3    O2 9450   1.878   0.219  16.750  0.5473 -0.6738 -0.2763
  635TMC3    C1 9451   1.568   0.882   0.395 -0.7386 -0.0112 -0.0003
  635TMC3    C2 9452   1.608   0.757   0.365  0.0474 -0.6084 -0.7983
  635TMC3    C3 9453   1.581   0.660   0.458 -0.0047  0.0640 -0.0823
  635TMC3    C4 9454   1.479   0.904   0.491  0.0941 -0.2596 -0.2718
  635TMC3    C5 9455   1.449   0.805   0.581 -0.7471 -0.3129  0.3672
  635TMC3    C6 9456   1.501   0.680   0.566 -0.2236 -0.0131 -0.1798
  635TMC3     C 9457   1.596   0.994   0.313 -0.5775  0.2688 -0.4615
  635TMC3     O 9458   1.582   1.104   0.368 -0.2460 -0.3708 -0.0507
  635TMC3     H 9459   1.681   0.735   0.288 -0.0227  0.1942 -1.0959
  635TMC3    H1 9460   1.450   1.006   0.512  2.1788 -0.0748  1.7466
  635TMC3    H2 9461   1.491   0.609   0.647  1.1617  1.1005  0.9585
  635TMC3    C7 9462   1.321   0.825   0.656  0.1451 -1.1630 -0.6943
  635TMC3    C8 9463   1.638   0.524   0.447 -0.7864 -0.3387 -0.5456
  635TMC3    O1 9464   1.275   0.934   0.682  0.0280 -0.5363  0.2821
  635TMC3    O2 9465   1.581   0.447   0.525 -0.4228  0.6890 -0.1590
  636MPD2     C 9466   2.526   0.494  16.016  0.5365 -0.3795  0.3020
  636MPD2    C1 9467   2.538   0.539  16.144  0.4625 -0.6785 -0.4361
  636MPD2    C2 9468   2.594   0.475  16.248 -0.3430 -0.9854 -0.0483
  636MPD2    C3 9469   2.661   0.356  16.224 -0.1375  0.1194 -0.0483
  636MPD2    C4 9470   2.634   0.299  16.101  0.4896 -0.7137  0.4596
  636MPD2    C5 9471   2.576   0.368  15.997 -0.2101  0.3957  0.0089
  636MPD2     H 9472   2.593   0.524  16.344 -1.4253 -1.2353  0.0669
  636MPD2    H1 9473   2.693   0.211  16.075  1.1912 -0.5120  1.3516
  636MPD2    H2 9474   2.477   0.551  15.938 -0.0272  0.1725  1.0688
  636MPD2    H3 9475   2.583   0.335  15.894 -5.0017 -3.6158  0.9598
  636MPD2     N 9476   2.761   0.308  16.319  0.3971 -0.5029 -0.2129
  636MPD2    H5 9477   2.785   0.376  16.390  2.9614 -1.6198 -0.0050
  636MPD2    N1 9478   2.485   0.669  16.180 -0.2363 -0.1235 -0.2103
  636MPD2    H7 9479   2.481   0.677  16.281 -0.3132  1.2754 -0.3213
  637TMC3    C1 9480   2.947   0.194  16.399  0.0443  0.0346  0.6507
  637TMC3    C2 9481   2.945   0.270  16.519 -0.1944 -0.1350 -1.1021
  637TMC3    C3 9482   3.061   0.280  16.592 -0.3857  0.0492  0.2097
  637TMC3    C4 9483   3.062   0.136  16.365  0.0864 -0.0106  0.0498
  637TMC3    C5 9484   3.181   0.175  16.420 -0.7382  0.6314 -0.1216
  637TMC3    C6 9485   3.176   0.224  16.545  0.1798 -0.1301  0.3160
  637TMC3     C 9486   2.835   0.194  16.307  0.2113 -0.3269  0.2946
  637TMC3     O 9487   2.831   0.108  16.216  0.2148 -0.6829  0.2318
  637TMC3     H 9488   2.849   0.301  16.558 -0.2629 -2.7194  0.8617
  637TMC3    H1 9489   3.058   0.085  16.269 -0.7381  0.1283  0.0093
  637TMC3    H2 9490   3.264   0.222  16.607  1.0001  0.7126 -0.8158
  637TMC3    C7 9491   3.263   0.260  16.338 -0.0211 -0.0255 -0.0076
  637TMC3    C8 9492   3.083   0.402  16.661  0.3451 -0.0191  0.3666
  637TMC3    O1 9493   3.306   0.358  16.390 -0.1444 -0.0833  0.1119
  637TMC3    O2 9494   3.004   0.425  16.751 -0.5073 -0.1092  0.0567
  638MPD2     C 9495   2.542   4.258  14.719  0.0187  0.5925 -0.2254
  638MPD2    C1 9496   2.447   4.184  14.644 -0.6262  0.4443 -0.2890
  638MPD2    C2 9497   2.373   4.089  14.708  0.4683  0.1953 -0.2580
  638MPD2    C3 9498   2.402   4.055  14.836 -0.2556  0.2009  0.5404
  638MPD2    C4 9499   2.487   4.131  14.909  0.1456  0.0274 -0.1041
  638MPD2    C5 9500   2.562   4.225  14.847 -0.6101 -0.0262 -0.0788
  638MPD2     H 9501   2.304   4.029  14.650 -3.0519  2.6913  1.3976
  638MPD2    H1 9502   2.521   4.120  15.012  0.9662 -0.0044 -0.3809
  638MPD2    H2 9503   2.602   4.336  14.673  1.3440  1.0285  2.2434
  638MPD2    H3 9504   2.638   4.276  14.905  0.3014  0.6181 -1.8509
  638MPD2     N 9505   2.344   3.942  14.900  0.4623  0.5854  0.4501
  638MPD2    H5 9506   2.274   3.889  14.849 -0.0594  2.3899 -0.7021
  638MPD2    N1 9507   2.432   4.208  14.506  0.1842  0.3287  0.5668
  638MPD2    H7 9508   2.376   4.139  14.458  0.3935  2.3413 -2.5249
  639TMC3    C1 9509   2.316   3.761  15.036 -0.2536  0.0075  0.0416
  639TMC3    C2 9510   2.191   3.713  14.989  1.0884 -0.4489 -0.2240
  639TMC3    C3 9511   2.188   3.580  14.949 -0.8338  0.5273  0.6783
  639TMC3    C4 9512   2.427   3.686  15.044  0.2598  0.2118 -0.3847
  639TMC3    C5 9513   2.422   3.559  14.984  0.6879 -0.4919  0.4355
  639TMC3    C6 9514   2.302   3.509  14.935 -0.0982 -0.1423 -0.1236
  639TMC3     C 9515   2.356   3.902  15.031  0.2948 -0.2658 -0.0015
  639TMC3     O 9516   2.411   3.950  15.125 -0.1648  0.5315 -1.1071
  639TMC3     H 9517   2.101   3.771  14.973  1.9347  0.9133 -0.0963
  639TMC3    H1 9518   2.518   3.743  15.062  1.1187 -1.1666 -0.3838
  639TMC3    H2 9519   2.293   3.410  14.893  0.4462  0.8480 -2.5782
  639TMC3    C7 9520   2.529   3.472  15.007 -0.5246 -0.4804 -0.4762
  639TMC3    C8 9521   2.078   3.530  14.868  0.2190  0.2410 -0.9183
  639TMC3    O1 9522   2.501   3.353  15.024  0.3117  0.0351  0.1839
  639TMC3    O2 9523   2.113   3.458  14.771 -0.3802  0.0100  0.2443
  640MPD2     C 9524   2.752   2.920   9.870 -0.1006  0.3719 -0.5944
  640MPD2    C1 9525   2.785   3.022   9.778  0.0700  0.9671  0.3181
  640MPD2    C2 9526   2.675   3.106   9.750 -0.2619  1.3096  0.4663
  640MPD2    C3 9527   2.560   3.099   9.825 -0.2867  0.3189  0.6100
  640MPD2    C4 9528   2.539   3.009   9.925  0.0627  0.8074  0.5083
  640MPD2    C5 9529   2.636   2.917   9.943  0.0737 -0.5594  0.2373
  640MPD2     H 9530   2.678   3.170   9.663 -0.3521 -0.4167 -0.8264
  640MPD2    H1 9531   2.448   3.006   9.984 -0.5079  2.2548 -0.2930
  640MPD2    H2 9532   2.815   2.833   9.885  1.4285  1.4172 -1.0375
  640MPD2    H3 9533   2.626   2.846  10.024  0.6977 -1.3079 -0.3358
  640MPD2     N 9534   2.449   3.188   9.808  0.3055  0.0065  0.2039
  640MPD2    H5 9535   2.359   3.157   9.841  0.5524 -1.3432 -0.3824
  640MPD2    N1 9536   2.908   3.019   9.709 -0.4161  0.4543  0.7758
  640MPD2    H7 9537   2.973   2.946   9.737 -0.8311 -0.6626 -1.1336
  641TMC3    C1 9538   3.080   3.075   9.547  0.9297 -0.0412  0.0598
  641TMC3    C2 9539   3.141   2.952   9.573  0.3657  0.3770 -0.2008
  641TMC3    C3 9540   3.264   2.925   9.526 -0.4394 -1.1925  0.3131
  641TMC3    C4 9541   3.155   3.178   9.484  0.5387  0.4697  0.2365
  641TMC3    C5 9542   3.286   3.144   9.455  0.1215  0.0361 -0.8078
  641TMC3    C6 9543   3.337   3.024   9.468 -0.2981  0.0353  0.0417
  641TMC3     C 9544   2.952   3.110   9.612  0.4389  0.4904  0.2487
  641TMC3     O 9545   2.899   3.218   9.581  0.1583  0.3657 -0.3071
  641TMC3     H 9546   3.077   2.865   9.581 -0.9279  1.2323 -1.0827
  641TMC3    H1 9547   3.119   3.280   9.480 -0.4123  0.1561  0.7690
  641TMC3    H2 9548   3.433   3.000   9.422 -1.0535 -3.5348  0.3979
  641TMC3    C7 9549   3.366   3.252   9.401  0.0646 -0.7060 -0.6073
  641TMC3    C8 9550   3.341   2.795   9.552  0.1072  0.0528 -0.1717
  641TMC3    O1 9551   3.312   3.355   9.355 -0.2156 -0.1223  0.4634
  641TMC3    O2 9552   3.438   2.772   9.483  0.4684  0.0611  0.0944
  642TMC3    C1 9553   3.639   3.934  12.307 -0.8425  0.7638  1.2268
  642TMC3    C2 9554   3.752   3.951  12.228  0.8736 -0.5432  0.6955
  642TMC3    C3 9555   3.816   3.849  12.166 -0.4875  0.7525 -0.2215
  642TMC3    C4 9556   3.590   3.808  12.330 -0.8078 -0.0663 -0.1270
  642TMC3    C5 9557   3.659   3.702  12.269  0.5692  0.0799 -0.8155
  642TMC3    C6 9558   3.768   3.721  12.192  0.2240  0.5861 -0.5881
  642TMC3     C 9559   3.556   4.055  12.322  0.3986  0.6907  0.6504
  642TMC3     O 9560   3.624   4.157  12.313 -0.3688  0.4418  0.1321
  642TMC3     H 9561   3.778   4.049  12.189  1.8133 -1.0539  0.0520
  642TMC3    H1 9562   3.497   3.790  12.383 -1.3502 -2.7411 -2.0033
  642TMC3    H2 9563   3.822   3.633  12.157  1.9411  1.1021  0.7465
  642TMC3    C7 9564   3.621   3.567  12.308  0.5661  0.7053 -0.3860
  642TMC3    C8 9565   3.958   3.867  12.129  0.1556 -0.6206 -0.1188
  642TMC3    O1 9566   3.663   3.484  12.231  0.5211 -0.3219 -0.3209
  642TMC3    O2 9567   4.037   3.783  12.169 -0.9233  0.1582 -0.6296
  643TMC3    C1 9568   2.942   3.387   0.358  0.0861 -0.3279  0.1779
  643TMC3    C2 9569   2.869   3.506   0.348  0.6016  0.1968  0.2029
  643TMC3    C3 9570   2.836   3.546   0.218  0.3351  0.4119 -0.4444
  643TMC3    C4 9571   2.970   3.312   0.247  0.4603 -0.2646  0.1307
  643TMC3    C5 9572   2.918   3.352   0.126  0.4477  0.5932  0.2953
  643TMC3    C6 9573   2.859   3.472   0.100 -0.1155  0.8468 -0.0833
  643TMC3     C 9574   3.019   3.374   0.485 -0.3234  0.5744 -0.4624
  643TMC3     O 9575   3.001   3.465   0.564 -0.4919  0.0968 -0.1041
  643TMC3     H 9576   2.867   3.579   0.429 -2.5248 -1.2062  1.3764
  643TMC3    H1 9577   3.043   3.233   0.251  0.3430 -0.3523  0.5966
  643TMC3    H2 9578   2.813   3.495   0.005  0.5863  3.3482  0.1868
  643TMC3    C7 9579   2.966   3.283   0.014 -0.2742 -0.1077  0.0869
  643TMC3    C8 9580   2.791   3.686   0.213  0.1467  0.7679  0.5217
  643TMC3    O1 9581   2.989   3.345  17.663  0.5457  0.1963 -0.3051
  643TMC3    O2 9582   2.750   3.736   0.315  0.1999  0.1462  0.7567
  644MPD2     C 9583   3.311   3.085   9.875 -0.0006 -0.2448 -0.3259
  644MPD2    C1 9584   3.425   3.115   9.806  0.0357 -0.5000 -0.0503
  644MPD2    C2 9585   3.445   3.250   9.765  0.6796 -0.0284  0.5079
  644MPD2    C3 9586   3.347   3.345   9.772 -0.5162 -0.1311  0.2908
  644MPD2    C4 9587   3.221   3.300   9.817 -0.0716 -0.3709  1.0272
  644MPD2    C5 9588   3.210   3.179   9.873  0.3449  0.7251 -0.0798
  644MPD2     H 9589   3.548   3.268   9.736  0.4645 -1.5909 -1.2312
  644MPD2    H1 9590   3.139   3.370   9.829  0.0100 -0.3084  1.2221
  644MPD2    H2 9591   3.289   2.991   9.924  1.3564  0.4101  1.5804
  644MPD2    H3 9592   3.114   3.148   9.914  0.5083  0.1910 -0.1016
  644MPD2     N 9593   3.376   3.476   9.743  0.9779  0.5905  0.2045
  644MPD2    H5 9594   3.467   3.502   9.707  1.9082 -0.4553  1.8243
  644MPD2    N1 9595   3.522   3.009   9.795  0.3693 -0.2765 -0.0734
  644MPD2    H7 9596   3.515   2.932   9.860  0.4867  0.4746  0.8314
  645TMC3    C1 9597   3.343   3.705   9.698  0.9507  0.3870  0.4641
  645TMC3    C2 9598   3.484   3.724   9.707 -0.2077 -0.0404  0.0257
  645TMC3    C3 9599   3.537   3.850   9.682  0.3003 -0.3280  0.9743
  645TMC3    C4 9600   3.257   3.807   9.658 -0.2311  0.2097 -0.1049
  645TMC3    C5 9601   3.318   3.927   9.634 -0.2715  0.3547  0.1302
  645TMC3    C6 9602   3.454   3.947   9.645 -0.1656  0.5307 -0.1808
  645TMC3     C 9603   3.284   3.576   9.737 -0.2201 -0.1046 -0.6144
  645TMC3     O 9604   3.164   3.577   9.754 -0.3248 -0.1408  0.0801
  645TMC3     H 9605   3.547   3.648   9.752 -2.4021 -0.5597  2.2789
  645TMC3    H1 9606   3.151   3.785   9.653 -0.2337  0.6596 -2.1122
  645TMC3    H2 9607   3.498   4.043   9.621 -0.6244  0.8833  0.3814
  645TMC3    C7 9608   3.249   4.044   9.587  0.4347  1.0510 -0.7842
  645TMC3    C8 9609   3.680   3.878   9.670 -0.2506  0.0932  0.1323
  645TMC3    O1 9610   3.309   4.131   9.535  0.0724  0.1120  0.4820
  645TMC3    O2 9611   3.720   3.981   9.618  0.2378  0.0158  0.1682
  646MPD2     C 9612   2.390   2.680  14.144 -0.6451  0.2194  0.0526
  646MPD2    C1 9613   2.373   2.701  14.277  0.4810  0.2539  0.7830
  646MPD2    C2 9614   2.260   2.772  14.315  0.4328  0.5814  0.0566
  646MPD2    C3 9615   2.170   2.824  14.228  0.5069 -0.7245  0.9492
  646MPD2    C4 9616   2.178   2.783  14.090  0.3951 -0.0217 -0.6372
  646MPD2    C5 9617   2.292   2.712  14.053  0.0308  0.3212 -0.2165
  646MPD2     H 9618   2.229   2.780  14.419 -4.4919 -1.7362 -1.2265
  646MPD2    H1 9619   2.106   2.804  14.012 -0.9729 -2.4226 -0.0056
  646MPD2    H2 9620   2.474   2.621  14.109  0.0171  1.6086 -0.6775
  646MPD2    H3 9621   2.304   2.680  13.950  0.5892 -1.5370  0.4354
  646MPD2     N 9622   2.049   2.886  14.273  0.2649  0.1198  0.1146
  646MPD2    H5 9623   2.052   2.907  14.372  1.2577  2.3736 -0.3895
  646MPD2    N1 9624   2.471   2.655  14.368  0.3151  0.6602 -0.0727
  646MPD2    H7 9625   2.549   2.606  14.326 -1.6132 -1.2220 -1.4164
  647TMC3    C1 9626   2.588   2.617  14.564 -0.0903 -0.3284  0.9146
  647TMC3    C2 9627   2.646   2.681  14.675 -0.0353 -0.0679  0.2627
  647TMC3    C3 9628   2.764   2.630  14.725  0.1091 -0.6431 -0.1095
  647TMC3    C4 9629   2.655   2.513  14.509 -1.5831  0.1601  0.1797
  647TMC3    C5 9630   2.775   2.480  14.559  0.2820  0.1741  0.3301
  647TMC3    C6 9631   2.845   2.538  14.660  0.2261 -0.3333  0.1503
  647TMC3     C 9632   2.475   2.679  14.502  0.1137  0.1940 -0.4267
  647TMC3     O 9633   2.393   2.741  14.569 -0.2081  0.1147  0.0556
  647TMC3     H 9634   2.595   2.769  14.712 -0.4649 -0.0639 -0.3332
  647TMC3    H1 9635   2.609   2.471  14.420  0.4550 -0.2278 -0.6976
  647TMC3    H2 9636   2.940   2.498  14.694  1.2956  0.0207 -2.4633
  647TMC3    C7 9637   2.809   2.339  14.534 -0.3870 -0.1749 -0.0885
  647TMC3    C8 9638   2.768   2.615  14.869  0.0053  0.3373  0.4000
  647TMC3    O1 9639   2.923   2.305  14.552  0.2554 -0.0501 -0.5581
  647TMC3    O2 9640   2.873   2.564  14.902 -0.3453 -0.2347  0.1080
  648TMC3    C1 9641   2.238   0.399  16.210 -0.0557  1.0746  0.2439
  648TMC3    C2 9642   2.289   0.274  16.193  0.1275  0.3959 -0.3055
  648TMC3    C3 9643   2.260   0.197  16.083  0.3888 -0.5142  0.1527
  648TMC3    C4 9644   2.157   0.458  16.114  0.4253  0.9072 -0.0527
  648TMC3    C5 9645   2.138   0.387  15.996 -0.0197  0.2865  0.8674
  648TMC3    C6 9646   2.200   0.259  15.978  0.2574  0.3505 -0.7942
  648TMC3     C 9647   2.250   0.470  16.335  0.2233 -0.7257  0.6856
  648TMC3     O 9648   2.231   0.589  16.337  0.3293  0.5580 -0.2400
  648TMC3     H 9649   2.364   0.234  16.260  0.5778  1.0208 -0.4441
  648TMC3    H1 9650   2.119   0.558  16.130 -2.1698  0.4907 -3.6896
  648TMC3    H2 9651   2.178   0.206  15.886 -1.5849  0.0249 -0.1617
  648TMC3    C7 9652   2.066   0.451  15.887  0.1223 -0.6728  0.7723
  648TMC3    C8 9653   2.328   0.078  16.062 -0.6911  0.0261  0.4393
  648TMC3    O1 9654   2.067   0.398  15.774 -0.1124  0.0051  0.1436
  648TMC3    O2 9655   2.375   0.033  16.163  0.2195 -0.2474  0.4040
  649TMC3    C1 9656   1.549   1.162  12.669 -0.2101 -0.0804 -0.3664
  649TMC3    C2 9657   1.669   1.146  12.736 -0.5161 -0.0882  0.0602
  649TMC3    C3 9658   1.678   1.068  12.847 -0.1046  0.5187 -0.3728
  649TMC3    C4 9659   1.438   1.092  12.697  0.1059 -0.0886  0.0971
  649TMC3    C5 9660   1.460   1.008  12.799  0.4451 -0.9189 -0.5629
  649TMC3    C6 9661   1.572   0.997  12.884 -0.3184 -1.5509 -0.2491
  649TMC3     C 9662   1.540   1.250  12.553  0.0739  0.6005 -0.3431
  649TMC3     O 9663   1.431   1.296  12.522  0.1786  0.2550  0.0264
  649TMC3     H 9664   1.749   1.211  12.703  2.5383 -2.5250  2.6507
  649TMC3    H1 9665   1.339   1.100  12.654 -0.8210  0.1182  2.2525
  649TMC3    H2 9666   1.573   0.946  12.979 -1.1175  0.6241  0.9274
  649TMC3    C7 9667   1.345   0.939  12.845 -0.0917 -0.3246 -0.2336
  649TMC3    C8 9668   1.796   1.085  12.930 -0.6681  0.0582 -0.4390
  649TMC3    O1 9669   1.232   0.984  12.831  0.7292 -0.5136  0.3063
  649TMC3    O2 9670   1.880   1.154  12.877  0.4954  0.3972 -0.0755
  650TMC3    C1 9671   3.085   3.054  12.689  0.2045  0.1155 -0.4977
  650TMC3    C2 9672   2.989   3.145  12.722  0.0087  0.9013  0.0744
  650TMC3    C3 9673   2.939   3.228  12.625  0.2543 -0.3315  0.2680
  650TMC3    C4 9674   3.114   3.026  12.558  0.2640  0.1668  0.1142
  650TMC3    C5 9675   3.059   3.104  12.463  0.2898 -0.4246 -0.1023
  650TMC3    C6 9676   2.977   3.213  12.499 -0.4081  0.5312  0.5006
  650TMC3     C 9677   3.166   3.002  12.795  1.0984  0.0461 -0.3907
  650TMC3     O 9678   3.170   3.061  12.899 -0.2837  0.1799  0.2755
  650TMC3     H 9679   2.974   3.166  12.827 -0.0306  2.5177 -0.2487
  650TMC3    H1 9680   3.191   2.954  12.531 -0.1972  0.4573 -1.9207
  650TMC3    H2 9681   2.936   3.274  12.420 -1.1352  1.2060  1.4060
  650TMC3    C7 9682   3.126   3.109  12.338 -0.0309  0.9460  0.4239
  650TMC3    C8 9683   2.860   3.347  12.657 -0.4678  1.0667  0.1077
  650TMC3    O1 9684   3.154   3.000  12.290  0.7483  0.2491 -0.3700
  650TMC3    O2 9685   2.869   3.432  12.572 -0.2870 -0.3334 -0.4699
  651MPD2     C 9686   2.286   0.327  10.285  0.5601  0.7363 -0.3497
  651MPD2    C1 9687   2.302   0.417  10.389 -0.4040  0.0466  0.4022
  651MPD2    C2 9688   2.410   0.494  10.395 -0.1748  0.1341 -0.2377
  651MPD2    C3 9689   2.526   0.452  10.330 -0.2533 -0.0002 -0.2169
  651MPD2    C4 9690   2.518   0.350  10.233 -0.2683 -1.0474  0.1791
  651MPD2    C5 9691   2.394   0.289  10.210  0.0979 -0.0073 -0.1788
  651MPD2     H 9692   2.412   0.576  10.465  0.2757 -0.9704  1.0284
  651MPD2    H1 9693   2.599   0.320  10.167 -0.1378  1.4646 -0.7857
  651MPD2    H2 9694   2.198   0.269  10.262 -1.6598  3.9881  0.0269
  651MPD2    H3 9695   2.380   0.224  10.125  2.3051 -0.8417  0.0887
  651MPD2     N 9696   2.647   0.530  10.350  0.4623 -0.4673  0.1830
  651MPD2    H5 9697   2.643   0.613  10.407  1.0374  0.2541 -0.8230
  651MPD2    N1 9698   2.188   0.439  10.468  0.0285 -0.5740  0.3696
  651MPD2    H7 9699   2.180   0.529  10.515 -0.6376  0.1618 -1.1721
  652TMC3    C1 9700   3.104   0.663  10.341 -0.7337 -0.7858  0.0941
  652TMC3    C2 9701   3.009   0.557  10.334 -0.3818  0.1137  0.0986
  652TMC3    C3 9702   2.872   0.595  10.339 -0.0146  0.6995  0.6735
  652TMC3    C4 9703   3.064   0.790  10.353 -0.9124 -0.0383 -0.5365
  652TMC3    C5 9704   2.936   0.825  10.358  0.1374  0.4492 -0.2176
  652TMC3    C6 9705   2.838   0.727  10.354 -0.5128  0.1829 -1.0423
  652TMC3     C 9706   3.243   0.623  10.370  0.7676 -0.4319 -0.7880
  652TMC3     O 9707   3.275   0.506  10.368 -0.6591 -0.3199 -0.0540
  652TMC3     H 9708   3.041   0.453  10.339  2.0593  0.7678 -2.1059
  652TMC3    H1 9709   3.136   0.871  10.352 -2.3078  1.2105 -0.4352
  652TMC3    H2 9710   2.735   0.747  10.380 -1.5933 -0.7341 -4.5260
  652TMC3    C7 9711   2.898   0.931  10.452 -0.0977  0.2717  0.0960
  652TMC3    C8 9712   2.770   0.490  10.311 -0.3654  0.2627  0.1384
  652TMC3    O1 9713   2.829   0.905  10.550  0.6259  0.0204  0.7275
  652TMC3    O2 9714   2.803   0.379  10.276 -0.6007  0.4425  0.2975
  653MPD2     C 9715   1.244   0.377  17.652 -0.7762 -0.2824 -0.1036
  653MPD2    C1 9716   1.195   0.482  17.573 -0.6046 -0.0979 -0.3686
  653MPD2    C2 9717   1.101   0.460  17.482  0.4202 -0.2045  0.1197
  653MPD2    C3 9718   1.053   0.330  17.472 -0.4872  1.2504 -0.9892
  653MPD2    C4 9719   1.107   0.226  17.542 -0.2191 -0.0052 -0.2295
  653MPD2    C5 9720   1.199   0.252  17.635 -0.1184 -0.1718 -0.3646
  653MPD2     H 9721   1.062   0.541  17.421  0.7509  1.6667  2.4011
  653MPD2    H1 9722   1.082   0.122  17.530  1.7744 -0.2225 -2.5766
  653MPD2    H2 9723   1.318   0.384  17.730 -0.6139 -2.7285 -0.0475
  653MPD2    H3 9724   1.249   0.183  17.702  1.6139 -1.3826 -2.9048
  653MPD2     N 9725   0.950   0.305  17.381  0.7955 -0.1470  0.3757
  653MPD2    H5 9726   0.931   0.383  17.318  0.7439  0.7563  1.5180
  653MPD2    N1 9727   1.244   0.613  17.603 -0.4921 -0.1020 -0.3592
  653MPD2    H7 9728   1.188   0.689  17.566 -0.8148  0.6818  1.7079
  654TMC3    C1 9729   0.825   0.199  17.214 -0.3490  0.4153 -0.4389
  654TMC3    C2 9730   0.713   0.277  17.219 -0.1593 -0.0199 -0.0748
  654TMC3    C3 9731   0.614   0.265  17.120  0.0770 -0.5574  0.1063
  654TMC3    C4 9732   0.834   0.089  17.131  0.0068 -0.3561  0.5102
  654TMC3    C5 9733   0.730   0.075  17.045  0.7515 -0.1287  0.0237
  654TMC3    C6 9734   0.624   0.159  17.036  0.6525 -0.6961 -0.6257
  654TMC3     C 9735   0.910   0.180  17.337 -0.3131  0.2851 -0.1036
  654TMC3     O 9736   0.938   0.066  17.367  0.2930 -0.8394 -0.2435
  654TMC3     H 9737   0.707   0.360  17.289  2.3853 -0.6584  0.8805
  654TMC3    H1 9738   0.923   0.028  17.141  1.9637  2.2090 -1.3076
  654TMC3    H2 9739   0.543   0.133  16.969 -0.7982 -2.6335  1.8787
  654TMC3    C7 9740   0.717   4.683  16.973  0.0703  0.1039 -0.8332
  654TMC3    C8 9741   0.480   0.317  17.127 -0.4291  0.6870  0.1931
  654TMC3    O1 9742   0.648   4.688  16.874  0.4568 -0.1768  0.4497
  654TMC3    O2 9743   0.402   0.273  17.048 -0.3053  0.3064 -0.2324
  655MPD2     C 9744   2.454   0.407  15.583 -0.4160  0.0600 -0.1124
  655MPD2    C1 9745   2.419   0.504  15.492 -0.3859 -0.1853  0.0645
  655MPD2    C2 9746   2.442   0.479  15.359  0.1023 -0.0623 -0.7612
  655MPD2    C3 9747   2.489   0.360  15.318  0.6069  0.8947  0.2550
  655MPD2    C4 9748   2.526   0.263  15.406 -0.4333 -0.6380 -0.3154
  655MPD2    C5 9749   2.507   0.287  15.538  0.1001 -0.2546 -0.3202
  655MPD2     H 9750   2.406   0.556  15.292  0.4149  0.9020  0.1989
  655MPD2    H1 9751   2.555   0.165  15.371 -0.5589 -0.3947 -1.1169
  655MPD2    H2 9752   2.461   0.421  15.690 -0.4464 -0.5980 -0.0259
  655MPD2    H3 9753   2.535   0.212  15.611 -0.8419 -1.1825 -0.9292
  655MPD2     N 9754   2.480   0.325  15.184  0.2120  0.4713  0.2964
  655MPD2    H5 9755   2.485   0.227  15.159 -2.5368  0.3001  0.4269
  655MPD2    N1 9756   2.374   0.627  15.530 -0.6995  0.3240 -0.2137
  655MPD2    H7 9757   2.344   0.685  15.452 -0.7246  1.0791  0.3543
  656TMC3    C1 9758   2.248   0.778  15.653  0.2816  0.5012 -0.2546
  656TMC3    C2 9759   2.230   0.832  15.777 -0.5844  0.1064 -0.3375
  656TMC3    C3 9760   2.194   0.965  15.787  0.7546 -0.4613 -0.0153
  656TMC3    C4 9761   2.222   0.849  15.537  0.2081  0.1681 -0.7127
  656TMC3    C5 9762   2.180   0.982  15.552 -0.5612 -0.6773  0.1503
  656TMC3    C6 9763   2.178   1.037  15.674 -0.0538 -0.0402  0.2512
  656TMC3     C 9764   2.311   0.647  15.652 -0.2014  0.2520  0.5458
  656TMC3     O 9765   2.318   0.593  15.758 -0.2494  0.0822  0.2880
  656TMC3     H 9766   2.255   0.773  15.864  0.3424 -0.4526 -0.9819
  656TMC3    H1 9767   2.217   0.814  15.434  0.0296 -0.1058 -0.6090
  656TMC3    H2 9768   2.149   1.140  15.688  0.2154 -0.0256  0.6938
  656TMC3    C7 9769   2.106   1.051  15.446  0.4532 -0.7329  0.6439
  656TMC3    C8 9770   2.177   1.036  15.917  0.4956  0.1632 -0.4631
  656TMC3    O1 9771   2.130   1.016  15.331  0.4731 -0.5535 -0.1426
  656TMC3    O2 9772   2.245   1.139  15.941 -0.3202  0.4216  0.7430
  657TMC3    C1 9773   0.800   4.668  15.163  0.7943 -1.0380 -0.5421
  657TMC3    C2 9774   0.933   4.691  15.200 -0.2640 -0.2634 -0.0226
  657TMC3    C3 9775   0.977   0.083  15.191 -0.5552 -0.6025  0.2103
  657TMC3    C4 9776   0.723   0.033  15.121  0.7139  0.4870  0.4063
  657TMC3    C5 9777   0.781   0.150  15.072  0.1495 -0.3537 -1.2034
  657TMC3    C6 9778   0.911   0.176  15.114 -0.1101  0.1783 -0.2949
  657TMC3     C 9779   0.732   4.546  15.209 -0.4666 -0.0585 -0.6474
  657TMC3     O 9780   0.613   4.538  15.198 -0.2402  0.3561 -0.2493
  657TMC3     H 9781   1.002   4.612  15.226  0.1820  0.2419  0.3418
  657TMC3    H1 9782   0.617   0.018  15.103  0.9524  0.1270 -0.7731
  657TMC3    H2 9783   0.960   0.270  15.092  0.9644  0.2042  2.2570
  657TMC3    C7 9784   0.709   0.259  15.018  0.1634 -0.2960 -0.9655
  657TMC3    C8 9785   1.114   0.110  15.213 -0.1433  0.3551  0.2894
  657TMC3    O1 9786   0.740   0.376  15.036  0.4932 -0.0090  0.5356
  657TMC3    O2 9787   1.160   0.216  15.169  0.2824  0.7545 -0.2568
  658MPD2     C 9788   2.822   0.728  14.589  0.1809 -0.0522  0.4954
  658MPD2    C1 9789   2.728   0.641  14.538  0.0513  0.1211  0.3748
  658MPD2    C2 9790   2.687   0.647  14.409 -0.6492  0.4567 -0.5872
  658MPD2    C3 9791   2.736   0.749  14.326  0.0396  0.2194 -0.2225
  658MPD2    C4 9792   2.825   0.839  14.375  0.4214 -0.0301  0.4506
  658MPD2    C5 9793   2.863   0.830  14.505  0.8713  0.2329 -0.6353
  658MPD2     H 9794   2.615   0.581  14.364  0.0826 -0.4433 -0.4374
  658MPD2    H1 9795   2.867   0.919  14.314  0.9248  0.5494  1.5560
  658MPD2    H2 9796   2.856   0.732  14.692  1.1892  1.3483  0.1143
  658MPD2    H3 9797   2.924   0.905  14.554  1.6794  1.0854 -2.9486
  658MPD2     N 9798   2.671   0.753  14.200 -0.0768 -0.1556  0.7408
  658MPD2    H5 9799   2.620   0.670  14.171 -1.6754  1.9770 -2.5843
  658MPD2    N1 9800   2.665   0.561  14.634 -0.4723 -0.1800 -0.6612
  658MPD2    H7 9801   2.696   0.565  14.731 -2.1367  0.7927 -0.1832
  659TMC3    C1 9802   2.485   0.425  14.725 -0.2927 -0.4702  0.2850
  659TMC3    C2 9803   2.536   0.444  14.854  0.1551  0.2673  0.6589
  659TMC3    C3 9804   2.492   0.359  14.956  0.2308  0.1293 -0.0158
  659TMC3    C4 9805   2.380   0.334  14.696 -0.4976 -0.4105 -0.4338
  659TMC3    C5 9806   2.334   0.248  14.800  0.1038  0.4331 -0.3629
  659TMC3    C6 9807   2.389   0.271  14.932 -0.0860  0.0069 -0.1500
  659TMC3     C 9808   2.550   0.484  14.609  0.1258  0.3159 -0.0902
  659TMC3     O 9809   2.499   0.462  14.504  0.0592  0.3756 -0.5340
  659TMC3     H 9810   2.588   0.533  14.886 -0.3272  1.0728 -0.8132
  659TMC3    H1 9811   2.336   0.330  14.598 -0.8420 -0.5184 -0.2757
  659TMC3    H2 9812   2.377   0.199  15.012 -0.9520  1.7335  1.2935
  659TMC3    C7 9813   2.204   0.185  14.801 -0.0260 -0.0678  0.3919
  659TMC3    C8 9814   2.484   0.420  15.087 -0.3571 -0.0859 -0.5900
  659TMC3    O1 9815   2.165   0.159  14.914 -0.2071 -0.5279 -0.6298
  659TMC3    O2 9816   2.509   0.540  15.108 -0.2648 -0.3457  0.2535
  660MPD2     C 9817   0.335   3.745  12.039 -0.6916 -0.7175  0.0304
  660MPD2    C1 9818   0.202   3.765  12.003 -0.4026  0.4698  0.2504
  660MPD2    C2 9819   0.101   3.740  12.099  0.4181 -0.7220 -0.8466
  660MPD2    C3 9820   0.142   3.705  12.227 -0.5603  0.8314 -0.0328
  660MPD2    C4 9821   0.270   3.689  12.262 -0.2447 -0.6597  0.0094
  660MPD2    C5 9822   0.373   3.710  12.174  0.6848  0.1360  0.1232
  660MPD2     H 9823   4.737   3.745  12.065  0.3534 -1.5697 -0.7709
  660MPD2    H1 9824   0.303   3.658  12.360  1.5625 -2.3390 -1.1047
  660MPD2    H2 9825   0.420   3.756  11.973 -1.2504  1.1062 -0.3958
  660MPD2    H3 9826   0.472   3.703  12.217  1.8108  2.8894 -2.0210
  660MPD2     N 9827   0.052   3.681  12.332  0.4715 -0.0842  0.1933
  660MPD2    H5 9828   0.083   3.642  12.420 -1.0874  1.1410  1.2889
  660MPD2    N1 9829   0.175   3.813  11.877 -0.4452  0.0728  0.2756
  660MPD2    H7 9830   0.256   3.833  11.820  0.1965 -1.6330  0.5916
  661TMC3    C1 9831   0.079   3.857  11.678  0.3523 -1.4188  0.4830
  661TMC3    C2 9832   0.210   3.908  11.652  0.2861  0.3623 -0.0363
  661TMC3    C3 9833   0.252   3.887  11.529 -0.1031 -0.6857 -0.1976
  661TMC3    C4 9834   0.008   3.783  11.589 -0.3116  0.7639 -0.1237
  661TMC3    C5 9835   0.062   3.772  11.465 -0.5014 -0.1792  0.1863
  661TMC3    C6 9836   0.182   3.815  11.431  0.1457 -0.7106 -0.5283
  661TMC3     C 9837   0.053   3.819  11.816 -0.7461  0.3853 -0.3376
  661TMC3     O 9838   4.676   3.807  11.855 -0.4063 -0.6624 -0.4106
  661TMC3     H 9839   0.263   3.974  11.719  0.7180 -1.4053  1.3607
  661TMC3    H1 9840   4.649   3.741  11.612 -1.3443  3.3401  0.1589
  661TMC3    H2 9841   0.214   3.819  11.328  2.1762  2.7057  0.2407
  661TMC3    C7 9842   4.705   3.765  11.355 -0.1949 -0.8356  0.5694
  661TMC3    C8 9843   0.353   3.977  11.464 -0.2515  0.2957  0.4145
  661TMC3    O1 9844   0.009   3.810  11.250 -0.0374  0.0667 -0.5575
  661TMC3    O2 9845   0.413   3.920  11.370 -0.5268  0.1376 -0.6041
  662MPD2     C 9846   0.663   3.494  17.381 -0.0905 -0.0496 -0.2727
  662MPD2    C1 9847   0.529   3.459  17.376 -1.0015  0.3735  0.0748
  662MPD2    C2 9848   0.439   3.555  17.326  0.4413  0.0271  0.4453
  662MPD2    C3 9849   0.475   3.682  17.283  0.9917 -0.1499 -0.3953
  662MPD2    C4 9850   0.606   3.718  17.304 -0.8082 -0.7609  0.1250
  662MPD2    C5 9851   0.693   3.623  17.354  0.3506 -0.0760  0.3622
  662MPD2     H 9852   0.335   3.524  17.315  0.5196  0.6723 -2.1347
  662MPD2    H1 9853   0.646   3.818  17.292  2.0585 -1.9716 -0.3663
  662MPD2    H2 9854   0.746   3.433  17.416  2.1816  1.4928 -2.9160
  662MPD2    H3 9855   0.794   3.661  17.366  1.0592 -1.0022 -2.5765
  662MPD2     N 9856   0.384   3.779  17.233  0.2852 -0.2343 -0.0942
  662MPD2    H5 9857   0.415   3.875  17.219 -0.3807  0.0465  0.3198
  662MPD2    N1 9858   0.479   3.332  17.406 -0.0478  0.1464  0.3442
  662MPD2    H7 9859   0.378   3.322  17.411 -0.1184  0.9225  0.4844
  663TMC3    C1 9860   0.477   3.116  17.506 -0.2691 -0.6473  0.1900
  663TMC3    C2 9861   0.338   3.118  17.497 -0.3473  0.0839 -0.0130
  663TMC3    C3 9862   0.254   3.048  17.581 -0.2667  0.3203 -0.2194
  663TMC3    C4 9863   0.540   3.029  17.596 -0.5291  1.0511 -0.7936
  663TMC3    C5 9864   0.457   2.959  17.679  0.2128  0.8995 -0.5458
  663TMC3    C6 9865   0.323   2.959  17.663 -0.4763 -0.5458 -0.4044
  663TMC3     C 9866   0.554   3.234  17.461 -0.2716  0.2170 -0.2238
  663TMC3     O 9867   0.673   3.220  17.483  0.2802 -0.5720 -0.1461
  663TMC3     H 9868   0.284   3.195  17.443  1.4700  1.7040  0.4360
  663TMC3    H1 9869   0.648   3.032  17.603 -0.4143 -0.5628 -1.9739
  663TMC3    H2 9870   0.270   2.915  17.747 -0.9098 -0.9007 -0.8639
  663TMC3    C7 9871   0.519   2.849  17.753  0.2172 -0.4780 -0.4401
  663TMC3    C8 9872   0.161   3.147  17.644 -0.5729 -0.0473  0.9737
  663TMC3    O1 9873   0.630   2.879   0.041 -0.0626  0.2973 -0.0512
  663TMC3    O2 9874   0.201   3.262  17.658  0.3344 -0.1961  0.3946
  664MPD2     C 9875   3.133   1.891  17.133 -0.1779  0.2238 -0.1440
  664MPD2    C1 9876   3.229   1.920  17.221  0.1063  0.4903  0.3536
  664MPD2    C2 9877   3.211   1.906  17.360 -0.2050 -0.6783 -0.0101
  664MPD2    C3 9878   3.090   1.856  17.410  0.8847  0.3665  0.6702
  664MPD2    C4 9879   2.993   1.818  17.319 -0.4787 -0.4388  0.3157
  664MPD2    C5 9880   3.013   1.836  17.180  0.3717 -0.1908 -0.0013
  664MPD2     H 9881   3.286   1.941  17.429 -1.6233  0.9347  0.7039
  664MPD2    H1 9882   2.902   1.764  17.344 -2.0632  1.9283 -0.4052
  664MPD2    H2 9883   3.140   1.918  17.029  0.4974  2.4353  0.4861
  664MPD2    H3 9884   2.940   1.807  17.106 -1.2485  0.9285  1.1639
  664MPD2     N 9885   3.079   1.845  17.555 -0.1971  0.3492  0.3808
  664MPD2    H5 9886   3.153   1.879  17.615 -0.5413  1.3835  0.2181
  664MPD2    N1 9887   3.355   1.961  17.170 -0.2411 -0.0002 -0.1891
  664MPD2    H7 9888   3.422   1.977  17.244  0.3808  0.0668 -0.7592
  665TMC3    C1 9889   2.959   1.793  17.754 -0.5773  0.4662 -0.1866
  665TMC3    C2 9890   2.866   1.704   0.059 -0.2704  0.3663  0.1080
  665TMC3    C3 9891   2.860   1.693   0.196 -0.2476 -0.3761 -0.2367
  665TMC3    C4 9892   3.038   1.871   0.083 -0.3513  0.3528  0.3620
  665TMC3    C5 9893   3.029   1.863   0.225  0.3668 -0.8158  0.8850
  665TMC3    C6 9894   2.941   1.769   0.274  0.4212 -0.2789  0.0411
  665TMC3     C 9895   2.967   1.785  17.609  0.0451 -0.6040 -0.4320
  665TMC3     O 9896   2.885   1.712  17.560  0.3355 -0.2095 -0.3769
  665TMC3     H 9897   2.801   1.636   0.005 -1.2961 -0.4172  2.3410
  665TMC3    H1 9898   3.106   1.943   0.039  0.9993 -0.2944  1.3994
  665TMC3    H2 9899   2.933   1.759   0.382 -0.1865 -1.2445 -0.0873
  665TMC3    C7 9900   3.012   1.993   0.287  0.0155  0.0248  0.5541
  665TMC3    C8 9901   2.746   1.659   0.267 -0.4250  0.1746 -0.1496
  665TMC3    O1 9902   2.990   2.090   0.212  0.0274  0.0848 -0.0468
  665TMC3    O2 9903   2.759   1.652   0.389  0.2591 -0.0090  0.8702
  666TMC3    C1 9904   2.669   1.748  10.020 -0.3784  0.1919 -0.4438
  666TMC3    C2 9905   2.692   1.732   9.886  0.3062 -0.5896  0.1689
  666TMC3    C3 9906   2.673   1.844   9.803 -0.0598 -0.7972 -0.4095
  666TMC3    C4 9907   2.627   1.871  10.064 -0.0585  0.1814  0.3278
  666TMC3    C5 9908   2.598   1.971   9.979  0.0426 -0.0526  0.7123
  666TMC3    C6 9909   2.618   1.963   9.843  0.3505  0.2285 -0.0777
  666TMC3     C 9910   2.667   1.635  10.109 -0.5475  0.4094 -0.2423
  666TMC3     O 9911   2.649   1.670  10.226 -0.2465 -0.4425  0.6893
  666TMC3     H 9912   2.737   1.643   9.844  0.3617 -0.2257 -0.5344
  666TMC3    H1 9913   2.605   1.882  10.170  0.3964  0.9655  0.3468
  666TMC3    H2 9914   2.607   2.039   9.767  0.0131  0.2337 -0.0203
  666TMC3    C7 9915   2.563   2.096  10.040 -0.2078  0.0487  0.2638
  666TMC3    C8 9916   2.739   1.833   9.670 -0.4373 -0.1515 -0.1380
  666TMC3    O1 9917   2.520   2.096  10.151 -0.0321 -0.4649 -0.2436
  666TMC3    O2 9918   2.700   1.738   9.610  0.1270 -0.3315 -0.1619
  667MPD2     C 9919   4.655   1.625  14.848 -0.2841  0.1789  0.2003
  667MPD2    C1 9920   4.583   1.729  14.901 -0.2974  0.1388 -0.3978
  667MPD2    C2 9921   4.474   1.697  14.985  0.2076 -0.5226 -0.5071
  667MPD2    C3 9922   4.445   1.565  15.019  0.2698  0.7924  0.7685
  667MPD2    C4 9923   4.527   1.464  14.969  1.0584  0.4943  0.5173
  667MPD2    C5 9924   4.640   1.497  14.895 -0.0438 -0.0744  0.3974
  667MPD2     H 9925   4.416   1.778  15.026  2.2647  0.8040 -0.1992
  667MPD2    H1 9926   4.508   1.360  14.990  2.7533  0.3047  1.1075
  667MPD2    H2 9927   0.008   1.642  14.793 -1.7890  2.4733 -1.6002
  667MPD2    H3 9928   4.711   1.423  14.859  1.5741  1.1054  1.1653
  667MPD2     N 9929   4.323   1.525  15.086  0.9480 -1.0895  0.0801
  667MPD2    H5 9930   4.306   1.425  15.074  0.3789 -1.2612  2.3551
  667MPD2    N1 9931   4.601   1.867  14.873  0.7884  0.4199 -0.1399
  667MPD2    H7 9932   4.528   1.928  14.907 -1.0603 -1.0898 -1.3875
  668TMC3    C1 9933   4.724   2.070  14.809  0.8756  0.1354 -0.5252
  668TMC3    C2 9934   0.084   2.120  14.733 -0.1926  0.1575 -0.1404
  668TMC3    C3 9935   0.076   2.255  14.707  0.5544  0.3280 -0.0668
  668TMC3    C4 9936   4.626   2.142  14.869 -0.5401  0.2462 -0.6145
  668TMC3    C5 9937   4.648   2.277  14.867 -0.5347 -0.0807 -0.8943
  668TMC3    C6 9938   4.735   2.338  14.780  0.1667  0.2526 -0.1409
  668TMC3     C 9939   4.717   1.918  14.814  0.7242 -0.2790  0.2483
  668TMC3     O 9940   0.078   1.860  14.783  0.4036  0.6618 -0.2269
  668TMC3     H 9941   0.153   2.053  14.683 -1.3681  0.3677 -2.0667
  668TMC3    H1 9942   4.567   2.098  14.949  1.2269 -0.4613  0.3022
  668TMC3    H2 9943   4.718   2.443  14.762 -0.0294  0.1684 -0.4450
  668TMC3    C7 9944   4.562   2.366  14.951  0.2938  0.3041  0.0458
  668TMC3    C8 9945   0.156   2.323  14.602 -0.0788 -0.4252  0.2696
  668TMC3    O1 9946   4.606   2.480  14.970  0.0089  0.3067  0.6676
  668TMC3    O2 9947   0.158   2.444  14.608  0.0146  0.2907 -0.5542
  669TMC3    C1 9948   2.092   1.754  14.464 -0.2758 -0.1994 -0.2556
  669TMC3    C2 9949   1.983   1.727  14.392  0.8403 -0.0052 -0.6963
  669TMC3    C3 9950   1.969   1.778  14.265 -0.2701 -0.1068  0.2404
  669TMC3    C4 9951   2.199   1.819  14.403  0.0749  0.3430 -0.1974
  669TMC3    C5 9952   2.189   1.855  14.272  0.1937 -0.6926  0.1652
  669TMC3    C6 9953   2.070   1.838  14.201 -0.2807 -0.3041 -0.0970
  669TMC3     C 9954   2.090   1.734  14.607  0.2954 -0.1653  0.1153
  669TMC3     O 9955   1.987   1.719  14.668  1.1144 -0.4431  0.0881
  669TMC3     H 9956   1.903   1.671  14.440  1.1699 -0.1894 -0.3577
  669TMC3    H1 9957   2.288   1.842  14.460 -0.1006  1.5979 -0.4368
  669TMC3    H2 9958   2.052   1.866  14.098  2.7362 -0.7586 -0.7244
  669TMC3    C7 9959   2.307   1.898  14.212 -0.3497  0.1006  0.1847
  669TMC3    C8 9960   1.846   1.764  14.190  0.4697  0.2259  0.6427
  669TMC3    O1 9961   2.301   1.973  14.115  0.3227  0.0639 -0.2605
  669TMC3    O2 9962   1.772   1.670  14.219  0.0017  0.1530 -0.0750
  670MPD2     C 9963   0.108   3.808  12.890  1.1858 -0.0098  0.0040
  670MPD2    C1 9964   0.213   3.878  12.946  0.0641  0.4448  0.3572
  670MPD2    C2 9965   0.209   3.915  13.081 -0.8503  0.0045 -0.1813
  670MPD2    C3 9966   0.109   3.893  13.171  0.1796  0.2770  0.1043
  670MPD2    C4 9967   0.013   3.809  13.119  0.0197  0.2157 -0.1830
  670MPD2    C5 9968   0.021   3.770  12.989  0.2416  0.0197 -0.5724
  670MPD2     H 9969   0.293   3.977  13.112 -0.1037 -1.9046  1.6992
  670MPD2    H1 9970   4.663   3.770  13.167 -2.8328  2.6240 -3.4820
  670MPD2    H2 9971   0.104   3.754  12.796  0.2772  1.4320 -0.7782
  670MPD2    H3 9972   4.682   3.699  12.962 -0.1013 -0.2214  1.0316
  670MPD2     N 9973   0.120   3.944  13.300  0.2577  0.0070 -0.1850
  670MPD2    H5 9974   0.200   3.997  13.332  0.5695 -0.8550  0.4671
  670MPD2    N1 9975   0.317   3.932  12.864  0.5022 -0.2180  0.0737
  670MPD2    H7 9976   0.381   3.996  12.911 -0.2919  0.1299  0.6628
  671TMC3    C1 9977   0.030   4.015  13.513 -0.0815  0.4965  0.2827
  671TMC3    C2 9978   0.151   4.073  13.544 -0.1703  0.5870 -0.6775
  671TMC3    C3 9979   0.173   4.102  13.681 -0.4867 -0.2243 -0.8005
  671TMC3    C4 9980   4.675   3.996  13.610  0.2589  0.0465 -0.3874
  671TMC3    C5 9981   4.697   4.036  13.737  0.2752  0.4200 -0.0174
  671TMC3    C6 9982   0.076   4.094  13.777  0.3237  0.4481 -0.4769
  671TMC3     C 9983   0.020   3.928  13.395 -0.6614  0.1108  0.7231
  671TMC3     O 9984   4.651   3.873  13.387  0.1646  0.2846 -0.0012
  671TMC3     H 9985   0.237   4.035  13.488 -0.3811  2.6891 -2.4324
  671TMC3    H1 9986   4.577   3.957  13.586 -1.7802  2.7917  3.3303
  671TMC3    H2 9987   0.073   4.127  13.880 -2.5949  1.3577 -0.8295
  671TMC3    C7 9988   4.640   3.949  13.832 -0.0599 -0.7281  0.0191
  671TMC3    C8 9989   0.281   4.019  13.738  0.7757  0.1109 -1.0292
  671TMC3    O1 9990   4.536   3.891  13.798  0.4662  0.1015  0.3734
  671TMC3    O2 9991   0.340   3.952  13.662  0.8842  0.4254  0.8673
  672MPD2     C 9992   1.224   0.064   0.886 -0.4057 -0.0160 -0.7602
  672MPD2    C1 9993   1.300   4.712   0.814 -0.1150 -0.0218 -0.0490
  672MPD2    C2 9994   1.433   0.007   0.793 -0.3168  0.2618  0.3032
  672MPD2    C3 9995   1.481   0.131   0.841  0.9145  1.0493  0.0634
  672MPD2    C4 9996   1.403   0.215   0.917 -0.3976 -0.3130 -0.2071
  672MPD2    C5 9997   1.275   0.178   0.937  0.0987 -0.6585 -0.1572
  672MPD2     H 9998   1.504   4.680   0.744  0.0446  1.1124 -0.3334
  672MPD2    H1 9999   1.435   0.310   0.959 -1.3063 -0.6112  1.1527
  672MPD2    H210000   1.120   0.048   0.914 -0.0796 -0.5470  0.1596
  672MPD2    H310001   1.208   0.243   0.992  0.8944 -1.6926  2.0327
  672MPD2     N10002   1.613   0.186   0.808 -0.3453 -0.6964  0.0916
  672MPD2    H510003   1.624   0.280   0.845  0.0040 -0.7582  0.1491
  672MPD2    N110004   1.255   4.592   0.762 -0.7980 -0.3426 -1.0524
  672MPD2    H710005   1.312   4.538   0.699  0.0683  2.3064 -2.5452
  673TMC3    C110006   1.099   4.433   0.694 -0.2276 -0.1146  0.1556
  673TMC3    C210007   1.178   4.319   0.707  0.5859  0.3669 -1.0305
  673TMC3    C310008   1.120   4.205   0.649 -0.7328 -0.0014  0.2261
  673TMC3    C410009   0.980   4.438   0.625  0.5022  0.3381 -0.2545
  673TMC3    C510010   0.934   4.325   0.562 -0.9554  0.0590  0.1596
  673TMC3    C610011   1.004   4.206   0.567  0.1843  0.3734  0.6392
  673TMC3     C10012   1.127   4.548   0.772  0.0808 -0.4572  0.1685
  673TMC3     O10013   1.030   4.587   0.839  0.3211  0.6772  0.4547
  673TMC3     H10014   1.263   4.317   0.773  0.8076  0.1022 -1.3270
  673TMC3    H110015   0.921   4.527   0.643  1.8260  0.5271  3.3311
  673TMC3    H210016   0.960   4.121   0.517  2.9839  0.2495 -1.5811
  673TMC3    C710017   0.841   4.346   0.450  0.0031 -0.0755 -0.5387
  673TMC3    C810018   1.177   4.073   0.667 -0.4060  0.0588 -0.1428
  673TMC3    O110019   0.777   4.249   0.418  0.6676  0.1882 -0.1956
  673TMC3    O210020   1.096   3.984   0.649  0.1754 -0.3999 -0.9292
  674MPD2     C10021   0.847   0.123  17.727 -0.2088  0.0726  0.3254
  674MPD2    C110022   0.765   0.032  17.662  0.2962  0.2303  0.1124
  674MPD2    C210023   0.648   0.081  17.604 -0.5488 -0.1274 -0.7054
  674MPD2    C310024   0.621   0.215  17.603  0.1555  0.4915  0.4064
  674MPD2    C410025   0.711   0.301  17.658 -0.1456  0.8450  0.3312
  674MPD2    C510026   0.820   0.260  17.722  0.3777 -0.6493  0.1058
  674MPD2     H10027   0.583   0.009  17.555 -0.6632  0.9934 -2.2141
  674MPD2    H110028   0.690   0.407  17.666  1.1010  1.0100  1.3673
  674MPD2    H210029   0.941   0.103   0.022  0.3655 -1.1758 -1.2788
  674MPD2    H310030   0.888   0.338  17.753 -0.5775  1.3520 -2.7416
  674MPD2     N10031   0.506   0.276  17.548 -0.2721 -0.1716 -0.7254
  674MPD2    H510032   0.477   0.367  17.582  0.6321  0.4084 -1.4859
  674MPD2    N110033   0.798   4.632  17.673 -0.3226  0.0115 -0.3364
  674MPD2    H710034   0.878   4.613  17.732  0.4708  3.2655 -0.3465
  675TMC3    C110035   0.785   4.400  17.651  0.5859 -0.2074 -0.5755
  675TMC3    C210036   0.700   4.292  17.628  0.0786 -0.4453 -1.0541
  675TMC3    C310037   0.721   4.180  17.699  0.6760  0.0456  0.6017
  675TMC3    C410038   0.901   4.384  17.721  0.2072 -0.4474 -1.3385
  675TMC3    C510039   0.926   4.259   0.022  0.4110 -0.1551 -0.5480
  675TMC3    C610040   0.838   4.158   0.016 -0.2656 -0.7634 -0.2785
  675TMC3     C10041   0.736   4.530  17.603 -0.3346  0.2855 -0.0456
  675TMC3     O10042   0.661   4.533  17.506  0.2586 -0.2895  0.4477
  675TMC3     H10043   0.607   4.308  17.574  0.8349  0.7789 -1.9884
  675TMC3    H110044   0.966   4.466  17.749 -1.0900 -0.4961  1.7635
  675TMC3    H210045   0.853   4.061   0.062  0.4390 -1.0665 -1.1369
  675TMC3    C710046   1.044   4.256   0.118  0.4291  0.1250  0.0174
  675TMC3    C810047   0.631   4.070  17.666  0.4979 -0.0232 -0.3340
  675TMC3    O110048   1.087   4.368   0.154 -0.2706  0.2042  0.2876
  675TMC3    O210049   0.582   4.077  17.550  0.0620 -0.3689 -1.0417
  676MPD2     C10050   3.052   2.840  10.911 -0.5144  0.5947 -0.4850
  676MPD2    C110051   3.049   2.808  11.048 -0.3243  1.1323 -0.2715
  676MPD2    C210052   3.072   2.678  11.080  0.0214 -0.1728 -0.1028
  676MPD2    C310053   3.106   2.585  10.979  0.1446 -0.4215  0.3278
  676MPD2    C410054   3.116   2.623  10.841  1.2858 -0.6414 -0.1708
  676MPD2    C510055   3.080   2.753  10.810  0.3159  1.0470 -0.4784
  676MPD2     H10056   3.078   2.643  11.183 -0.7404 -1.0936 -0.3738
  676MPD2    H110057   3.158   2.558  10.765 -0.9602 -0.7010 -1.3687
  676MPD2    H210058   3.025   2.943  10.888  0.0654  0.5546 -1.3672
  676MPD2    H310059   3.079   2.780  10.705 -0.3279 -2.2306 -1.3119
  676MPD2     N10060   3.149   2.454  11.019  0.0556  0.5405 -0.1250
  676MPD2    H510061   3.150   2.373  10.958  1.6299  1.6923 -1.6339
  676MPD2    N110062   3.013   2.886  11.159  0.5695 -0.0012 -0.1018
  676MPD2    H710063   2.989   2.835  11.244 -1.1238 -1.2205 -1.3194
  677TMC3    C110064   2.931   3.078  11.269  0.6883 -0.5360 -0.5850
  677TMC3    C210065   2.935   3.014  11.388  0.0814  0.0863 -0.4785
  677TMC3    C310066   2.930   3.089  11.498 -0.2625  0.5699  0.5112
  677TMC3    C410067   2.913   3.218  11.258 -0.7134 -0.1353  0.4590
  677TMC3    C510068   2.915   3.292  11.375 -0.0324 -0.1020 -0.4756
  677TMC3    C610069   2.913   3.225  11.497  0.1275 -0.3254  0.8596
  677TMC3     C10070   2.977   3.020  11.148  1.0809 -0.4790 -0.9336
  677TMC3     O10071   2.996   3.102  11.058  0.0310  0.0462 -0.9330
  677TMC3     H10072   2.951   2.907  11.387  1.0073  0.2257 -0.5025
  677TMC3    H110073   2.896   3.261  11.160 -0.9114 -0.2489  0.4438
  677TMC3    H210074   2.908   3.272  11.595  0.2337  0.1084  0.6573
  677TMC3    C710075   2.951   3.431  11.386  0.0762 -0.4668 -0.7802
  677TMC3    C810076   2.973   3.036  11.629  0.0040  0.2779  0.5546
  677TMC3    O110077   2.937   3.500  11.485  0.1877 -0.0547  0.2909
  677TMC3    O210078   3.017   3.111  11.709 -0.7403  0.2358 -0.1625
  678MPD2     C10079   4.088   2.280   1.329  0.0969 -1.1841  0.0130
  678MPD2    C110080   4.063   2.315   1.197 -0.4311  0.9515  0.0846
  678MPD2    C210081   3.944   2.368   1.168  0.3412 -0.1671 -0.0559
  678MPD2    C310082   3.847   2.383   1.267 -0.3079 -0.4308  0.4085
  678MPD2    C410083   3.875   2.352   1.397  0.4653 -0.9294  0.0824
  678MPD2    C510084   3.997   2.296   1.428 -0.2865 -0.1341 -0.2577
  678MPD2     H10085   3.918   2.386   1.065 -0.1252 -3.6541 -0.5551
  678MPD2    H110086   3.805   2.359   1.480  1.0506 -2.3991  0.7091
  678MPD2    H210087   4.187   2.242   1.350  0.0456 -0.1348  2.1777
  678MPD2    H310088   4.012   2.265   1.531 -1.8662  2.0785  0.6297
  678MPD2     N10089   3.731   2.458   1.232 -0.4203  0.3034  0.5512
  678MPD2    H510090   3.717   2.472   1.132  1.4319  0.5015  0.3215
  678MPD2    N110091   4.155   2.297   1.089 -0.4445 -0.4336  0.3360
  678MPD2    H710092   4.134   2.352   1.007 -0.7942  2.4012  2.3416
  679TMC3    C110093   4.611   2.276   0.960  0.3258 -0.7160  0.0801
  679TMC3    C210094   4.501   2.223   1.033  0.0558 -0.7278  0.2814
  679TMC3    C310095   4.373   2.248   0.990  0.1231 -0.3266  0.5452
  679TMC3    C410096   4.588   2.370   0.865  0.3773 -0.2392  0.0425
  679TMC3    C510097   4.464   2.383   0.814  0.4837 -0.5326  0.5647
  679TMC3    C610098   4.356   2.332   0.886  0.5215  0.0917 -0.2865
  679TMC3     C10099   0.002   2.270   1.024 -0.6562 -0.3497  0.3794
  679TMC3     O10100   0.094   2.332   0.974 -0.1952 -0.2243 -0.1026
  679TMC3     H10101   4.513   2.136   1.096  0.9674 -1.6908 -1.2329
  679TMC3    H110102   4.672   2.380   0.796  0.2348 -2.6658 -0.4602
  679TMC3    H210103   4.257   2.334   0.841 -0.4519  0.1805  1.8829
  679TMC3    C710104   4.432   2.479   0.711 -0.5264 -0.4330  0.2951
  679TMC3    C810105   4.274   2.220   1.092  0.1755 -0.5624 -0.1958
  679TMC3    O110106   4.320   2.470   0.664 -0.2657  0.1674  0.2083
  679TMC3    O210107   4.307   2.153   1.188 -0.3366  0.6223  0.5465
  680MPD2     C10108   1.040   1.366  13.280  0.3265 -0.1578 -0.2140
  680MPD2    C110109   0.916   1.329  13.320 -0.5425  0.3217  0.3794
  680MPD2    C210110   0.832   1.426  13.373  0.2841 -0.0372 -0.0534
  680MPD2    C310111   0.874   1.558  13.364 -0.5183 -0.4474 -0.3867
  680MPD2    C410112   0.997   1.595  13.313 -0.2593 -0.2723  0.1346
  680MPD2    C510113   1.078   1.498  13.270 -0.6430  0.4099 -0.1223
  680MPD2     H10114   0.740   1.402  13.425 -0.4726  1.4385 -0.6796
  680MPD2    H110115   1.028   1.698  13.310 -2.0836  0.2478 -0.5713
  680MPD2    H210116   1.111   1.289  13.249  0.7011  0.7422 -1.5988
  680MPD2    H310117   1.172   1.530  13.226 -1.8225  1.4705 -1.8767
  680MPD2     N10118   0.808   1.658  13.434  0.6495  0.0091 -0.5302
  680MPD2    H510119   0.853   1.746  13.458  2.3709 -1.4856  1.8379
  680MPD2    N110120   0.866   1.197  13.330  0.4425 -0.5080  0.0137
  680MPD2    H710121   0.768   1.196  13.356 -0.0737 -2.2581 -1.9523
  681TMC3    C110122   0.863   0.957  13.321  0.9379  0.2019  0.5307
  681TMC3    C210123   0.751   0.945  13.400  0.4932  0.5238 -0.2523
  681TMC3    C310124   0.692   0.819  13.425  0.8675  0.5891  0.1830
  681TMC3    C410125   0.927   0.840  13.274  0.0904 -0.8572 -0.4787
  681TMC3    C510126   0.856   0.727  13.293  0.4023 -0.2079 -0.0555
  681TMC3    C610127   0.743   0.709  13.373 -0.0215  0.2005  0.1771
  681TMC3     C10128   0.942   1.080  13.305  0.0461  1.0771  0.6623
  681TMC3     O10129   1.059   1.065  13.266  0.1130 -0.1450  0.2099
  681TMC3     H10130   0.716   1.041  13.435 -0.6692  0.1125 -0.2680
  681TMC3    H110131   1.024   0.849  13.225  0.3522  0.8532  0.3330
  681TMC3    H210132   0.705   0.610  13.393  1.3254 -0.4109 -0.3432
  681TMC3    C710133   0.914   0.616  13.209 -0.0180  0.0487  0.5299
  681TMC3    C810134   0.587   0.807  13.524  0.0259 -0.3651 -0.2586
  681TMC3    O110135   0.923   0.504  13.258  0.5932  0.1083 -0.0153
  681TMC3    O210136   0.540   0.697  13.543  0.2704  0.1032  1.0736
  682MPD2     C10137   2.341   3.164  10.844 -0.4444  0.5962 -0.0087
  682MPD2    C110138   2.226   3.082  10.844  0.7036  0.7944  0.1827
  682MPD2    C210139   2.117   3.133  10.919  0.4587 -0.6873  0.0560
  682MPD2    C310140   2.122   3.254  10.994 -0.1416  0.0354  0.5944
  682MPD2    C410141   2.240   3.320  11.002  0.6844 -0.5900  0.2277
  682MPD2    C510142   2.347   3.278  10.927 -0.6650  0.2126 -0.3593
  682MPD2     H10143   2.025   3.078  10.902 -0.7872  1.2818  0.5269
  682MPD2    H110144   2.255   3.407  11.064  0.0349 -1.0373  1.0128
  682MPD2    H210145   2.431   3.136  10.791 -0.7479 -0.8079  0.2257
  682MPD2    H310146   2.441   3.331  10.930 -0.3592 -0.3985  1.2269
  682MPD2     N10147   2.010   3.306  11.070  0.0530  0.1583  0.2893
  682MPD2    H510148   2.036   3.381  11.134  0.6785 -1.7968  2.3321
  682MPD2    N110149   2.212   2.972  10.756 -0.3549 -0.4423  0.3064
  682MPD2    H710150   2.130   2.916  10.776 -0.3148  0.3818  2.7179
  683TMC3    C110151   1.795   3.381  11.397  0.4507  0.0148  0.2892
  683TMC3    C210152   1.661   3.345  11.404  0.3605 -0.5229  0.2182
  683TMC3    C310153   1.607   3.270  11.301 -0.2716  0.1280  0.4939
  683TMC3    C410154   1.867   3.373  11.286  0.4880  0.3510  1.0168
  683TMC3    C510155   1.807   3.300  11.185 -0.2067  0.3689 -0.4374
  683TMC3    C610156   1.680   3.249  11.188  0.1465 -0.2242  0.6134
  683TMC3     C10157   1.853   3.341  11.525 -0.3624  0.1229 -0.5845
  683TMC3     O10158   1.801   3.246  11.578 -0.5011 -0.2488 -0.0704
  683TMC3     H10159   1.617   3.355  11.502  0.1645 -1.9722  0.2742
  683TMC3    H110160   1.975   3.383  11.294  0.6529 -1.0267  0.4307
  683TMC3    H210161   1.658   3.170  11.116  2.1482 -0.2547  0.0296
  683TMC3    C710162   1.883   3.248  11.077 -0.3929 -0.0504 -0.1636
  683TMC3    C810163   1.516   3.173  11.354 -0.5641 -0.2973  0.2119
  683TMC3    O110164   1.833   3.171  10.995 -0.2339  0.1018 -0.1411
  683TMC3    O210165   1.442   3.200  11.446 -0.1837  0.0282  0.0937
  684MPD2     C10166   1.031   2.584  15.920 -0.2981  0.3845  0.0288
  684MPD2    C110167   0.905   2.544  15.870 -0.8127 -0.8138  0.1547
  684MPD2    C210168   0.796   2.538  15.956  0.2630  0.8628 -0.7355
  684MPD2    C310169   0.819   2.593  16.088 -0.4120 -0.3691  0.2947
  684MPD2    C410170   0.936   2.634  16.133 -0.7843 -0.2567 -0.4406
  684MPD2    C510171   1.044   2.633  16.045 -0.5563  0.5725  0.9849
  684MPD2     H10172   0.703   2.491  15.925 -0.4536 -0.4336  3.3636
  684MPD2    H110173   0.952   2.689  16.225 -0.8169 -1.0542  0.0504
  684MPD2    H210174   1.115   2.578  15.851 -0.3176  0.6374 -0.0156
  684MPD2    H310175   1.142   2.668  16.076  0.2232 -1.6381  1.0860
  684MPD2     N10176   0.720   2.594  16.187 -0.1556 -0.4652 -0.7037
  684MPD2    H510177   0.735   2.621  16.284  0.9721  0.5078 -1.1452
  684MPD2    N110178   0.889   2.488  15.738 -0.1492  0.3805 -0.5922
  684MPD2    H710179   0.793   2.465  15.716 -0.4945 -0.1447  1.4231
  685TMC3    C110180   0.948   2.373  15.548  0.4803  0.9810  0.5064
  685TMC3    C210181   0.821   2.363  15.509 -0.3402  0.4705 -0.9115
  685TMC3    C310182   0.779   2.251  15.438 -0.1413 -0.1284 -0.1472
  685TMC3    C410183   1.031   2.269  15.529 -0.1476  0.3108  0.1672
  685TMC3    C510184   0.988   2.163  15.454  0.2115  0.0747  0.1308
  685TMC3    C610185   0.859   2.147  15.408 -0.1286 -0.4580 -0.0378
  685TMC3     C10186   0.992   2.461  15.654 -0.5046  0.3202  0.4853
  685TMC3     O10187   1.111   2.470  15.667  0.2432 -0.1910 -0.0731
  685TMC3     H10188   0.752   2.444  15.528 -1.6335 -0.7461 -0.4129
  685TMC3    H110189   1.134   2.280  15.562 -0.2264 -0.4741  0.6626
  685TMC3    H210190   0.831   2.052  15.364 -1.0940 -0.5842  0.8356
  685TMC3    C710191   1.076   2.045  15.452  0.0284 -0.7025 -0.3347
  685TMC3    C810192   0.646   2.213  15.485  0.2854  0.1446  0.0879
  685TMC3    O110193   1.087   1.975  15.347  0.0271  0.0404  0.9266
  685TMC3    O210194   0.609   2.276  15.585 -0.1934  0.3873  0.0424
  686MPD2     C10195   2.040   2.508  15.220  0.1458  0.5698 -0.1475
  686MPD2    C110196   2.094   2.399  15.283  0.1173  0.2529  0.0361
  686MPD2    C210197   2.169   2.311  15.200  0.2269 -0.2250 -0.4279
  686MPD2    C310198   2.166   2.327  15.063  0.4455  0.5526 -0.2191
  686MPD2    C410199   2.122   2.442  15.006  0.4103  0.1829 -0.2389
  686MPD2    C510200   2.076   2.539  15.092  0.1696 -0.0003  0.2899
  686MPD2     H10201   2.227   2.227  15.236  0.1812 -0.9266 -1.9855
  686MPD2    H110202   2.135   2.468  14.902 -0.7064 -0.3311 -0.5063
  686MPD2    H210203   1.992   2.583  15.281 -1.5360 -0.4069 -0.2810
  686MPD2    H310204   2.047   2.641  15.070 -1.0186  0.0666  2.1713
  686MPD2     N10205   2.205   2.227  14.969 -0.2175  0.4452  0.7865
  686MPD2    H510206   2.217   2.254  14.872 -0.4606  0.9100  0.8816
  686MPD2    N110207   2.068   2.371  15.419  0.2001 -0.3778  0.1628
  686MPD2    H710208   1.998   2.432  15.460  1.5571  0.5357  1.1183
  687TMC3    C110209   2.188   2.012  15.107  0.4315 -0.2175 -0.4924
  687TMC3    C210210   2.062   2.037  15.149 -0.0065 -0.4207  0.6073
  687TMC3    C310211   2.035   1.993  15.273 -0.2903  0.1298  0.2468
  687TMC3    C410212   2.282   1.932  15.163 -0.3380  0.3960 -0.1003
  687TMC3    C510213   2.243   1.879  15.283  0.2541 -0.0358 -0.9279
  687TMC3    C610214   2.123   1.911  15.338  0.4966 -0.0347  0.4298
  687TMC3     C10215   2.248   2.095  15.000 -0.2656  0.0067  0.2415
  687TMC3     O10216   2.314   2.021  14.928  0.0511 -0.0328 -0.3010
  687TMC3     H10217   2.002   2.109  15.094 -0.6568 -0.4154  1.3312
  687TMC3    H110218   2.379   1.911  15.120 -1.3326 -0.7872 -1.7664
  687TMC3    H210219   2.110   1.883  15.442  1.9411 -0.3713  0.5168
  687TMC3    C710220   2.347   1.849  15.383  0.3685 -0.3050  0.9782
  687TMC3    C810221   1.910   2.019  15.342  0.1687  0.1282 -0.0847
  687TMC3    O110222   2.336   1.746  15.450 -0.4914 -0.6764  0.1067
  687TMC3    O210223   1.885   1.949  15.440 -0.0179  0.8415  0.3461
  688MPD2     C10224   1.487   1.238  17.250 -0.3057 -0.3425 -0.4182
  688MPD2    C110225   1.548   1.118  17.297 -0.5680  0.4591 -0.2034
  688MPD2    C210226   1.663   1.079  17.234  0.6545  0.3815 -0.6306
  688MPD2    C310227   1.718   1.156  17.133 -0.4442 -0.6332  0.6357
  688MPD2    C410228   1.658   1.276  17.098  0.8210 -0.2480 -0.0510
  688MPD2    C510229   1.541   1.316  17.154  0.1613 -0.4742 -0.4268
  688MPD2     H10230   1.705   0.982  17.259  0.1517  0.4923  0.6456
  688MPD2    H110231   1.709   1.347  17.033 -0.5756  1.1818  0.4207
  688MPD2    H210232   1.402   1.284  17.299  0.8772  0.0306  1.2734
  688MPD2    H310233   1.507   1.414  17.123  2.3949  0.9314  1.6052
  688MPD2     N10234   1.838   1.127  17.070  0.6008  0.6231  0.4730
  688MPD2    H510235   1.867   1.206  17.013 -1.0761 -0.2810 -1.6168
  688MPD2    N110236   1.503   1.052  17.414  0.2136 -0.0821 -0.4969
  688MPD2    H710237   1.551   0.969  17.447 -1.5300 -0.5702  0.8135
  689TMC3    C110238   1.377   1.008  17.617  0.0816 -0.1359 -0.3057
  689TMC3    C210239   1.333   1.075  17.731 -0.1402 -0.2548  0.2778
  689TMC3    C310240   1.292   1.000   0.090  0.2332  0.1662 -0.0537
  689TMC3    C410241   1.374   0.877  17.607 -0.6720  0.7597  0.0242
  689TMC3    C510242   1.327   0.802  17.712  0.3604  0.7446 -0.4060
  689TMC3    C610243   1.296   0.860   0.084  0.5226  0.7322 -0.2480
  689TMC3     C10244   1.408   1.098  17.506  0.3838 -1.4451 -0.3004
  689TMC3     O10245   1.375   1.214  17.520  0.0489 -0.2736  0.0524
  689TMC3     H10246   1.330   1.183  17.742  0.0308 -0.3849  1.5206
  689TMC3    H110247   1.422   0.824  17.525  0.3533 -0.6102  1.5129
  689TMC3    H210248   1.258   0.798   0.165  0.7556  1.3327  0.3159
  689TMC3    C710249   1.331   0.658  17.700  0.7037  0.3282  0.0366
  689TMC3    C810250   1.244   1.057   0.215  0.7376 -0.3202  0.1874
  689TMC3    O110251   1.388   0.592   0.033 -0.2510  0.0205  0.7132
  689TMC3    O210252   1.236   0.981   0.309  0.4074  0.6913 -0.5815
  690MPD2     C10253   3.978   3.091  15.586 -0.1447 -0.0004  0.2087
  690MPD2    C110254   3.884   3.086  15.489 -0.3895 -1.2055  0.1558
  690MPD2    C210255   3.910   3.146  15.360 -0.2454  0.3463 -0.6318
  690MPD2    C310256   4.036   3.210  15.342  0.0622 -0.2067 -0.0451
  690MPD2    C410257   4.128   3.198  15.446 -0.2715  0.2151 -0.5792
  690MPD2    C510258   4.101   3.135  15.565  0.3733 -0.4111 -0.7713
  690MPD2     H10259   3.840   3.129  15.278  0.6335 -1.1341 -1.0735
  690MPD2    H110260   4.231   3.231  15.431  0.2133 -0.6169  0.8512
  690MPD2    H210261   3.962   3.049  15.685  0.8838  1.7028  1.1009
  690MPD2    H310262   4.177   3.130  15.642 -1.1916  2.3073  0.9696
  690MPD2     N10263   4.077   3.261  15.215 -0.6877  0.1842  0.2920
  690MPD2    H510264   4.015   3.243  15.137  0.6798  0.2750 -0.8328
  690MPD2    N110265   3.760   3.032  15.510  0.3083 -0.0198  0.0776
  690MPD2    H710266   3.693   3.055  15.438 -0.7571 -5.4316 -0.7011
  691TMC3    C110267   3.598   2.871  15.589 -0.6120  0.3165 -0.1274
  691TMC3    C210268   3.484   2.933  15.539  0.6227  0.8100  0.8795
  691TMC3    C310269   3.366   2.859  15.546  0.3257  0.5489  0.6109
  691TMC3    C410270   3.608   2.747  15.632  0.3781  0.2776  0.2609
  691TMC3    C510271   3.491   2.681  15.633  1.1888  0.2313 -0.1871
  691TMC3    C610272   3.366   2.732  15.597  0.4448 -0.0939  0.4468
  691TMC3     C10273   3.724   2.938  15.605 -0.3102 -0.4199 -0.2454
  691TMC3     O10274   3.791   2.895  15.695  0.0788  0.5708  0.0070
  691TMC3     H10275   3.476   3.038  15.514 -0.7975  0.6730  0.7572
  691TMC3    H110276   3.698   2.697  15.667  0.0985  0.8100  1.7299
  691TMC3    H210277   3.281   2.670  15.626  1.5563 -1.9913 -0.3870
  691TMC3    C710278   3.498   2.536  15.666 -0.2795  0.2218  0.6221
  691TMC3    C810279   3.247   2.916  15.483 -0.3294  0.1931 -0.3787
  691TMC3    O110280   3.593   2.487  15.723  0.3833  0.2613 -0.0602
  691TMC3    O210281   3.244   3.032  15.451 -0.2083  0.3063  0.8617
  692TMC3    C110282   0.235   3.692  15.796  0.3084 -0.2722 -0.7554
  692TMC3    C210283   0.302   3.724  15.912 -0.3255  0.3416  0.6839
  692TMC3    C310284   0.334   3.627  16.001  0.5399 -0.0743 -0.3744
  692TMC3    C410285   0.169   3.574  15.780  0.6403 -0.2973 -0.3784
  692TMC3    C510286   0.197   3.478  15.873  1.4526 -0.1405  0.0463
  692TMC3    C610287   0.270   3.507  15.989  0.0061 -0.0305 -0.2693
  692TMC3     C10288   0.170   3.802  15.721 -0.5555  0.4859  0.4635
  692TMC3     O10289   0.107   3.774  15.622 -0.0144 -0.4065  0.0433
  692TMC3     H10290   0.382   3.792  15.887  0.7553 -1.3450 -0.4459
  692TMC3    H110291   0.099   3.552  15.701  1.1073 -2.2580 -0.2375
  692TMC3    H210292   0.301   3.427  16.055  0.3463  2.1809  2.2703
  692TMC3    C710293   0.136   3.345  15.848  0.1378  0.0645 -0.1997
  692TMC3    C810294   0.321   3.683  16.133  0.0843 -0.7712 -0.3000
  692TMC3    O110295   0.092   3.317  15.739  0.2456  0.3937  0.3389
  692TMC3    O210296   0.344   3.613  16.230  0.0156 -0.1612  0.0528
  693MPD2     C10297   4.569   1.357  10.345  0.4736  0.0648 -0.2789
  693MPD2    C110298   4.579   1.403  10.479  0.6227  0.4821 -0.2838
  693MPD2    C210299   4.692   1.352  10.549  0.0550 -0.1974 -0.7021
  693MPD2    C310300   0.035   1.245  10.505  0.2565 -0.3613 -0.2385
  693MPD2    C410301   0.013   1.195  10.379 -0.2146  0.6896  0.4652
  693MPD2    C510302   4.652   1.257  10.302 -0.3566  0.9310  0.5971
  693MPD2     H10303   4.721   1.392  10.646 -2.4020 -1.6161  0.6194
  693MPD2    H110304   0.072   1.118  10.330  0.4853  0.4533  1.6682
  693MPD2    H210305   4.480   1.386  10.292  0.2191 -1.1305 -0.5149
  693MPD2    H310306   4.622   1.227  10.202  1.2927 -2.7617  1.1741
  693MPD2     N10307   0.133   1.196  10.597  0.6471  0.5613  0.5608
  693MPD2    H510308   0.145   1.243  10.686  0.1264  0.9550  0.4228
  693MPD2    N110309   4.475   1.486  10.522  0.2958  0.1936  0.3053
  693MPD2    H710310   4.403   1.520  10.459 -0.7692 -0.7992  0.9629
  694TMC3    C110311   4.359   1.623  10.679 -0.2994 -1.2232 -0.0925
  694TMC3    C210312   4.289   1.687  10.578  0.2988 -0.0785  0.6333
  694TMC3    C310313   4.214   1.799  10.613  1.0800  0.0590  0.2361
  694TMC3    C410314   4.338   1.658  10.810  0.3590  0.4398 -0.1806
  694TMC3    C510315   4.267   1.772  10.836  0.4664 -0.0192 -0.1686
  694TMC3    C610316   4.208   1.847  10.739 -0.3396  0.2500  0.1706
  694TMC3     C10317   4.461   1.524  10.658  0.5026  0.9939 -0.1623
  694TMC3     O10318   4.529   1.484  10.754  0.7278 -0.8578 -0.7805
  694TMC3     H10319   4.289   1.643  10.479 -0.3110  0.4862  0.3760
  694TMC3    H110320   4.384   1.604  10.892 -3.8953  0.5948  2.3375
  694TMC3    H210321   4.157   1.941  10.758  0.2615  0.3316  1.3800
  694TMC3    C710322   4.217   1.802  10.967  0.2856 -0.0948 -0.4425
  694TMC3    C810323   4.109   1.840  10.523  0.1811 -0.2379 -0.5764
  694TMC3    O110324   4.199   1.922  10.994 -0.6364 -0.2632 -0.1748
  694TMC3    O210325   4.087   1.960  10.511  0.5028 -0.2167  1.2909
  695MPD2     C10326   0.309   2.918  14.030 -0.6954 -0.1255 -0.1236
  695MPD2    C110327   0.313   3.053  14.007  1.3071 -0.6060 -0.1796
  695MPD2    C210328   0.191   3.117  13.990  0.0054  0.3005  0.3040
  695MPD2    C310329   0.076   3.040  13.988 -0.2402  0.6465  0.0962
  695MPD2    C410330   0.077   2.910  14.017  0.7396 -0.4259  0.1250
  695MPD2    C510331   0.195   2.849  14.038  0.1690 -0.4049  0.0440
  695MPD2     H10332   0.185   3.224  13.977 -1.2815  0.2103  0.2036
  695MPD2    H110333   4.723   2.855  14.016 -0.7421  2.0903  0.9417
  695MPD2    H210334   0.399   2.859  14.044 -0.7480 -0.4540 -1.2336
  695MPD2    H310335   0.207   2.744  14.060  0.4008 -0.2082  0.8846
  695MPD2     N10336   4.697   3.113  13.975 -0.3808 -1.1163 -0.5310
  695MPD2    H510337   4.699   3.214  13.962 -2.0650 -0.9455  0.4944
  695MPD2    N110338   0.432   3.127  13.995  0.4064 -0.3929  0.0623
  695MPD2    H710339   0.419   3.228  13.996  0.4225 -0.3842 -0.2806
  696TMC3    C110340   4.476   3.175  13.931  0.4834  1.1418 -0.1898
  696TMC3    C210341   4.468   3.272  14.039 -0.1945 -0.7795 -0.2973
  696TMC3    C310342   4.370   3.366  14.024  0.1158  0.4666  0.5695
  696TMC3    C410343   4.395   3.186  13.828 -0.3970  0.7582 -0.0180
  696TMC3    C510344   4.304   3.290  13.821 -0.4193  0.0124 -0.5448
  696TMC3    C610345   4.282   3.373  13.923  0.3192 -0.0625  0.1557
  696TMC3     C10346   4.573   3.067  13.936  0.2421 -0.0359 -0.3980
  696TMC3     O10347   4.533   2.958  13.901 -0.1977  0.8477  0.4433
  696TMC3     H10348   4.519   3.258  14.133 -0.6814  1.5681  0.3032
  696TMC3    H110349   4.415   3.120  13.745 -0.5095  0.9957 -0.2318
  696TMC3    H210350   4.210   3.454  13.925 -0.4785 -0.7841  1.0491
  696TMC3    C710351   4.291   3.357  13.692  0.5819  0.1177 -0.2225
  696TMC3    C810352   4.427   3.504  14.048  0.5144  0.2426 -0.0742
  696TMC3    O110353   4.316   3.287  13.595 -0.0558  0.1762  0.1838
  696TMC3    O210354   4.374   3.596  13.987  0.6208 -0.5352 -0.2707
  697MPD2     C10355   0.475   0.451  15.633 -0.2020  0.3719 -0.1290
  697MPD2    C110356   0.412   0.464  15.513  0.1984 -0.3601 -0.0431
  697MPD2    C210357   0.453   0.566  15.430  0.5985  0.0534 -0.0046
  697MPD2    C310358   0.530   0.666  15.477  0.1574  0.1856 -0.0631
  697MPD2    C410359   0.600   0.649  15.590  0.8195 -0.3624  0.5410
  697MPD2    C510360   0.572   0.546  15.673 -0.0417  0.5315 -0.0302
  697MPD2     H10361   0.415   0.567  15.329  0.4406  1.0685  0.0641
  697MPD2    H110362   0.679   0.720  15.610  0.0057  0.3967  1.0453
  697MPD2    H210363   0.456   0.368  15.700  1.7781 -0.2457 -0.3206
  697MPD2    H310364   0.624   0.552  15.768 -1.2970  1.5995  0.5832
  697MPD2     N10365   0.550   0.777  15.392  0.8259 -0.0423 -0.0369
  697MPD2    H510366   0.496   0.772  15.306  2.3689 -0.6225 -0.9768
  697MPD2    N110367   0.316   0.379  15.461  0.7129  0.0733  0.6947
  697MPD2    H710368   0.282   0.402  15.368  0.1386  1.7078  1.3081
  698TMC3    C110369   0.584   0.992  15.315  0.6384  0.2345 -0.0101
  698TMC3    C210370   0.570   1.122  15.337  0.1210 -0.2585  0.6117
  698TMC3    C310371   0.574   1.217  15.236  0.7027  0.1562 -1.4029
  698TMC3    C410372   0.592   0.952  15.182 -0.4121 -0.1941  0.0989
  698TMC3    C510373   0.596   1.044  15.076  0.7668 -0.3915  0.5933
  698TMC3    C610374   0.598   1.176  15.103  0.4076  0.0276 -0.3271
  698TMC3     C10375   0.595   0.898  15.427 -0.3988  0.2587  0.2647
  698TMC3     O10376   0.622   0.945  15.537 -0.0363  0.3254  0.0264
  698TMC3     H10377   0.532   1.146  15.436  1.5484 -1.1822  1.3784
  698TMC3    H110378   0.581   0.849  15.149 -3.4221 -0.1936  1.0870
  698TMC3    H210379   0.597   1.254  15.027 -1.4131 -0.3746 -0.7215
  698TMC3    C710380   0.579   0.995  14.940  0.4853 -0.0843 -0.1823
  698TMC3    C810381   0.505   1.344  15.256  0.4706  0.3218  0.1406
  698TMC3    O110382   0.535   0.878  14.922 -0.4590  0.5768 -0.4626
  698TMC3    O210383   0.394   1.346  15.310  0.2020 -0.2708 -0.2454
  699TMC3    C110384   4.582   3.650  12.443  0.6035  0.0481 -0.4255
  699TMC3    C210385   4.647   3.555  12.523  0.7530  0.3957  0.4661
  699TMC3    C310386   4.626   3.563  12.656 -0.9728 -0.0041 -0.4232
  699TMC3    C410387   4.482   3.728  12.495 -0.1231 -0.1609  0.9063
  699TMC3    C510388   4.464   3.727  12.634 -0.5302  0.4879  0.0745
  699TMC3    C610389   4.537   3.648  12.718 -0.2525  0.5928 -0.0859
  699TMC3     C10390   4.651   3.698  12.328  0.4678  0.5717 -0.4079
  699TMC3     O10391   4.583   3.747  12.243 -0.2075  0.5395  0.4315
  699TMC3     H10392   4.726   3.492  12.483  0.8507  0.8647 -0.0708
  699TMC3    H110393   4.424   3.795  12.433 -0.6122 -0.2946  1.2170
  699TMC3    H210394   4.517   3.652  12.825 -1.7026  1.1690 -0.3771
  699TMC3    C710395   4.359   3.803  12.691 -0.0210  0.3947 -0.0526
  699TMC3    C810396   4.662   3.450  12.731  0.5804  0.2483  0.1724
  699TMC3    O110397   4.372   3.849  12.804 -0.1615  0.5974 -0.3656
  699TMC3    O210398   4.593   3.419  12.829 -0.2130  0.1371 -0.2040
  700TMC3    C110399   3.541   1.101  17.238  0.1950 -0.1805 -0.3554
  700TMC3    C210400   3.613   0.978  17.218 -0.8981  0.4628 -0.0700
  700TMC3    C310401   3.711   0.937  17.306 -0.3588  0.0259 -0.1843
  700TMC3    C410402   3.590   1.178  17.334 -0.6076 -0.0442 -0.2329
  700TMC3    C510403   3.690   1.141  17.419 -0.5021  0.0972  0.1068
  700TMC3    C610404   3.748   1.018  17.412 -0.3474  0.2214  0.2616
  700TMC3     C10405   3.535   1.175  17.115 -0.1267  0.6231  0.6250
  700TMC3     O10406   3.498   1.116  17.012 -0.4103 -0.1615  0.2421
  700TMC3     H10407   3.584   0.917  17.133  0.3378  0.2480 -0.3480
  700TMC3    H110408   3.524   1.255  17.373  0.3045  1.2442 -1.2675
  700TMC3    H210409   3.846   1.003  17.456 -0.9278 -1.2320  1.0845
  700TMC3    C710410   3.761   1.238  17.503  0.1402  0.0670  0.6116
  700TMC3    C810411   3.790   0.816  17.274  0.2104 -0.0441  0.5648
  700TMC3    O110412   3.853   1.198  17.569 -0.2126  0.0839  0.1882
  700TMC3    O210413   3.882   0.781  17.347  0.1519  0.3125 -0.3706
  701TMC3    C110414   4.024   0.426  15.350  0.1354 -0.3121  0.6144
  701TMC3    C210415   3.947   0.469  15.240  0.5024 -0.5302  0.3202
  701TMC3    C310416   4.011   0.535  15.133  0.4709  0.3922  0.1829
  701TMC3    C410417   4.157   0.451  15.357 -0.1970  0.1927  0.1889
  701TMC3    C510418   4.223   0.497  15.244  0.4635  0.2152  0.3521
  701TMC3    C610419   4.149   0.541  15.130  0.1616 -1.0153 -0.3291
  701TMC3     C10420   3.957   0.378  15.468 -0.4462  0.1605 -0.3130
  701TMC3     O10421   3.999   0.399  15.581  0.0733  0.2498 -0.3498
  701TMC3     H10422   3.839   0.459  15.241  0.6147 -1.6504  1.1893
  701TMC3    H110423   4.205   0.428  15.451  1.6845  0.8126 -0.6174
  701TMC3    H210424   4.206   0.574  15.044 -0.2887 -2.1068 -1.0420
  701TMC3    C710425   4.364   0.521  15.249  0.0753  0.0167 -0.0877
  701TMC3    C810426   3.940   0.587  15.019 -0.0123  0.0537  0.3412
  701TMC3    O110427   4.409   0.536  15.136 -0.3537 -0.2689 -0.1172
  701TMC3    O210428   3.987   0.690  14.976  0.0035 -0.6689 -0.0574
  702MPD2     C10429   3.608   2.130  10.708 -0.1685 -0.0906  0.0940
  702MPD2    C110430   3.509   2.214  10.752 -0.5234 -0.2691  0.7220
  702MPD2    C210431   3.469   2.324  10.679 -1.0548  0.0802  0.2847
  702MPD2    C310432   3.529   2.343  10.559 -0.0009  0.4803 -0.2622
  702MPD2    C410433   3.635   2.261  10.514  0.2204  0.5189  0.4524
  702MPD2    C510434   3.676   2.153  10.586  0.1376 -0.1875 -0.4971
  702MPD2     H10435   3.395   2.395  10.715  0.3224  1.8577 -0.3799
  702MPD2    H110436   3.689   2.275  10.421 -1.0979 -0.6407 -0.4742
  702MPD2    H210437   3.640   2.045  10.768 -0.4342 -0.2413  0.0210
  702MPD2    H310438   3.757   2.087  10.556  0.7875  0.0303  0.7585
  702MPD2     N10439   3.496   2.455  10.470 -0.1020  0.8575 -0.0983
  702MPD2    H510440   3.548   2.456  10.383  0.1435 -0.4617  0.0355
  702MPD2    N110441   3.457   2.202  10.882 -0.4512  0.2573 -0.8087
  702MPD2    H710442   3.392   2.274  10.911 -0.1194  0.4256 -0.4871
  703TMC3    C110443   3.387   2.630  10.361 -0.1105  0.1734 -0.3341
  703TMC3    C210444   3.260   2.661  10.316 -0.5947  0.0417 -0.0731
  703TMC3    C310445   3.253   2.741  10.200 -0.6320 -0.8035  0.1823
  703TMC3    C410446   3.502   2.657  10.294 -0.4514  0.2638 -0.2749
  703TMC3    C510447   3.491   2.737  10.186 -0.1149  0.3152  0.0953
  703TMC3    C610448   3.367   2.790  10.141 -0.8896  0.5346  0.1140
  703TMC3     C10449   3.393   2.535  10.476 -0.0904  0.5341  0.6431
  703TMC3     O10450   3.295   2.538  10.558 -0.8315 -0.5021  0.3510
  703TMC3     H10451   3.173   2.625  10.368 -0.1832 -2.2313 -0.9512
  703TMC3    H110452   3.598   2.624  10.333 -0.3313 -0.0642 -0.8334
  703TMC3    H210453   3.376   2.864  10.063 -1.2692  2.0769  1.5469
  703TMC3    C710454   3.615   2.805  10.139  0.2055  0.5405 -0.7824
  703TMC3    C810455   3.131   2.819  10.181  0.2122 -0.2286 -0.7107
  703TMC3    O110456   3.602   2.892  10.054  0.6116 -0.4002  0.2115
  703TMC3    O210457   3.134   2.910  10.097  0.1043  0.4442 -0.2594
  704TMC3    C110458   1.460   0.781  11.775 -0.3113 -0.2486 -0.0792
  704TMC3    C210459   1.342   0.757  11.702 -0.1529 -0.4091  0.6512
  704TMC3    C310460   1.272   0.640  11.738  0.0602  0.0947  0.0394
  704TMC3    C410461   1.521   0.694  11.861  0.3485 -0.2942 -0.0689
  704TMC3    C510462   1.440   0.585  11.887 -0.5168 -0.0869  0.7270
  704TMC3    C610463   1.320   0.549  11.829  0.1316  0.1868  0.2208
  704TMC3     C10464   1.533   0.909  11.754 -0.4576  0.1266 -0.0563
  704TMC3     O10465   1.632   0.936  11.823 -0.0094  0.0013 -0.6376
  704TMC3     H10466   1.307   0.820  11.622  0.5972  0.5425  1.0746
  704TMC3    H110467   1.621   0.715  11.898 -0.2835 -0.4267  1.6948
  704TMC3    H210468   1.256   0.469  11.865  2.5840 -2.0098 -0.3054
  704TMC3    C710469   1.475   0.487  11.985 -0.0387 -0.4900  0.1404
  704TMC3    C810470   1.129   0.625  11.714 -0.7358 -0.4962  0.2061
  704TMC3    O110471   1.431   0.376  11.960 -0.0143 -0.0447  0.0656
  704TMC3    O210472   1.081   0.513  11.723 -0.0277 -0.1670  0.2039
  705MPD2     C10473   0.409   3.378  16.656 -0.4533  0.4533  0.1223
  705MPD2    C110474   0.369   3.479  16.568 -0.9006  0.3032 -0.6313
  705MPD2    C210475   0.231   3.517  16.565  0.0510 -0.0719  0.0116
  705MPD2    C310476   0.142   3.443  16.634  0.5662  0.6274 -0.1616
  705MPD2    C410477   0.179   3.345  16.726 -0.1463  0.0806 -0.3706
  705MPD2    C510478   0.313   3.314  16.729  0.1413 -0.5825 -0.0456
  705MPD2     H10479   0.203   3.594  16.495  2.0021  1.5337  0.9873
  705MPD2    H110480   0.115   3.295  16.798  1.4020  0.2420  1.1288
  705MPD2    H210481   0.513   3.347  16.665 -0.6405 -0.6246 -1.2887
  705MPD2    H310482   0.349   3.228  16.784 -0.6300 -0.5047  0.5827
  705MPD2     N10483   0.002   3.479  16.636 -0.3847 -0.0547 -0.1903
  705MPD2    H510484   4.680   3.426  16.697  0.3902 -1.7977 -0.9298
  705MPD2    N110485   0.452   3.545  16.471  0.8885 -0.0900 -0.3921
  705MPD2    H710486   0.416   3.594  16.390 -0.5062  0.6723  0.6914
  706TMC3    C110487   0.775   3.635  16.179  0.5152 -1.3344  0.9279
  706TMC3    C210488   0.721   3.760  16.153  0.0656  0.1663  0.2442
  706TMC3    C310489   0.629   3.813  16.242 -0.0711 -0.3021 -0.3301
  706TMC3    C410490   0.741   3.559  16.290  0.0415  0.3122  0.1920
  706TMC3    C510491   0.647   3.620  16.372  0.1398  0.1303 -0.3313
  706TMC3    C610492   0.596   3.746  16.360 -0.2143 -0.4517 -1.3634
  706TMC3     C10493   0.871   3.569  16.086 -1.1474  0.4176 -0.1921
  706TMC3     O10494   0.931   3.473  16.128 -0.2611 -0.0354  0.2783
  706TMC3     H10495   0.753   3.813  16.064  0.7268 -0.7689 -0.0766
  706TMC3    H110496   0.778   3.458  16.302 -0.9548 -0.2481 -1.4402
  706TMC3    H210497   0.532   3.778  16.441  0.0203  1.7319 -2.0277
  706TMC3    C710498   0.589   3.543  16.470  0.4123  0.2440 -0.7484
  706TMC3    C810499   0.594   3.952  16.220 -0.2009 -0.8212  0.1270
  706TMC3    O110500   0.662   3.478  16.541 -0.4082  0.3383  0.1699
  706TMC3    O210501   0.616   3.996  16.109  0.2454  0.4042  0.4115
  707TMC3    C110502   1.327   2.143   0.498  0.0073 -0.1579  0.9004
  707TMC3    C210503   1.377   2.087   0.619 -0.4325 -0.8323  0.4446
  707TMC3    C310504   1.290   2.086   0.730 -0.1068  0.5152 -0.0603
  707TMC3    C410505   1.197   2.182   0.477  0.0552 -0.1759  0.3195
  707TMC3    C510506   1.109   2.160   0.577  0.0573  0.3572 -0.0960
  707TMC3    C610507   1.151   2.117   0.703 -0.0979  0.0433  0.4133
  707TMC3     C10508   1.430   2.143   0.394  0.4181 -0.6283 -0.0173
  707TMC3     O10509   1.522   2.063   0.413  0.1770  0.0552 -0.1939
  707TMC3     H10510   1.484   2.080   0.632 -0.1047  2.0148 -0.6353
  707TMC3    H110511   1.164   2.217   0.380  0.5978  0.5229  0.3901
  707TMC3    H210512   1.079   2.118   0.784 -0.1186  0.3694  0.3880
  707TMC3    C710513   0.966   2.197   0.554  0.1893  0.1880 -0.1716
  707TMC3    C810514   1.343   2.044   0.861 -0.0737  0.6956 -0.1250
  707TMC3    O110515   0.933   2.238   0.447 -0.6157 -0.0590 -0.4974
  707TMC3    O210516   1.265   2.033   0.952 -0.2392 -0.4122 -0.2689
  708MPD2     C10517   4.200   1.870  14.043 -0.1548  0.2450  0.1596
  708MPD2    C110518   4.259   1.757  13.986 -0.4018 -0.3458  0.6078
  708MPD2    C210519   4.249   1.632  14.050 -0.6601 -0.6650  0.1893
  708MPD2    C310520   4.199   1.625  14.176  0.6543 -0.5910  0.0671
  708MPD2    C410521   4.171   1.742  14.244 -0.1184  0.0626  1.0164
  708MPD2    C510522   4.158   1.862  14.173  0.0929 -0.2393 -0.0260
  708MPD2     H10523   4.277   1.545  13.993  1.0411  0.4490 -0.6562
  708MPD2    H110524   4.143   1.749  14.349 -1.0516 -0.8191  0.8223
  708MPD2    H210525   4.200   1.964  13.989  1.1000 -0.0601 -0.3834
  708MPD2    H310526   4.119   1.946  14.230 -1.3152  0.5533 -2.1498
  708MPD2     N10527   4.181   1.513  14.251  0.2792 -0.1070  0.0512
  708MPD2    H510528   4.142   1.530  14.342  0.5137 -1.7200  0.4594
  708MPD2    N110529   4.301   1.777  13.857  0.4915  0.4014  0.2335
  708MPD2    H710530   4.306   1.873  13.823 -2.3275  0.6027  0.3275
  709TMC3    C110531   4.368   1.715  13.635  0.3062 -0.4834  0.0332
  709TMC3    C210532   4.332   1.846  13.604  0.2116  0.2634  0.3552
  709TMC3    C310533   4.267   1.851  13.485  0.5046 -0.3112  0.3394
  709TMC3    C410534   4.354   1.610  13.548  0.7841  0.2536  0.4014
  709TMC3    C510535   4.286   1.627  13.431  0.2951  0.0669 -0.2482
  709TMC3    C610536   4.236   1.742  13.403  0.3521  0.1391 -0.2173
  709TMC3     C10537   4.341   1.674  13.771 -0.3832  0.2877 -0.0072
  709TMC3     O10538   4.327   1.556  13.784 -0.6546 -0.2112  0.1114
  709TMC3     H10539   4.341   1.935  13.666  1.1932  1.8274 -2.0070
  709TMC3    H110540   4.387   1.510  13.573  0.6803  0.4200  1.1799
  709TMC3    H210541   4.191   1.734  13.305 -1.4846  1.2172  0.5135
  709TMC3    C710542   4.181   1.532  13.426  0.1215 -0.0253 -1.0147
  709TMC3    C810543   4.225   1.982  13.436  0.4895  0.0358  1.0218
  709TMC3    O110544   4.123   1.517  13.315 -0.5533  0.4825 -0.1658
  709TMC3    O210545   4.255   2.073  13.513  0.2960 -0.8316 -0.4220
  710TMC3    C110546   4.021   3.021   0.226  0.0995 -0.4326  0.4093
  710TMC3    C210547   4.071   3.036   0.099 -0.0211  0.1198  0.1624
  710TMC3    C310548   4.142   2.931   0.051  0.0036 -0.9069 -0.4654
  710TMC3    C410549   4.038   2.904   0.293 -0.9546 -0.5061 -0.7027
  710TMC3    C510550   4.110   2.801   0.243  0.6855  0.4698  0.3595
  710TMC3    C610551   4.151   2.808   0.113 -0.4017  0.6580 -0.6676
  710TMC3     C10552   3.961   3.137   0.290  0.4115  0.4174  0.1621
  710TMC3     O10553   3.939   3.229   0.211 -0.6599  0.6625  0.1500
  710TMC3     H10554   4.051   3.125   0.040 -1.9736  1.0228  2.1521
  710TMC3    H110555   4.011   2.893   0.398  0.6416 -0.2434 -0.2582
  710TMC3    H210556   4.217   2.734   0.069 -1.0931  1.9675 -3.8644
  710TMC3    C710557   4.192   2.748   0.342 -0.8553 -0.1098  0.6188
  710TMC3    C810558   4.280   2.976   0.016  0.1163  0.9420  0.6388
  710TMC3    O110559   4.139   2.700   0.440  0.4670 -0.3459  0.0144
  710TMC3    O210560   4.370   2.911   0.063  0.1324  0.4483  0.0772
  711TMC3    C110561   4.595   4.338  14.771  0.1815  1.0289 -0.0933
  711TMC3    C210562   4.605   4.454  14.849 -0.1098  0.5198  0.7201
  711TMC3    C310563   4.692   4.441  14.954 -0.3065  1.0061 -0.1855
  711TMC3    C410564   4.670   4.226  14.791  0.4129  0.6855 -0.5080
  711TMC3    C510565   0.023   4.230  14.891 -0.0114 -0.2722  0.0109
  711TMC3    C610566   0.048   4.341  14.962 -0.0789  0.0914 -0.2673
  711TMC3     C10567   4.494   4.325  14.663 -0.3958  0.0157  0.6110
  711TMC3     O10568   4.458   4.215  14.633  0.0182 -1.0238 -0.8086
  711TMC3     H10569   4.531   4.533  14.844 -0.4190  0.1800 -0.0082
  711TMC3    H110570   4.651   4.136  14.733  0.7038  0.0137  0.4348
  711TMC3    H210571   0.117   4.336  15.046 -0.8268  0.3843  0.3666
  711TMC3    C710572   0.088   4.114  14.936  0.5785 -0.0303  0.2543
  711TMC3    C810573   4.657   4.503  15.083  0.0507  0.2652 -0.3059
  711TMC3    O110574   0.199   4.120  14.981  0.1464 -0.1198 -0.2715
  711TMC3    O210575   4.535   4.531  15.088 -0.4780 -0.1576  0.5563
  712MPD2     C10576   1.434   0.283  13.982 -0.8979  0.9609  0.3666
  712MPD2    C110577   1.395   0.323  13.853  0.7692  0.6888  0.3089
  712MPD2    C210578   1.471   0.417  13.788  0.4020 -0.2383 -0.4750
  712MPD2    C310579   1.561   0.494  13.854  0.6558  0.4278 -0.7332
  712MPD2    C410580   1.591   0.467  13.983  0.1895 -0.0560 -0.2826
  712MPD2    C510581   1.537   0.352  14.041  0.4929  0.4668 -0.5511
  712MPD2     H10582   1.443   0.451  13.688 -0.2366 -1.2055 -0.6217
  712MPD2    H110583   1.662   0.526  14.040 -0.7482 -1.8133  2.6811
  712MPD2    H210584   1.399   0.192  14.029 -2.1085  0.0105 -2.3859
  712MPD2    H310585   1.569   0.331  14.142 -0.1768  2.6716  0.1253
  712MPD2     N10586   1.625   0.604  13.791  0.4882  0.2870  0.1984
  712MPD2    H510587   1.670   0.661  13.861 -2.2034  1.4277  1.0186
  712MPD2    N110588   1.284   0.260  13.797 -0.1654 -0.0263  0.4573
  712MPD2    H710589   1.229   0.208  13.865 -0.8465 -0.0820 -0.1403
  713TMC3    C110590   1.643   0.797  13.646  0.2298 -0.7576 -0.2518
  713TMC3    C210591   1.732   0.871  13.721  0.2279 -0.1933  0.3203
  713TMC3    C310592   1.758   0.996  13.684  0.2218 -0.6117 -0.5000
  713TMC3    C410593   1.565   0.854  13.550  0.1770  0.8884  0.0223
  713TMC3    C510594   1.598   0.977  13.509 -0.7600 -0.0204  0.1265
  713TMC3    C610595   1.700   1.050  13.565  0.1345  0.1898  0.2273
  713TMC3     C10596   1.626   0.653  13.656  0.0407  0.1375 -0.3973
  713TMC3     O10597   1.580   0.588  13.562  0.1964 -0.0275  0.2348
  713TMC3     H10598   1.785   0.829  13.806  0.6266  3.0812  1.6800
  713TMC3    H110599   1.487   0.797  13.502  1.6378 -2.3277  1.4302
  713TMC3    H210600   1.735   1.144  13.523 -0.7084 -0.1586 -1.2398
  713TMC3    C710601   1.527   1.010  13.385  0.1528  0.4177  0.0972
  713TMC3    C810602   1.850   1.075  13.761  0.2876 -0.3489  0.3433
  713TMC3    O110603   1.416   0.961  13.370  0.1270 -0.4735 -0.2825
  713TMC3    O210604   1.835   1.200  13.753 -0.0203  0.3906  0.2192
  714MPD2     C10605   4.169   3.866   1.218 -0.2250 -0.4549 -0.2315
  714MPD2    C110606   4.034   3.846   1.236  0.2926  0.5734  0.1971
  714MPD2    C210607   3.943   3.939   1.202 -0.3637 -0.3720 -0.3047
  714MPD2    C310608   3.975   4.059   1.144 -0.7419  0.5926  0.2050
  714MPD2    C410609   4.113   4.086   1.136 -0.3831 -0.3801  0.7970
  714MPD2    C510610   4.207   3.995   1.172 -0.2269 -0.2550 -0.0592
  714MPD2     H10611   3.838   3.916   1.211 -0.6715  0.5847 -1.5612
  714MPD2    H110612   4.156   4.178   1.096  0.9459 -0.7933  1.2786
  714MPD2    H210613   4.234   3.787   1.251 -1.2025 -1.5677 -0.9882
  714MPD2    H310614   4.313   4.015   1.158 -0.4437  0.0403 -1.3055
  714MPD2     N10615   3.874   4.131   1.079 -0.2137  0.2966  0.3998
  714MPD2    H510616   3.777   4.112   1.101 -0.3217  1.0911  0.5943
  714MPD2    N110617   3.985   3.722   1.282 -1.0346  0.0567  0.8049
  714MPD2    H710618   4.048   3.644   1.263 -1.1421 -0.1227  1.2002
  715TMC3    C110619   3.861   3.566   1.414 -0.1026  0.7464 -0.1008
  715TMC3    C210620   3.847   3.468   1.312  0.6096  0.3731 -0.8629
  715TMC3    C310621   3.797   3.346   1.350  0.4740  0.4266 -0.7201
  715TMC3    C410622   3.828   3.543   1.546  0.7525  0.3579 -0.2284
  715TMC3    C510623   3.774   3.420   1.575  0.6039  0.0658 -0.2602
  715TMC3    C610624   3.760   3.319   1.478  0.5534  0.1960 -0.3110
  715TMC3     C10625   3.877   3.701   1.368 -0.4443  0.1962 -0.5517
  715TMC3     O10626   3.802   3.779   1.420  0.4998 -0.1031  0.6728
  715TMC3     H10627   3.863   3.489   1.207 -1.5286  2.4650 -0.7604
  715TMC3    H110628   3.840   3.617   1.624  0.0037  0.7051 -0.4456
  715TMC3    H210629   3.708   3.228   1.503  2.9688 -0.8773  0.7620
  715TMC3    C710630   3.779   3.370   1.705  0.0306  0.2775 -0.1698
  715TMC3    C810631   3.812   3.234   1.264 -0.5351  0.2433  0.5780
  715TMC3    O110632   3.817   3.257   1.709  0.1345 -0.2551 -0.7565
  715TMC3    O210633   3.809   3.259   1.144 -0.1519 -0.1865 -0.3119
  716MPD2     C10634   3.300   2.560   9.840 -0.6029  0.1949 -0.3421
  716MPD2    C110635   3.326   2.593   9.709 -0.1913  0.9537 -0.6594
  716MPD2    C210636   3.395   2.510   9.623  0.4783  0.2017  0.4769
  716MPD2    C310637   3.431   2.387   9.680  0.0809 -0.2729  0.5377
  716MPD2    C410638   3.399   2.352   9.810 -0.1292  0.1247  0.4663
  716MPD2    C510639   3.334   2.437   9.892  0.4985  0.2771 -0.3101
  716MPD2     H10640   3.415   2.531   9.519  1.6200 -1.5207  0.3463
  716MPD2    H110641   3.431   2.260   9.856 -0.2284 -1.3368 -2.3986
  716MPD2    H210642   3.245   2.624   9.908  0.9064  1.5693 -0.4149
  716MPD2    H310643   3.304   2.402   9.990  3.2826 -1.0174  0.0855
  716MPD2     N10644   3.502   2.298   9.594  0.1397 -0.0618 -0.5336
  716MPD2    H510645   3.534   2.337   9.506  0.1666 -2.4904 -1.6020
  716MPD2    N110646   3.286   2.723   9.661  0.0830 -0.2679  0.1538
  716MPD2    H710647   3.229   2.782   9.721 -0.6178 -0.6490 -0.1353
  717TMC3    C110648   3.565   2.086   9.490 -0.2667  0.4972 -0.7622
  717TMC3    C210649   3.541   2.143   9.365 -0.0543  0.1144 -0.8955
  717TMC3    C310650   3.522   2.056   9.261 -0.1467 -0.3400 -0.4306
  717TMC3    C410651   3.594   1.957   9.505  0.6542  0.5190 -0.7535
  717TMC3    C510652   3.587   1.874   9.397 -0.8157  0.0529 -0.1591
  717TMC3    C610653   3.542   1.922   9.275  0.0718 -0.5591 -0.1333
  717TMC3     C10654   3.529   2.168   9.611 -0.4648 -0.8702  0.2789
  717TMC3     O10655   3.501   2.097   9.706  0.1134  0.7882 -0.2659
  717TMC3     H10656   3.504   2.245   9.360 -1.9920 -0.4629  1.5034
  717TMC3    H110657   3.606   1.916   9.605 -0.4771 -0.7606 -1.1367
  717TMC3    H210658   3.521   1.852   9.195  0.2655 -0.5885 -0.1586
  717TMC3    C710659   3.619   1.736   9.425 -0.0944  0.4202 -0.0283
  717TMC3    C810660   3.424   2.109   9.162 -0.0641 -0.4085  0.4492
  717TMC3    O110661   3.661   1.703   9.536  0.3078  0.2465  0.3015
  717TMC3    O210662   3.406   2.234   9.160  0.3001 -0.4425  0.0629
  718MPD2     C10663   2.677   1.364  12.976 -0.0662 -0.4627 -0.2751
  718MPD2    C110664   2.615   1.286  12.879 -0.4362  0.2327  0.3090
  718MPD2    C210665   2.596   1.151  12.904  0.4823 -0.3253  0.1827
  718MPD2    C310666   2.638   1.084  13.018  0.6718 -0.4802 -0.2594
  718MPD2    C410667   2.699   1.161  13.109  0.3289 -0.1449  0.2003
  718MPD2    C510668   2.714   1.297  13.087 -0.6741 -0.5518 -0.0278
  718MPD2     H10669   2.544   1.101  12.823  0.4217  0.9271 -0.5434
  718MPD2    H110670   2.720   1.133  13.212  1.8727  1.1097  0.2272
  718MPD2    H210671   2.693   1.471  12.977  0.7350 -0.5639 -1.4425
  718MPD2    H310672   2.749   1.356  13.171  0.9398 -0.2065 -0.9358
  718MPD2     N10673   2.601   0.946  13.031 -0.7696  0.4617  0.1285
  718MPD2    H510674   2.561   0.912  12.944  2.2674 -1.5930 -0.4771
  718MPD2    N110675   2.581   1.349  12.759 -0.2939  0.0774 -0.1242
  718MPD2    H710676   2.603   1.448  12.752  0.4366 -0.0594  0.3195
  719TMC3    C110677   2.497   1.367  12.526  0.5516  0.4184 -0.6671
  719TMC3    C210678   2.416   1.293  12.449 -0.5205  0.6544 -0.1235
  719TMC3    C310679   2.459   1.263  12.325  0.1062  0.0345 -0.0939
  719TMC3    C410680   2.610   1.422  12.481 -0.7366  0.0157  0.6522
  719TMC3    C510681   2.641   1.405  12.350  0.6030 -0.1717  0.5024
  719TMC3    C610682   2.567   1.321  12.269 -0.8017 -0.1602  0.2344
  719TMC3     C10683   2.503   1.296  12.655 -0.1197 -0.2596 -0.0583
  719TMC3     O10684   2.435   1.196  12.657 -0.0050  0.5537 -0.2506
  719TMC3     H10685   2.319   1.260  12.486  0.3939 -0.0098  1.6575
  719TMC3    H110686   2.679   1.469  12.550  0.8120  0.6057 -1.3281
  719TMC3    H210687   2.605   1.307  12.168 -1.2698  0.5631 -0.0405
  719TMC3    C710688   2.763   1.468  12.304  0.5379  0.2483  0.2863
  719TMC3    C810689   2.462   1.122  12.299  0.5412  0.0833  0.4689
  719TMC3    O110690   2.837   1.396  12.239  0.2836  0.3511  0.0554
  719TMC3    O210691   2.479   1.082  12.188  0.3315  0.6657 -0.8124
  720MPD2     C10692   1.096   2.571  13.842  0.5161 -0.2037  0.6474
  720MPD2    C110693   1.200   2.599  13.769 -0.1683  0.2042 -0.0581
  720MPD2    C210694   1.331   2.567  13.814  0.5142  0.2757  0.2270
  720MPD2    C310695   1.355   2.510  13.936 -0.7214  0.0953  0.5558
  720MPD2    C410696   1.251   2.487  14.015  0.0116 -0.7393  0.6226
  720MPD2    C510697   1.126   2.510  13.961  0.6156 -0.2671 -0.1292
  720MPD2     H10698   1.421   2.600  13.763  0.0456  1.4532  0.1601
  720MPD2    H110699   1.259   2.437  14.110  0.0984 -0.1908  0.9071
  720MPD2    H210700   0.996   2.607  13.825  0.6488  0.0680  0.4482
  720MPD2    H310701   1.043   2.492  14.028 -0.3126  1.8506 -0.7387
  720MPD2     N10702   1.489   2.496  13.981  0.1209  0.0754 -0.2069
  720MPD2    H510703   1.560   2.527  13.916  0.1174 -0.1530 -0.3227
  720MPD2    N110704   1.195   2.666  13.644  0.0781  0.1398 -0.6559
  720MPD2    H710705   1.280   2.687  13.593  0.3642 -0.0946 -0.2846
  721TMC3    C110706   1.670   2.458  14.130  0.2849  0.1396 -0.8329
  721TMC3    C210707   1.708   2.498  14.251 -0.2941  1.2134  0.2622
  721TMC3    C310708   1.838   2.528  14.267  0.2938 -0.4740  0.5170
  721TMC3    C410709   1.760   2.445  14.022  0.1988 -0.2827 -0.2134
  721TMC3    C510710   1.892   2.461  14.053  0.1757  0.7406  0.1722
  721TMC3    C610711   1.932   2.509  14.174 -0.2888 -0.3740  0.3166
  721TMC3     C10712   1.522   2.458  14.108 -0.3272 -0.3447  0.6399
  721TMC3     O10713   1.464   2.418  14.208  0.0107  0.0188  0.0924
  721TMC3     H10714   1.635   2.526  14.327  0.5045  1.8155  0.8022
  721TMC3    H110715   1.721   2.408  13.928 -1.3908  1.7238 -0.3498
  721TMC3    H210716   2.032   2.532  14.206 -0.1182 -0.7487  0.0562
  721TMC3    C710717   1.993   2.448  13.940 -0.1978  0.7281  0.4836
  721TMC3    C810718   1.884   2.567  14.401  0.6422 -0.0115 -0.0297
  721TMC3    O110719   2.110   2.459  13.979  0.0520  0.5545  0.3908
  721TMC3    O210720   1.990   2.519  14.436  1.1879  0.0106 -0.3116
  722MPD2     C10721   0.605   0.752  13.028 -0.2037  0.2784 -0.0588
  722MPD2    C110722   0.571   0.878  13.073  0.8007  0.2356  0.5891
  722MPD2    C210723   0.456   0.895  13.143  0.1499  0.4447  0.4639
  722MPD2    C310724   0.378   0.783  13.182 -0.1670 -0.2368 -0.3650
  722MPD2    C410725   0.417   0.656  13.145 -0.2713 -0.4676  0.1608
  722MPD2    C510726   0.525   0.640  13.062 -0.3760 -0.6002  1.2843
  722MPD2     H10727   0.433   0.995  13.178 -0.2505  0.8567 -0.9737
  722MPD2    H110728   0.363   0.565  13.169 -0.9671 -0.3074 -0.8029
  722MPD2    H210729   0.698   0.731  12.977  1.6834  1.3951  2.8882
  722MPD2    H310730   0.548   0.542  13.021  4.1230  0.5636  0.9862
  722MPD2     N10731   0.266   0.812  13.256  0.0084 -0.4940 -0.8504
  722MPD2    H510732   0.249   0.908  13.284  0.0615 -1.1299  1.4058
  722MPD2    N110733   0.645   0.994  13.042  0.6841  0.3733 -0.6830
  722MPD2    H710734   0.610   1.083  13.074  1.8697  0.6873 -0.2331
  723TMC3    C110735   0.065   0.792  13.370 -0.6436  0.8304  0.6968
  723TMC3    C210736   4.674   0.764  13.337  0.3411  0.5828  0.2306
  723TMC3    C310737   4.578   0.846  13.395  0.5739 -0.5633 -0.5196
  723TMC3    C410738   0.108   0.878  13.461 -0.4797  0.2524 -0.4255
  723TMC3    C510739   0.011   0.957  13.514 -1.1515  0.2111  0.1693
  723TMC3    C610740   4.617   0.940  13.490 -0.4111  0.5299  1.2384
  723TMC3     C10741   0.169   0.723  13.292 -0.6430 -0.4710  0.1410
  723TMC3     O10742   0.143   0.616  13.241 -0.1935  0.2143  0.1056
  723TMC3     H10743   4.643   0.692  13.262 -0.9914  1.8081 -0.3871
  723TMC3    H110744   0.212   0.894  13.486 -0.1968 -1.2200 -0.6467
  723TMC3    H210745   4.538   1.004  13.524 -0.7345  0.9797 -0.3745
  723TMC3    C710746   0.049   1.069  13.599 -0.3258  0.6182 -0.4211
  723TMC3    C810747   4.431   0.843  13.369  0.1930  0.3614  0.5230
  723TMC3    O110748   0.141   1.137  13.550 -0.0012 -0.1742 -0.2998
  723TMC3    O210749   4.358   0.883  13.455  0.3837 -0.0387 -0.3067
  724TMC3    C110750   0.574   4.062  10.204 -0.6253  0.6695 -0.6786
  724TMC3    C210751   0.653   4.111  10.111 -0.3896  0.2078 -0.3155
  724TMC3    C310752   0.755   4.191  10.150  0.1205  0.9003 -0.3234
  724TMC3    C410753   0.567   4.115  10.328  0.0986  0.1352  0.2926
  724TMC3    C510754   0.662   4.218  10.366  0.3134 -0.3092 -0.7693
  724TMC3    C610755   0.766   4.239  10.279 -0.0942  0.3300  0.0654
  724TMC3     C10756   0.446   4.001  10.149  0.1570  0.3886 -0.3261
  724TMC3     O10757   0.357   3.966  10.224 -1.2010  0.1116 -0.4140
  724TMC3     H10758   0.670   4.058  10.018 -2.8287 -0.4371 -0.3870
  724TMC3    H110759   0.491   4.085  10.399  0.5186  0.6936  0.9859
  724TMC3    H210760   0.853   4.294  10.311 -0.7336  1.5055 -0.2054
  724TMC3    C710761   0.626   4.299  10.481  0.6212  1.2905 -0.0394
  724TMC3    C810762   0.862   4.218  10.057  0.3946 -0.0523 -0.0748
  724TMC3    O110763   0.538   4.258  10.553 -0.2936  0.0893 -0.2112
  724TMC3    O210764   0.907   4.126   9.994 -0.5277 -0.3909  0.7631
  725TMC3    C110765   2.197   3.124  12.418  0.2772  0.7918 -0.2188
  725TMC3    C210766   2.073   3.158  12.373 -0.2189 -0.2665  0.4282
  725TMC3    C310767   2.048   3.132  12.242 -0.8426 -0.1536  0.3482
  725TMC3    C410768   2.296   3.060  12.341  0.2643  0.1941 -0.1441
  725TMC3    C510769   2.250   3.038  12.209 -0.6128  0.1626  0.9109
  725TMC3    C610770   2.134   3.071  12.157 -1.1180 -0.3448  0.0976
  725TMC3     C10771   2.226   3.156  12.555  0.0729 -0.4559 -0.2867
  725TMC3     O10772   2.153   3.238  12.607 -0.3778 -0.2428  0.2392
  725TMC3     H10773   2.014   3.226  12.434 -1.3074 -0.8881  0.0632
  725TMC3    H110774   2.396   3.038  12.377 -0.0423  0.7742  1.0456
  725TMC3    H210775   2.114   3.063  12.051  0.6138 -0.6923 -0.2121
  725TMC3    C710776   2.333   2.947  12.121 -0.3278 -0.3908 -0.1819
  725TMC3    C810777   1.916   3.172  12.195 -0.2425 -0.5856  0.5599
  725TMC3    O110778   2.313   2.969  12.004  0.1490 -0.2812 -0.1594
  725TMC3    O210779   1.824   3.176  12.276 -0.1978  0.4863 -0.2101
  726MPD2     C10780   4.662   4.462  10.314 -0.2654 -0.4109  0.4766
  726MPD2    C110781   4.600   4.465  10.187  0.7800 -0.1183  0.4324
  726MPD2    C210782   4.501   4.376  10.169 -0.0327  0.8440  0.4624
  726MPD2    C310783   4.467   4.282  10.268 -0.3429 -0.1194 -0.2973
  726MPD2    C410784   4.516   4.297  10.391  0.0159  0.9618  0.0242
  726MPD2    C510785   4.615   4.386  10.416  0.3958 -0.3300  0.3085
  726MPD2     H10786   4.460   4.367  10.069  0.5747  0.4832  0.2481
  726MPD2    H110787   4.500   4.229  10.473 -1.1098  0.5953 -0.5056
  726MPD2    H210788   0.003   4.530  10.342  0.0772  0.1049 -1.7659
  726MPD2    H310789   4.659   4.375  10.514  0.0987  1.7777  0.6831
  726MPD2     N10790   4.370   4.181  10.251 -0.4148 -0.2349  0.0956
  726MPD2    H510791   4.364   4.111  10.323 -0.4453  2.2128  2.4946
  726MPD2    N110792   4.633   4.563  10.086 -0.1754 -0.1719 -0.3462
  726MPD2    H710793   4.578   4.574  10.002 -0.5112 -3.9514 -0.5791
  727TMC3    C110794   4.709   0.040  10.009 -0.0356 -0.3578  0.3585
  727TMC3    C210795   0.052   0.145  10.042  0.3879 -0.1350  0.8274
  727TMC3    C310796   4.739   0.276  10.036  0.0071  0.0716  0.7701
  727TMC3    C410797   4.582   0.064   9.970  0.0823  0.4528  0.3054
  727TMC3    C510798   4.538   0.191   9.966 -0.3463  0.5999 -0.2529
  727TMC3    C610799   4.610   0.298  10.007 -0.1093 -0.2960 -0.2445
  727TMC3     C10800   4.724   4.670  10.103 -0.4219  0.1756 -0.2046
  727TMC3     O10801   0.044   4.705  10.200  1.0004 -0.5615  0.1343
  727TMC3     H10802   0.155   0.129  10.073  0.8615 -1.1361 -1.2905
  727TMC3    H110803   4.511   4.729   9.935  2.5158 -1.3345 -0.8305
  727TMC3    H210804   4.571   0.399  10.000  0.7929  0.0652 -0.1109
  727TMC3    C710805   4.399   0.216   9.922  0.2608  0.0581 -0.0923
  727TMC3    C810806   0.074   0.378  10.104 -0.2045 -0.5960 -0.3201
  727TMC3    O110807   4.351   0.139   9.840 -0.0521  0.3012 -0.1747
  727TMC3    O210808   0.172   0.332  10.162  0.2161  0.4927  0.7810
  728TMC3    C110809   4.208   3.369  15.054 -0.2338 -0.6445 -1.0087
  728TMC3    C210810   4.337   3.391  15.018  0.1385 -0.0635  0.4209
  728TMC3    C310811   4.360   3.430  14.894  0.2742  0.1447 -0.2276
  728TMC3    C410812   4.107   3.385  14.967  0.0824  0.3242 -0.7626
  728TMC3    C510813   4.133   3.430  14.846 -0.2635 -0.3569 -0.1564
  728TMC3    C610814   4.257   3.438  14.801  0.0673  0.4796 -0.9002
  728TMC3     C10815   4.186   3.337  15.190 -0.9029 -0.1801  0.1109
  728TMC3     O10816   4.269   3.376  15.273  0.1142 -0.0649  0.1641
  728TMC3     H10817   4.412   3.392  15.097  1.0429 -0.3839 -0.4240
  728TMC3    H110818   4.005   3.370  15.001  1.0790 -1.4294  1.5163
  728TMC3    H210819   4.282   3.441  14.695 -0.2078 -0.2926 -0.9862
  728TMC3    C710820   4.032   3.409  14.743 -0.6630  0.3554  0.0111
  728TMC3    C810821   4.492   3.386  14.835  0.5269  1.5400 -0.1714
  728TMC3    O110822   3.957   3.309  14.754 -0.0638  0.1704 -0.2795
  728TMC3    O210823   4.532   3.456  14.736 -0.4797 -0.1031  0.0011
  729MPD2     C10824   1.215   4.091  16.740  0.1203 -0.2295  0.0390
  729MPD2    C110825   1.299   4.203  16.751  0.6249  0.6605  0.5412
  729MPD2    C210826   1.277   4.295  16.849  0.3885  0.2680 -0.2972
  729MPD2    C310827   1.165   4.293  16.933 -0.1666  0.7475 -0.5889
  729MPD2    C410828   1.089   4.182  16.922 -0.3794  0.0207  1.0461
  729MPD2    C510829   1.109   4.083  16.823 -0.1240 -0.1106 -0.4058
  729MPD2     H10830   1.351   4.373  16.856  0.4728  0.0476  1.2706
  729MPD2    H110831   1.007   4.178  16.992 -2.4093  4.0561 -1.0817
  729MPD2    H210832   1.238   4.017  16.664  0.1858 -0.3507  0.1760
  729MPD2    H310833   1.051   3.993  16.808 -0.1412 -0.1073 -0.3604
  729MPD2     N10834   1.133   4.393  17.019 -0.2585  0.0916  0.0971
  729MPD2    H510835   1.055   4.380  17.083 -1.2255  1.6716 -0.7367
  729MPD2    N110836   1.402   4.217  16.656 -0.0585 -0.1040  0.0481
  729MPD2    H710837   1.409   4.150  16.580 -0.2878  0.4555 -0.4717
  730TMC3    C110838   1.163   4.593  17.143 -0.1089  0.2798  0.1102
  730TMC3    C210839   1.153   4.527  17.257 -0.1259 -0.4618  0.1759
  730TMC3    C310840   1.205   4.596  17.363 -0.2360 -0.1260  0.8346
  730TMC3    C410841   1.218   4.719  17.131 -0.4177 -0.0298 -0.1606
  730TMC3    C510842   1.262   0.047  17.245 -0.4875  0.1567 -0.1721
  730TMC3    C610843   1.254   4.723  17.367  0.6575  0.1480 -0.2144
  730TMC3     C10844   1.192   4.520  17.019  0.1414 -0.1403  0.2340
  730TMC3     O10845   1.251   4.572  16.926  0.8053  0.0181 -0.1407
  730TMC3     H10846   1.144   4.419  17.259 -2.5360 -0.2552  0.6407
  730TMC3    H110847   1.224   0.034  17.037  1.1550 -1.1410 -0.7067
  730TMC3    H210848   1.291   0.030  17.457  1.1126  0.2990 -0.4777
  730TMC3    C710849   1.361   0.147  17.221 -0.3694  0.0874 -0.3222
  730TMC3    C810850   1.225   4.513  17.481 -0.5243 -0.4433 -0.1487
  730TMC3    O110851   1.411   0.154  17.110 -0.0753  0.6788 -0.1889
  730TMC3    O210852   1.141   4.429  17.495 -0.2669 -0.9327  0.3985
  731MPD2     C10853   1.316   2.836  12.086  0.2351 -0.7443  0.6585
  731MPD2    C110854   1.276   2.709  12.045 -0.3002  0.2180  0.1057
  731MPD2    C210855   1.187   2.634  12.126  0.3900 -0.6779 -0.4088
  731MPD2    C310856   1.155   2.680  12.252  0.3121 -0.2443 -0.3282
  731MPD2    C410857   1.202   2.804  12.301  0.1732 -0.7879  0.0371
  731MPD2    C510858   1.280   2.879  12.217  0.0763 -0.0820 -0.5237
  731MPD2     H10859   1.125   2.553  12.089  0.2550  0.5988 -2.9217
  731MPD2    H110860   1.176   2.841  12.400  3.4012  0.7676  0.2904
  731MPD2    H210861   1.381   2.894  12.021  0.7427  0.4606  2.2530
  731MPD2    H310862   1.324   2.969  12.258  1.4543 -0.9158 -0.1929
  731MPD2     N10863   1.075   2.595  12.337  0.3271 -0.5525  0.1624
  731MPD2    H510864   1.043   2.512  12.288 -0.3394  0.1886 -0.6803
  731MPD2    N110865   1.312   2.672  11.911  0.1733 -0.2422  0.0504
  731MPD2    H710866   1.378   2.730  11.862  1.0128 -0.8588  0.4468
  732TMC3    C110867   1.327   2.525  11.719 -0.2863 -1.1638 -0.2344
  732TMC3    C210868   1.259   2.426  11.661  0.5542  0.0020 -0.5324
  732TMC3    C310869   1.329   2.352  11.566 -0.2262  1.0651  0.6370
  732TMC3    C410870   1.462   2.544  11.710  0.1164 -0.8645 -0.3763
  732TMC3    C510871   1.521   2.482  11.602 -0.3227 -0.3497 -0.7743
  732TMC3    C610872   1.456   2.385  11.532  0.6687 -0.7548 -0.0626
  732TMC3     C10873   1.272   2.556  11.846 -0.5374  0.5581 -0.5797
  732TMC3     O10874   1.201   2.465  11.887  0.4133  0.2650  0.2870
  732TMC3     H10875   1.153   2.413  11.679  0.7052  0.5623  0.7727
  732TMC3    H110876   1.520   2.615  11.768 -1.4145  1.2003 -1.3786
  732TMC3    H210877   1.508   2.336  11.450  1.8618 -1.9002  1.3779
  732TMC3    C710878   1.656   2.514  11.569  0.0571 -0.1925 -1.0129
  732TMC3    C810879   1.251   2.265  11.478  0.7694 -0.3945  0.2524
  732TMC3    O110880   1.722   2.417  11.536  0.5140 -0.0288  0.3146
  732TMC3    O210881   1.270   2.281  11.356 -0.0548  0.2926  0.6883
  733TMC3    C110882   2.436   0.548  13.168 -0.8632  0.3795 -0.1741
  733TMC3    C210883   2.518   0.653  13.207 -1.0400  1.1738 -0.4692
  733TMC3    C310884   2.579   0.725  13.109  0.3317  0.7192  0.2793
  733TMC3    C410885   2.402   0.527  13.037  0.4727  0.5150 -0.1920
  733TMC3    C510886   2.476   0.595  12.947 -0.3388  0.5788  0.1979
  733TMC3    C610887   2.568   0.693  12.977 -0.3197  0.0393  0.4225
  733TMC3     C10888   2.368   0.476  13.275  0.1320 -0.4204  0.1575
  733TMC3     O10889   2.372   0.520  13.392  0.1879 -0.2681  0.4615
  733TMC3     H10890   2.538   0.683  13.309 -2.8336 -2.1611  0.8505
  733TMC3    H110891   2.334   0.450  13.005  1.2030  0.7438 -2.2744
  733TMC3    H210892   2.623   0.741  12.897  2.0990 -0.8725  1.5526
  733TMC3    C710893   2.447   0.580  12.807 -0.2909  0.2202 -0.7289
  733TMC3    C810894   2.620   0.864  13.136  0.1729 -0.0603 -0.0794
  733TMC3    O110895   2.419   0.469  12.763  0.3299 -0.7913 -0.2278
  733TMC3    O210896   2.653   0.892  13.251  0.4371  0.5367  0.1393
  734MPD2     C10897   0.370   2.617  12.090 -0.1870  0.1825 -0.0917
  734MPD2    C110898   0.235   2.609  12.076 -0.6068  0.1182 -0.4749
  734MPD2    C210899   0.181   2.650  11.953 -0.4750 -0.2198 -0.4144
  734MPD2    C310900   0.261   2.691  11.847 -0.0624 -0.1553  0.2526
  734MPD2    C410901   0.404   2.681  11.855  0.0781 -0.3652 -0.1420
  734MPD2    C510902   0.450   2.661  11.985  0.1767  0.3167 -0.0941
  734MPD2     H10903   0.075   2.653  11.929 -0.5237 -0.7322 -0.2516
  734MPD2    H110904   0.476   2.696  11.776 -0.7612  1.8844 -0.4862
  734MPD2    H210905   0.427   2.595  12.180 -3.0137  0.1472  1.6927
  734MPD2    H310906   0.556   2.668  12.008  0.6825 -0.0587 -2.3526
  734MPD2     N10907   0.198   2.713  11.724 -0.0902  0.2156  0.5938
  734MPD2    H510908   0.098   2.699  11.715  0.0295 -0.2405 -0.0183
  734MPD2    N110909   0.159   2.561  12.182  0.0033  0.6103  0.4344
  734MPD2    H710910   0.201   2.531  12.269  2.2054  1.0516 -0.4820
  735TMC3    C110911   4.704   2.467  12.286 -0.2077  0.0487 -0.0581
  735TMC3    C210912   4.570   2.457  12.263 -0.8110  0.8280 -0.1239
  735TMC3    C310913   4.508   2.338  12.231 -0.2380 -0.6132  0.7345
  735TMC3    C410914   0.034   2.351  12.292  0.3056 -1.0164  0.5692
  735TMC3    C510915   4.717   2.240  12.251 -0.4712  0.1122 -0.3753
  735TMC3    C610916   4.585   2.229  12.222  0.6558  0.5000  0.3371
  735TMC3     C10917   0.018   2.564  12.197 -0.7813  0.1133 -0.7738
  735TMC3     O10918   4.674   2.611  12.119  0.4497 -0.1378  0.4935
  735TMC3     H10919   4.504   2.544  12.258  1.4550  2.4395 -1.9410
  735TMC3    H110920   0.139   2.346  12.320  0.3672 -1.1890  0.3066
  735TMC3    H210921   4.549   2.135  12.181 -1.4423  2.7557 -2.9821
  735TMC3    C710922   0.067   2.151  12.179  0.0558  0.7336  0.4130
  735TMC3    C810923   4.404   2.357  12.136 -0.8371  0.3748  1.0112
  735TMC3    O110924   0.184   2.178  12.164 -0.0190 -0.6869  0.2899
  735TMC3    O210925   4.299   2.293  12.143 -0.4761 -0.1441 -0.1622
  736MPD2     C10926   0.060   1.815  12.028 -0.3598 -0.1525 -0.4139
  736MPD2    C110927   0.075   1.952  12.030 -0.3133  0.0957 -0.9765
  736MPD2    C210928   0.131   2.011  11.920  0.2719  0.0867 -0.0238
  736MPD2    C310929   0.181   1.934  11.817  0.3225  0.0852 -0.6875
  736MPD2    C410930   0.167   1.791  11.823 -0.2633 -0.6156 -0.3705
  736MPD2    C510931   0.120   1.734  11.938 -0.3620  0.3118  0.9466
  736MPD2     H10932   0.136   2.119  11.919  0.5294  0.0517 -3.0183
  736MPD2    H110933   0.200   1.724  11.745  2.2852  2.5919 -2.0667
  736MPD2    H210934   0.003   1.768  12.108  0.0369  2.5228  1.4302
  736MPD2    H310935   0.123   1.625  11.942  1.8409  0.2596 -1.3646
  736MPD2     N10936   0.238   1.989  11.698 -0.2610  0.0291 -0.1480
  736MPD2    H510937   0.257   1.917  11.629  1.5422 -0.2792  0.6487
  736MPD2    N110938   0.010   2.028  12.131  0.4377 -0.5046  0.2932
  736MPD2    H710939   4.677   1.990  12.191 -0.8297  0.7283 -0.4543
  737TMC3    C110940   0.325   2.149  11.543  0.5335  0.4238 -0.0191
  737TMC3    C210941   0.307   2.270  11.502  0.5357  0.0796  0.5904
  737TMC3    C310942   0.307   2.289  11.368  0.0173  0.0953  0.4814
  737TMC3    C410943   0.367   2.041  11.467 -0.0496  0.2253 -0.1135
  737TMC3    C510944   0.383   2.070  11.336 -0.3250  0.2793 -0.1795
  737TMC3    C610945   0.338   2.190  11.284 -0.0619 -0.1216 -0.1383
  737TMC3     C10946   0.263   2.122  11.671 -0.2781  0.3370 -0.2092
  737TMC3     O10947   0.224   2.218  11.741 -0.2854  0.2823  0.2644
  737TMC3     H10948   0.271   2.344  11.572  0.0408  0.3675  0.0276
  737TMC3    H110949   0.413   1.958  11.519 -0.3343  1.2144  1.7204
  737TMC3    H210950   0.351   2.204  11.178  0.4225  1.9873  0.2067
  737TMC3    C710951   0.465   1.976  11.269 -0.2480 -0.7544  0.1301
  737TMC3    C810952   0.312   2.427  11.334  0.3621  0.5321  0.7546
  737TMC3    O110953   0.479   1.866  11.311 -0.1102 -0.0689 -0.6784
  737TMC3    O210954   0.361   2.493  11.418  0.3468 -0.4361  1.3487
  738MPD2     C10955   0.393   1.596  15.144 -0.0965  0.2727 -0.3827
  738MPD2    C110956   0.521   1.563  15.133 -0.5767 -0.5450 -0.1325
  738MPD2    C210957   0.615   1.639  15.059 -0.6129 -0.3254 -0.1712
  738MPD2    C310958   0.567   1.746  14.987  0.1487  0.5127  0.3776
  738MPD2    C410959   0.433   1.785  15.002 -0.6370  0.5286  0.2318
  738MPD2    C510960   0.347   1.703  15.075  0.9366 -0.4331 -0.0053
  738MPD2     H10961   0.717   1.602  15.052 -0.7102 -0.7897  0.9373
  738MPD2    H110962   0.388   1.871  14.954 -0.0736  0.4256 -0.4746
  738MPD2    H210963   0.327   1.535  15.204 -2.5076  1.1302 -2.1811
  738MPD2    H310964   0.243   1.727  15.090  0.6422 -1.7847  0.0989
  738MPD2     N10965   0.654   1.809  14.895  0.0411 -0.1741  0.5662
  738MPD2    H510966   0.746   1.766  14.892 -0.8604 -2.0445 -0.6923
  738MPD2    N110967   0.566   1.436  15.181 -0.1074 -0.1928 -0.0374
  738MPD2    H710968   0.662   1.411  15.160  0.6461  1.8359  0.9572
  739TMC3    C110969   0.741   1.923  14.721  0.9042 -0.4519  0.7387
  739TMC3    C210970   0.749   1.896  14.586 -0.5886  0.4311  0.5267
  739TMC3    C310971   0.873   1.870  14.531  0.2883 -0.1183  0.2698
  739TMC3    C410972   0.854   1.913  14.800 -0.0766 -0.1388  0.1816
  739TMC3    C510973   0.968   1.885  14.740  0.6007  1.5861 -0.1873
  739TMC3    C610974   0.983   1.868  14.605  0.0117 -0.8739  0.5933
  739TMC3     C10975   0.619   1.905  14.798 -0.1538  0.0011 -0.4409
  739TMC3     O10976   0.516   1.947  14.752 -0.2689 -0.2421  0.1062
  739TMC3     H10977   0.660   1.895  14.523  1.5129  2.6127 -2.5001
  739TMC3    H110978   0.855   1.951  14.902 -0.3110 -0.1002  0.1684
  739TMC3    H210979   1.077   1.825  14.571  0.3967  0.2164  0.2832
  739TMC3    C710980   1.083   1.888  14.825 -0.2199  0.4285 -0.2673
  739TMC3    C810981   0.889   1.851  14.391 -0.5256 -0.1782 -0.9658
  739TMC3    O110982   1.069   1.850  14.941 -0.0192  0.1374  0.3224
  739TMC3    O210983   0.797   1.792  14.335 -0.4615  0.4568 -0.3368
  740TMC3    C110984   1.155   2.941  14.176  0.8407  0.3710  0.0775
  740TMC3    C210985   1.220   2.877  14.282  0.6450 -0.8140 -0.0697
  740TMC3    C310986   1.351   2.837  14.256 -0.3400  0.0408 -0.2054
  740TMC3    C410987   1.214   2.966  14.057  0.7190  0.2901 -0.0811
  740TMC3    C510988   1.340   2.907  14.040  0.3071  0.1554 -0.9787
  740TMC3    C610989   1.412   2.839  14.139 -0.5318 -0.6508 -0.5219
  740TMC3     C10990   1.036   3.025  14.209  0.1233  0.5336  0.4724
  740TMC3     O10991   1.011   3.118  14.135  0.3135  0.3126  0.0053
  740TMC3     H10992   1.172   2.866  14.379  0.7103  0.8997  0.1418
  740TMC3    H110993   1.168   3.037  13.989 -2.3951 -3.1929 -1.6221
  740TMC3    H210994   1.512   2.804  14.121 -0.8066 -1.3982 -0.5796
  740TMC3    C710995   1.392   2.891  13.905 -0.1243 -0.5494  0.5017
  740TMC3    C810996   1.407   2.744  14.348  1.0319  0.4413  0.0907
  740TMC3    O110997   1.497   2.832  13.900  0.3879  0.6837 -0.1317
  740TMC3    O210998   1.526   2.755  14.368 -0.0407 -0.3924 -0.1219
  741TMC3    C110999   0.801   2.245  14.175  0.2615 -0.0931 -0.4645
  741TMC3    C211000   0.682   2.170  14.160 -0.5277  0.3978 -0.9247
  741TMC3    C311001   0.634   2.130  14.283 -0.5710 -0.2597  0.3508
  741TMC3    C411002   0.865   2.280  14.290 -1.0981  0.7981  0.2048
  741TMC3    C511003   0.800   2.247  14.398 -1.0812 -0.4080 -0.3358
  741TMC3    C611004   0.681   2.172  14.404  0.8064  0.1585  0.0170
  741TMC3     C11005   0.914   2.233  14.076  0.0560  0.4436 -0.3063
  741TMC3     O11006   1.031   2.266  14.110 -0.5555  0.2777 -1.0319
  741TMC3     H11007   0.639   2.143  14.064 -1.4338  0.2610 -0.4820
  741TMC3    H111008   0.950   2.347  14.298 -2.3519  2.3962  0.1218
  741TMC3    H211009   0.646   2.122  14.493 -2.6966  1.4354 -0.6570
  741TMC3    C711010   0.885   2.242  14.516  0.1827 -0.3368 -0.0335
  741TMC3    C811011   0.518   2.047  14.299  0.0454  0.2104 -0.1898
  741TMC3    O111012   1.009   2.233  14.511  0.1571  0.3370 -0.2213
  741TMC3    O211013   0.456   2.038  14.403  0.2679 -0.1819  0.6572
  742TMC3    C111014   0.755   0.681  14.629 -0.2129  0.4411 -1.3211
  742TMC3    C211015   0.673   0.651  14.527 -0.4155 -0.9114 -0.7362
  742TMC3    C311016   0.677   0.521  14.483  0.2161  0.0580 -0.2019
  742TMC3    C411017   0.839   0.594  14.688  0.1887  0.5717  0.4579
  742TMC3    C511018   0.829   0.467  14.649 -0.0345  0.5714 -0.2272
  742TMC3    C611019   0.751   0.426  14.541 -0.2564 -0.0028  0.0276
  742TMC3     C11020   0.801   0.819  14.633  0.6962 -0.2535 -0.9577
  742TMC3     O11021   0.788   0.881  14.526  0.9765 -0.0394 -0.0701
  742TMC3     H11022   0.616   0.727  14.476  1.0920  0.2455 -0.6813
  742TMC3    H111023   0.890   0.612  14.782  0.1480 -1.9801  0.9562
  742TMC3    H211024   0.751   0.330  14.491 -1.8148  0.3542 -0.6827
  742TMC3    C711025   0.912   0.368  14.718  0.9297  0.0918  0.7148
  742TMC3    C811026   0.553   0.487  14.413 -0.2629 -0.0033  0.1965
  742TMC3    O111027   1.000   0.403  14.792  0.2104  0.4075  0.1085
  742TMC3    O211028   0.570   0.397  14.328 -0.0052  0.1645  0.5783
  743MPD2     C11029   2.359   1.899   1.424 -0.4322  0.2848 -0.8712
  743MPD2    C111030   2.440   1.922   1.321 -0.2767  0.5846 -0.3136
  743MPD2    C211031   2.575   1.958   1.339  0.0532  0.0254  0.1143
  743MPD2    C311032   2.613   1.952   1.471  0.4887 -0.0705  0.7033
  743MPD2    C411033   2.528   1.926   1.575 -0.2693  0.4274  0.2912
  743MPD2    C511034   2.394   1.904   1.555  0.3681 -0.3958 -0.0374
  743MPD2     H11035   2.649   1.975   1.262 -0.7000 -0.0698 -0.6312
  743MPD2    H111036   2.552   1.926   1.681 -2.0882 -2.2655  0.7105
  743MPD2    H211037   2.252   1.898   1.404 -0.7079  0.6682  0.5907
  743MPD2    H311038   2.324   1.899   1.638  2.0402 -0.4677  1.3801
  743MPD2     N11039   2.747   1.967   1.490  0.0239 -0.2032 -0.4870
  743MPD2    H511040   2.801   1.998   1.410  0.5037  0.6172  0.1520
  743MPD2    N111041   2.381   1.906   1.192 -0.0988 -0.2818  0.2849
  743MPD2    H711042   2.284   1.877   1.184 -0.4232  0.9894 -0.3531
  744TMC3    C111043   2.341   1.890   0.966  0.3186 -0.0008 -0.2236
  744TMC3    C211044   2.209   1.865   0.995  0.2260  0.2589 -0.4019
  744TMC3    C311045   2.126   1.821   0.896 -0.4911  0.5283  0.3665
  744TMC3    C411046   2.392   1.875   0.845  0.8963  0.4746 -0.1366
  744TMC3    C511047   2.314   1.804   0.759 -0.3890 -0.1636 -0.2800
  744TMC3    C611048   2.184   1.781   0.779 -0.4217 -0.3045  0.2693
  744TMC3     C11049   2.442   1.912   1.074  0.6438 -0.1465 -0.6017
  744TMC3     O11050   2.554   1.955   1.049 -0.0779 -0.6291 -0.2919
  744TMC3     H11051   2.162   1.905   1.084  0.9659  0.0688  0.0738
  744TMC3    H111052   2.494   1.906   0.824  0.7951  0.4645 -0.6519
  744TMC3    H211053   2.121   1.727   0.709 -0.8692 -1.3101  1.4644
  744TMC3    C711054   2.378   1.783   0.630  0.3051 -0.7657 -0.0438
  744TMC3    C811055   1.989   1.880   0.888 -0.0420 -0.6813 -0.2913
  744TMC3    O111056   2.500   1.790   0.628  0.2625  0.5116  0.3035
  744TMC3    O211057   1.952   1.902   0.777 -0.0461  0.0686 -0.3282
  745TMC3    C111058   1.137   0.220  13.618  0.4632 -0.0225  1.0308
  745TMC3    C211059   1.036   0.282  13.686  0.5893  0.1936  0.0439
  745TMC3    C311060   0.916   0.285  13.626  0.0794 -0.1703  0.6455
  745TMC3    C411061   1.117   0.181  13.489  0.0734  0.3280 -0.2006
  745TMC3    C511062   0.995   0.200  13.434 -0.7580 -0.2535  0.5379
  745TMC3    C611063   0.888   0.239  13.502 -0.5064 -0.1729 -1.1050
  745TMC3     C11064   1.269   0.254  13.657 -0.2041 -0.5640 -0.1794
  745TMC3     O11065   1.352   0.265  13.569  0.2426  0.3152  0.0439
  745TMC3     H11066   1.048   0.302  13.792 -1.4366  1.1125  0.0808
  745TMC3    H111067   1.212   0.156  13.443  0.1891  0.6729 -0.1502
  745TMC3    H211068   0.787   0.249  13.463  0.1896  0.5199 -2.7000
  745TMC3    C711069   0.971   0.203  13.293  0.7787 -0.3263  1.2832
  745TMC3    C811070   0.810   0.363  13.689  1.2292 -0.0078 -0.3493
  745TMC3    O111071   0.856   0.206  13.248 -0.1706 -0.4682 -1.2068
  745TMC3    O211072   0.707   0.376  13.625  0.4659 -0.0337  0.2908
  746TMC3    C111073   3.236   2.282  11.150 -0.7739 -0.1633 -0.1933
  746TMC3    C211074   3.365   2.243  11.124 -0.6783 -0.3882  0.1980
  746TMC3    C311075   3.383   2.113  11.088  0.1268 -0.2008  0.0393
  746TMC3    C411076   3.130   2.203  11.150 -0.7956 -0.1033 -0.6847
  746TMC3    C511077   3.160   2.069  11.130  0.2007  0.3990 -0.3482
  746TMC3    C611078   3.285   2.018  11.104  0.3339  0.6231 -0.0951
  746TMC3     C11079   3.207   2.425  11.138  0.2034  0.4553 -0.0152
  746TMC3     O11080   3.235   2.488  11.237 -0.0003  0.2668 -0.0109
  746TMC3     H11081   3.449   2.312  11.117  0.1041 -1.4730 -1.1314
  746TMC3    H111082   3.028   2.236  11.167  0.6903  3.5165  1.1945
  746TMC3    H211083   3.302   1.913  11.083 -1.0794  0.3922 -0.0950
  746TMC3    C711084   3.055   1.979  11.104 -0.1019  0.7487 -0.1962
  746TMC3    C811085   3.463   2.095  10.969  0.1130  0.4059 -0.6039
  746TMC3    O111086   2.962   2.015  11.028 -0.5383  0.3778  0.5185
  746TMC3    O211087   3.508   1.980  10.962 -0.2018  0.0659  0.2413
  747TMC3    C111088   1.220   2.201  10.512 -0.2165 -0.3597  0.3292
  747TMC3    C211089   1.125   2.121  10.563  0.4117  0.0636 -0.6771
  747TMC3    C311090   1.046   2.170  10.665  0.5238 -0.6494 -0.6813
  747TMC3    C411091   1.245   2.331  10.562 -0.7551 -0.2778 -0.1050
  747TMC3    C511092   1.160   2.368  10.669  0.2905  0.0600  0.2715
  747TMC3    C611093   1.059   2.289  10.723 -0.3239  0.1077 -0.5567
  747TMC3     C11094   1.293   2.164  10.390  0.0355 -0.5706 -0.4015
  747TMC3     O11095   1.401   2.219  10.372  0.6075 -0.6346  0.3996
  747TMC3     H11096   1.100   2.024  10.524 -1.7290  0.6484 -0.7583
  747TMC3    H111097   1.330   2.391  10.533 -0.0322 -0.1011  2.3620
  747TMC3    H211098   0.989   2.319  10.800  1.1883  0.5976  0.6352
  747TMC3    C711099   1.175   2.493  10.745 -0.0625 -0.4842 -0.3409
  747TMC3    C811100   0.975   2.058  10.733 -0.3310 -0.0860  0.1322
  747TMC3    O111101   1.090   2.536  10.818 -0.1674 -0.1658 -0.1424
  747TMC3    O211102   1.004   1.940  10.698  0.1502  0.0524  0.4728
  748MPD2     C11103   2.580   2.717   0.305 -0.0717  0.2026 -0.4525
  748MPD2    C111104   2.540   2.688   0.438 -0.1102  0.1399 -0.1463
  748MPD2    C211105   2.600   2.764   0.542  0.2969 -0.4068 -0.0850
  748MPD2    C311106   2.690   2.868   0.516  0.3073  0.1690  0.1856
  748MPD2    C411107   2.720   2.894   0.386 -0.3538  0.3014 -0.2237
  748MPD2    C511108   2.672   2.815   0.287  0.0894  0.2290  0.4039
  748MPD2     H11109   2.581   2.752   0.648  3.4153  2.1399  0.7722
  748MPD2    H111110   2.778   2.979   0.352  0.9021  0.9271  3.5227
  748MPD2    H211111   2.536   2.678   0.214  0.2868  0.0583 -0.5618
  748MPD2    H311112   2.694   2.849   0.186  1.8217 -0.6350  0.4870
  748MPD2     N11113   2.740   2.933   0.628 -0.5795  0.7642  0.8644
  748MPD2    H511114   2.734   2.887   0.718 -1.7403  0.2580  0.5381
  748MPD2    N111115   2.442   2.583   0.447 -0.2998  0.3440 -0.3827
  748MPD2    H711116   2.406   2.547   0.359 -2.8232  0.8936  0.4174
  749TMC3    C111117   2.876   3.075   0.757  0.5077  0.6406  0.2666
  749TMC3    C211118   2.951   2.980   0.823 -0.5463  0.5897 -0.3846
  749TMC3    C311119   3.018   3.018   0.939 -0.8328 -0.4811 -0.0059
  749TMC3    C411120   2.866   3.198   0.799 -0.6151  0.3317  0.0533
  749TMC3    C511121   2.928   3.231   0.912 -0.0182  0.4131 -0.3956
  749TMC3    C611122   3.009   3.146   0.982 -0.1640  0.0855  0.3042
  749TMC3     C11123   2.815   3.050   0.628 -0.5643  0.1354 -0.0791
  749TMC3     O11124   2.802   3.144   0.549  0.0922 -0.2314 -0.0258
  749TMC3     H11125   2.959   2.874   0.799  0.9743  0.0559  2.5506
  749TMC3    H111126   2.821   3.275   0.737  0.7069 -1.3333 -2.9777
  749TMC3    H211127   3.062   3.172   1.073  0.3369 -0.0286  0.0456
  749TMC3    C711128   2.935   3.375   0.962 -0.2740  0.1624 -0.3165
  749TMC3    C811129   3.061   2.900   1.017  0.5726  0.1131  0.1828
  749TMC3    O111130   3.035   3.414   1.014  0.3105  0.3709 -0.3848
  749TMC3    O211131   3.109   2.799   0.967  0.0742  0.1317  0.2849
  750MPD2     C11132   3.536   4.301  10.925 -0.4512  0.5257  0.2277
  750MPD2    C111133   3.397   4.321  10.967  0.1962 -0.1690  0.5645
  750MPD2    C211134   3.309   4.213  10.955 -0.0779 -0.4454 -0.0267
  750MPD2    C311135   3.338   4.093  10.885 -0.4349 -0.5222 -0.1434
  750MPD2    C411136   3.467   4.081  10.849  0.6142 -0.3993 -1.2985
  750MPD2    C511137   3.560   4.182  10.856  0.7318 -0.0460  0.8614
  750MPD2     H11138   3.207   4.233  10.986 -0.1933  0.2226 -0.8101
  750MPD2    H111139   3.505   3.992  10.800 -0.9792 -0.4429 -2.4702
  750MPD2    H211140   3.614   4.374  10.946 -0.5661  0.9798 -0.9244
  750MPD2    H311141   3.659   4.168  10.814  0.0040  0.4983 -1.0515
  750MPD2     N11142   3.256   3.982  10.875  0.2499 -0.1445  0.5001
  750MPD2    H511143   3.294   3.917  10.807  1.1401 -1.6138  2.4229
  750MPD2    N111144   3.368   4.449  11.033 -0.4932 -0.5228  0.0651
  750MPD2    H711145   3.443   4.517  11.035 -0.3246 -0.7124  0.2571
  751TMC3    C111146   3.049   3.864  10.882  0.2356  0.6301 -0.3757
  751TMC3    C211147   2.944   3.815  10.957  0.1227 -0.2600  0.1115
  751TMC3    C311148   2.849   3.734  10.898 -0.3911 -0.0778  0.9040
  751TMC3    C411149   3.070   3.815  10.754  0.5034 -0.0882  0.2619
  751TMC3    C511150   2.989   3.717  10.712 -0.1346 -0.1947  0.3369
  751TMC3    C611151   2.868   3.695  10.764  0.2113 -0.4141  0.4136
  751TMC3     C11152   3.131   3.962  10.937  0.3961  0.4976  0.4753
  751TMC3     O11153   3.084   4.033  11.024  0.3308  0.2764 -0.1606
  751TMC3     H11154   2.919   3.844  11.059 -1.4272 -1.2957  0.0215
  751TMC3    H111155   3.154   3.847  10.694  0.5989 -3.5088 -1.4406
  751TMC3    H211156   2.795   3.630  10.718 -0.4671 -0.0994  1.0362
  751TMC3    C711157   3.042   3.611  10.627 -0.3493 -0.0637  0.4991
  751TMC3    C811158   2.806   3.611  10.964  0.6240 -0.2634 -0.1773
  751TMC3    O111159   3.138   3.645  10.558 -0.0435  0.0602 -0.4142
  751TMC3    O211160   2.855   3.513  10.910  0.3551  1.1275 -0.0497
  752TMC3    C111161   1.957   3.680  17.132  0.1002  0.3145 -0.1539
  752TMC3    C211162   1.965   3.578  17.218  0.2214 -0.1725 -0.0246
  752TMC3    C311163   1.870   3.566  17.320  0.0003  0.1418  0.4031
  752TMC3    C411164   1.872   3.780  17.158 -0.0399 -0.4451  0.1839
  752TMC3    C511165   1.782   3.776  17.266 -0.2600 -0.0653  1.2536
  752TMC3    C611166   1.783   3.665  17.347 -0.6637  0.1791  0.3633
  752TMC3     C11167   2.028   3.683  17.003  0.5601  0.7176  0.1913
  752TMC3     O11168   2.149   3.644  16.998 -0.1027 -0.2342  0.3777
  752TMC3     H11169   2.040   3.500  17.207  0.7139  0.1032  1.3406
  752TMC3    H111170   1.882   3.876  17.110  0.1769 -1.6638 -2.1690
  752TMC3    H211171   1.706   3.647  17.421 -0.8928  1.1720  0.3670
  752TMC3    C711172   1.668   3.868  17.253 -0.3253  0.4870  0.1199
  752TMC3    C811173   1.868   3.454  17.411 -0.4276 -0.0647  0.5545
  752TMC3    O111174   1.656   3.931  17.147 -0.4224  0.4066  0.3471
  752TMC3    O211175   1.792   3.472  17.507  0.4996  0.1002 -0.2504
  753TMC3    C111176   4.388   0.420  13.304  0.8422 -0.5912  0.3814
  753TMC3    C211177   4.502   0.426  13.384 -0.9897  1.3012 -0.2701
  753TMC3    C311178   4.624   0.407  13.330 -0.3446  0.0288 -0.2986
  753TMC3    C411179   4.389   0.404  13.169 -0.0040 -0.4306  0.2145
  753TMC3    C511180   4.519   0.392  13.116 -0.2870 -0.3918 -0.1872
  753TMC3    C611181   4.631   0.385  13.191  0.1347 -0.6453  0.1415
  753TMC3     C11182   4.254   0.422  13.367 -0.6261 -0.5079 -0.6247
  753TMC3     O11183   4.165   0.374  13.300 -0.0883  0.5989  0.4729
  753TMC3     H11184   4.497   0.439  13.491 -1.7386 -0.1961 -0.1216
  753TMC3    H111185   4.302   0.429  13.109 -0.7539 -0.2800  1.3615
  753TMC3    H211186   4.727   0.361  13.147  1.8153 -0.0916  3.4762
  753TMC3    C711187   4.540   0.368  12.976 -0.3505  0.1657  0.0414
  753TMC3    C811188   0.005   0.395  13.408  1.3234 -0.5451 -0.3484
  753TMC3    O111189   4.630   0.431  12.923 -0.3878  0.3288  0.1212
  753TMC3    O211190   0.102   0.356  13.346  0.0830  0.0154  0.4083
  754MPD2     C11191   2.538   4.141  13.144  0.3074 -0.3865  0.5423
  754MPD2    C111192   2.594   4.018  13.123 -0.1403 -0.1504  0.1598
  754MPD2    C211193   2.520   3.906  13.163 -0.6747 -0.1405  0.3237
  754MPD2    C311194   2.398   3.920  13.229 -0.3748 -0.6554 -0.0143
  754MPD2    C411195   2.343   4.048  13.246 -0.1844 -0.5670 -0.1034
  754MPD2    C511196   2.415   4.153  13.202  0.3282 -0.2318  0.3016
  754MPD2     H11197   2.561   3.808  13.144 -1.4237 -0.2484 -0.7249
  754MPD2    H111198   2.241   4.067  13.276 -0.7367 -1.3597 -1.4708
  754MPD2    H211199   2.584   4.233  13.111 -2.0740 -0.9121 -4.1530
  754MPD2    H311200   2.368   4.248  13.224 -1.7791 -1.4569  1.1134
  754MPD2     N11201   2.331   3.809  13.279 -0.1882 -0.1834 -0.2284
  754MPD2    H511202   2.235   3.826  13.307  0.7292  2.4099  1.3192
  754MPD2    N111203   2.730   4.011  13.080  0.4253  0.7813  0.4495
  754MPD2    H711204   2.769   4.103  13.063  0.7444  0.4311 -0.7299
  755MPD2     C11205   1.457   3.830  13.152 -0.2528 -0.0633 -0.8160
  755MPD2    C111206   1.502   3.817  13.276 -0.0350 -0.1632  0.5153
  755MPD2    C211207   1.628   3.767  13.301 -0.2090  0.7395  0.0471
  755MPD2    C311208   1.712   3.730  13.193  0.2608  0.3016 -1.0805
  755MPD2    C411209   1.664   3.739  13.063 -0.0948 -0.0389 -0.6521
  755MPD2    C511210   1.534   3.779  13.051 -0.5271 -0.4332  0.2051
  755MPD2     H11211   1.655   3.740  13.402 -1.1395  0.3610  0.1888
  755MPD2    H111212   1.723   3.698  12.982  1.4611 -0.1600  0.5551
  755MPD2    H211213   1.356   3.858  13.125  0.2051 -0.5759 -3.0261
  755MPD2    H311214   1.489   3.786  12.952  1.2539 -1.5498 -0.6699
  755MPD2     N11215   1.846   3.685  13.195 -0.5834  0.0547  0.0187
  755MPD2    H511216   1.886   3.656  13.106 -2.4972  0.0108 -0.8398
  755MPD2    N111217   1.419   3.852  13.383  0.9233  0.2666 -0.1293
  755MPD2    H711218   1.461   3.852  13.475  0.9905  0.5442 -0.1612
  756MPD2     C11219   2.982   4.709   9.501 -0.6526 -0.5384 -0.5923
  756MPD2    C111220   2.889   4.611   9.538 -0.5543 -0.6242 -0.6631
  756MPD2    C211221   2.761   4.637   9.491 -0.4882  0.2567 -0.3705
  756MPD2    C311222   2.728   0.012   9.423  0.1264 -0.8289  0.3841
  756MPD2    C411223   2.827   0.096   9.382 -0.4327  0.0363 -0.2684
  756MPD2    C511224   2.952   0.080   9.430  0.1915 -0.5801 -0.5066
  756MPD2     H11225   2.683   4.569   9.523 -0.4922 -0.7352 -2.5044
  756MPD2    H111226   2.808   0.191   9.332 -0.5079  1.4175  2.3385
  756MPD2    H211227   3.085   4.691   9.530 -0.8242  2.2468  1.7865
  756MPD2    H311228   3.027   0.155   9.405  0.5743 -1.2478 -1.3501
  756MPD2     N11229   2.587   0.036   9.392 -0.3313  0.2115  0.0303
  756MPD2    H511230   2.515   4.709   9.420  1.8661 -1.9221  0.6337
  756MPD2    N111231   2.911   4.506   9.629  0.1559 -0.1225  0.0512
  756MPD2    H711232   2.838   4.442   9.657 -0.1575  0.7824  1.3120
  757MPD2     C11233   1.970   4.341   9.802 -0.3199  0.2306  0.2080
  757MPD2    C111234   2.099   4.326   9.761 -0.3178 -0.2508 -0.3426
  757MPD2    C211235   2.165   4.425   9.695  0.4883 -0.2568  0.0348
  757MPD2    C311236   2.096   4.536   9.646 -0.6435  0.0134 -0.3699
  757MPD2    C411237   1.965   4.551   9.687 -0.4384  0.0341 -0.1108
  757MPD2    C511238   1.903   4.456   9.761  0.7647 -0.0335  0.0553
  757MPD2     H11239   2.267   4.411   9.661  0.6841  0.0291  0.5173
  757MPD2    H111240   1.902   4.621   9.633  0.6365  1.9573  1.1389
  757MPD2    H211241   1.917   4.261   9.852  1.7581 -0.0408  1.9639
  757MPD2    H311242   1.800   4.467   9.794  0.1036 -1.1282 -1.6732
  757MPD2     N11243   2.156   4.621   9.546 -0.1097  0.3967  0.3691
  757MPD2    H511244   2.251   4.597   9.519 -0.0781  0.4421  0.4384
  757MPD2    N111245   2.162   4.199   9.783  0.6012  0.2381 -0.3487
  757MPD2    H711246   2.109   4.117   9.810 -0.8277  1.3749  0.2542
  758MPD2     C11247   2.963   3.540  15.613  0.5452  0.3403  0.7076
  758MPD2    C111248   3.023   3.451  15.702 -0.1780  0.5018 -0.4351
  758MPD2    C211249   2.959   3.419  15.823 -0.4106 -0.7193 -0.4150
  758MPD2    C311250   2.834   3.475  15.844  0.1603 -0.4938  0.0470
  758MPD2    C411251   2.780   3.572  15.757 -0.9112 -0.2720  0.1586
  758MPD2    C511252   2.838   3.593  15.640  0.0719  0.1771 -0.2025
  758MPD2     H11253   3.005   3.359  15.901 -0.5472  0.3471  0.4839
  758MPD2    H111254   2.690   3.630  15.771 -1.1292 -0.7176  0.6092
  758MPD2    H211255   3.010   3.570  15.520  0.8387 -1.8360  0.1430
  758MPD2    H311256   2.797   3.674  15.582 -0.9170 -1.0549 -1.2333
  758MPD2     N11257   2.779   3.462  15.976  0.3592 -1.0577  0.4186
  758MPD2    H511258   2.704   3.520  16.012  1.2110  1.3823 -1.7663
  758MPD2    N111259   3.157   3.405  15.665  0.5547  0.1246  0.3088
  758MPD2    H711260   3.194   3.444  15.579  1.4625 -0.0334  0.6200
  759MPD2     C11261   2.329   1.618   9.906 -0.7450 -0.3933 -0.6209
  759MPD2    C111262   2.253   1.674  10.006 -0.1733  0.2227  0.3400
  759MPD2    C211263   2.244   1.812  10.014  0.2565  0.1363  0.0626
  759MPD2    C311264   2.286   1.889   9.910  0.2577  0.8541 -0.3884
  759MPD2    C411265   2.349   1.828   9.803 -0.0890 -0.2011  0.3135
  759MPD2    C511266   2.383   1.696   9.811  0.0528  0.9511 -0.2907
  759MPD2     H11267   2.197   1.846  10.105 -1.3300 -1.0711 -0.3017
  759MPD2    H111268   2.390   1.886   9.721 -1.4849 -1.1626 -1.0693
  759MPD2    H211269   2.366   1.516   9.905  1.9038  0.5902 -1.1526
  759MPD2    H311270   2.447   1.651   9.737  1.5094  0.9883  0.9303
  759MPD2     N11271   2.259   2.026   9.922  0.6617  0.6017  0.5397
  759MPD2    H511272   2.197   2.047   9.999  1.2250  1.1672  0.8367
  759MPD2    N111273   2.194   1.594  10.105  0.4702 -0.0814 -0.0261
  759MPD2    H711274   2.138   1.638  10.178 -1.3963 -0.0761 -1.4585
  760MPD2     C11275   1.045   4.203  11.821 -0.1004  0.7082  0.0017
  760MPD2    C111276   1.147   4.282  11.776  0.1974  0.0866  0.3597
  760MPD2    C211277   1.268   4.227  11.733  0.0757 -0.4028 -0.6435
  760MPD2    C311278   1.286   4.090  11.747 -1.2450  0.0371  0.0726
  760MPD2    C411279   1.182   4.014  11.782  0.0673 -0.1777 -0.1043
  760MPD2    C511280   1.058   4.064  11.811  0.3025 -0.8106  0.0376
  760MPD2     H11281   1.343   4.303  11.713 -0.3664  0.3392  0.5286
  760MPD2    H111282   1.182   3.907  11.796 -1.4988 -0.1465  0.1446
  760MPD2    H211283   0.949   4.242  11.851 -0.2986 -0.4263  0.8319
  760MPD2    H311284   0.974   4.004  11.843 -0.1328 -1.0734 -1.6196
  760MPD2     N11285   1.411   4.026  11.720  0.2336 -0.0949 -0.1232
  760MPD2    H511286   1.405   3.925  11.729 -2.6252  0.1936  1.5816
  760MPD2    N111287   1.141   4.424  11.788 -0.5960  0.3541 -0.4262
  760MPD2    H711288   1.219   4.469  11.743  1.2341 -1.2090  1.1717
  761MPD2     C11289   2.556   3.312  11.296 -0.4909  0.1253  0.7172
  761MPD2    C111290   2.614   3.277  11.176  0.4355  0.0668  0.5183
  761MPD2    C211291   2.667   3.381  11.103  0.1295 -0.2556 -0.6822
  761MPD2    C311292   2.656   3.512  11.143 -0.3191  0.5606  0.3049
  761MPD2    C411293   2.586   3.545  11.257 -0.0611  0.3442  0.2663
  761MPD2    C511294   2.536   3.444  11.334 -0.2680  0.2764 -0.3944
  761MPD2     H11295   2.716   3.357  11.010  0.1534 -0.5452 -0.5948
  761MPD2    H111296   2.576   3.647  11.292 -0.1271 -0.3288  2.1814
  761MPD2    H211297   2.518   3.233  11.360  0.4197 -1.1694 -0.3351
  761MPD2    H311298   2.494   3.465  11.431  0.9378  2.7250 -0.3828
  761MPD2     N11299   2.726   3.618  11.078 -0.2695 -0.1603  0.0780
  761MPD2    H511300   2.718   3.705  11.129 -1.2681  0.1426 -0.5907
  761MPD2    N111301   2.623   3.139  11.142  0.2589  0.1742  0.7305
  761MPD2    H711302   2.576   3.073  11.203  1.2672 -0.2780  1.0143
  762MPD2     C11303   2.667   2.979  10.358  0.4009 -0.0306  0.6701
  762MPD2    C111304   2.724   2.883  10.449  0.0074 -0.4912 -0.5654
  762MPD2    C211305   2.845   2.824  10.420 -0.1758 -0.7525  0.9186
  762MPD2    C311306   2.914   2.850  10.300 -0.5513  0.1132  0.6468
  762MPD2    C411307   2.853   2.944  10.213  0.4638 -0.1890 -0.4170
  762MPD2    C511308   2.731   3.002  10.240 -0.7360  0.3351 -0.5570
  762MPD2     H11309   2.892   2.751  10.484 -0.4612 -4.3081 -2.9150
  762MPD2    H111310   2.904   2.966  10.120  0.2636 -0.2112 -0.5321
  762MPD2    H211311   2.578   3.038  10.381  0.2154 -1.2388  3.0318
  762MPD2    H311312   2.699   3.083  10.176 -0.7714  2.6945  2.4366
  762MPD2     N11313   3.037   2.790  10.280  0.2732  0.8625 -0.2237
  762MPD2    H511314   3.079   2.732  10.351  0.1896  3.1302  1.6729
  762MPD2    N111315   2.663   2.868  10.568  0.8409  0.3774 -0.1420
  762MPD2    H711316   2.589   2.934  10.591  0.2653  0.4046 -2.0687
  763MPD2     C11317   4.684   3.700  16.109 -0.1642  0.0304 -0.5841
  763MPD2    C111318   4.622   3.768  16.005  0.2689 -0.2758 -0.3660
  763MPD2    C211319   4.588   3.904  16.021  0.5434  0.4065  0.2038
  763MPD2    C311320   4.613   3.960  16.148 -0.0342  0.1278 -0.0238
  763MPD2    C411321   4.669   3.886  16.251 -0.1077  0.1551  0.0370
  763MPD2    C511322   4.712   3.762  16.227 -0.6987 -0.1690 -1.2036
  763MPD2     H11323   4.551   3.952  15.931  2.9020  0.3194 -0.8281
  763MPD2    H111324   4.685   3.934  16.346 -1.8632  0.4899  0.1502
  763MPD2    H211325   4.728   3.602  16.095  0.1316 -0.2606  2.3824
  763MPD2    H311326   0.029   3.707  16.301 -0.5754  0.4830 -0.8120
  763MPD2     N11327   4.590   4.099  16.184 -0.1356  0.3254  0.3500
  763MPD2    H511328   4.618   4.119  16.279  1.1550 -2.4530  0.5471
  763MPD2    N111329   4.590   3.705  15.886  0.2455  0.1841  0.3065
  763MPD2    H711330   4.553   3.762  15.811 -0.8192  0.1990  0.8324
  764MPD2     C11331   2.999   0.676  17.312 -0.5505 -0.8416 -0.0539
  764MPD2    C111332   2.930   0.560  17.292  0.0046  0.0329  0.6787
  764MPD2    C211333   2.916   0.470  17.397  0.3503 -0.2726  0.3004
  764MPD2    C311334   2.977   0.498  17.521 -0.5544 -0.3531  0.2193
  764MPD2    C411335   3.035   0.626  17.543  0.5354 -0.4307  0.0395
  764MPD2    C511336   3.052   0.703  17.431  0.4654  0.2654 -0.7883
  764MPD2     H11337   2.853   0.383  17.385 -2.1812  1.4838  0.9283
  764MPD2    H111338   3.082   0.657  17.635 -0.7291 -1.6500  1.0966
  764MPD2    H211339   3.018   0.746  17.232 -1.1994  0.2103  0.7163
  764MPD2    H311340   3.119   0.788  17.447  0.8394 -0.2929  0.6643
  764MPD2     N11341   2.972   0.394  17.617 -0.4336  0.0495  0.7350
  764MPD2    H511342   2.909   0.318  17.591  1.6372 -0.8629 -1.6507
  764MPD2    N111343   2.865   0.528  17.169  0.6879  0.1464  0.0625
  764MPD2    H711344   2.826   0.435  17.163 -2.5274  1.4376  0.7488
  765MPD2     C11345   2.796   2.782  15.274  0.1988 -0.0928 -0.0681
  765MPD2    C111346   2.837   2.904  15.331  0.6546  0.4521 -0.2838
  765MPD2    C211347   2.973   2.915  15.374 -0.3205  0.2406  0.2856
  765MPD2    C311348   3.051   2.803  15.372  0.0779 -0.5302  0.2612
  765MPD2    C411349   3.007   2.681  15.332  0.1642 -0.2229  0.0261
  765MPD2    C511350   2.886   2.672  15.281  0.7180  0.2504 -0.0611
  765MPD2     H11351   3.016   2.995  15.431 -1.8515 -0.6028  2.6201
  765MPD2    H111352   3.060   2.587  15.338  1.1770  0.3260 -0.3904
  765MPD2    H211353   2.697   2.765  15.234  0.8482 -0.0470 -1.6925
  765MPD2    H311354   2.856   2.577  15.240  0.2887 -0.4004  1.7344
  765MPD2     N11355   3.179   2.805  15.432  0.6693  0.2837 -0.1643
  765MPD2    H511356   3.227   2.716  15.435  0.8833  0.3738 -0.9906
  765MPD2    N111357   2.743   3.015  15.328  0.4894  0.3986 -0.8843
  765MPD2    H711358   2.645   3.000  15.303  0.7147  0.9205 -2.0879
  766MPD2     C11359   2.062   3.215  15.144  0.4765  0.0520 -0.6848
  766MPD2    C111360   2.189   3.185  15.098  0.4522 -0.5821 -0.3810
  766MPD2    C211361   2.201   3.140  14.967 -0.5637 -0.6516 -0.6351
  766MPD2    C311362   2.093   3.145  14.881 -0.1882  0.2725  0.1576
  766MPD2    C411363   1.969   3.177  14.928  0.0793 -0.2549  1.2957
  766MPD2    C511364   1.952   3.217  15.055  0.2975 -0.4596 -0.3582
  766MPD2     H11365   2.301   3.125  14.929 -0.7778 -3.1952 -0.2476
  766MPD2    H111366   1.882   3.178  14.864  0.7008 -1.1460  0.4245
  766MPD2    H211367   2.042   3.247  15.246 -1.4112 -3.3137 -0.0178
  766MPD2    H311368   1.861   3.251  15.102 -0.1373 -2.0675 -0.0251
  766MPD2     N11369   2.102   3.122  14.740 -0.1996 -0.0824  0.0940
  766MPD2    H511370   2.021   3.144  14.684  1.0202  1.9739 -0.8898
  766MPD2    N111371   2.304   3.207  15.179  0.6136 -0.2740  0.4135
  766MPD2    H711372   2.392   3.165  15.149  1.3564  0.4885  1.5392
  767MPD2     C11373   1.712   3.555  14.890 -0.0969 -0.1646  0.4992
  767MPD2    C111374   1.832   3.505  14.849  0.1042 -0.1963  0.3731
  767MPD2    C211375   1.826   3.418  14.740 -0.5556 -0.1481 -0.1204
  767MPD2    C311376   1.702   3.388  14.673  0.4017 -0.0574 -0.0359
  767MPD2    C411377   1.584   3.443  14.719  0.0162  0.1394 -0.4565
  767MPD2    C511378   1.593   3.518  14.827 -0.2166  0.1028 -0.1779
  767MPD2     H11379   1.917   3.372  14.704  0.5406  2.4212 -0.5619
  767MPD2    H111380   1.488   3.417  14.675 -0.4986 -2.1033  1.9928
  767MPD2    H211381   1.715   3.624  14.973  0.4499  3.1959 -2.3183
  767MPD2    H311382   1.505   3.575  14.856  0.2548  0.9108 -0.3414
  767MPD2     N11383   1.692   3.305  14.559 -0.3183  0.3442 -0.4931
  767MPD2    H511384   1.601   3.306  14.515  0.1470  0.3367 -1.4465
  767MPD2    N111385   1.952   3.565  14.905  0.4835  0.6062 -0.0362
  767MPD2    H711386   1.935   3.634  14.977 -2.0973 -1.5422  1.4313
  768MPD2     C11387   3.079   1.949  10.563  0.3596  0.0774 -0.3306
  768MPD2    C111388   3.030   1.844  10.636 -0.9640  0.1826 -0.1393
  768MPD2    C211389   3.120   1.793  10.722  0.5280 -0.2689 -0.0509
  768MPD2    C311390   3.253   1.834  10.742 -0.2370  0.3805 -0.6767
  768MPD2    C411391   3.288   1.946  10.679 -0.5641 -0.2178 -0.5814
  768MPD2    C511392   3.201   2.003  10.587 -0.0119 -0.3763  0.0485
  768MPD2     H11393   3.084   1.709  10.779  2.9699 -1.1383  0.1945
  768MPD2    H111394   3.383   1.997  10.689 -0.2555 -0.7881 -0.5556
  768MPD2    H211395   3.020   2.002  10.489 -0.1995 -0.7267 -0.4623
  768MPD2    H311396   3.228   2.093  10.532 -2.4600 -0.7288 -1.7703
  768MPD2     N11397   3.333   1.777  10.838 -0.7038 -0.3810 -0.6823
  768MPD2    H511398   3.413   1.838  10.851 -0.6451 -0.5824 -0.0687
  768MPD2    N111399   2.901   1.786  10.628 -0.3175  0.7602  0.6482
  768MPD2    H711400   2.885   1.707  10.690 -0.2164  1.4479  1.5423
  769MPD2     C11401   3.632   0.518  14.620 -0.2734 -0.3892 -0.0209
  769MPD2    C111402   3.645   0.394  14.688 -0.1071  0.1057 -0.3748
  769MPD2    C211403   3.716   0.395  14.806 -0.0897  0.2603  0.4747
  769MPD2    C311404   3.784   0.506  14.852 -0.1239  0.1330 -0.3266
  769MPD2    C411405   3.775   0.623  14.784  0.1861 -0.0181 -0.2099
  769MPD2    C511406   3.702   0.629  14.668  0.0044 -0.0623 -0.2273
  769MPD2     H11407   3.715   0.303  14.863  1.6617 -0.2176 -0.2797
  769MPD2    H111408   3.824   0.711  14.825  1.6687 -1.8860  1.9571
  769MPD2    H211409   3.578   0.527  14.527 -1.9714 -0.6672  0.9536
  769MPD2    H311410   3.702   0.718  14.606  0.4439 -0.3255 -0.6017
  769MPD2     N11411   3.849   0.494  14.971 -0.4586 -0.3135 -0.1434
  769MPD2    H511412   3.844   0.405  15.019 -0.4619  0.4415  1.2697
  769MPD2    N111413   3.583   0.272  14.651  0.3789  0.0960 -1.0025
  769MPD2    H711414   3.602   0.183  14.695 -0.6082  0.9198  1.1471
  770MPD2     C11415   3.335   4.136  15.004 -0.6509 -0.2676  0.3110
  770MPD2    C111416   3.347   4.101  14.867 -0.1212  0.4462  0.6663
  770MPD2    C211417   3.344   4.196  14.767  0.8254 -0.5727  0.1374
  770MPD2    C311418   3.356   4.332  14.810 -0.0461  0.4102 -0.4685
  770MPD2    C411419   3.341   4.363  14.944  0.4362  0.2807  0.5287
  770MPD2    C511420   3.327   4.267  15.037 -0.7640 -0.4509  0.1963
  770MPD2     H11421   3.345   4.158  14.665  2.9375 -0.1990  0.0363
  770MPD2    H111422   3.345   4.465  14.979 -4.1952  0.5332  0.3173
  770MPD2    H211423   3.332   4.059  15.081 -0.0788 -2.7130 -2.1156
  770MPD2    H311424   3.316   4.291  15.142 -0.2155  0.2464  0.0965
  770MPD2     N11425   3.365   4.436  14.708  0.4086  0.2960  0.4025
  770MPD2    H511426   3.368   4.408  14.610  1.8094 -0.4182  0.6526
  770MPD2    N111427   3.369   3.960  14.843  0.1810  0.0683  0.1453
  770MPD2    H711428   3.364   3.901  14.925 -0.1919 -0.3680 -0.1938
  771MPD2     C11429   4.361   2.063  12.995  0.3941 -0.9004 -0.1600
  771MPD2    C111430   4.456   2.158  13.031  0.0081  0.7152  0.0404
  771MPD2    C211431   4.539   2.122  13.142 -0.4208  0.4117  0.1817
  771MPD2    C311432   4.544   1.994  13.194 -0.9002  0.2742 -0.6346
  771MPD2    C411433   4.466   1.897  13.134  0.7307 -0.1687  0.0646
  771MPD2    C511434   4.374   1.934  13.042  0.2361 -0.1721 -0.3075
  771MPD2     H11435   4.599   2.197  13.193  1.9334 -0.0031 -1.9924
  771MPD2    H111436   4.466   1.793  13.164 -0.6977  0.1478  1.0931
  771MPD2    H211437   4.285   2.081  12.920  0.9176  1.2922 -0.1417
  771MPD2    H311438   4.307   1.863  12.995  0.6081 -1.6515  1.4359
  771MPD2     N11439   4.626   1.979  13.299  0.3956 -0.0788 -0.6007
  771MPD2    H511440   4.641   2.062  13.354 -1.4296  1.2453 -2.0871
  771MPD2    N111441   4.441   2.283  12.971  0.3768  0.0445  0.0235
  771MPD2    H711442   4.355   2.292  12.919 -0.5153 -0.0181  1.5114
  772MPD2     C11443   3.953   2.756  13.026 -0.1505  0.1650 -0.3370
  772MPD2    C111444   4.054   2.732  13.114 -0.2634  0.5444  0.6919
  772MPD2    C211445   4.028   2.705  13.243 -0.0893 -0.0048 -0.1289
  772MPD2    C311446   3.903   2.690  13.290 -0.0343 -0.4287  0.4234
  772MPD2    C411447   3.799   2.711  13.201  0.2614  0.4899  0.4629
  772MPD2    C511448   3.820   2.755  13.073 -0.1711 -0.3033 -0.0099
  772MPD2     H11449   4.109   2.689  13.313  1.4713  1.3007 -1.6217
  772MPD2    H111450   3.696   2.707  13.234 -0.4061 -0.5004 -1.7409
  772MPD2    H211451   3.972   2.788  12.924  3.8580 -2.4816 -0.4165
  772MPD2    H311452   3.744   2.769  12.996  1.7834  0.4163 -1.8248
  772MPD2     N11453   3.878   2.641  13.418  0.8213 -0.1185 -0.1769
  772MPD2    H511454   3.778   2.635  13.428  0.6839  0.8530 -0.9282
  772MPD2    N111455   4.187   2.724  13.067  0.4436 -0.7514  0.9460
  772MPD2    H711456   4.259   2.697  13.133  2.9450 -0.9197 -1.8464
  773MPD2     C11457   3.421   3.718  17.744 -0.8405  0.0041 -0.1809
  773MPD2    C111458   3.387   3.665  17.617  0.5803 -0.6702  0.8627
  773MPD2    C211459   3.368   3.525  17.606  0.2526  0.3725 -0.0802
  773MPD2    C311460   3.388   3.443  17.715  0.2247 -0.8796  0.0605
  773MPD2    C411461   3.416   3.499   0.083  0.2930  0.1529  0.2303
  773MPD2    C511462   3.438   3.630   0.090 -0.1895 -1.0830  0.4024
  773MPD2     H11463   3.347   3.483  17.508 -0.2790 -0.9670  0.6133
  773MPD2    H111464   3.413   3.440   0.174 -0.9366  3.0099  2.0383
  773MPD2    H211465   3.437   3.821   0.020 -0.3611 -0.1554  0.1157
  773MPD2    H311466   3.465   3.682   0.182 -1.0720  2.2954 -1.2434
  773MPD2     N11467   3.358   3.303  17.707 -0.4066  0.3451 -0.5442
  773MPD2    H511468   3.358   3.254  17.618 -3.3806  1.3965 -1.1209
  773MPD2    N111469   3.350   3.758  17.513  0.1812  0.5445  0.0855
  773MPD2    H711470   3.313   3.709  17.433 -0.8803 -1.0687  1.5499
  774MPD2     C11471   3.106   2.986  13.320 -0.1002 -0.2947  0.4948
  774MPD2    C111472   2.975   2.995  13.367  0.4360 -0.4073  0.0489
  774MPD2    C211473   2.903   3.111  13.356 -0.0370  0.4701 -0.0112
  774MPD2    C311474   2.964   3.226  13.296 -0.3179  0.1101 -0.3935
  774MPD2    C411475   3.096   3.214  13.257  0.5643 -0.1704 -0.0141
  774MPD2    C511476   3.161   3.098  13.263 -0.2768  0.1456  0.2143
  774MPD2     H11477   2.801   3.131  13.388  0.1895 -0.2057  1.1419
  774MPD2    H111478   3.147   3.298  13.211  1.3625 -0.2925  0.6506
  774MPD2    H211479   3.168   2.898  13.334  0.0349 -0.0014  1.7074
  774MPD2    H311480   3.268   3.093  13.250 -0.0319  0.8241  1.9028
  774MPD2     N11481   2.888   3.346  13.289 -0.8473  0.2091 -0.6421
  774MPD2    H511482   2.800   3.348  13.339  0.1645 -3.6763  1.2739
  774MPD2    N111483   2.915   2.877  13.423  0.1159 -0.0266 -0.2454
  774MPD2    H711484   2.976   2.796  13.434  1.3017  0.3801 -3.8117
  775MPD2     C11485   4.046   0.051  15.298  0.5151  0.1402  0.8842
  775MPD2    C111486   4.116   0.032  15.421 -0.4364 -0.4125 -0.2022
  775MPD2    C211487   4.251   0.071  15.427 -0.6335 -0.2228  0.0420
  775MPD2    C311488   4.317   0.118  15.314  0.2785 -0.3480 -0.3566
  775MPD2    C411489   4.245   0.122  15.191 -0.5185  0.0036  0.1365
  775MPD2    C511490   4.115   0.082  15.184 -0.5909  0.0965  0.2864
  775MPD2     H11491   4.299   0.074  15.525 -1.4550  1.8981  0.3723
  775MPD2    H111492   4.287   0.156  15.097  0.5497  2.9638  1.6910
  775MPD2    H211493   3.946   0.008  15.296  0.6229 -0.0499 -0.6929
  775MPD2    H311494   4.063   0.066  15.090 -0.4414 -0.9768  0.3804
  775MPD2     N11495   4.452   0.146  15.306 -0.3902 -0.3985 -0.7099
  775MPD2    H511496   4.489   0.183  15.219  0.3214 -0.8465 -0.5954
  775MPD2    N111497   4.041   4.718  15.529  0.2633  0.3349 -0.4051
  775MPD2    H711498   3.944   4.695  15.510  0.1449 -0.3455  0.9936
  776MPD2     C11499   3.373   0.358  10.826 -0.2649  0.0487 -0.0911
  776MPD2    C111500   3.422   0.336  10.955  0.0848  0.4399  0.4297
  776MPD2    C211501   3.525   0.420  11.001 -0.0963 -0.0195  0.2068
  776MPD2    C311502   3.548   0.537  10.927  0.3386  0.2145 -0.2351
  776MPD2    C411503   3.482   0.563  10.805  0.1486 -0.2910  0.2559
  776MPD2    C511504   3.392   0.473  10.753 -0.4057 -0.7966  0.0459
  776MPD2     H11505   3.583   0.399  11.090 -1.1191  0.1048  0.9047
  776MPD2    H111506   3.493   0.660  10.758  1.8918  0.1569  1.5930
  776MPD2    H211507   3.309   0.290  10.771 -0.0228  0.7267 -1.2207
  776MPD2    H311508   3.343   0.476  10.656 -0.2126  0.2323 -0.0130
  776MPD2     N11509   3.644   0.635  10.971 -0.2876  0.5530 -0.4978
  776MPD2    H511510   3.656   0.710  10.904  1.3198  0.2082 -0.5946
  776MPD2    N111511   3.377   0.219  11.027  0.5800 -0.2997  0.3108
  776MPD2    H711512   3.315   0.151  10.984  0.7526 -0.6595  0.6275
  777MPD2     C11513   2.983   2.304   0.694  0.5959  0.1053  0.7393
  777MPD2    C111514   3.050   2.192   0.732 -0.4909 -0.6602 -0.2674
  777MPD2    C211515   3.074   2.088   0.643  0.0845 -0.1567 -0.3296
  777MPD2    C311516   3.034   2.105   0.511 -0.4180  0.4523 -0.0997
  777MPD2    C411517   2.959   2.217   0.473 -0.4797 -0.2448  0.2539
  777MPD2    C511518   2.941   2.313   0.566  0.0416 -0.4389 -0.5370
  777MPD2     H11519   3.123   1.995   0.670 -0.0777 -1.2136 -3.7154
  777MPD2    H111520   2.910   2.223   0.377  1.2189 -1.7873 -0.6988
  777MPD2    H211521   2.953   2.378   0.766  3.3915  1.2463  0.7220
  777MPD2    H311522   2.879   2.397   0.539  1.0025  0.4919  0.1318
  777MPD2     N11523   3.042   1.993   0.421  0.2197 -0.2754 -0.4783
  777MPD2    H511524   3.073   1.903   0.456  0.1997  0.2988  1.0346
  777MPD2    N111525   3.112   2.194   0.863  0.4631 -0.2792 -0.2333
  777MPD2    H711526   3.093   2.274   0.922 -0.0332 -0.0347 -0.7225
  778MPD2     C11527   0.189   2.199  14.254 -0.2792 -0.4299  0.4590
  778MPD2    C111528   0.220   2.277  14.365  1.1026 -0.6724 -0.0974
  778MPD2    C211529   0.299   2.394  14.345 -0.6747  0.3491  0.0464
  778MPD2    C311530   0.351   2.427  14.223 -0.6511 -0.0400 -0.5413
  778MPD2    C411531   0.321   2.351  14.116 -0.0928  0.4653  0.7837
  778MPD2    C511532   0.247   2.236  14.134  0.4351  0.3600 -0.0545
  778MPD2     H11533   0.319   2.450  14.435  2.1434  1.5957 -1.3679
  778MPD2    H111534   0.334   2.369  14.010  0.3594 -0.1783  0.7293
  778MPD2    H211535   0.129   2.109  14.259 -1.9022  0.7592  2.2712
  778MPD2    H311536   0.235   2.181  14.041 -1.2045  3.2089 -1.5474
  778MPD2     N11537   0.442   2.538  14.215  1.2886 -0.8614  0.0007
  778MPD2    H511538   0.473   2.588  14.298  0.6207 -0.0197 -0.2531
  778MPD2    N111539   0.159   2.244  14.489  0.1046  0.1301 -0.1647
  778MPD2    H711540   0.138   2.145  14.501  1.2467  0.2543  2.8862
  779MPD2     C11541   4.393   1.084  14.496 -0.0107  0.1119 -0.2405
  779MPD2    C111542   4.518   1.128  14.459 -0.2632  0.1293 -0.6818
  779MPD2    C211543   4.544   1.263  14.461 -0.2884 -0.2408  0.0756
  779MPD2    C311544   4.448   1.352  14.515 -0.0051 -0.5713  0.2175
  779MPD2    C411545   4.328   1.301  14.562 -0.6725 -0.5366  0.3616
  779MPD2    C511546   4.298   1.169  14.550 -0.2749  0.1134 -0.3092
  779MPD2     H11547   4.638   1.300  14.421 -0.6344  0.4821 -0.0550
  779MPD2    H111548   4.257   1.371  14.605  0.0048 -0.3426  1.1689
  779MPD2    H211549   4.361   0.981  14.485  1.9637 -0.5386 -0.0412
  779MPD2    H311550   4.197   1.131  14.558 -0.9553  2.3190  1.7404
  779MPD2     N11551   4.480   1.485  14.530  0.0940  0.2645  0.2473
  779MPD2    H511552   4.579   1.499  14.512  0.3810 -0.7827  1.0542
  779MPD2    N111553   4.620   1.042  14.409  0.0444 -1.1258 -0.2650
  779MPD2    H711554   4.712   1.080  14.387 -0.9096  1.1120 -0.4751
  780MPD2     C11555   4.293   0.923   0.471  0.3871  0.1265 -0.5345
  780MPD2    C111556   4.200   0.889   0.376  0.4680  0.4955  0.4391
  780MPD2    C211557   4.114   0.985   0.340 -0.2307  0.0497  0.0462
  780MPD2    C311558   4.112   1.119   0.385  0.0652  0.0117  0.7852
  780MPD2    C411559   4.214   1.149   0.477 -0.2468  0.5605 -0.1351
  780MPD2    C511560   4.291   1.045   0.520  0.9209  0.0991 -0.2486
  780MPD2     H11561   4.036   0.967   0.268  1.6037  0.5958 -2.0865
  780MPD2    H111562   4.207   1.240   0.534 -0.6140  0.2107  0.3805
  780MPD2    H211563   4.337   0.840   0.525 -3.2238 -2.1504 -1.0431
  780MPD2    H311564   4.362   1.063   0.600  2.2377 -0.9762 -1.1902
  780MPD2     N11565   4.009   1.196   0.340  0.3058  0.2164  0.1121
  780MPD2    H511566   3.941   1.166   0.271  1.0933 -0.9078 -0.1749
  780MPD2    N111567   4.198   0.746   0.341  0.2532 -0.5521  0.2229
  780MPD2    H711568   4.263   0.684   0.388  2.2712  3.4194  2.6932
  781MPD2     C11569   0.971   2.646  11.737 -0.1113  0.3548 -0.2647
  781MPD2    C111570   0.987   2.780  11.773 -0.1403 -0.0419 -0.4348
  781MPD2    C211571   1.008   2.872  11.674  1.1089  0.4882  0.1377
  781MPD2    C311572   1.007   2.838  11.539 -0.0594 -0.9678 -0.0925
  781MPD2    C411573   0.983   2.704  11.503 -0.7731  0.1073 -0.6360
  781MPD2    C511574   0.965   2.608  11.607 -0.7605  0.3860  0.6942
  781MPD2     H11575   1.035   2.973  11.702 -0.6256  1.1781 -0.6704
  781MPD2    H111576   0.979   2.666  11.401  0.4211 -3.9072  0.8096
  781MPD2    H211577   0.946   2.569  11.810  0.6951  0.2056 -0.1517
  781MPD2    H311578   0.943   2.506  11.577  3.0492 -0.9728  2.5601
  781MPD2     N11579   1.030   2.925  11.436  0.1031  0.3249 -0.1844
  781MPD2    H511580   1.019   2.878  11.346 -0.5560  2.1523 -1.0685
  781MPD2    N111581   0.974   2.810  11.912 -0.6186  0.0199 -0.3234
  781MPD2    H711582   0.955   2.736  11.978  2.4080 -1.0678 -0.6536
  782MPD2     C11583   3.391   3.741  10.023  0.4093  0.4630 -0.1763
  782MPD2    C111584   3.498   3.661  10.041 -0.1587  0.4890  0.0899
  782MPD2    C211585   3.627   3.715  10.055 -0.0304 -0.0047  0.4136
  782MPD2    C311586   3.642   3.854  10.038 -0.3348 -0.5866 -0.5810
  782MPD2    C411587   3.532   3.935  10.000  0.2432 -0.5851  0.0056
  782MPD2    C511588   3.408   3.875  10.000 -0.1504  0.6025  1.2984
  782MPD2     H11589   3.715   3.656  10.077 -0.6344 -0.7257  0.8766
  782MPD2    H111590   3.535   4.043   9.997  0.7422 -0.5391  2.1853
  782MPD2    H211591   3.290   3.703  10.034  1.2177 -0.9726  2.1465
  782MPD2    H311592   3.318   3.935   9.991 -0.9016 -0.7571 -0.2633
  782MPD2     N11593   3.767   3.902  10.078  0.4710  0.2461 -0.2536
  782MPD2    H511594   3.822   3.825  10.114 -1.2422 -0.6425  0.4095
  782MPD2    N111595   3.486   3.521  10.070 -0.3593 -0.5910  0.1029
  782MPD2    H711596   3.401   3.488  10.113  1.0026 -3.9515  0.2221
  783MPD2     C11597   2.981   3.252  10.673  0.2233 -0.1578 -0.3520
  783MPD2    C111598   3.020   3.364  10.603  0.6127 -1.2614 -1.0491
  783MPD2    C211599   3.095   3.360  10.487  0.0466  0.2144  0.1708
  783MPD2    C311600   3.145   3.240  10.446 -0.4844  0.3361  0.5348
  783MPD2    C411601   3.098   3.127  10.508 -0.8373 -0.1454  0.4034
  783MPD2    C511602   3.005   3.133  10.612 -0.2169 -0.0229  0.4482
  783MPD2     H11603   3.138   3.447  10.437  1.8646  0.2185  1.7530
  783MPD2    H111604   3.129   3.029  10.475  0.2621  0.0453  0.8613
  783MPD2    H211605   2.906   3.270  10.749  0.5042  1.4874 -0.4621
  783MPD2    H311606   2.978   3.041  10.660  0.8062 -0.5143  0.0824
  783MPD2     N11607   3.252   3.242  10.351  0.0533 -0.6923  0.1462
  783MPD2    H511608   3.267   3.333  10.307  0.2906 -1.4227 -1.2635
  783MPD2    N111609   2.991   3.489  10.659 -0.1266  0.6388  0.3516
  783MPD2    H711610   2.941   3.495  10.747 -1.2891 -0.9895 -0.1910
  784MPD2     C11611   1.533   3.749   0.839  0.1476  0.3403 -0.2668
  784MPD2    C111612   1.583   3.879   0.829 -0.8829 -0.6708  0.3363
  784MPD2    C211613   1.510   3.984   0.788 -0.0403  0.1655  0.4837
  784MPD2    C311614   1.373   3.958   0.762 -0.3361  0.2697  0.2656
  784MPD2    C411615   1.319   3.835   0.787 -0.0814 -0.3182 -0.2352
  784MPD2    C511616   1.399   3.728   0.819 -0.4479 -0.3625  0.5143
  784MPD2     H11617   1.561   4.074   0.756 -3.0533  1.8115  0.3918
  784MPD2    H111618   1.217   3.815   0.756  0.3337 -0.0057 -1.8424
  784MPD2    H211619   1.593   3.661   0.859 -0.4087 -0.1055 -0.5460
  784MPD2    H311620   1.367   3.629   0.848 -0.0170 -0.7721 -0.3912
  784MPD2     N11621   1.307   4.074   0.715 -0.3514 -0.2031  0.6961
  784MPD2    H511622   1.367   4.155   0.703  0.9264 -1.2554  0.0444
  784MPD2    N111623   1.718   3.907   0.843  0.4601  0.2537  1.0518
  784MPD2    H711624   1.746   4.005   0.844  0.2029  0.3268  0.4237
  785MPD2     C11625   1.620   2.633  10.311  0.3569 -0.1436 -0.3888
  785MPD2    C111626   1.484   2.622  10.341  0.4485  0.2505 -0.0267
  785MPD2    C211627   1.414   2.528  10.265 -0.8254  0.3146  0.8534
  785MPD2    C311628   1.471   2.465  10.156  0.4446  0.2017 -0.2712
  785MPD2    C411629   1.602   2.488  10.120 -0.1281 -0.2735  0.5365
  785MPD2    C511630   1.677   2.571  10.203  0.1883  1.1837  0.9560
  785MPD2     H11631   1.310   2.506  10.288 -0.1436 -2.0774  1.5798
  785MPD2    H111632   1.652   2.452  10.030  1.3264 -0.1734  1.3032
  785MPD2    H211633   1.686   2.702  10.362 -0.2614 -2.3882  3.4756
  785MPD2    H311634   1.781   2.594  10.185  0.4463  1.3195  2.6335
  785MPD2     N11635   1.387   2.383  10.080  0.0088  0.3990  0.2237
  785MPD2    H511636   1.294   2.372  10.118 -0.4043  0.9931 -0.6093
  785MPD2    N111637   1.429   2.705  10.443 -0.7799 -0.0183 -0.6681
  785MPD2    H711638   1.490   2.772  10.489  0.2130 -1.0737 -0.4398
  786MPD2     C11639   0.034   0.475  14.336  0.0251  0.5463  0.5389
  786MPD2    C111640   0.143   0.416  14.269 -0.5988  0.7073 -0.1206
  786MPD2    C211641   0.278   0.438  14.309 -0.3063  1.2807  0.3535
  786MPD2    C311642   0.304   0.521  14.416  0.4631 -0.1727  0.5691
  786MPD2    C411643   0.198   0.584  14.475  0.7613  0.1244 -0.2616
  786MPD2    C511644   0.062   0.560  14.440  0.1686 -0.1307 -0.9363
  786MPD2     H11645   0.363   0.400  14.253  0.7516  0.9440  2.2001
  786MPD2    H111646   0.220   0.655  14.554 -0.8996 -0.4174  0.6949
  786MPD2    H211647   4.672   0.452  14.304  0.0841 -0.4718  1.0932
  786MPD2    H311648   4.718   0.603  14.494 -0.7547 -0.1900 -2.3172
  786MPD2     N11649   0.434   0.538  14.468  0.1867 -0.3990 -0.7678
  786MPD2    H511650   0.442   0.595  14.552  0.2585 -1.4856 -0.0384
  786MPD2    N111651   0.131   0.329  14.158 -0.3212 -0.2761 -0.3582
  786MPD2    H711652   0.222   0.298  14.127 -0.4703 -2.5317  1.4111
  787MPD2     C11653   0.317   4.427  13.621  0.0611 -0.7366  0.2127
  787MPD2    C111654   0.325   4.483  13.752 -0.0718 -0.0306  0.3402
  787MPD2    C211655   0.424   4.439  13.835 -0.1336  0.7432 -0.1421
  787MPD2    C311656   0.497   4.323  13.800 -0.7099  0.2381 -0.3867
  787MPD2    C411657   0.491   4.274  13.670  0.1388  0.5584 -0.3340
  787MPD2    C511658   0.397   4.328  13.581 -0.6754 -0.3804 -0.1322
  787MPD2     H11659   0.438   4.479  13.934 -3.5457 -1.6621  1.3123
  787MPD2    H111660   0.550   4.188  13.640 -0.3547 -0.3244  1.2440
  787MPD2    H211661   0.245   4.455  13.545 -0.4395 -0.1209  0.9090
  787MPD2    H311662   0.379   4.298  13.478 -0.3228  1.6104 -0.7810
  787MPD2     N11663   0.580   4.271  13.897  0.1837 -0.6508 -0.2389
  787MPD2    H511664   0.573   4.309  13.991 -0.5105 -0.2425 -0.4596
  787MPD2    N111665   0.234   4.591  13.781 -0.5878 -0.4697 -0.3005
  787MPD2    H711666   0.161   4.595  13.711 -1.6234  2.8929  0.9506
  788MPD2     C11667   2.581   3.370   0.646  0.2047 -0.0529  0.2213
  788MPD2    C111668   2.475   3.341   0.561  0.3780 -0.1555  0.2784
  788MPD2    C211669   2.418   3.440   0.482 -0.6838 -0.5666 -0.0121
  788MPD2    C311670   2.472   3.569   0.485  0.0369 -0.5511 -0.4020
  788MPD2    C411671   2.575   3.594   0.575 -0.0460 -0.3257  0.4126
  788MPD2    C511672   2.626   3.496   0.655 -0.4125  0.1069  0.4880
  788MPD2     H11673   2.333   3.408   0.423 -1.7881  2.7933 -0.2709
  788MPD2    H111674   2.620   3.692   0.579 -0.8556  0.0781 -0.3632
  788MPD2    H211675   2.629   3.297   0.710 -1.4703 -1.7723 -0.4781
  788MPD2    H311676   2.712   3.516   0.717  0.1010 -0.5214 -0.0164
  788MPD2     N11677   2.424   3.678   0.405 -0.3566 -0.1335  0.1890
  788MPD2    H511678   2.479   3.763   0.415  0.8068 -0.6625 -1.6679
  788MPD2    N111679   2.419   3.213   0.550 -0.5008 -0.3613 -0.0172
  788MPD2    H711680   2.357   3.199   0.471  0.8206 -0.0066 -1.1192
  789MPD2     C11681   2.494   3.217  16.518  0.9266  0.6318  0.3169
  789MPD2    C111682   2.420   3.224  16.397  0.2398  0.0829 -0.1269
  789MPD2    C211683   2.313   3.314  16.397 -0.9016 -0.3386  1.1648
  789MPD2    C311684   2.288   3.401  16.503 -0.1224  0.0216 -0.2368
  789MPD2    C411685   2.375   3.400  16.603  0.2915  0.0730 -0.1679
  789MPD2    C511686   2.470   3.306  16.621  0.1838  0.5949 -0.5842
  789MPD2     H11687   2.241   3.312  16.317 -1.4637 -0.5032  1.6745
  789MPD2    H111688   2.353   3.463  16.688  1.5821  0.2372  0.0474
  789MPD2    H211689   2.570   3.140  16.530  0.0909 -0.1104  0.7989
  789MPD2    H311690   2.518   3.293  16.717 -0.2611 -2.0211 -0.7082
  789MPD2     N11691   2.164   3.468  16.532  0.0696 -0.3589  0.6258
  789MPD2    H511692   2.140   3.492  16.628  2.6771 -1.1388  1.4535
  789MPD2    N111693   2.435   3.133  16.295 -0.7075 -0.5821  0.3000
  789MPD2    H711694   2.364   3.137  16.222 -1.5528 -0.0368  1.1490
  790MPD2     C11695   3.712   4.430  13.230 -0.7450  0.0774  0.7002
  790MPD2    C111696   3.618   4.531  13.229 -0.2177  0.7727  0.3290
  790MPD2    C211697   3.526   4.544  13.129 -0.1978  0.0094  0.9687
  790MPD2    C311698   3.524   4.437  13.032  0.2825  0.1377  0.0827
  790MPD2    C411699   3.620   4.340  13.033 -0.0821  0.0012  0.5705
  790MPD2    C511700   3.715   4.331  13.135 -0.5213 -0.3565 -0.3695
  790MPD2     H11701   3.454   4.624  13.117  0.5463  0.6652  0.9085
  790MPD2    H111702   3.623   4.260  12.959  3.1847 -1.1138  1.9439
  790MPD2    H211703   3.792   4.431  13.303  1.9375 -1.3529 -2.1973
  790MPD2    H311704   3.790   4.253  13.139 -1.5624 -1.3019  0.9137
  790MPD2     N11705   3.420   4.444  12.932  0.0625  0.3190  0.4199
  790MPD2    H511706   3.364   4.528  12.928 -0.4636  0.0477  2.0894
  790MPD2    N111707   3.634   4.628  13.332  0.3273  0.3263  0.3674
  790MPD2    H711708   3.703   4.615  13.405 -0.5587  1.6963  1.4310
  791MPD2     C11709   2.649   4.676  12.814 -0.3611  0.2019 -0.0397
  791MPD2    C111710   2.710   4.554  12.814 -0.9160 -0.5143 -0.2351
  791MPD2    C211711   2.634   4.436  12.816 -0.3371  0.3785  0.2806
  791MPD2    C311712   2.497   4.452  12.814 -0.4379 -0.5284  0.1368
  791MPD2    C411713   2.437   4.568  12.819  0.0147 -0.1027  0.2260
  791MPD2    C511714   2.511   4.679  12.814  0.0721 -0.7926  0.1724
  791MPD2     H11715   2.667   4.333  12.817 -0.2631  0.4067  1.1405
  791MPD2    H111716   2.329   4.583  12.817  0.1420  1.2024  2.6966
  791MPD2    H211717   2.708   0.027  12.799  0.2950 -0.9247 -4.1323
  791MPD2    H311718   2.474   0.041  12.827 -0.5529 -0.9943 -0.0436
  791MPD2     N11719   2.413   4.333  12.808 -0.5859 -0.0796 -0.1600
  791MPD2    H511720   2.459   4.243  12.797 -0.9931 -0.4087  0.8115
  791MPD2    N111721   2.849   4.557  12.812  0.0540 -0.3660 -0.4755
  791MPD2    H711722   2.887   4.651  12.804 -1.6525  0.4953  1.3935
  792MPD2     C11723   3.619   4.560  10.639 -0.0517  0.7255 -0.3359
  792MPD2    C111724   3.587   4.692  10.657  0.2417 -0.1924  0.2370
  792MPD2    C211725   3.456   4.713  10.691  0.2675  0.3303  0.0675
  792MPD2    C311726   3.357   4.613  10.691  0.4284 -0.1911  0.3307
  792MPD2    C411727   3.393   4.488  10.651 -0.4239 -0.3247  0.6123
  792MPD2    C511728   3.528   4.454  10.632 -0.2576  0.7919 -0.2423
  792MPD2     H11729   3.430   0.073  10.728 -0.1795  0.1527  0.2366
  792MPD2    H111730   3.331   4.399  10.653 -0.5441 -0.2111  1.6113
  792MPD2    H211731   3.723   4.531  10.634  0.2470  1.4801  1.3465
  792MPD2    H311732   3.565   4.353  10.631  1.6008  1.4793 -0.6784
  792MPD2     N11733   3.220   4.631  10.720 -0.1130  0.0687 -0.3939
  792MPD2    H511734   3.160   4.549  10.711  0.9301 -0.7313  0.0156
  792MPD2    N111735   3.677   0.054  10.690  0.4502 -0.3970 -0.6435
  792MPD2    H711736   3.636   0.147  10.699 -0.0647 -0.7943  1.1394
  793MPD2     C11737   2.589   4.392  10.211  0.7465  0.4171 -0.1565
  793MPD2    C111738   2.722   4.417  10.215  0.1675 -0.4030  0.1206
  793MPD2    C211739   2.766   4.497  10.318 -0.5212  0.2135 -0.0468
  793MPD2    C311740   2.691   4.534  10.423  0.5743  0.0666  0.4630
  793MPD2    C411741   2.560   4.491  10.429  0.1373  0.5917  0.2789
  793MPD2    C511742   2.512   4.419  10.323 -0.0809 -0.9319  0.2993
  793MPD2     H11743   2.874   4.507  10.323 -0.4567  0.3180 -1.7552
  793MPD2    H111744   2.497   4.524  10.511 -0.3187  2.7883 -0.9506
  793MPD2    H211745   2.546   4.339  10.127  4.1848  0.3755 -1.8682
  793MPD2    H311746   2.406   4.405  10.308  0.0158  1.5323 -2.5698
  793MPD2     N11747   2.759   4.601  10.529 -0.1483 -0.0030  0.9448
  793MPD2    H511748   2.859   4.618  10.523 -0.2334  0.8936  2.0942
  793MPD2    N111749   2.810   4.367  10.119  0.5686 -0.6322 -0.4753
  793MPD2    H711750   2.905   4.403  10.122  0.6352 -0.8733  0.4936
  794MPD2     C11751   2.988   3.772  16.863 -0.5844 -0.0666 -0.2219
  794MPD2    C111752   2.967   3.892  16.917 -0.1754  0.4427  0.4912
  794MPD2    C211753   2.896   3.986  16.851 -0.4857  0.2289  0.3100
  794MPD2    C311754   2.833   3.951  16.733 -0.3883  0.1243 -0.7410
  794MPD2    C411755   2.860   3.830  16.677 -0.1572  0.4211  0.2519
  794MPD2    C511756   2.938   3.742  16.744 -0.2957  0.2170  0.7160
  794MPD2     H11757   2.881   4.082  16.898 -0.5326  0.9572 -1.2035
  794MPD2    H111758   2.820   3.797  16.581  2.3417  1.5324 -1.1759
  794MPD2    H211759   3.056   3.702  16.910  0.9836  1.0349 -0.8448
  794MPD2    H311760   2.963   3.647  16.699  0.5940  1.9809 -2.5441
  794MPD2     N11761   2.758   4.045  16.664 -0.0554  0.4464  0.0875
  794MPD2    H511762   2.761   4.042  16.563 -1.8005 -0.6823  0.0825
  794MPD2    N111763   3.028   3.936  17.039 -0.3871 -0.9259  0.6668
  794MPD2    H711764   3.028   4.034  17.065  0.7897 -0.7279 -0.1097
  795MPD2     C11765   1.455   1.312  12.985  0.1358  0.2517 -0.2583
  795MPD2    C111766   1.368   1.234  13.059 -0.1249 -0.0805  0.5050
  795MPD2    C211767   1.410   1.168  13.172  0.1746  0.1141 -0.3191
  795MPD2    C311768   1.538   1.177  13.214 -0.1233 -0.1657  0.8576
  795MPD2    C411769   1.615   1.262  13.148  0.2458 -0.0645 -1.1431
  795MPD2    C511770   1.580   1.335  13.034 -0.6116  0.0159 -0.2845
  795MPD2     H11771   1.333   1.113  13.225  0.5355 -0.2672 -0.2027
  795MPD2    H111772   1.716   1.276  13.187  1.3236 -1.2156 -3.5659
  795MPD2    H211773   1.435   1.360  12.890  1.1033  0.2322 -0.4697
  795MPD2    H311774   1.653   1.400  12.987 -0.2718  0.7245  1.2139
  795MPD2     N11775   1.592   1.106  13.320  0.0763 -0.4110  1.0114
  795MPD2    H511776   1.684   1.132  13.356  0.8111 -0.3818 -0.8908
  795MPD2    N111777   1.230   1.217  13.036  0.6000 -0.0819  0.4103
  795MPD2    H711778   1.182   1.142  13.084  0.0705 -0.2822 -0.4175
  796MPD2     C11779   0.032   2.860  15.981 -0.0303 -0.0141 -0.1769
  796MPD2    C111780   0.108   2.919  16.076 -0.1905  0.0931  0.3031
  796MPD2    C211781   0.149   3.052  16.064  0.3070 -0.1039  0.7306
  796MPD2    C311782   0.106   3.127  15.958  0.3987 -0.4727 -0.5361
  796MPD2    C411783   0.032   3.066  15.856  0.8793 -0.0052 -0.4176
  796MPD2    C511784   0.009   2.930  15.869 -0.7172 -0.3878 -0.1748
  796MPD2     H11785   0.214   3.105  16.133 -0.0297  1.0102  0.1911
  796MPD2    H111786   4.732   3.120  15.771  2.5857  1.0838 -0.5096
  796MPD2    H211787   4.728   2.761  15.989  1.0242 -0.4423  0.1896
  796MPD2    H311788   4.694   2.881  15.789  0.1913  0.8657 -1.5579
  796MPD2     N11789   0.143   3.264  15.956  0.6073  0.0691 -0.7144
  796MPD2    H511790   0.174   3.289  16.049 -1.3739 -0.2186  0.0377
  796MPD2    N111791   0.165   2.830  16.169  0.0696 -0.5042  0.1770
  796MPD2    H711792   0.154   2.731  16.149 -0.6953 -0.2664 -0.6021
  797MPD2     C11793   1.488   2.533  16.699  0.1897  0.5204 -0.5376
  797MPD2    C111794   1.523   2.608  16.803  0.6979  1.0180  0.4729
  797MPD2    C211795   1.433   2.708  16.842 -0.0018 -0.4955  0.6517
  797MPD2    C311796   1.307   2.731  16.785 -0.6188 -0.9158  0.0231
  797MPD2    C411797   1.276   2.641  16.680 -0.5565 -0.0686 -0.1193
  797MPD2    C511798   1.366   2.544  16.636  0.9138 -0.5315  0.2108
  797MPD2     H11799   1.469   2.768  16.924 -0.6989 -0.2640  0.7850
  797MPD2    H111800   1.185   2.652  16.622 -1.3965  0.5805  1.2977
  797MPD2    H211801   1.549   2.455  16.655 -2.7366 -1.7115 -0.6044
  797MPD2    H311802   1.350   2.490  16.543  1.8693  0.1587 -0.3469
  797MPD2     N11803   1.220   2.840  16.824 -0.6843 -0.0442 -0.2717
  797MPD2    H511804   1.126   2.850  16.785 -1.2529  2.1918  1.6630
  797MPD2    N111805   1.640   2.592  16.874 -1.0018 -0.1451 -0.1160
  797MPD2    H711806   1.638   2.647  16.960 -0.0058 -0.9116  0.3904
  798MPD2     C11807   1.518   3.088  17.426  0.7319  0.4633 -0.4411
  798MPD2    C111808   1.479   3.053  17.296 -0.2526 -0.2529  0.0060
  798MPD2    C211809   1.560   2.960  17.232  0.1270 -0.1781  0.2664
  798MPD2    C311810   1.676   2.895  17.287  0.6195 -0.1386 -0.0512
  798MPD2    C411811   1.707   2.926  17.412 -0.7379 -0.5015  0.7068
  798MPD2    C511812   1.631   3.027  17.477 -0.6279 -0.1071  0.6219
  798MPD2     H11813   1.527   2.923  17.136  1.2629  0.3223 -0.3105
  798MPD2    H111814   1.792   2.890  17.469 -0.8302  0.0824  1.2230
  798MPD2    H211815   1.454   3.153  17.485  1.1768 -2.1141  2.8618
  798MPD2    H311816   1.674   3.048  17.574 -0.9752  0.3079  0.6850
  798MPD2     N11817   1.742   2.791  17.210 -0.4558  0.1408  0.0720
  798MPD2    H511818   1.708   2.777  17.115 -0.2448  0.5419 -0.0612
  798MPD2    N111819   1.366   3.098  17.224  1.3751  0.3340 -0.5031
  798MPD2    H711820   1.366   3.051  17.134 -0.0454  0.4211 -0.5418
  799MPD2     C11821   0.074   4.285  14.371 -0.2704 -0.0130  0.2746
  799MPD2    C111822   4.737   4.170  14.338  0.4975 -0.3081 -0.5526
  799MPD2    C211823   4.651   4.176  14.233  0.3482 -0.0216  0.6555
  799MPD2    C311824   4.650   4.294  14.160 -0.2132  0.2892 -0.7812
  799MPD2    C411825   4.732   4.401  14.182 -0.3196 -0.0632  0.4336
  799MPD2    C511826   0.073   4.400  14.289  0.1098 -0.1023 -0.3728
  799MPD2     H11827   4.593   4.089  14.206 -1.0345  1.2049 -0.3376
  799MPD2    H111828   4.738   4.490  14.120  2.4757 -0.8632 -0.4078
  799MPD2    H211829   0.137   4.295  14.459 -0.6885  0.3299  0.5310
  799MPD2    H311830   0.137   4.485  14.309  0.6792 -0.6680  0.1945
  799MPD2     N11831   4.562   4.313  14.054  0.3769 -0.5033  0.6256
  799MPD2    H511832   4.571   4.399  13.999  0.4406 -0.5547  0.5564
  799MPD2    N111833   4.728   4.063  14.418 -0.0621  0.6752  0.4386
  799MPD2    H711834   4.647   4.002  14.410 -0.5492  1.3383  0.3069
  800MPD2     C11835   0.690   0.727  14.033  0.2845  0.5431 -0.1237
  800MPD2    C111836   0.801   0.660  14.084  0.3908 -0.1649  0.2655
  800MPD2    C211837   0.851   0.559  14.002  0.0896 -0.3036  0.5210
  800MPD2    C311838   0.787   0.530  13.881 -0.7688  0.2462 -0.1837
  800MPD2    C411839   0.665   0.591  13.842  0.2646  0.2789 -0.0356
  800MPD2    C511840   0.616   0.692  13.922 -0.0625 -0.3534  0.3331
  800MPD2     H11841   0.945   0.509  14.023  0.6265 -0.1478 -1.4770
  800MPD2    H111842   0.618   0.576  13.746 -0.9928  1.4234  0.3908
  800MPD2    H211843   0.653   0.813  14.088 -0.3706  1.8979 -2.6763
  800MPD2    H311844   0.536   0.759  13.892  0.2106  0.0018  0.3908
  800MPD2     N11845   0.851   0.430  13.800 -0.3862  0.1512 -0.6093
  800MPD2    H511846   0.949   0.415  13.822 -0.2282  1.9903 -0.0718
  800MPD2    N111847   0.865   0.710  14.203 -0.0021  0.1087 -0.0604
  800MPD2    H711848   0.841   0.802  14.239  1.6798  0.4791  0.1318
  801MPD2     C11849   1.194   1.344  14.330  0.2965  0.7939  0.2255
  801MPD2    C111850   1.091   1.259  14.295 -0.5668  0.2279  0.3235
  801MPD2    C211851   0.975   1.311  14.244  0.3299  0.0047  0.3341
  801MPD2    C311852   0.962   1.441  14.218 -0.1588 -0.4965 -0.1576
  801MPD2    C411853   1.064   1.528  14.255  0.2433  0.2216  0.5382
  801MPD2    C511854   1.185   1.476  14.305 -0.1723  1.1670  0.1900
  801MPD2     H11855   0.897   1.244  14.210 -1.2916  0.9048  2.3003
  801MPD2    H111856   1.064   1.636  14.249 -1.4228  0.1397 -0.7599
  801MPD2    H211857   1.286   1.304  14.372  0.1123  1.4223  1.2192
  801MPD2    H311858   1.273   1.534  14.329  0.3486  1.0517 -1.4404
  801MPD2     N11859   0.852   1.505  14.152 -0.4867 -0.2741 -0.0310
  801MPD2    H511860   0.865   1.605  14.162 -1.2937 -0.2891  1.1553
  801MPD2    N111861   1.093   1.119  14.330  0.1403 -0.7172  0.2133
  801MPD2    H711862   1.006   1.069  14.316 -0.8419  0.6598  1.4397
  802MPD2     C11863   4.560   1.595   0.986  0.9928  0.5833  0.2652
  802MPD2    C111864   4.526   1.619   0.859  0.4733 -0.0779  0.3738
  802MPD2    C211865   4.570   1.522   0.767  0.8024 -0.4967  1.3655
  802MPD2    C311866   4.643   1.405   0.803 -1.0796  0.4825 -0.1250
  802MPD2    C411867   4.658   1.383   0.935  0.5312  0.8845  0.3342
  802MPD2    C511868   4.613   1.476   1.021 -0.1163  0.6823  0.6527
  802MPD2     H11869   4.544   1.536   0.663  1.3769  2.4703  1.6127
  802MPD2    H111870   4.702   1.294   0.978 -0.4728  0.2821  0.1037
  802MPD2    H211871   4.525   1.664   1.062 -3.1500 -0.7539 -0.4404
  802MPD2    H311872   4.619   1.463   1.128 -1.3249 -0.1072  0.6278
  802MPD2     N11873   4.684   1.319   0.702 -0.1689  0.3981  0.5346
  802MPD2    H511874   4.650   1.331   0.607 -0.4724 -0.8297  0.4909
  802MPD2    N111875   4.468   1.736   0.813 -0.5504 -0.6275 -0.0312
  802MPD2    H711876   4.471   1.743   0.712 -0.5051  1.3620  0.1090
  803MPD2     C11877   0.584   4.613  11.999 -0.5695  0.4026  0.3838
  803MPD2    C111878   0.635   0.003  12.041 -0.5554 -0.4671 -0.1257
  803MPD2    C211879   0.747   0.005  12.127  0.0743  0.4429  0.9450
  803MPD2    C311880   0.792   4.632  12.189 -0.0570  0.4231 -0.8000
  803MPD2    C411881   0.733   4.513  12.157  0.5388 -0.3500  0.4934
  803MPD2    C511882   0.637   4.499  12.062 -0.6591 -0.4335  0.7785
  803MPD2     H11883   0.801   0.100  12.127 -1.1531  1.1455 -0.1226
  803MPD2    H111884   0.759   4.418  12.202  0.8688 -0.6613 -0.3439
  803MPD2    H211885   0.505   4.592  11.927  0.2714  2.3470 -1.1203
  803MPD2    H311886   0.596   4.402  12.035 -0.5212  0.4306 -2.6434
  803MPD2     N11887   0.890   4.627  12.291 -0.1710 -0.4690 -0.4794
  803MPD2    H511888   0.935   4.540  12.317  0.5974  0.4460  1.2659
  803MPD2    N111889   0.582   0.126  11.993 -0.2727 -0.3584  0.1317
  803MPD2    H711890   0.623   0.216  12.018 -1.0741 -0.4613  1.8226
  804MPD2     C11891   0.985   1.488  17.007 -0.2527  0.5431 -0.0081
  804MPD2    C111892   1.072   1.454  17.105 -0.5530 -0.1478  0.0044
  804MPD2    C211893   1.169   1.552  17.137  0.1626 -0.1805 -0.4817
  804MPD2    C311894   1.163   1.678  17.072 -0.0730  0.4676 -1.0089
  804MPD2    C411895   1.062   1.711  16.988  0.2853 -0.3869  0.0290
  804MPD2    C511896   0.983   1.613  16.941 -0.0126  0.4123  0.1757
  804MPD2     H11897   1.248   1.516  17.201 -1.9393 -1.4458  1.3782
  804MPD2    H111898   1.054   1.809  16.941  0.2779  0.1236  1.1146
  804MPD2    H211899   0.911   1.412  16.984 -1.1567  2.1311 -2.2193
  804MPD2    H311900   0.919   1.638  16.858  0.5319 -1.7074 -0.9014
  804MPD2     N11901   1.274   1.769  17.095 -0.4674 -0.6154  0.0275
  804MPD2    H511902   1.349   1.730  17.150  1.0435  0.9107 -0.9408
  804MPD2    N111903   1.066   1.327  17.162 -0.5919  0.3041 -0.4305
  804MPD2    H711904   1.008   1.254  17.122  0.5454  0.6441 -2.7026
  805MPD2     C11905   4.625   4.575  15.368  0.2397  0.2826  0.4888
  805MPD2    C111906   0.008   4.540  15.315 -0.0760  0.0407  0.0610
  805MPD2    C211907   0.120   4.544  15.397 -0.0663 -0.4473  0.7371
  805MPD2    C311908   0.121   4.589  15.525 -0.6078  0.2763 -0.1675
  805MPD2    C411909   0.000   4.620  15.579  0.2432  0.3499  0.9083
  805MPD2    C511910   4.625   4.611  15.500  0.0413 -0.7497 -0.1150
  805MPD2     H11911   0.214   4.526  15.346 -0.3950 -1.9380  0.6301
  805MPD2    H111912   4.728   4.642  15.684  0.3120  1.6313  0.6489
  805MPD2    H211913   4.532   4.576  15.312  0.8036  1.2499 -0.4307
  805MPD2    H311914   4.525   4.623  15.540 -0.0531 -2.8246  0.2604
  805MPD2     N11915   0.245   4.607  15.596 -0.2302  0.5200  0.2248
  805MPD2    H511916   0.337   4.593  15.556  0.4104  0.4082  1.6986
  805MPD2    N111917   0.017   4.510  15.175  0.9731 -0.2929  0.0902
  805MPD2    H711918   0.114   4.501  15.147  1.0016  2.4657 -0.7029
  806MPD2     C11919   0.339   3.658   0.013  0.2543 -0.0918  0.1371
  806MPD2    C111920   0.394   3.702   0.131 -0.3716  0.5838 -0.3033
  806MPD2    C211921   0.483   3.807   0.139  0.3447 -0.0517  0.1433
  806MPD2    C311922   0.522   3.866   0.013 -0.0803  0.0073 -0.5527
  806MPD2    C411923   0.481   3.804  17.646  0.3430  0.4582  0.3687
  806MPD2    C511924   0.380   3.709  17.650 -0.1331 -0.4722 -1.2315
  806MPD2     H11925   0.533   3.853   0.224 -1.0787 -0.2720  1.0855
  806MPD2    H111926   0.504   3.853  17.552  0.9579 -1.2460 -0.3700
  806MPD2    H211927   0.254   3.590   0.010 -0.3067  0.6139 -0.0316
  806MPD2    H311928   0.329   3.680  17.560 -0.6862 -1.1519 -0.7015
  806MPD2     N11929   0.599   3.984   0.017  0.3371 -0.2136  0.3025
  806MPD2    H511930   0.622   4.007   0.114 -1.2741 -0.3908  0.7189
  806MPD2    N111931   0.354   3.637   0.252  0.1010 -0.0147 -0.7275
  806MPD2    H711932   0.299   3.551   0.253 -0.6660  0.4842 -0.0824
  807MPD2     C11933   4.473   3.422   0.584  0.1048  0.3369  0.4321
  807MPD2    C111934   4.581   3.341   0.606  0.9464  0.2135 -0.1944
  807MPD2    C211935   4.560   3.211   0.642  0.3426  0.2721  0.2312
  807MPD2    C311936   4.432   3.156   0.662  0.2625  0.6450 -0.1831
  807MPD2    C411937   4.324   3.240   0.631  0.5148  0.2634  0.1131
  807MPD2    C511938   4.353   3.370   0.596 -0.0373  0.5313  0.7763
  807MPD2     H11939   4.643   3.142   0.654  2.1132  2.2005 -1.0180
  807MPD2    H111940   4.221   3.207   0.631  0.5998 -0.0135 -1.1505
  807MPD2    H211941   4.486   3.518   0.536  0.5246  1.0308  1.9388
  807MPD2    H311942   4.276   3.435   0.558  1.0456  1.0138 -0.5780
  807MPD2     N11943   4.418   3.022   0.704  0.4929 -0.2100 -0.2535
  807MPD2    H511944   4.498   2.964   0.725  0.5322  0.5804  1.7198
  807MPD2    N111945   4.711   3.382   0.616  0.3396 -0.2155 -0.5367
  807MPD2    H711946   0.039   3.310   0.636  1.5487  0.6439 -1.4636
  808MPD2     C11947   1.586   0.634  10.069 -0.0171 -0.1327 -0.3599
  808MPD2    C111948   1.458   0.683  10.081 -0.2646 -0.2599 -0.8933
  808MPD2    C211949   1.439   0.815  10.107 -0.0068 -0.1795 -0.2600
  808MPD2    C311950   1.548   0.901  10.131 -0.0480  0.8018 -0.5322
  808MPD2    C411951   1.674   0.849  10.115  0.1550  0.0226  0.2687
  808MPD2    C511952   1.690   0.720  10.083  0.0401  0.0030  0.1246
  808MPD2     H11953   1.344   0.861  10.130 -0.5402 -0.1749 -2.5091
  808MPD2    H111954   1.760   0.913  10.129 -0.7581  0.7793  2.4376
  808MPD2    H211955   1.612   0.534  10.034 -0.6193 -0.2379 -0.5081
  808MPD2    H311956   1.793   0.690  10.067  0.2208  1.0467 -0.6901
  808MPD2     N11957   1.541   1.040  10.138 -0.2475 -0.3993 -0.0218
  808MPD2    H511958   1.635   1.073  10.156 -0.7396  3.1746 -3.8356
  808MPD2    N111959   1.345   0.599  10.075 -0.3589  0.1273  0.7063
  808MPD2    H711960   1.251   0.637  10.075 -0.3877  0.0955 -1.7213
  809MPD2     C11961   1.953   1.899   9.800 -0.4654 -0.3450 -0.4560
  809MPD2    C111962   1.947   1.763   9.758 -0.1570  0.1080 -0.3786
  809MPD2    C211963   1.876   1.672   9.834 -0.1433  0.5545 -0.0026
  809MPD2    C311964   1.800   1.709   9.941  0.5953  0.0693 -0.0039
  809MPD2    C411965   1.819   1.839   9.988  0.3533 -0.5899  0.5395
  809MPD2    C511966   1.900   1.927   9.921  0.2599 -0.0380  0.0926
  809MPD2     H11967   1.872   1.569   9.798 -0.6222  1.2853 -2.0278
  809MPD2    H111968   1.780   1.872  10.084  1.1217  1.9523 -0.0505
  809MPD2    H211969   2.009   1.978   9.752  1.6552 -0.1982  2.2664
  809MPD2    H311970   1.906   2.023   9.971  0.8788  0.5759 -1.1590
  809MPD2     N11971   1.701   1.630  10.000  0.2477 -0.0318 -0.7876
  809MPD2    H511972   1.642   1.673  10.071 -0.1235  2.9809 -2.8848
  809MPD2    N111973   2.022   1.721   9.647 -0.2438  0.0054 -0.3296
  809MPD2    H711974   2.045   1.623   9.655 -0.9868 -0.0846  0.7554
  810MPD2     C11975   0.251   4.502  10.964  0.0884  0.4362 -0.4273
  810MPD2    C111976   0.235   4.551  10.841 -0.9806 -0.5680  0.1318
  810MPD2    C211977   0.220   4.694  10.829 -0.0050  0.2644 -0.5234
  810MPD2    C311978   0.256   0.033  10.940 -0.2029  0.1272  0.2454
  810MPD2    C411979   0.272   4.711  11.063 -0.5897 -0.1275 -1.0139
  810MPD2    C511980   0.271   4.575  11.078 -0.4902  0.3684 -0.3140
  810MPD2     H11981   0.198   4.732  10.729 -1.4203  0.2419 -0.2245
  810MPD2    H111982   0.297   0.027  11.153  0.5527 -0.5641 -1.0606
  810MPD2    H211983   0.238   4.398  10.992  1.0465  0.4431  0.0425
  810MPD2    H311984   0.276   4.536  11.179  3.0467  0.9220 -0.2829
  810MPD2     N11985   0.254   0.173  10.924 -0.4545 -0.4570 -0.2707
  810MPD2    H511986   0.244   0.227  11.009  1.6644 -2.8041  1.4463
  810MPD2    N111987   0.220   4.470  10.723 -0.1958  0.0910 -0.5766
  810MPD2    H711988   0.198   4.522  10.639  0.8991 -0.8297 -1.4381
  811MPD2     C11989   0.329   4.420   9.880  0.0704 -0.1578  0.7633
  811MPD2    C111990   0.344   4.475  10.002  0.0880 -0.1992 -0.2124
  811MPD2    C211991   0.374   4.609  10.009  0.2134  0.1649  0.4434
  811MPD2    C311992   0.400   4.686   9.896 -0.1352  0.0386  0.7416
  811MPD2    C411993   0.393   4.625   9.772  0.0569  0.6683 -1.0668
  811MPD2    C511994   0.351   4.499   9.767 -0.1204 -0.4359  0.3565
  811MPD2     H11995   0.371   4.655  10.107 -0.9183  0.6068  0.2055
  811MPD2    H111996   0.415   4.691   9.689  2.6630  0.1638 -0.7790
  811MPD2    H211997   0.289   4.320   9.865 -0.7609  0.5913 -2.1166
  811MPD2    H311998   0.344   4.458   9.667  0.6864  2.4056 -0.8563
  811MPD2     N11999   0.438   0.077   9.916  0.3141  0.0228  0.1197
  811MPD2    H512000   0.425   0.113  10.010 -3.3867 -1.8738  0.3088
  811MPD2    N112001   0.306   4.401  10.113  0.4094  0.0467 -0.4808
  811MPD2    H712002   0.261   4.311  10.104  2.6748 -1.1688  0.4042
  812MPD2     C12003   3.538   4.589  12.005  1.0472  0.2725  0.6664
  812MPD2    C112004   3.610   4.673  12.088  0.4243  0.3826  0.6112
  812MPD2    C212005   3.696   4.621  12.179  0.3379 -0.6292 -0.2809
  812MPD2    C312006   3.730   4.487  12.178 -0.3869  0.2601 -0.2386
  812MPD2    C412007   3.657   4.404  12.091  0.0520 -0.3300  0.9117
  812MPD2    C512008   3.552   4.455  12.021 -0.1026  0.2306 -0.3696
  812MPD2     H12009   3.743   4.683  12.255 -1.3436  1.5980 -1.0363
  812MPD2    H112010   3.686   4.300  12.082  2.8044  0.5137 -0.3287
  812MPD2    H212011   3.461   4.614  11.933 -0.1984 -1.3653  1.4276
  812MPD2    H312012   3.491   4.404  11.947  0.4628 -1.2958  0.2192
  812MPD2     N12013   3.836   4.445  12.264 -0.0925 -0.5316  0.5659
  812MPD2    H512014   3.857   4.508  12.341  1.6195  2.4460 -2.3109
  812MPD2    N112015   3.591   0.071  12.060  0.0353 -0.0124 -0.5584
  812MPD2    H712016   3.537   0.088  11.976  0.1619 -0.7848 -0.7960
  813MPD2     C12017   3.401   1.582  12.805 -0.1163 -0.6014  0.2757
  813MPD2    C112018   3.352   1.712  12.821  0.6147  0.6051 -0.2884
  813MPD2    C212019   3.236   1.728  12.897  0.4864 -0.1374 -0.4644
  813MPD2    C312020   3.161   1.628  12.940  0.1713  0.3888  0.3215
  813MPD2    C412021   3.211   1.497  12.925 -0.5505  0.3033 -0.3707
  813MPD2    C512022   3.326   1.476  12.852 -0.1931  0.4852  0.0446
  813MPD2     H12023   3.219   1.829  12.933 -1.9299  0.2333 -2.6186
  813MPD2    H112024   3.163   1.413  12.973  1.2863  0.8100  2.3632
  813MPD2    H212025   3.483   1.567  12.736  0.3450  0.7321  0.5311
  813MPD2    H312026   3.355   1.372  12.841 -0.0812  0.2658  2.4012
  813MPD2     N12027   3.049   1.663  13.007 -0.7806 -0.1156 -0.8020
  813MPD2    H512028   3.017   1.759  13.001 -1.0381 -0.1064  0.6846
  813MPD2    N112029   3.437   1.815  12.774  0.6377  0.7004  0.0820
  813MPD2    H712030   3.530   1.794  12.738 -0.6811  0.2362 -3.0891
  814MPD2     C12031   3.420   3.196  12.586  0.1649 -0.2252 -0.9888
  814MPD2    C112032   3.469   3.200  12.458 -0.2542  0.3267  0.4415
  814MPD2    C212033   3.494   3.321  12.399 -0.5174 -0.3731  0.3814
  814MPD2    C312034   3.505   3.435  12.479 -0.0277  0.1014  0.1805
  814MPD2    C412035   3.460   3.426  12.612 -0.2652 -0.4539  0.1700
  814MPD2    C512036   3.415   3.309  12.658  0.5178 -0.1265 -0.2489
  814MPD2     H12037   3.510   3.324  12.292 -1.4212 -0.2868  0.2488
  814MPD2    H112038   3.460   3.503  12.688 -1.5866 -2.4519  2.1942
  814MPD2    H212039   3.391   3.108  12.642  0.2518 -1.3120 -2.6586
  814MPD2    H312040   3.381   3.299  12.760  1.7702  1.6596  0.3319
  814MPD2     N12041   3.566   3.555  12.433 -0.4063 -0.2868  0.4262
  814MPD2    H512042   3.555   3.637  12.492 -2.4954 -1.5778  1.8191
  814MPD2    N112043   3.481   3.087  12.375 -0.3390 -0.1713  0.1343
  814MPD2    H712044   3.522   3.106  12.284 -0.9892  0.8226  0.0505
  815MPD2     C12045   4.205   1.738  11.754  0.2959 -0.7617  0.1926
  815MPD2    C112046   4.157   1.612  11.739  0.3597 -0.7440 -0.0296
  815MPD2    C212047   4.031   1.587  11.786 -0.4201  0.2782  0.3966
  815MPD2    C312048   3.958   1.677  11.861 -0.2454  0.0417  0.7178
  815MPD2    C412049   4.021   1.793  11.889 -0.2385 -0.0856  0.0623
  815MPD2    C512050   4.141   1.822  11.833 -0.0129  0.1533 -0.6959
  815MPD2     H12051   3.991   1.491  11.756  2.3895 -1.5585  2.5270
  815MPD2    H112052   3.978   1.864  11.959 -0.2665  1.3728 -1.4537
  815MPD2    H212053   4.308   1.755  11.726 -0.2698  1.5052 -0.4692
  815MPD2    H312054   4.181   1.922  11.842 -0.3355  0.4002 -1.9551
  815MPD2     N12055   3.824   1.644  11.910  0.3841 -0.6860 -0.4896
  815MPD2    H512056   3.783   1.565  11.862 -2.0733  1.2446 -1.5586
  815MPD2    N112057   4.234   1.511  11.681  0.0282  0.1719 -0.1122
  815MPD2    H712058   4.309   1.543  11.620  0.0786  0.2828  0.0080
  816MPD2     C12059   3.710   0.533  17.064 -0.7385 -0.5165 -0.5872
  816MPD2    C112060   3.789   0.614  17.137  0.5392  0.8812  0.5616
  816MPD2    C212061   3.922   0.578  17.149  0.5116 -0.2636 -0.6595
  816MPD2    C312062   3.973   0.459  17.097 -0.4341 -0.0457  0.0142
  816MPD2    C412063   3.887   0.371  17.025 -0.7302  0.3793  0.9554
  816MPD2    C512064   3.762   0.421  17.009 -0.2760 -0.1323 -0.5291
  816MPD2     H12065   3.994   0.647  17.193 -1.7096  2.1982 -0.8353
  816MPD2    H112066   3.901   0.266  17.004 -1.0049  0.6357 -0.5041
  816MPD2    H212067   3.607   0.557  17.042 -0.2883  1.5504 -0.3959
  816MPD2    H312068   3.684   0.361  16.963  0.5319 -2.0145  0.5773
  816MPD2     N12069   4.111   0.434  17.116  0.2446  0.1818  0.1215
  816MPD2    H512070   4.170   0.508  17.154 -2.3735  1.6314  1.3753
  816MPD2    N112071   3.735   0.736  17.178  0.4415  0.5520 -0.6037
  816MPD2    H712072   3.639   0.751  17.150 -0.6618 -2.6515  1.3656
  817MPD2     C12073   3.778   2.027   9.864  0.7115  0.1749  0.7561
  817MPD2    C112074   3.847   2.069   9.751 -0.3190  0.3980 -0.2174
  817MPD2    C212075   3.854   2.202   9.719 -0.4583 -0.1111  0.3100
  817MPD2    C312076   3.786   2.296   9.793 -0.3614 -0.0017 -0.3054
  817MPD2    C412077   3.714   2.248   9.900  0.5813 -0.3908  0.3173
  817MPD2    C512078   3.708   2.119   9.937  0.2601  0.4982 -0.4498
  817MPD2     H12079   3.899   2.228   9.624 -2.1694 -1.0601 -0.7678
  817MPD2    H112080   3.658   2.315   9.964 -2.1950 -0.2173 -2.2571
  817MPD2    H212081   3.768   1.924   9.896  2.1343  0.2130  1.3651
  817MPD2    H312082   3.651   2.098  10.026  2.8285 -0.3966  1.0010
  817MPD2     N12083   3.793   2.435   9.759  0.2563  0.2480 -0.5977
  817MPD2    H512084   3.837   2.454   9.670 -1.2654  1.4393 -1.0896
  817MPD2    N112085   3.918   1.971   9.671  0.4714 -0.5161 -0.1977
  817MPD2    H712086   3.980   2.004   9.598  2.6708  0.9099  2.3031
  818MPD2     C12087   2.483   2.601  10.005 -0.2611  0.3755  0.3177
  818MPD2    C112088   2.449   2.515  10.106  0.9504  0.2371 -0.0994
  818MPD2    C212089   2.501   2.384  10.097 -0.2263  0.0058  0.2446
  818MPD2    C312090   2.582   2.339   9.988 -0.0229  0.7472  0.4082
  818MPD2    C412091   2.596   2.430   9.881 -0.2121  0.0768  0.7773
  818MPD2    C512092   2.550   2.557   9.895 -0.2079 -0.4807  0.2692
  818MPD2     H12093   2.463   2.320  10.176 -0.9651  0.2757  0.1154
  818MPD2    H112094   2.661   2.412   9.796 -1.4989 -3.3034  0.5151
  818MPD2    H212095   2.447   2.702   9.990 -1.0530  0.1914  0.9567
  818MPD2    H312096   2.585   2.633   9.826 -3.7784  1.6617  0.8385
  818MPD2     N12097   2.597   2.203   9.957  0.6243  0.1775 -0.0004
  818MPD2    H512098   2.644   2.164   9.876  1.1750  1.9673 -0.5308
  818MPD2    N112099   2.381   2.558  10.220  0.6823  0.6332  0.0094
  818MPD2    H712100   2.377   2.490  10.295  1.7212  0.1969 -0.3300
  819MPD2     C12101   0.616   4.259  15.670  0.6063 -0.3949  0.3920
  819MPD2    C112102   0.643   4.132  15.712  0.4688  0.3213  0.2551
  819MPD2    C212103   0.735   4.122  15.809 -0.3822 -0.1072 -0.0855
  819MPD2    C312104   0.788   4.238  15.871 -0.0300  0.2452 -0.3006
  819MPD2    C412105   0.767   4.365  15.824 -0.5765  0.3430  0.3200
  819MPD2    C512106   0.670   4.375  15.725  0.0812  0.2118 -0.1742
  819MPD2     H12107   0.760   4.023  15.846  1.6413 -0.3050 -1.9719
  819MPD2    H112108   0.817   4.451  15.867  0.6433  0.1701 -0.7687
  819MPD2    H212109   0.554   4.274  15.582 -1.2669  2.4802  2.1722
  819MPD2    H312110   0.646   4.473  15.684 -1.7459 -0.0379  0.2716
  819MPD2     N12111   0.871   4.205  15.979 -0.3935  0.0825  0.2157
  819MPD2    H512112   0.883   4.106  16.000  0.5816  0.5585  1.9717
  819MPD2    N112113   0.558   4.028  15.658 -0.2251 -0.1304 -0.4283
  819MPD2    H712114   0.487   4.059  15.593 -0.6363  1.1961  0.6346
  820MPD2     C12115   4.716   3.769  14.913 -0.0078 -0.1089  0.0093
  820MPD2    C112116   0.029   3.882  14.974  0.0574  0.7942  0.5776
  820MPD2    C212117   0.122   3.861  15.080 -0.2911 -0.2218 -0.4420
  820MPD2    C312118   0.174   3.736  15.108 -0.4017  0.6910 -0.5587
  820MPD2    C412119   0.114   3.630  15.047 -0.2228  0.5153 -0.4175
  820MPD2    C512120   0.017   3.642  14.952 -0.2345  0.1075 -0.0139
  820MPD2     H12121   0.158   3.953  15.125 -0.0824  0.0108 -1.0811
  820MPD2    H112122   0.150   3.534  15.081  0.8199  0.7659 -0.8322
  820MPD2    H212123   4.646   3.776  14.830  1.8757  0.8878 -1.5049
  820MPD2    H312124   4.721   3.550  14.907 -0.7663  1.5896 -2.6614
  820MPD2     N12125   0.271   3.702  15.207 -0.4226  0.1205 -0.0071
  820MPD2    H512126   0.294   3.604  15.220  1.6729  0.4967 -0.9171
  820MPD2    N112127   4.737   4.008  14.924  0.1538  0.3851  0.4056
  820MPD2    H712128   4.649   4.021  14.876 -0.3571 -2.3573  0.6221
  821MPD2     C12129   1.045   0.204  12.982 -0.3271  0.1424 -0.0070
  821MPD2    C112130   1.123   0.161  13.088 -0.1077  0.2846  0.1924
  821MPD2    C212131   1.259   0.133  13.060  0.6534 -0.1693 -0.4469
  821MPD2    C312132   1.320   0.148  12.934 -0.3780 -0.0359  0.8597
  821MPD2    C412133   1.238   0.186  12.833  0.0157 -0.8867  0.0795
  821MPD2    C512134   1.104   0.209  12.861 -0.1128  0.2315  1.0656
  821MPD2     H12135   1.316   0.109  13.149 -1.1476 -2.3190  0.1153
  821MPD2    H112136   1.275   0.201  12.732  1.3359  0.1605  0.7120
  821MPD2    H212137   0.944   0.239  13.000 -1.0635 -1.5172 -0.9624
  821MPD2    H312138   1.035   0.245  12.785 -0.7672  0.5372  1.8121
  821MPD2     N12139   1.456   0.119  12.912  0.3333  0.5309 -0.1358
  821MPD2    H512140   1.479   0.125  12.814  0.2179 -2.2796 -0.3342
  821MPD2    N112141   1.092   0.177  13.226 -0.3843 -0.1355  0.1848
  821MPD2    H712142   1.162   0.150  13.295 -1.4195 -2.1397  0.4284
  822MPD2     C12143   1.931   0.670  15.733 -0.0863 -0.2807 -0.5543
  822MPD2    C112144   1.901   0.635  15.865 -0.1518  0.8128  0.3295
  822MPD2    C212145   1.806   0.715  15.935 -0.1083 -0.2622  0.4836
  822MPD2    C312146   1.746   0.818  15.873  0.0996  0.3186  0.0721
  822MPD2    C412147   1.764   0.835  15.739 -0.4517  0.2362 -0.0133
  822MPD2    C512148   1.867   0.768  15.674  0.6984 -0.0601  0.4484
  822MPD2     H12149   1.790   0.711  16.042  0.3318  1.9891  0.6257
  822MPD2    H112150   1.711   0.912  15.684  1.8549  2.3333  0.7327
  822MPD2    H212151   2.002   0.608  15.680  1.6257  0.7645  0.4961
  822MPD2    H312152   1.874   0.791  15.568 -2.6180 -1.9255 -0.1751
  822MPD2     N12153   1.676   0.908  15.951 -0.0735  0.4756 -0.9326
  822MPD2    H512154   1.658   0.895  16.050 -0.7520  1.2879 -0.9506
  822MPD2    N112155   1.990   0.548  15.936 -0.5236  0.3406 -0.2419
  822MPD2    H712156   1.965   0.549  16.035  1.2138 -1.5890  0.2022
  823MPD2     C12157   1.462   1.123  16.725 -0.0811  0.4472 -0.4030
  823MPD2    C112158   1.557   1.080  16.632 -0.3506  0.1735  0.1634
  823MPD2    C212159   1.653   0.988  16.670 -0.0789  0.8527  0.5129
  823MPD2    C312160   1.658   0.943  16.800 -0.1554 -0.2018  0.0078
  823MPD2    C412161   1.571   0.992  16.894 -0.2230 -0.0760  0.4117
  823MPD2    C512162   1.466   1.076  16.853  0.3777 -0.2769  0.0197
  823MPD2     H12163   1.717   0.948  16.593  1.2050  1.8497  1.0701
  823MPD2    H112164   1.571   0.959  16.997  0.1463  2.5106  1.2302
  823MPD2    H212165   1.385   1.196  16.703 -0.9245  0.3283  2.1025
  823MPD2    H312166   1.393   1.109  16.926  0.5985  1.5616 -0.6064
  823MPD2     N12167   1.759   0.848  16.855 -0.0530  0.1905 -0.0593
  823MPD2    H512168   1.748   0.827  16.954 -1.7445  1.3818  0.0179
  823MPD2    N112169   1.553   1.125  16.498  0.3216 -0.1992  0.2759
  823MPD2    H712170   1.484   1.199  16.484  1.1393  0.3942 -0.6058
  824MPD2     C12171   2.447   4.546  16.006  0.0706 -0.9192  0.0528
  824MPD2    C112172   2.413   4.640  15.907  0.5195 -0.5096 -0.1247
  824MPD2    C212173   2.451   4.606  15.781  0.4068 -0.0602 -0.0323
  824MPD2    C312174   2.529   4.492  15.754 -0.2195  0.1793  0.1476
  824MPD2    C412175   2.571   4.408  15.854  0.4660 -0.2785  0.6238
  824MPD2    C512176   2.522   4.433  15.983 -0.1291 -0.4364  0.3221
  824MPD2     H12177   2.421   4.674  15.702  0.0792 -0.6032 -0.3797
  824MPD2    H112178   2.630   4.319  15.835  0.8123  0.2365 -0.7577
  824MPD2    H212179   2.407   4.560  16.105 -2.7251 -1.1969 -1.0270
  824MPD2    H312180   2.541   4.366  16.067  0.5752 -3.5684 -2.3300
  824MPD2     N12181   2.581   4.492  15.621  0.4837 -0.2622  0.9384
  824MPD2    H512182   2.555   4.562  15.552  0.4456  0.3262  1.5499
  824MPD2    N112183   2.339   0.019  15.941 -0.2614 -0.8909 -0.6322
  824MPD2    H712184   2.302   0.067  15.860  1.0512  0.1439 -0.6186
  825MPD2     C12185   2.775   0.063  14.860  0.3998  0.0586 -0.4637
  825MPD2    C112186   2.777   0.075  14.990  0.1104 -1.0346  0.3662
  825MPD2    C212187   2.803   0.197  15.050  0.1111  0.1554 -0.0736
  825MPD2    C312188   2.825   0.310  14.974  0.2756 -0.2230  0.1815
  825MPD2    C412189   2.827   0.293  14.839  0.0895  0.4629 -0.6975
  825MPD2    C512190   2.795   0.174  14.783 -0.3849 -0.4772  0.0066
  825MPD2     H12191   2.815   0.201  15.158  1.1813 -1.0807 -0.1488
  825MPD2    H112192   2.849   0.371  14.768  0.1520  1.8489  0.8556
  825MPD2    H212193   2.735   4.713  14.814  0.7676 -1.6954  2.6521
  825MPD2    H312194   2.780   0.159  14.677 -0.8188  0.0245 -0.0032
  825MPD2     N12195   2.859   0.428  15.035  0.0354  0.0689  0.2770
  825MPD2    H512196   2.891   0.411  15.130  0.6412  0.9651  0.2371
  825MPD2    N112197   2.767   4.691  15.062  0.1030  0.4782 -0.1155
  825MPD2    H712198   2.752   4.609  15.004 -0.9690  0.8702 -0.3971
  826MPD2     C12199   1.415   4.423  13.717 -0.2060  0.2601 -0.4001
  826MPD2    C112200   1.534   4.420  13.646 -0.5276 -0.6366 -0.2330
  826MPD2    C212201   1.565   4.541  13.582  0.1037  0.4069 -0.0824
  826MPD2    C312202   1.496   4.659  13.602  0.5013 -0.4677  0.1015
  826MPD2    C412203   1.382   4.652  13.684  0.4336 -0.3953 -0.2923
  826MPD2    C512204   1.342   4.537  13.742 -0.5866 -0.4102  0.2424
  826MPD2     H12205   1.654   4.549  13.521  0.6990  0.3658  0.7805
  826MPD2    H112206   1.314   4.736  13.691  3.3982  1.9289  0.0577
  826MPD2    H212207   1.385   4.332  13.767 -0.4429  0.2977 -0.4753
  826MPD2    H312208   1.259   4.528  13.810  0.1883 -2.5258  0.9044
  826MPD2     N12209   1.538   0.044  13.560  0.5664  0.1624 -0.6721
  826MPD2    H512210   1.477   0.122  13.582  2.8271  1.1133  2.2270
  826MPD2    N112211   1.618   4.310  13.649 -0.2390  0.6266 -0.6945
  826MPD2    H712212   1.586   4.232  13.705  1.0372  1.1089  0.7091
  827MPD2     C12213   3.145   1.606   9.833 -0.4342  0.4093  0.6274
  827MPD2    C112214   3.160   1.475   9.867  0.8503  0.7378  0.8598
  827MPD2    C212215   3.085   1.375   9.798  0.0388  0.7469 -0.2926
  827MPD2    C312216   2.989   1.409   9.706 -0.4453 -0.3696  0.4714
  827MPD2    C412217   2.970   1.547   9.683  0.0632 -0.0120 -0.2230
  827MPD2    C512218   3.048   1.640   9.745 -0.0290 -0.3831  0.0328
  827MPD2     H12219   3.101   1.269   9.808 -1.8361  0.7535  2.5614
  827MPD2    H112220   2.892   1.586   9.618 -0.3007  0.0925  0.2711
  827MPD2    H212221   3.194   1.688   9.886 -1.1094  0.9598  0.3905
  827MPD2    H312222   3.026   1.745   9.732  3.0599  0.3328  0.7271
  827MPD2     N12223   2.914   1.314   9.631  0.4046 -0.3257 -0.2317
  827MPD2    H512224   2.925   1.219   9.663  0.6753 -0.9679 -2.2229
  827MPD2    N112225   3.234   1.448   9.980 -0.1637  0.2389  0.3811
  827MPD2    H712226   3.297   1.522  10.008 -0.5401  1.2013 -1.3195
  828MPD2     C12227   2.033   0.700  11.923  0.0366  0.6353 -0.1098
  828MPD2    C112228   1.923   0.777  11.872  0.5683 -0.1183 -0.1226
  828MPD2    C212229   1.904   0.782  11.738  0.4138  0.6456 -0.0830
  828MPD2    C312230   1.989   0.714  11.652 -0.1308 -0.8137  0.5267
  828MPD2    C412231   2.098   0.644  11.700 -0.7623  0.3170  0.4683
  828MPD2    C512232   2.123   0.634  11.836  0.4246 -1.0833 -0.0830
  828MPD2     H12233   1.823   0.838  11.693 -1.5399 -1.3811  0.9301
  828MPD2    H112234   2.158   0.576  11.641  0.5083  2.3149 -0.5503
  828MPD2    H212235   2.028   0.677  12.029  1.1429 -0.3945 -0.2816
  828MPD2    H312236   2.190   0.557  11.871  0.0851 -0.7882  1.2393
  828MPD2     N12237   1.971   0.697  11.513 -0.1384 -0.9664 -0.2518
  828MPD2    H512238   2.048   0.657  11.461  1.0114  1.2766 -0.2937
  828MPD2    N112239   1.843   0.857  11.951 -0.2236  0.4790 -1.0390
  828MPD2    H712240   1.774   0.917  11.907  0.1241 -0.2504 -2.5629
  829MPD2     C12241   1.489   1.616  11.739 -0.2717  0.1898  0.2160
  829MPD2    C112242   1.404   1.512  11.734  0.7337  0.1569 -0.2518
  829MPD2    C212243   1.450   1.395  11.800 -0.0064 -0.5459  0.1629
  829MPD2    C312244   1.576   1.389  11.862 -0.3985  0.2396  0.1079
  829MPD2    C412245   1.662   1.497  11.856 -0.8361 -0.4676 -0.6692
  829MPD2    C512246   1.603   1.609  11.806  0.6309 -0.8026  0.5503
  829MPD2     H12247   1.391   1.307  11.821  1.1412 -1.2749  0.3340
  829MPD2    H112248   1.760   1.508  11.901 -1.3334  2.2033 -0.2011
  829MPD2    H212249   1.454   1.713  11.706 -0.0113 -0.0572 -0.7818
  829MPD2    H312250   1.657   1.703  11.810 -0.8871  0.2291 -2.9040
  829MPD2     N12251   1.619   1.286  11.951 -0.5289  0.0063 -0.4806
  829MPD2    H512252   1.716   1.291  11.981 -1.1011 -1.4816  1.6739
  829MPD2    N112253   1.281   1.518  11.665  0.1314  0.2570  0.3252
  829MPD2    H712254   1.264   1.604  11.613 -2.3614 -0.7145 -0.4734
  830MPD2     C12255   1.123   3.759  16.487  0.0468  0.6198  0.3343
  830MPD2    C112256   1.032   3.840  16.417  0.5923 -0.2085  0.1707
  830MPD2    C212257   1.045   3.847  16.281  0.3741  0.6342 -0.0360
  830MPD2    C312258   1.149   3.790  16.212  0.1440  0.0204 -0.6215
  830MPD2    C412259   1.229   3.701  16.283  0.7731  0.8938 -0.5510
  830MPD2    C512260   1.210   3.684  16.414  0.2540  0.3142 -0.1570
  830MPD2     H12261   0.963   3.893  16.226  0.0898 -1.1734 -1.1439
  830MPD2    H112262   1.304   3.646  16.227 -0.8859  0.2327 -2.0935
  830MPD2    H212263   1.107   3.737  16.592 -0.0486 -1.1423 -0.0436
  830MPD2    H312264   1.276   3.614  16.465  1.3151  1.6274  0.2670
  830MPD2     N12265   1.173   3.806  16.078  0.1656 -0.4806 -0.3156
  830MPD2    H512266   1.260   3.773  16.037 -0.3250 -0.4209 -1.4074
  830MPD2    N112267   0.923   3.901  16.496 -0.4058  0.4539 -0.1638
  830MPD2    H712268   0.902   3.855  16.584 -0.4066  0.2074 -0.2933
  831MPD2     C12269   2.120   1.057  16.216  0.2229 -0.6229 -0.1359
  831MPD2    C112270   2.092   0.950  16.131 -1.0506  0.3395  0.1356
  831MPD2    C212271   2.007   0.848  16.175 -0.0118  0.9516 -0.0115
  831MPD2    C312272   1.949   0.862  16.299 -0.6777 -0.1803 -0.3840
  831MPD2    C412273   1.968   0.974  16.373  0.3982 -0.0526  0.5476
  831MPD2    C512274   2.049   1.074  16.333  0.0124 -0.2953  0.6262
  831MPD2     H12275   1.985   0.768  16.106 -0.3867  1.0284  0.0179
  831MPD2    H112276   1.907   0.991  16.461 -0.7738  2.9107 -0.8448
  831MPD2    H212277   2.183   1.141  16.188  1.2894 -1.6470 -0.7806
  831MPD2    H312278   2.045   1.163  16.394  2.0529  0.8046 -0.8312
  831MPD2     N12279   1.852   0.776  16.350  0.3411 -0.0446 -0.4839
  831MPD2    H512280   1.787   0.810  16.420 -0.0524 -1.8439  0.0417
  831MPD2    N112281   2.118   0.942  15.996 -0.0286  0.0054  0.0557
  831MPD2    H712282   2.067   0.875  15.938  1.1224 -2.2951  1.7211
  832MPD2     C12283   4.465   1.638  17.722  0.4291 -0.0048  0.4174
  832MPD2    C112284   4.459   1.775  17.694 -0.7846  0.0122 -0.2635
  832MPD2    C212285   4.401   1.817  17.572 -0.0740  0.4494 -0.9075
  832MPD2    C312286   4.340   1.728  17.486 -0.3372  0.3343 -1.1669
  832MPD2    C412287   4.332   1.596  17.529 -0.7706 -0.1186 -0.5406
  832MPD2    C512288   4.395   1.553  17.646  0.2978 -0.3205  0.1891
  832MPD2     H12289   4.376   1.923  17.565 -0.3972  0.2922 -2.0174
  832MPD2    H112290   4.289   1.522  17.462 -0.3009  0.7047 -1.7498
  832MPD2    H212291   4.526   1.599   0.048 -0.5825 -1.5510  0.4218
  832MPD2    H312292   4.400   1.446  17.666 -1.9178 -0.2564  1.0740
  832MPD2     N12293   4.278   1.763  17.366  0.4422 -0.3741 -0.2303
  832MPD2    H512294   4.230   1.688  17.317  0.7660  0.1695 -1.3815
  832MPD2    N112295   4.524   1.865   0.024  0.4828  0.1838  0.0160
  832MPD2    H712296   4.556   1.820   0.110  3.1465  0.6517 -0.7254
  833MPD2     C12297   2.237   3.645  12.637  0.0600 -0.1292  0.3164
  833MPD2    C112298   2.238   3.750  12.544  0.4318 -0.6219 -0.4202
  833MPD2    C212299   2.349   3.774  12.465  0.1193 -0.0460  1.0377
  833MPD2    C312300   2.452   3.685  12.459  0.9072 -0.3483 -0.1547
  833MPD2    C412301   2.455   3.577  12.549 -0.3572 -0.2865  0.8216
  833MPD2    C512302   2.351   3.567  12.643  0.1022  0.0517  0.3238
  833MPD2     H12303   2.351   3.857  12.395 -2.4680  0.5162  1.6479
  833MPD2    H112304   2.534   3.503  12.552 -0.9283 -0.9000  0.6443
  833MPD2    H212305   2.168   3.632  12.720  1.7656 -2.0835  1.4452
  833MPD2    H312306   2.347   3.489  12.718  0.5876  0.2422  0.5478
  833MPD2     N12307   2.546   3.686  12.355 -0.4721  0.6242  0.1525
  833MPD2    H512308   2.616   3.613  12.343  0.8203  2.3113 -2.4940
  833MPD2    N112309   2.128   3.839  12.547  0.2705 -0.1765 -0.1259
  833MPD2    H712310   2.064   3.823  12.624  3.7958 -0.9588  2.6208
  834MPD2     C12311   2.062   3.228  11.701 -0.3656  0.9465  0.2392
  834MPD2    C112312   2.075   3.353  11.645 -0.0901 -0.5518  0.3309
  834MPD2    C212313   2.179   3.431  11.682  0.1188 -0.1478  0.0180
  834MPD2    C312314   2.281   3.398  11.769 -0.3849 -0.4771  0.0267
  834MPD2    C412315   2.280   3.270  11.813 -0.7129 -0.4707 -0.5766
  834MPD2    C512316   2.167   3.183  11.782  0.1382 -0.3646  0.7843
  834MPD2     H12317   2.192   3.533  11.647 -0.4512  0.0669  0.4303
  834MPD2    H112318   2.367   3.229  11.863 -0.4634  1.7845  0.8557
  834MPD2    H212319   1.990   3.154  11.669 -0.4244  1.2792 -0.3860
  834MPD2    H312320   2.165   3.077  11.802 -2.1973 -0.8056 -1.8207
  834MPD2     N12321   2.376   3.492  11.810  0.1237  0.2449 -0.4529
  834MPD2    H512322   2.379   3.577  11.756  1.8605  0.7164  0.3679
  834MPD2    N112323   1.981   3.398  11.549 -0.2792 -0.0810 -0.0916
  834MPD2    H712324   2.008   3.480  11.496  1.5351  0.3428  1.4835
  835MPD2     C12325   2.146   1.385  10.823 -0.1431  0.1717  0.1580
  835MPD2    C112326   2.054   1.329  10.910  0.0488 -0.1648  0.5810
  835MPD2    C212327   2.100   1.242  11.003 -0.2201 -0.2447 -0.0197
  835MPD2    C312328   2.236   1.221  11.023  0.1696 -0.1927 -0.5237
  835MPD2    C412329   2.330   1.293  10.945  0.1760  0.0786 -0.1488
  835MPD2    C512330   2.286   1.364  10.838  0.1010  0.4552 -1.5280
  835MPD2     H12331   2.024   1.201  11.069 -0.8383  0.1052 -0.5165
  835MPD2    H112332   2.436   1.277  10.955  0.7877  3.7340 -0.5493
  835MPD2    H212333   2.116   1.441  10.734 -1.1960 -0.2183  0.2737
  835MPD2    H312334   2.362   1.400  10.770  0.6397 -0.6506 -1.5095
  835MPD2     N12335   2.291   1.119  11.109  0.5343  0.3773  0.3307
  835MPD2    H512336   2.392   1.115  11.117  0.4495 -0.1521  1.1667
  835MPD2    N112337   1.917   1.357  10.899  0.4501 -0.2839 -0.0693
  835MPD2    H712338   1.862   1.289  10.950 -0.2583 -0.0096 -0.4606
  836MPD2     C12339   2.060   1.198  11.720 -1.3375 -0.7408  0.1716
  836MPD2    C112340   2.134   1.080  11.738  0.4405  0.3380 -0.0868
  836MPD2    C212341   2.162   1.035  11.861  0.5758 -0.3603 -0.0138
  836MPD2    C312342   2.112   1.108  11.969 -0.4922 -0.1136  0.2979
  836MPD2    C412343   2.028   1.219  11.955 -0.1582 -0.0700  0.4189
  836MPD2    C512344   2.010   1.264  11.827 -0.1690 -0.1503 -1.1075
  836MPD2     H12345   2.215   0.941  11.871  0.9535 -0.0848  0.6171
  836MPD2    H112346   2.027   1.286  12.039 -0.5782  0.4569 -0.0103
  836MPD2    H212347   2.043   1.256  11.630 -1.6791 -0.7164  0.2551
  836MPD2    H312348   1.959   1.358  11.809  0.4861  0.5081  0.4791
  836MPD2     N12349   2.134   1.072  12.108 -0.2812 -0.1811 -0.3506
  836MPD2    H512350   2.088   1.124  12.182 -2.4578 -0.7600 -1.2811
  836MPD2    N112351   2.187   1.020  11.621  0.5223  0.1487  0.1902
  836MPD2    H712352   2.151   1.063  11.537  0.8146  0.8668  0.4313
  837MPD2     C12353   0.906   0.805   9.702  0.1224  0.1353 -0.9199
  837MPD2    C112354   0.815   0.804   9.808  0.1635 -0.1149  0.6018
  837MPD2    C212355   0.786   0.921   9.877  0.2830  0.5281 -0.2459
  837MPD2    C312356   0.820   1.045   9.828  0.2025  0.6000 -0.0973
  837MPD2    C412357   0.914   1.043   9.730  0.9313 -0.3366 -0.0840
  837MPD2    C512358   0.954   0.930   9.665 -0.1281  0.3109 -0.1319
  837MPD2     H12359   0.718   0.923   9.962 -2.1166 -0.1430 -2.1395
  837MPD2    H112360   0.934   1.140   9.684 -3.3155 -1.3472 -4.0372
  837MPD2    H212361   0.945   0.718   9.651 -2.7618  0.1603 -3.1409
  837MPD2    H312362   1.034   0.938   9.592  0.2712 -0.0501  0.2595
  837MPD2     N12363   0.750   1.160   9.863  0.2733 -0.4789 -0.3691
  837MPD2    H512364   0.674   1.151   9.930  1.5695  0.3143  1.2022
  837MPD2    N112365   0.739   0.692   9.840 -0.4003 -0.3066  0.0002
  837MPD2    H712366   0.675   0.707   9.917  1.5139  0.8549  1.3886
  838MPD2     C12367   3.921   3.873  11.497 -0.0488  0.2014 -0.3203
  838MPD2    C112368   3.817   3.793  11.493 -0.6190  0.3509 -0.0825
  838MPD2    C212369   3.726   3.794  11.594  0.2918  0.1563  0.3767
  838MPD2    C312370   3.740   3.883  11.699  0.3581 -0.3145 -0.6036
  838MPD2    C412371   3.839   3.982  11.695  0.0407  0.4774 -0.3153
  838MPD2    C512372   3.931   3.971  11.591 -0.2126  0.1149  0.2413
  838MPD2     H12373   3.641   3.726  11.593  0.8314 -0.4907 -1.2124
  838MPD2    H112374   3.857   4.061  11.767  1.0798  1.1333 -1.3065
  838MPD2    H212375   3.995   3.868  11.417 -0.8274 -1.3687 -0.9380
  838MPD2    H312376   4.006   4.048  11.588 -0.6016  0.4998  0.3766
  838MPD2     N12377   3.640   3.887  11.794  0.1831  0.0713 -0.0044
  838MPD2    H512378   3.562   3.824  11.777 -0.4446  0.6656  0.6812
  838MPD2    N112379   3.797   3.708  11.388 -0.2835 -0.2389  0.7896
  838MPD2    H712380   3.709   3.658  11.389 -0.0484 -0.7168 -1.8777
  839MPD2     C12381   3.048   3.695  11.282 -0.3101  0.3502  0.0321
  839MPD2    C112382   3.083   3.572  11.232  0.1808 -0.1457 -0.2797
  839MPD2    C212383   3.194   3.568  11.152 -0.0460 -0.4809  0.2681
  839MPD2    C312384   3.276   3.679  11.139  0.0350  0.1408 -0.2921
  839MPD2    C412385   3.243   3.798  11.191  0.1891 -0.2143 -0.6034
  839MPD2    C512386   3.128   3.802  11.263  0.3944 -0.5403 -0.8345
  839MPD2     H12387   3.230   3.473  11.115 -0.6685  0.1020 -1.7932
  839MPD2    H112388   3.305   3.887  11.186 -0.2394  0.1297  0.3256
  839MPD2    H212389   2.961   3.703  11.346 -1.3879  2.1674 -1.6302
  839MPD2    H312390   3.094   3.897  11.302 -3.3398 -1.9008 -0.7850
  839MPD2     N12391   3.407   3.674  11.088  0.3098  0.1066  0.2930
  839MPD2    H512392   3.453   3.761  11.109 -1.3218  0.8139  0.9235
  839MPD2    N112393   3.015   3.456  11.265 -0.4984  0.1328  0.8744
  839MPD2    H712394   3.025   3.380  11.199 -3.0912 -0.7929  1.5624
  840MPD2     C12395   3.753   1.783  10.167 -0.1598  0.0659  0.2250
  840MPD2    C112396   3.752   1.666  10.245  0.3240  0.2374 -0.1703
  840MPD2    C212397   3.850   1.648  10.341  0.3330  0.0467 -0.2432
  840MPD2    C312398   3.940   1.750  10.365 -0.6024  0.1002  1.0799
  840MPD2    C412399   3.951   1.859  10.280  0.4917  0.0257  0.6591
  840MPD2    C512400   3.858   1.870  10.178  0.2714 -0.0330 -0.4334
  840MPD2     H12401   3.867   1.554  10.391  2.9294 -1.1893 -3.4322
  840MPD2    H112402   4.023   1.938  10.299  0.0896  0.8546 -1.2485
  840MPD2    H212403   3.675   1.800  10.094 -0.6165 -1.2200  0.4107
  840MPD2    H312404   3.849   1.959  10.116  2.1462  0.9307  0.6967
  840MPD2     N12405   4.032   1.732  10.476  0.8463 -0.3938 -0.5742
  840MPD2    H512406   4.033   1.641  10.522 -0.9213 -1.4213 -2.5813
  840MPD2    N112407   3.648   1.573  10.230 -0.7579 -0.0302  0.0776
  840MPD2    H712408   3.583   1.586  10.153  0.9374 -1.8425 -1.6460
  841MPD2     C12409   3.531   1.652  14.655  0.4176 -0.2315 -0.2995
  841MPD2    C112410   3.564   1.521  14.681  0.2355  0.0735 -0.0929
  841MPD2    C212411   3.636   1.475  14.793  0.3515 -0.0820 -0.2273
  841MPD2    C312412   3.649   1.572  14.900 -0.5500 -0.3997 -0.4830
  841MPD2    C412413   3.610   1.703  14.877  0.6806  0.5817  0.2906
  841MPD2    C512414   3.553   1.739  14.760 -1.0768  0.3132  0.1027
  841MPD2     H12415   3.673   1.374  14.808  0.4767  0.0948  0.6570
  841MPD2    H112416   3.627   1.775  14.957  0.4670  2.2029 -1.1173
  841MPD2    H212417   3.487   1.691  14.563 -1.9313  0.1815  0.9820
  841MPD2    H312418   3.536   1.845  14.747  1.1315  0.7341  0.6292
  841MPD2     N12419   3.714   1.539  15.019 -0.2477 -0.3986  0.4174
  841MPD2    H512420   3.743   1.444  15.039 -0.8856 -0.6172  0.2981
  841MPD2    N112421   3.556   1.414  14.584 -0.1465  0.3976  0.9910
  841MPD2    H712422   3.618   1.339  14.614 -0.4963 -0.6140 -0.7966
  842MPD2     C12423   4.142   2.202  16.534  0.3571  0.0831 -0.1216
  842MPD2    C112424   4.023   2.145  16.509  0.4561 -0.0898 -0.1780
  842MPD2    C212425   3.963   2.082  16.617 -0.1389  0.4296 -0.0173
  842MPD2    C312426   4.007   2.119  16.742 -0.6281  0.5299  0.2192
  842MPD2    C412427   4.129   2.182  16.767  0.1010  0.1398 -0.4709
  842MPD2    C512428   4.195   2.227  16.661  0.1699  0.4235  0.2355
  842MPD2     H12429   3.873   2.025  16.598 -0.2822  1.4602 -2.4341
  842MPD2    H112430   4.167   2.174  16.868  0.5929 -0.6707 -0.7181
  842MPD2    H212431   4.206   2.240  16.455  1.7551 -0.0497  0.9410
  842MPD2    H312432   4.290   2.279  16.676  0.0755  1.1238 -1.6406
  842MPD2     N12433   3.945   2.072  16.862  0.0602  0.0040 -1.1512
  842MPD2    H512434   3.977   2.102  16.953 -0.0156 -2.7479 -0.2144
  842MPD2    N112435   3.980   2.131  16.368  0.6434  0.1518 -0.2669
  842MPD2    H712436   4.033   2.177  16.295  1.5921 -1.8559 -0.8581
  843MPD2     C12437   0.637   3.360   0.056  0.3708 -0.6344  0.8288
  843MPD2    C112438   0.706   3.262   0.118 -0.2515  0.3790 -0.3124
  843MPD2    C212439   0.841   3.252   0.096 -0.1854  0.1253  0.7863
  843MPD2    C312440   0.903   3.339   0.009 -0.4478 -1.1216  0.9967
  843MPD2    C412441   0.829   3.432  17.690  0.0120  0.6269 -0.2246
  843MPD2    C512442   0.694   3.442  17.721 -0.1819  0.1933 -0.1679
  843MPD2     H12443   0.908   3.195   0.159 -0.9386 -0.7689  0.7947
  843MPD2    H112444   0.879   3.486  17.610  0.7643  1.7739  0.9982
  843MPD2    H212445   0.529   3.367   0.064  0.4912  0.9034  1.1036
  843MPD2    H312446   0.642   3.521  17.669 -0.6811 -0.0797 -0.0773
  843MPD2     N12447   1.036   3.325  17.724  0.3697 -0.1250  0.5753
  843MPD2    H512448   1.067   3.393  17.655  1.2141  1.6001  2.6596
  843MPD2    N112449   0.635   3.175   0.203  0.3488  0.0586 -0.1614
  843MPD2    H712450   0.536   3.189   0.218  0.3261 -1.6640  1.1787
  844MPD2     C12451   4.255   1.084  16.756 -0.1850 -0.0160 -0.0723
  844MPD2    C112452   4.360   1.150  16.699 -0.2447  0.4244 -0.5557
  844MPD2    C212453   4.454   1.216  16.779 -0.1006 -0.0662  0.5375
  844MPD2    C312454   4.438   1.224  16.915  0.4815  0.0338 -0.3067
  844MPD2    C412455   4.334   1.161  16.966  0.1689 -0.1468  0.2433
  844MPD2    C512456   4.244   1.094  16.889  0.5360  0.0507 -0.1433
  844MPD2     H12457   4.535   1.270  16.731  0.4941 -0.3828  1.1869
  844MPD2    H112458   4.300   1.159  17.069  1.6628 -0.7291  0.7174
  844MPD2    H212459   4.181   1.030  16.697  1.5733 -1.0267 -1.3672
  844MPD2    H312460   4.159   1.040  16.929  0.0950 -0.6759 -2.0572
  844MPD2     N12461   4.525   1.302  16.993  0.1631 -0.1142  0.0824
  844MPD2    H512462   4.584   1.373  16.950 -1.2248  2.2554  2.1049
  844MPD2    N112463   4.371   1.151  16.555  0.4403  0.2896  0.5344
  844MPD2    H712464   4.453   1.192  16.512  1.0133 -0.5354  0.8443
  845MPD2     C12465   4.732   2.281  17.034  0.4680  0.0521  0.3245
  845MPD2    C112466   4.705   2.254  17.171  0.2238  0.1436 -0.0078
  845MPD2    C212467   4.685   2.125  17.215 -0.0841 -0.7751 -0.3553
  845MPD2    C312468   4.687   2.019  17.132 -0.2584 -0.6891  0.1374
  845MPD2    C412469   4.725   2.047  16.996 -0.0096 -0.2352 -0.2058
  845MPD2    C512470   0.018   2.170  16.959  0.3993 -0.9939 -0.2479
  845MPD2     H12471   4.656   2.113  17.319 -0.7594  0.0321 -0.4488
  845MPD2    H112472   0.001   1.973  16.917  0.2198  1.9657 -2.2158
  845MPD2    H212473   0.004   2.381  16.996  1.6238  0.7214  2.4574
  845MPD2    H312474   0.051   2.178  16.856  2.0415 -2.3626  0.1630
  845MPD2     N12475   4.673   1.885  17.177  0.3014 -0.1694  0.6018
  845MPD2    H512476   4.654   1.879  17.276  1.2263 -0.8390  0.7434
  845MPD2    N112477   4.689   2.363  17.260  0.2994  0.1735 -0.6177
  845MPD2    H712478   4.683   2.457  17.221 -1.5725  0.5457  0.6131
  846MPD2     C12479   1.435   2.995  13.403 -0.3384  0.2578  0.7851
  846MPD2    C112480   1.332   3.068  13.457 -0.4253  0.2242  0.1168
  846MPD2    C212481   1.298   3.056  13.590 -0.7821 -0.2401  0.1666
  846MPD2    C312482   1.362   2.965  13.665 -0.2666  0.6650 -0.6939
  846MPD2    C412483   1.459   2.883  13.611  0.5662  0.5578  0.3076
  846MPD2    C512484   1.486   2.902  13.481  0.2577  0.3384  0.3583
  846MPD2     H12485   1.234   3.133  13.631  0.9387  0.0151  2.4054
  846MPD2    H112486   1.523   2.814  13.667 -0.1395 -0.3440 -0.0047
  846MPD2    H212487   1.466   3.006  13.299 -1.2024 -1.6064  0.3343
  846MPD2    H312488   1.567   2.847  13.435 -1.1907 -0.9140 -0.6703
  846MPD2     N12489   1.328   2.961  13.803  0.0700  0.2364 -0.9020
  846MPD2    H512490   1.256   3.025  13.835 -0.2817  0.5052 -2.2082
  846MPD2    N112491   1.273   3.162  13.375 -0.2324 -0.0835  0.1803
  846MPD2    H712492   1.223   3.240  13.418 -0.8940 -1.1477  1.3480
  847MPD2     C12493   1.346   3.859  15.297  0.1922 -0.0132 -0.6835
  847MPD2    C112494   1.464   3.864  15.226  0.3140 -0.1017 -0.3463
  847MPD2    C212495   1.559   3.762  15.234  0.6965 -0.7940 -0.3515
  847MPD2    C312496   1.536   3.656  15.316 -0.6403  0.5168 -0.7077
  847MPD2    C412497   1.417   3.660  15.393  0.2400 -0.3747 -0.0092
  847MPD2    C512498   1.320   3.754  15.377 -0.1235  0.3691  0.8903
  847MPD2     H12499   1.653   3.764  15.180  0.0861 -1.8401 -1.4451
  847MPD2    H112500   1.400   3.587  15.472 -0.9291  0.1267  0.1955
  847MPD2    H212501   1.265   3.930  15.284  1.2175  0.8982 -2.1465
  847MPD2    H312502   1.230   3.749  15.438 -0.4872 -1.8500  0.1456
  847MPD2     N12503   1.637   3.557  15.324 -0.1291  0.4303 -0.2005
  847MPD2    H512504   1.711   3.576  15.258 -1.2026  1.3826 -1.1269
  847MPD2    N112505   1.495   3.967  15.140 -0.6289  0.2367  0.0791
  847MPD2    H712506   1.574   3.950  15.079  0.0198 -0.1723  1.0323
  848MPD2     C12507   4.524   1.882  16.617 -1.1207 -0.0121  0.7298
  848MPD2    C112508   4.487   1.979  16.706  0.4303 -0.2768  0.5019
  848MPD2    C212509   4.524   2.108  16.690  0.2303 -0.8043  0.0930
  848MPD2    C312510   4.590   2.146  16.576  0.8201 -0.5444 -0.5648
  848MPD2    C412511   4.620   2.050  16.485  0.5106  0.0949 -0.4731
  848MPD2    C512512   4.596   1.919  16.508  0.3721 -0.0794  0.6967
  848MPD2     H12513   4.497   2.186  16.760  1.6640  0.4993 -0.7861
  848MPD2    H112514   4.680   2.084  16.401 -2.0392  0.0726 -2.3063
  848MPD2    H212515   4.496   1.778  16.614 -0.9723 -0.0300 -0.0950
  848MPD2    H312516   4.632   1.843  16.439 -1.4266 -0.2708 -0.0373
  848MPD2     N12517   4.628   2.280  16.540 -0.0299  0.1253  0.3611
  848MPD2    H512518   4.656   2.297  16.444 -1.4181 -0.9849 -0.2532
  848MPD2    N112519   4.400   1.960  16.821  0.8296 -0.2242 -0.2651
  848MPD2    H712520   4.386   2.040  16.883  3.9933 -0.2459  0.4844
  849MPD2     C12521   3.910   1.455  13.527  0.5167 -0.0164 -0.0805
  849MPD2    C112522   4.025   1.455  13.602 -1.0860  0.1712 -0.2984
  849MPD2    C212523   4.023   1.418  13.736  0.5293  0.3599  0.0152
  849MPD2    C312524   3.915   1.377  13.802 -0.7293  0.0959  0.0617
  849MPD2    C412525   3.800   1.363  13.732  0.7169 -0.1459 -0.5781
  849MPD2    C512526   3.800   1.403  13.600  0.5795 -0.8266 -0.6817
  849MPD2     H12527   4.116   1.421  13.791  0.6839  3.4772 -0.3929
  849MPD2    H112528   3.701   1.341  13.773  0.9731  0.3358  0.3169
  849MPD2    H212529   3.907   1.491  13.425 -1.9949 -1.7762 -0.6136
  849MPD2    H312530   3.711   1.403  13.538 -0.1918  1.6672  0.4144
  849MPD2     N12531   3.934   1.345  13.945  0.3295 -0.7589  0.1699
  849MPD2    H512532   4.026   1.344  13.987 -0.0839 -0.2573  1.0970
  849MPD2    N112533   4.148   1.501  13.552 -0.0802  0.1969  0.0223
  849MPD2    H712534   4.214   1.522  13.626 -1.0121  0.2822  0.8355
  850MPD2     C12535   1.771   0.033  14.580 -0.0411 -0.6913 -0.4573
  850MPD2    C112536   1.802   0.044  14.715  0.0035  0.0248  0.3023
  850MPD2    C212537   1.918   0.100  14.748 -0.0761 -0.0588  0.2677
  850MPD2    C312538   2.014   0.129  14.655 -0.2976  0.7623  0.2747
  850MPD2    C412539   1.978   0.116  14.522 -0.0730  0.1410  0.2889
  850MPD2    C512540   1.853   0.082  14.483  0.9836 -0.1409 -0.4582
  850MPD2     H12541   1.940   0.101  14.854 -2.1082 -0.3263  0.6864
  850MPD2    H112542   2.040   0.150  14.440 -1.0258  0.3759 -0.3373
  850MPD2    H212543   1.668   0.010  14.555 -0.7728  1.5130  0.4787
  850MPD2    H312544   1.813   0.098  14.383 -1.7334 -0.4945  0.5688
  850MPD2     N12545   2.138   0.182  14.682 -0.0183 -0.7122 -0.1611
  850MPD2    H512546   2.189   0.210  14.599 -0.9040 -1.1716 -0.8643
  850MPD2    N112547   1.712   4.728  14.807 -0.0511  0.6252  0.3033
  850MPD2    H712548   1.623   4.710  14.762  0.7853 -1.5910 -0.4507
  851MPD2     C12549   1.828   4.211  15.422  0.1676  0.1046 -0.0567
  851MPD2    C112550   1.703   4.278  15.414 -0.1559 -0.1220 -0.2865
  851MPD2    C212551   1.601   4.215  15.487 -0.1042  0.5502 -0.2917
  851MPD2    C312552   1.623   4.097  15.568 -0.5350  0.4405 -0.4275
  851MPD2    C412553   1.742   4.028  15.562 -0.0966  0.5343  0.8912
  851MPD2    C512554   1.840   4.095  15.497  0.4528  0.3708 -0.6922
  851MPD2     H12555   1.499   4.250  15.490 -0.3509 -0.2307  0.3580
  851MPD2    H112556   1.770   3.932  15.605  1.2098  0.7613  0.5466
  851MPD2    H212557   1.918   4.256  15.380 -0.4716  1.3640 -0.0969
  851MPD2    H312558   1.935   4.043  15.491 -1.3248 -2.8553 -0.7474
  851MPD2     N12559   1.502   4.052  15.630  0.3278 -0.5937 -0.5582
  851MPD2    H512560   1.426   4.114  15.605  1.1662 -0.4237 -2.6911
  851MPD2    N112561   1.684   4.383  15.319 -0.3577 -0.1201 -0.3424
  851MPD2    H712562   1.765   4.412  15.266  0.9340  1.6562  2.5668
  852MPD2     C12563   1.092   2.657   9.459  0.8664 -0.5259  0.1516
  852MPD2    C112564   1.155   2.663   9.582 -0.5406  1.0198  0.3130
  852MPD2    C212565   1.220   2.781   9.612  0.1468  0.3723 -0.8732
  852MPD2    C312566   1.216   2.889   9.523 -0.8101  0.0478  0.0873
  852MPD2    C412567   1.156   2.878   9.405 -0.0462 -0.3331 -0.4001
  852MPD2    C512568   1.103   2.759   9.368 -0.3252 -0.6593  0.2058
  852MPD2     H12569   1.271   2.785   9.707  1.7896 -0.6247 -1.6991
  852MPD2    H112570   1.146   2.964   9.339 -1.0546 -2.0650 -2.5134
  852MPD2    H212571   1.036   2.572   9.422  1.8462 -1.6336  1.2071
  852MPD2    H312572   1.062   2.763   9.268 -1.5697 -0.1711  0.7331
  852MPD2     N12573   1.283   3.007   9.557 -0.6182 -0.3135  0.3025
  852MPD2    H512574   1.343   2.997   9.637  0.4500  1.8546 -0.2117
  852MPD2    N112575   1.150   2.559   9.677  0.6616  0.2799  0.5345
  852MPD2    H712576   1.203   2.572   9.762  0.9824 -0.5390  0.4573
  853MPD2     C12577   3.524   2.488  12.304  0.3753  0.1708 -0.0913
  853MPD2    C112578   3.388   2.495  12.283 -0.6889 -0.4142 -0.5943
  853MPD2    C212579   3.345   2.474  12.152 -0.2570 -0.5001 -0.2195
  853MPD2    C312580   3.439   2.442  12.054  0.4862 -0.2710  0.8219
  853MPD2    C412581   3.572   2.441  12.079 -0.1019 -0.3750  0.6501
  853MPD2    C512582   3.614   2.458  12.205 -0.0928 -0.0190 -0.0456
  853MPD2     H12583   3.239   2.488  12.133 -0.2355  0.9666  0.7869
  853MPD2    H112584   3.642   2.415  12.000 -2.3622 -1.8805 -0.8691
  853MPD2    H212585   3.569   2.516  12.399  0.7171 -2.0802  0.3892
  853MPD2    H312586   3.721   2.459  12.225 -0.1788  0.0615  0.4048
  853MPD2     N12587   3.393   2.420  11.921  0.2480 -0.3429  0.4827
  853MPD2    H512588   3.464   2.414  11.850  1.7330  2.9961  1.6672
  853MPD2    N112589   3.299   2.523  12.394  0.6556 -0.0322 -0.6343
  853MPD2    H712590   3.329   2.510  12.490 -2.4031 -1.9933  0.0605
  854MPD2     C12591   4.279   2.644  12.535 -0.3788  0.1816 -0.1494
  854MPD2    C112592   4.418   2.663  12.538  1.5095  0.3123 -0.1049
  854MPD2    C212593   4.502   2.559  12.573 -0.9840  0.2827  0.4665
  854MPD2    C312594   4.447   2.434  12.601  0.2656 -0.5637  0.1516
  854MPD2    C412595   4.314   2.413  12.596 -0.0275  0.5313 -0.0569
  854MPD2    C512596   4.231   2.518  12.564 -1.2574  0.1220 -0.1105
  854MPD2     H12597   4.609   2.570  12.583 -0.7493 -1.0047 -0.6641
  854MPD2    H112598   4.269   2.317  12.618 -1.3108  1.3910  1.0134
  854MPD2    H212599   4.212   2.726  12.511 -0.0722  0.4450 -0.1141
  854MPD2    H312600   4.124   2.505  12.548 -0.8517 -2.3966 -0.8063
  854MPD2     N12601   4.518   2.312  12.631 -0.4542 -0.8763  0.1233
  854MPD2    H512602   4.462   2.228  12.640 -0.2804 -0.9414  0.6054
  854MPD2    N112603   4.466   2.786  12.484  0.1045 -0.3889 -0.3266
  854MPD2    H712604   4.401   2.855  12.447 -0.5996 -0.6353  0.4445
  855MPD2     C12605   0.269   2.264  13.452 -0.4349 -0.2951  0.2984
  855MPD2    C112606   0.289   2.134  13.405 -0.2857  0.0019  0.9634
  855MPD2    C212607   0.254   2.105  13.273 -0.7990 -0.0286 -0.4735
  855MPD2    C312608   0.189   2.201  13.197  0.7442 -0.2206  0.0046
  855MPD2    C412609   0.170   2.330  13.243 -0.5220 -0.0515  0.3263
  855MPD2    C512610   0.211   2.354  13.365 -0.3397 -0.5555  0.0888
  855MPD2     H12611   0.275   2.007  13.234  1.6105 -0.3572  1.6627
  855MPD2    H112612   0.124   2.415  13.194  1.2080 -0.5277 -2.0606
  855MPD2    H212613   0.283   2.298  13.555 -0.0252 -0.2577  0.2318
  855MPD2    H312614   0.196   2.455  13.399 -0.8653 -1.4920  2.6674
  855MPD2     N12615   0.130   2.174  13.072  0.2554 -0.2602  0.1987
  855MPD2    H512616   0.071   2.248  13.033 -0.3248 -1.6211 -1.5039
  855MPD2    N112617   0.341   2.027  13.477 -0.1148  0.6335  0.3788
  855MPD2    H712618   0.322   1.934  13.441  2.1122  0.6270 -0.7671
  856MPD2     C12619   2.831   2.806  13.916  0.1003 -0.0308  0.6374
  856MPD2    C112620   2.802   2.933  13.963 -0.4192 -0.4715 -0.0592
  856MPD2    C212621   2.672   2.977  13.956  0.0991  0.9641 -0.5107
  856MPD2    C312622   2.566   2.903  13.895  0.4245 -0.0632 -0.1269
  856MPD2    C412623   2.602   2.779  13.849 -0.4869 -0.4232 -0.2937
  856MPD2    C512624   2.729   2.736  13.859  0.4238  0.0693 -0.4440
  856MPD2     H12625   2.649   3.075  13.997  1.2951  0.8562  0.4143
  856MPD2    H112626   2.523   2.710  13.818 -2.6446  1.7462  0.3861
  856MPD2    H212627   2.929   2.760  13.923 -0.1729 -0.7088 -0.0060
  856MPD2    H312628   2.761   2.644  13.812 -1.6239 -1.4355  1.1031
  856MPD2     N12629   2.440   2.953  13.865  0.2127 -0.0532 -0.7090
  856MPD2    H512630   2.372   2.909  13.805 -0.9741 -1.2986  1.5527
  856MPD2    N112631   2.898   3.013  14.028  0.0116  0.6322 -0.0178
  856MPD2    H712632   2.870   3.104  14.062  0.0243  0.6010  0.0756
  857MPD2     C12633   4.002   0.717  13.121 -0.2858  0.4181  0.0653
  857MPD2    C112634   4.108   0.673  13.044 -0.6586  0.2284  0.3297
  857MPD2    C212635   4.238   0.695  13.097 -0.8166  0.2029 -0.2171
  857MPD2    C312636   4.253   0.755  13.217 -0.7158  0.9011  0.0365
  857MPD2    C412637   4.145   0.781  13.299  0.8271 -0.3526  0.3382
  857MPD2    C512638   4.020   0.766  13.243  0.1936  0.3616  0.4931
  857MPD2     H12639   4.326   0.681  13.035 -1.7836 -2.2276 -1.0581
  857MPD2    H112640   4.150   0.830  13.396  0.0031 -0.8584  0.6430
  857MPD2    H212641   3.901   0.718  13.081 -0.7844 -1.8417  1.2851
  857MPD2    H312642   3.928   0.794  13.293  0.2115  0.9230  0.2077
  857MPD2     N12643   4.389   0.768  13.259  0.9615  0.1483 -0.3446
  857MPD2    H512644   4.464   0.738  13.198 -1.0476 -0.3819 -2.6076
  857MPD2    N112645   4.084   0.614  12.921 -0.8344  0.5046 -0.1251
  857MPD2    H712646   3.986   0.616  12.893 -1.4812  2.0421  2.1847
  858MPD2     C12647   0.030   0.124  16.538 -0.0100 -0.1127  0.3368
  858MPD2    C112648   4.690   0.015  16.546 -0.0272  0.2568 -1.3062
  858MPD2    C212649   4.648   4.717  16.677 -0.0691  0.6728 -0.6102
  858MPD2    C312650   4.689   0.055  16.781  0.4491  0.0828  1.2236
  858MPD2    C412651   0.023   0.170  16.770  0.1397  0.2054  0.0686
  858MPD2    C512652   0.075   0.198  16.649  0.2869 -0.0911 -0.4318
  858MPD2     H12653   4.580   4.635  16.695  0.7961  0.0164 -0.3050
  858MPD2    H112654   0.053   0.234  16.852  0.2298 -2.0015  1.7286
  858MPD2    H212655   0.089   0.149  16.450  0.3297 -0.1279  0.5590
  858MPD2    H312656   0.141   0.282  16.629  0.6788  0.1849  1.9370
  858MPD2     N12657   4.646   0.020  16.908 -0.1249  0.0127  0.1060
  858MPD2    H512658   4.588   4.676  16.908  1.1607 -0.8831  0.2420
  858MPD2    N112659   4.675   4.671  16.435  0.3753 -0.0017 -0.1535
  858MPD2    H712660   4.715   4.699  16.346  1.5060  0.0337  0.3757
  859MPD2     C12661   3.143   1.099  14.406  0.3225  0.5229 -0.9159
  859MPD2    C112662   3.177   1.128  14.533  0.2825  0.6747  0.3666
  859MPD2    C212663   3.210   1.023  14.618 -0.1360 -0.0485  0.2283
  859MPD2    C312664   3.225   0.892  14.563  0.8469  0.2274 -0.7964
  859MPD2    C412665   3.190   0.869  14.435 -0.6035  0.4286 -0.5051
  859MPD2    C512666   3.150   0.972  14.353 -0.4726  0.1581 -0.1524
  859MPD2     H12667   3.227   1.041  14.724  2.8468 -1.8456  0.0495
  859MPD2    H112668   3.192   0.766  14.401  0.5650 -0.0479  1.0386
  859MPD2    H212669   3.099   1.171  14.338 -4.7108 -0.8743  0.8672
  859MPD2    H312670   3.120   0.963  14.249  2.7218 -0.6508 -1.0091
  859MPD2     N12671   3.263   0.781  14.652  0.4602 -0.9176 -0.5965
  859MPD2    H512672   3.248   0.688  14.613 -2.8306 -0.9295  0.6988
  859MPD2    N112673   3.163   1.261  14.582 -0.2085 -0.7225  0.1794
  859MPD2    H712674   3.128   1.329  14.515 -1.9400  0.9809  2.7771
  860MPD2     C12675   1.019   2.106  11.377 -0.1521  0.4890  0.0768
  860MPD2    C112676   1.038   2.145  11.509 -0.3006  0.4827 -0.5335
  860MPD2    C212677   0.937   2.124  11.604  0.4364  0.3357 -0.3051
  860MPD2    C312678   0.833   2.041  11.571 -1.2560 -0.1007  0.5721
  860MPD2    C412679   0.811   2.002  11.441  0.5345 -0.1669  1.1187
  860MPD2    C512680   0.899   2.041  11.344  0.3291 -0.2156 -0.4487
  860MPD2     H12681   0.940   2.167  11.703 -0.0278  1.9073 -0.9752
  860MPD2    H112682   0.721   1.946  11.418  1.1733 -0.2247 -1.1874
  860MPD2    H212683   1.101   2.109  11.306  1.0650 -0.5897  1.4289
  860MPD2    H312684   0.891   2.011  11.240  0.8854 -3.5091  0.4552
  860MPD2     N12685   0.749   2.001  11.678 -0.7622  0.3076 -0.0503
  860MPD2    H512686   0.764   2.059  11.760  0.2179 -2.1111  1.5148
  860MPD2    N112687   1.151   2.214  11.551  0.1985  0.2693 -0.4843
  860MPD2    H712688   1.170   2.215  11.650  1.7743  2.1054 -0.7955
  861MPD2     C12689   4.650   0.011  10.913  0.2451  0.0601 -0.2318
  861MPD2    C112690   4.578   0.100  10.987 -0.5321  0.2128  0.1262
  861MPD2    C212691   4.480   0.180  10.926 -0.2834 -0.1666 -0.5649
  861MPD2    C312692   4.465   0.183  10.788  0.3288 -0.5941 -1.0193
  861MPD2    C412693   4.541   0.093  10.710  0.3733  0.1174 -0.3478
  861MPD2    C512694   4.634   0.013  10.776  0.4499 -0.8316 -0.2199
  861MPD2     H12695   4.420   0.246  10.987 -0.2397 -2.4355  1.9010
  861MPD2    H112696   4.530   0.076  10.604  0.0953  1.9056 -0.6142
  861MPD2    H212697   4.717   4.677  10.954  0.6052  0.1346 -0.6809
  861MPD2    H312698   4.687   4.681  10.715  3.5360 -1.4514  3.1449
  861MPD2     N12699   4.387   0.278  10.720 -0.0494 -0.3441 -0.0778
  861MPD2    H512700   4.408   0.304  10.625  2.5091  1.7762  1.0985
  861MPD2    N112701   4.600   0.092  11.124  0.5709  0.6425 -0.2296
  861MPD2    H712702   4.677   0.033  11.154 -0.9844 -1.6120 -0.7209
  862MPD2     C12703   3.887   0.399  10.288 -0.3095 -0.1435 -0.7657
  862MPD2    C112704   3.992   0.351  10.353 -0.1557 -0.4275  0.5382
  862MPD2    C212705   3.998   0.219  10.373  0.2852  0.7080 -0.1463
  862MPD2    C312706   3.898   0.127  10.345  1.1128 -0.2912  0.6061
  862MPD2    C412707   3.786   0.172  10.279 -0.2151  0.0610 -0.3892
  862MPD2    C512708   3.783   0.312  10.253  0.0415  0.4758  0.0357
  862MPD2     H12709   4.084   0.190  10.432 -1.2497 -1.4271  1.0395
  862MPD2    H112710   3.697   0.119  10.248 -1.3672  0.7054  1.8391
  862MPD2    H212711   3.874   0.505  10.269 -0.2193 -0.0252 -0.1764
  862MPD2    H312712   3.696   0.353  10.203 -1.3129 -2.5317 -0.1022
  862MPD2     N12713   3.912   4.727  10.351 -0.0374  0.0704 -0.4469
  862MPD2    H512714   3.830   4.682  10.314 -0.3868  1.2069 -1.0484
  862MPD2    N112715   4.096   0.431  10.407  0.3753 -0.0201 -0.1773
  862MPD2    H712716   4.164   0.378  10.460  1.6606 -0.2426 -2.0668
  863MPD2     C12717   2.856   2.904  16.585  0.2958  0.0213  0.5590
  863MPD2    C112718   2.901   3.037  16.588  0.2096 -0.6992  0.4494
  863MPD2    C212719   2.997   3.070  16.685  0.5317 -0.4418  0.1773
  863MPD2    C312720   3.049   2.977  16.776  0.4683 -0.7452  0.2748
  863MPD2    C412721   3.000   2.849  16.771 -0.0787 -0.3712  0.5501
  863MPD2    C512722   2.908   2.817  16.678  0.5599  0.4629 -0.5236
  863MPD2     H12723   3.042   3.169  16.692 -1.2705  0.4449 -0.6834
  863MPD2    H112724   3.030   2.782  16.850 -2.6768  1.2527  2.9153
  863MPD2    H212725   2.776   2.868  16.522  1.0376  2.0468 -1.5444
  863MPD2    H312726   2.857   2.724  16.700  1.9535 -0.0569  0.4807
  863MPD2     N12727   3.142   3.013  16.879 -0.0305 -0.2741  0.1589
  863MPD2    H512728   3.185   2.934  16.926  2.4497  0.8757 -0.1699
  863MPD2    N112729   2.845   3.129  16.495  0.6533  0.5890  0.1037
  863MPD2    H712730   2.775   3.097  16.429  0.1526  0.1112  0.8665
  864MPD2     C12731   3.365   4.149  16.760 -0.7002 -0.0537  0.4369
  864MPD2    C112732   3.496   4.119  16.716  0.1369  0.4872 -0.0426
  864MPD2    C212733   3.584   4.217  16.691 -0.2303  0.3823  0.4345
  864MPD2    C312734   3.542   4.349  16.704  0.2118 -0.0919 -0.0207
  864MPD2    C412735   3.419   4.381  16.752  0.6173  0.6351  0.1048
  864MPD2    C512736   3.336   4.279  16.787 -0.7811  0.1014 -0.1855
  864MPD2     H12737   3.686   4.193  16.662 -0.4122  1.7094 -1.2589
  864MPD2    H112738   3.384   4.483  16.763 -0.8920 -0.0175  1.2658
  864MPD2    H212739   3.291   4.071  16.773 -0.3547 -0.1366  1.9608
  864MPD2    H312740   3.232   4.303  16.806 -0.8858 -0.8419  0.4599
  864MPD2     N12741   3.632   4.460  16.676  0.3330  0.4268  0.1394
  864MPD2    H512742   3.606   4.549  16.718  2.0843  0.2265  1.6349
  864MPD2    N112743   3.520   3.980  16.711  0.9337  0.6822  0.6742
  864MPD2    H712744   3.438   3.921  16.723  0.7874  0.7941  0.2236
  865MPD2     C12745   4.065   0.327  16.175 -0.5219  0.9335  0.1406
  865MPD2    C112746   3.996   0.206  16.201  0.3131 -0.0810 -0.4471
  865MPD2    C212747   3.944   0.189  16.331 -0.2205 -0.2208  0.1764
  865MPD2    C312748   3.955   0.296  16.427  0.1815  0.3203 -0.6315
  865MPD2    C412749   4.013   0.414  16.397 -0.3369 -0.4055 -0.1942
  865MPD2    C512750   4.077   0.421  16.275 -0.1263  0.2698  0.3312
  865MPD2     H12751   3.896   0.096  16.358  0.0340 -0.6484 -0.8551
  865MPD2    H112752   4.012   0.492  16.472 -1.8867 -1.6435  1.0699
  865MPD2    H212753   4.105   0.346  16.076 -0.8657 -2.1521 -0.6018
  865MPD2    H312754   4.119   0.516  16.245 -0.6967  0.2452 -0.5362
  865MPD2     N12755   3.900   0.292  16.556 -0.5830 -0.2145 -0.0076
  865MPD2    H512756   3.880   0.384  16.595  0.3266 -0.5856  1.3623
  865MPD2    N112757   3.992   0.115  16.098  0.0716 -0.0688 -0.0682
  865MPD2    H712758   4.047   0.138  16.015 -2.1836  0.9467 -1.2843
  866MPD2     C12759   0.458   0.572  11.397  0.4811  0.4147  0.1911
  866MPD2    C112760   0.430   0.471  11.310 -0.4270 -0.7361 -0.1002
  866MPD2    C212761   0.298   0.436  11.294  0.7525  0.6017 -0.4348
  866MPD2    C312762   0.193   0.519  11.332  0.2758 -1.0484 -0.3191
  866MPD2    C412763   0.225   0.614  11.426 -0.1535 -0.5713  0.1228
  866MPD2    C512764   0.355   0.650  11.448  0.0603  0.4482  0.5252
  866MPD2     H12765   0.272   0.354  11.228  0.7972  0.2780 -0.0499
  866MPD2    H112766   0.149   0.687  11.451  0.9393 -0.0932  2.0485
  866MPD2    H212767   0.556   0.615  11.411 -0.2632  1.6739  1.5437
  866MPD2    H312768   0.380   0.741  11.503  1.2157 -0.6542  1.8031
  866MPD2     N12769   0.055   0.505  11.284  0.0332 -0.1258  0.2903
  866MPD2    H512770   4.724   0.576  11.306  1.2499  1.2322 -0.2180
  866MPD2    N112771   0.544   0.397  11.268 -0.2024  0.0986 -0.4486
  866MPD2    H712772   0.637   0.434  11.287 -0.2603 -0.3474  0.7069
  867MPD2     C12773   2.336   4.626  17.020  0.4409 -0.1405  0.0976
  867MPD2    C112774   2.416   4.626  16.906 -0.0199  0.0143  0.1782
  867MPD2    C212775   2.493   4.739  16.883  0.0970 -0.4000  0.2748
  867MPD2    C312776   2.486   0.108  16.971  0.3182  0.0173 -0.6955
  867MPD2    C412777   2.426   0.089  17.092 -0.0640 -0.4093 -0.3282
  867MPD2    C512778   2.354   4.720  17.114  0.2387  0.0349  0.3300
  867MPD2     H12779   2.548   0.014  16.790  2.6451 -1.1279  1.6443
  867MPD2    H112780   2.434   0.174  17.159 -0.0548 -0.0552 -0.7766
  867MPD2    H212781   2.274   4.538  17.039 -1.3431  0.8480 -1.2170
  867MPD2    H312782   2.307   4.713  17.212 -0.7177  1.2024 -0.0559
  867MPD2     N12783   2.541   0.234  16.956 -0.1442  0.3610 -0.3206
  867MPD2    H512784   2.525   0.295  17.036 -0.4776 -3.8190  2.8393
  867MPD2    N112785   2.407   4.530  16.801 -0.1524  0.2431 -0.0575
  867MPD2    H712786   2.371   4.441  16.834 -2.1766  0.4628 -1.6823
  868MPD2     C12787   4.025   3.871  12.557 -0.2198  0.9422 -0.2929
  868MPD2    C112788   4.118   3.862  12.656  0.0422  0.4384  0.2384
  868MPD2    C212789   4.080   3.896  12.783 -0.3322  0.6779 -0.3543
  868MPD2    C312790   3.948   3.923  12.804  0.9841  0.4655  0.5032
  868MPD2    C412791   3.864   3.948  12.703  0.6272  0.1005  0.3849
  868MPD2    C512792   3.891   3.905  12.576 -0.1303 -0.5047  0.2351
  868MPD2     H12793   4.150   3.882  12.864 -0.0773 -2.5459 -1.0971
  868MPD2    H112794   3.767   3.993  12.716 -0.3599 -2.7423  2.8995
  868MPD2    H212795   4.037   3.840  12.454  1.1373  0.2457  0.0856
  868MPD2    H312796   3.823   3.927  12.495  0.4896 -0.3721 -0.2469
  868MPD2     N12797   3.922   3.938  12.943  0.1509 -0.6895  0.4268
  868MPD2    H512798   4.001   3.922  13.004  0.3845  0.2354  0.3703
  868MPD2    N112799   4.249   3.815  12.606 -0.6738  0.6670  0.5794
  868MPD2    H712800   4.242   3.775  12.513  0.2632 -1.3051  1.3622
  869MPD2     C12801   0.798   1.443   0.828  0.2223 -0.6303  0.0759
  869MPD2    C112802   0.777   1.562   0.759  0.4219 -0.8715  1.4641
  869MPD2    C212803   0.799   1.687   0.814  0.0440 -0.5754 -0.4838
  869MPD2    C312804   0.818   1.698   0.952 -0.2872 -0.1865  0.4143
  869MPD2    C412805   0.836   1.577   1.018  0.3427  0.0219 -0.1245
  869MPD2    C512806   0.824   1.455   0.957  0.9591 -0.3305  0.4662
  869MPD2     H12807   0.765   1.777   0.764 -1.7137 -1.0945 -0.2060
  869MPD2    H112808   0.836   1.580   1.126 -3.1712  1.3225 -0.1733
  869MPD2    H212809   0.784   1.344   0.785  0.7365 -0.9067  0.5351
  869MPD2    H312810   0.837   1.363   1.013 -0.1359 -1.0618 -0.4874
  869MPD2     N12811   0.824   1.817   1.023 -0.2763 -0.1010  0.0679
  869MPD2    H512812   0.820   1.815   1.124 -1.2655 -1.4861 -0.0004
  869MPD2    N112813   0.727   1.530   0.634 -0.6499 -0.1541 -0.4071
  869MPD2    H712814   0.717   1.435   0.599 -1.2593 -0.3316  0.2550
  870MPD2     C12815   1.224   0.364   1.511 -0.6198  0.1561  0.0123
  870MPD2    C112816   1.154   0.283   1.428  0.4382  0.2962 -0.4020
  870MPD2    C212817   1.013   0.300   1.404  0.0289  0.1860  0.4815
  870MPD2    C312818   0.951   0.408   1.467 -0.3520 -0.9301 -0.4930
  870MPD2    C412819   1.028   0.489   1.550  0.5500 -0.4263 -0.0206
  870MPD2    C512820   1.159   0.472   1.569  1.4349 -0.5551 -0.1997
  870MPD2     H12821   0.955   0.239   1.336  1.2853  0.9841 -1.2864
  870MPD2    H112822   0.986   0.579   1.593 -1.6696 -1.3388 -0.3103
  870MPD2    H212823   1.330   0.356   1.531 -0.9288  2.1644  2.4431
  870MPD2    H312824   1.209   0.553   1.620 -2.3104  1.1415  0.7669
  870MPD2     N12825   0.816   0.431   1.443 -0.1547 -0.1813 -0.0609
  870MPD2    H512826   0.773   0.368   1.376 -0.0461 -0.4226  0.0981
  870MPD2    N112827   1.238   0.182   1.372  0.7217 -0.3506  0.5664
  870MPD2    H712828   1.331   0.174   1.412  0.8298 -0.0279  0.3828
  871MPD2     C12829   1.899   0.295  16.334 -0.2033 -0.5804  0.0570
  871MPD2    C112830   1.875   0.253  16.464 -0.2487  0.4372  0.5268
  871MPD2    C212831   1.836   0.124  16.482  0.6007  0.1387  0.5558
  871MPD2    C312832   1.795   0.042  16.376  0.0124  0.3739  0.3204
  871MPD2    C412833   1.814   0.086  16.248 -0.1605  0.4735 -0.0910
  871MPD2    C512834   1.870   0.205  16.230  0.2030  0.1002  0.3813
  871MPD2     H12835   1.808   0.074  16.574 -2.3277  0.3061 -0.2618
  871MPD2    H112836   1.785   0.028  16.161  1.9761  0.5391 -0.8478
  871MPD2    H212837   1.939   0.393  16.313 -1.0184  0.0791  1.5644
  871MPD2    H312838   1.886   0.239  16.128 -2.8538  1.4598  0.3593
  871MPD2     N12839   1.756   4.647  16.405  0.1672  1.1035  0.0762
  871MPD2    H512840   1.719   4.617  16.494  0.0155  0.0794 -0.3321
  871MPD2    N112841   1.915   0.348  16.563 -0.1607 -0.1751  0.8342
  871MPD2    H712842   1.956   0.434  16.527 -0.5602  0.0084  0.8252
  872MPD2     C12843   2.164   2.527  13.459  0.6560  0.2747 -0.2732
  872MPD2    C112844   2.235   2.501  13.576  0.2319  0.2696  0.6842
  872MPD2    C212845   2.159   2.475  13.687 -0.3741  0.5081 -0.0891
  872MPD2    C312846   2.019   2.480  13.697  0.7602 -0.4257  0.2426
  872MPD2    C412847   1.959   2.510  13.576 -0.4680  0.0339  0.1617
  872MPD2    C512848   2.026   2.532  13.466 -0.1140  1.0292  0.1463
  872MPD2     H12849   2.218   2.458  13.776 -0.9388  1.1830  0.4236
  872MPD2    H112850   1.851   2.517  13.575 -0.2829  3.1285  2.2967
  872MPD2    H212851   2.207   2.551  13.362 -0.2729  2.8454 -0.0735
  872MPD2    H312852   1.965   2.556  13.379 -1.6797  0.4717  1.0916
  872MPD2     N12853   1.943   2.469  13.821 -0.0912 -1.0323  0.7228
  872MPD2    H512854   1.842   2.479  13.809 -0.0509 -0.2755  1.0208
  872MPD2    N112855   2.376   2.495  13.582 -0.0732 -0.0196 -0.0531
  872MPD2    H712856   2.414   2.472  13.673  0.3665 -2.1929 -0.7942
  873MPD2     C12857   3.181   2.628   0.654  0.0075  0.2132 -0.1165
  873MPD2    C112858   3.272   2.546   0.727 -0.6319  0.0760  0.0047
  873MPD2    C212859   3.326   2.432   0.670  0.2341 -0.3494  0.2219
  873MPD2    C312860   3.292   2.392   0.538  0.1922 -0.1868  0.6609
  873MPD2    C412861   3.210   2.480   0.466  0.8032 -0.1823 -0.0825
  873MPD2    C512862   3.151   2.592   0.521 -0.1416 -0.6004 -0.0024
  873MPD2     H12863   3.386   2.368   0.733 -1.4865 -2.3614 -0.1612
  873MPD2    H112864   3.165   2.453   0.371 -2.9253  0.7078  1.4229
  873MPD2    H212865   3.137   2.716   0.698 -1.7195 -0.2056 -0.9922
  873MPD2    H312866   3.077   2.648   0.463 -0.7610 -2.0411 -0.6138
  873MPD2     N12867   3.331   2.269   0.486 -0.6603  0.0383  0.0534
  873MPD2    H512868   3.280   2.230   0.407 -0.3233  2.2561 -1.2438
  873MPD2    N112869   3.301   2.588   0.861 -0.1353  0.2468 -0.1831
  873MPD2    H712870   3.250   2.664   0.905 -1.4538 -1.0852  0.5759
  874MPD2     C12871   4.170   2.654  15.949 -0.1822  0.5067  0.2712
  874MPD2    C112872   4.180   2.547  16.034 -0.0806  0.0728  0.6064
  874MPD2    C212873   4.282   2.544  16.130 -0.9342  0.2074  0.7220
  874MPD2    C312874   4.371   2.647  16.136  0.4704 -0.5955 -0.1255
  874MPD2    C412875   4.362   2.756  16.054  0.2439 -0.0202  0.7013
  874MPD2    C512876   4.263   2.758  15.964 -0.9831 -0.2832  0.3205
  874MPD2     H12877   4.289   2.466  16.205 -0.3418  0.6225  1.1003
  874MPD2    H112878   4.436   2.833  16.034 -1.0102  1.4142  1.5418
  874MPD2    H212879   4.101   2.653  15.866 -0.7077  3.2465  0.6768
  874MPD2    H312880   4.263   2.846  15.901  0.6689 -2.1620 -2.3166
  874MPD2     N12881   4.480   2.621  16.220  0.0277  0.5773  0.4974
  874MPD2    H512882   4.492   2.527  16.255 -0.1862  0.3569 -0.0231
  874MPD2    N112883   4.086   2.446  16.022  0.1028  0.6200 -0.5904
  874MPD2    H712884   4.012   2.465  15.955 -1.2098  0.0824  0.7033
  875MPD2     C12885   0.518   1.080  14.436 -0.3654  0.1909  0.3075
  875MPD2    C112886   0.461   0.988  14.529  0.0258  0.1222 -0.7021
  875MPD2    C212887   0.497   0.995  14.661  0.9155  0.2368  0.0473
  875MPD2    C312888   0.601   1.077  14.702 -0.3037 -0.1859 -0.0654
  875MPD2    C412889   0.668   1.156  14.612 -0.1534  0.2562 -0.1944
  875MPD2    C512890   0.622   1.158  14.479 -0.4064 -0.0186  0.7165
  875MPD2     H12891   0.436   0.934  14.727 -1.1141  0.5423 -1.5589
  875MPD2    H112892   0.721   1.244  14.646 -2.5341  1.2233  0.9625
  875MPD2    H212893   0.478   1.100  14.338  0.0399  2.2145  0.5567
  875MPD2    H312894   0.663   1.227  14.406  0.0812 -1.4403 -0.3623
  875MPD2     N12895   0.619   1.090  14.841 -0.1943 -0.1083  0.0570
  875MPD2    H512896   0.686   1.161  14.868 -1.1414  1.3262 -1.3196
  875MPD2    N112897   0.360   0.897  14.481  0.4239  0.4369  0.1958
  875MPD2    H712898   0.300   0.849  14.548 -0.7328  1.0100 -0.4292
  876MPD2     C12899   4.123   2.254  15.726  0.5228 -0.0740  0.1459
  876MPD2    C112900   4.028   2.154  15.725 -0.3172 -0.6668  0.1329
  876MPD2    C212901   4.062   2.020  15.756 -0.3314  0.4080 -0.3614
  876MPD2    C312902   4.194   1.995  15.797  0.0192  0.2573 -0.0841
  876MPD2    C412903   4.285   2.099  15.795 -0.1290 -0.0340  0.0828
  876MPD2    C512904   4.243   2.224  15.756  0.2428 -0.8219 -0.7289
  876MPD2     H12905   3.998   1.932  15.758 -0.9149  0.8074 -1.5744
  876MPD2    H112906   4.391   2.091  15.818 -0.3272  0.5805  1.2048
  876MPD2    H212907   4.101   2.360  15.719  0.9002 -0.0348 -0.4669
  876MPD2    H312908   4.315   2.305  15.758  0.8900 -1.4109  0.0314
  876MPD2     N12909   4.235   1.855  15.812 -0.4583 -0.1405  0.3127
  876MPD2    H512910   4.166   1.780  15.816 -0.6408  0.0003 -0.2159
  876MPD2    N112911   3.901   2.193  15.682  0.1487  0.6952  0.1701
  876MPD2    H712912   3.897   2.280  15.630 -0.2310  1.3380  1.2774
  877MPD2     C12913   3.684   2.667  15.132 -0.3052  0.1408  0.2841
  877MPD2    C112914   3.698   2.539  15.088  0.4508  0.0335 -0.2968
  877MPD2    C212915   3.730   2.501  14.964 -0.0727  0.3964 -0.2151
  877MPD2    C312916   3.756   2.596  14.872  0.4108  0.0615 -0.2877
  877MPD2    C412917   3.748   2.727  14.911  0.0796  0.7146 -0.6171
  877MPD2    C512918   3.707   2.761  15.033 -0.4938 -0.1477 -0.5308
  877MPD2     H12919   3.746   2.394  14.951 -1.7770  0.1345 -0.0963
  877MPD2    H112920   3.784   2.802  14.842 -1.8205  2.2580  0.0817
  877MPD2    H212921   3.654   2.699  15.232  0.4650  0.4954  0.4033
  877MPD2    H312922   3.692   2.863  15.066  1.0509 -0.0598 -0.0863
  877MPD2     N12923   3.791   2.563  14.738 -0.7037  0.0001 -0.3596
  877MPD2    H512924   3.789   2.638  14.671  2.2403 -2.1993 -2.9379
  877MPD2    N112925   3.679   2.426  15.180  0.8017 -0.1220  0.1133
  877MPD2    H712926   3.679   2.330  15.145  0.2228  0.0052 -0.2422
  878MPD2     C12927   3.991   2.327  13.140 -0.1062 -0.0345 -0.1465
  878MPD2    C112928   3.950   2.204  13.101  0.4255  0.2539  0.1749
  878MPD2    C212929   4.007   2.089  13.158 -0.2634 -0.3813  0.1036
  878MPD2    C312930   4.108   2.100  13.254  0.2075 -0.2028 -0.0762
  878MPD2    C412931   4.154   2.225  13.280  0.1261  0.0713  0.4918
  878MPD2    C512932   4.100   2.342  13.224 -0.1958 -0.6226 -0.1936
  878MPD2     H12933   3.966   1.990  13.143  1.1789 -0.9253 -0.3027
  878MPD2    H112934   4.227   2.250  13.356  0.5186  1.1618 -0.2451
  878MPD2    H212935   3.943   2.416  13.101 -1.3349  0.5172  2.6368
  878MPD2    H312936   4.139   2.439  13.254 -1.2267 -0.5012  0.7278
  878MPD2     N12937   4.150   1.975  13.321 -0.5417 -0.0015 -0.5461
  878MPD2    H512938   4.102   1.891  13.291 -0.2866  0.1417 -1.3341
  878MPD2    N112939   3.842   2.209  13.004  0.0253  0.4116  0.0639
  878MPD2    H712940   3.805   2.298  12.973 -0.3254 -0.0683 -0.8996
  879MPD2     C12941   4.521   3.132  16.788  0.1156  0.6376 -0.1896
  879MPD2    C112942   4.419   3.048  16.830  0.6003 -0.4787 -0.6735
  879MPD2    C212943   4.354   2.968  16.738 -0.4293 -0.1038  0.4337
  879MPD2    C312944   4.401   2.977  16.601  0.1630 -0.0766  0.3127
  879MPD2    C412945   4.494   3.071  16.561  0.0066 -0.4652  0.8150
  879MPD2    C512946   4.551   3.150  16.656 -0.3546 -0.2174 -0.3842
  879MPD2     H12947   4.267   2.909  16.768 -0.6130 -1.5765 -2.9312
  879MPD2    H112948   4.519   3.087  16.457 -0.5242 -1.0639  0.5907
  879MPD2    H212949   4.575   3.197  16.856 -0.8369  0.7189  0.4805
  879MPD2    H312950   4.629   3.219  16.625  1.3295 -1.0042  2.0919
  879MPD2     N12951   4.342   2.894  16.508  0.6298 -0.5361 -0.5290
  879MPD2    H512952   4.352   2.926  16.412 -1.3432 -0.6549 -0.7727
  879MPD2    N112953   4.382   3.048  16.973  0.2480  0.3943 -0.6501
  879MPD2    H712954   4.433   3.119  17.024 -1.5395  0.4700  1.0003
  880MPD2     C12955   0.542   4.645   0.158 -0.3213  0.5197  0.1838
  880MPD2    C112956   0.633   4.731   0.222 -0.1249  0.1700 -0.1048
  880MPD2    C212957   0.732   4.674   0.303  0.7250  0.4165  0.0826
  880MPD2    C312958   0.744   4.539   0.310  0.3951 -0.4300  0.1286
  880MPD2    C412959   0.645   4.457   0.246  0.2980 -0.2967  0.1330
  880MPD2    C512960   0.548   4.513   0.177 -0.1226 -0.0325  0.6065
  880MPD2     H12961   0.791   0.002   0.364  2.1141 -0.8061  0.0788
  880MPD2    H112962   0.647   4.350   0.261 -0.7022 -0.1216  1.4626
  880MPD2    H212963   0.463   4.666   0.087 -1.5275  0.9189  1.6429
  880MPD2    H312964   0.478   4.442   0.135  1.7895 -2.3365  1.3759
  880MPD2     N12965   0.840   4.477   0.400 -0.0077  0.2109  0.2207
  880MPD2    H512966   0.905   4.543   0.441  1.9347 -1.0294 -0.8322
  880MPD2    N112967   0.600   0.128   0.223  0.0492  0.0297  0.1792
  880MPD2    H712968   0.518   0.166   0.177  1.4868  0.5527 -1.9045
  881MPD2     C12969   0.893   1.167   0.132  0.0555 -0.0448  0.6240
  881MPD2    C112970   0.928   1.052   0.066 -1.0107 -0.3226  0.1582
  881MPD2    C212971   0.882   0.931   0.119  0.0108 -0.3107  0.4109
  881MPD2    C312972   0.812   0.926   0.234  0.7604 -0.6729 -0.2161
  881MPD2    C412973   0.795   1.048   0.304 -0.2527  0.0211  0.2338
  881MPD2    C512974   0.845   1.166   0.257 -0.5306 -0.1143 -0.1316
  881MPD2     H12975   0.896   0.834   0.074  1.8779  0.1090  0.0762
  881MPD2    H112976   0.745   1.057   0.400 -1.2771 -0.0889 -0.2878
  881MPD2    H212977   0.910   1.264   0.087 -3.1299  0.4856  0.5715
  881MPD2    H312978   0.815   1.256   0.311 -1.0874  0.1974 -0.9705
  881MPD2     N12979   0.756   0.802   0.276 -0.4907 -0.2331  0.3222
  881MPD2    H512980   0.719   0.810   0.370 -2.3946  0.9034 -0.5347
  881MPD2    N112981   0.967   1.056  17.683  0.2596  0.2495 -0.0933
  881MPD2    H712982   0.999   1.141  17.639  0.1659  1.4190  2.1194
  882MPD2     C12983   3.587   2.749  14.082 -0.1909 -0.0670 -0.3419
  882MPD2    C112984   3.557   2.621  14.129 -0.3300 -0.3798 -0.4323
  882MPD2    C212985   3.448   2.556  14.075  0.4025  0.5124  0.1835
  882MPD2    C312986   3.362   2.622  13.991 -1.0269  0.1548 -0.1950
  882MPD2    C412987   3.398   2.751  13.946 -0.3128  0.1346 -0.0477
  882MPD2    C512988   3.510   2.813  13.993  0.7494 -0.2859 -0.0303
  882MPD2     H12989   3.415   2.462  14.117 -0.8083  1.2398  0.8421
  882MPD2    H112990   3.335   2.818  13.888  0.2857  0.6780 -0.0644
  882MPD2    H212991   3.663   2.812  14.126 -1.7337  1.0184  0.7610
  882MPD2    H312992   3.536   2.916  13.971  0.8164  0.1147  1.8967
  882MPD2     N12993   3.237   2.572  13.950 -0.2636  0.0476 -0.1200
  882MPD2    H512994   3.182   2.638  13.896 -0.2371  1.3956  1.5032
  882MPD2    N112995   3.623   2.573  14.240  0.0700  0.7425  0.0487
  882MPD2    H712996   3.684   2.640  14.285 -0.7847  0.2289  1.9689
  883MPD2     C12997   0.689   2.977  16.185 -0.0569 -0.4571 -0.6624
  883MPD2    C112998   0.771   2.955  16.077  0.3493  0.0445 -0.4463
  883MPD2    C212999   0.908   2.961  16.100  0.4156 -0.0878 -0.8086
  883MPD2    C313000   0.961   2.995  16.223 -0.1580 -0.4475  0.5215
  883MPD2    C413001   0.874   3.013  16.327 -0.1268  0.0781 -0.0633
  883MPD2    C513002   0.741   2.989  16.310 -0.1263 -0.0091  0.2841
  883MPD2     H13003   0.980   2.938  16.022  1.8140  2.4615 -0.2911
  883MPD2    H113004   0.901   3.025  16.432  1.9818  0.0248 -0.5921
  883MPD2    H213005   0.584   2.952  16.184 -0.2567  0.4036 -0.9041
  883MPD2    H313006   0.676   2.990  16.397 -0.2362  1.3254  0.1855
  883MPD2     N13007   1.101   2.985  16.246 -1.0467 -0.3584  0.1320
  883MPD2    H513008   1.157   2.958  16.165 -0.9925 -0.9373  0.3607
  883MPD2    N113009   0.720   2.911  15.950 -0.8897 -0.2254 -0.6604
  883MPD2    H713010   0.789   2.877  15.884  1.7714  2.4623  0.7592
  884MPD2     C13011   3.025   3.337  14.995 -0.2010 -0.1883  0.7098
  884MPD2    C113012   3.015   3.467  14.944 -0.7393  0.4970 -0.0532
  884MPD2    C213013   2.888   3.517  14.941  0.3950  0.0346  0.7665
  884MPD2    C313014   2.774   3.458  14.998 -0.8521  0.3082  0.1415
  884MPD2    C413015   2.786   3.333  15.050 -1.1993  0.8869 -0.8636
  884MPD2    C513016   2.916   3.278  15.051 -0.0387  0.1115  0.2679
  884MPD2     H13017   2.872   3.612  14.891 -0.3019 -0.8400 -0.6592
  884MPD2    H113018   2.707   3.278  15.101 -1.0181  2.0002  0.6324
  884MPD2    H213019   3.115   3.277  14.988  0.3444  0.3477  3.5516
  884MPD2    H313020   2.926   3.184  15.104 -0.8183  0.6195  1.3398
  884MPD2     N13021   2.653   3.529  14.993  0.3429  0.5552  0.3923
  884MPD2    H513022   2.665   3.627  14.968  0.3445  0.0871 -1.4901
  884MPD2    N113023   3.121   3.535  14.881  0.8549  0.1960  0.2303
  884MPD2    H713024   3.099   3.616  14.823  0.7012 -1.5437 -2.1203
  885MPD2     C13025   0.947   3.637   0.259  0.6294  0.3042  0.0543
  885MPD2    C113026   1.068   3.595   0.208  0.4402 -0.4115 -0.1392
  885MPD2    C213027   1.105   3.628   0.081  0.6010  1.2269  0.5979
  885MPD2    C313028   1.023   3.717   0.011  0.1535 -0.1590  0.8920
  885MPD2    C413029   0.903   3.763   0.067 -0.6460  0.4340  0.1384
  885MPD2    C513030   0.870   3.718   0.190 -0.7655  1.0760 -0.2419
  885MPD2     H13031   1.196   3.589   0.035 -1.1314  0.7513 -2.4637
  885MPD2    H113032   0.823   3.810   0.011  0.0137 -1.4114 -2.3582
  885MPD2    H213033   0.900   3.607   0.352 -1.9302  0.1177 -1.3007
  885MPD2    H313034   0.774   3.745   0.232  0.1844  1.0052  2.0069
  885MPD2     N13035   1.060   3.749  17.638 -0.0274 -1.0365  0.1404
  885MPD2    H513036   1.134   3.691  17.601  0.1877 -1.0962  0.6821
  885MPD2    N113037   1.130   3.498   0.293  0.9852  0.9849  0.6433
  885MPD2    H713038   1.086   3.458   0.375 -0.1452  0.4114 -0.2444
  886MPD2     C13039   2.530   2.344  15.223 -0.5721 -0.3749 -0.3940
  886MPD2    C113040   2.660   2.337  15.178  0.5564 -0.2482  1.0869
  886MPD2    C213041   2.702   2.430  15.090  1.1388 -0.7031  0.4030
  886MPD2    C313042   2.622   2.528  15.044  0.6384  0.1717  0.5256
  886MPD2    C413043   2.506   2.543  15.103 -0.2595  0.5769 -0.7346
  886MPD2    C513044   2.467   2.462  15.197 -0.2602 -0.3461  0.1381
  886MPD2     H13045   2.802   2.418  15.051  0.6736  0.3303 -1.1133
  886MPD2    H113046   2.446   2.632  15.086  2.3547  2.5637  0.4532
  886MPD2    H213047   2.477   2.288  15.299 -0.4823  0.5934  0.3912
  886MPD2    H313048   2.373   2.481  15.246  0.9746  2.7815  1.2710
  886MPD2     N13049   2.648   2.607  14.932 -0.5016  0.2633 -0.2613
  886MPD2    H513050   2.571   2.667  14.903  0.0092  0.3034 -1.5431
  886MPD2    N113051   2.734   2.217  15.207 -0.2317 -0.4739  0.4955
  886MPD2    H713052   2.834   2.203  15.206 -0.4018 -1.6449 -0.5698
  887MPD2     C13053   3.265   2.089  15.669  0.1759  0.5995 -0.1481
  887MPD2    C113054   3.205   2.168  15.575  0.5983 -0.6276 -0.1486
  887MPD2    C213055   3.242   2.302  15.559 -0.8054  0.3306 -0.0864
  887MPD2    C313056   3.355   2.347  15.630  0.4471 -0.0744 -0.5852
  887MPD2    C413057   3.407   2.264  15.729  0.3441  0.3102 -0.2839
  887MPD2    C513058   3.370   2.131  15.742  0.4792 -0.0585  0.1322
  887MPD2     H13059   3.203   2.366  15.480 -1.0231  0.8485  0.4380
  887MPD2    H113060   3.481   2.308  15.795  0.4130 -1.4699  0.8108
  887MPD2    H213061   3.231   1.988  15.691  0.7969  0.7196  1.4166
  887MPD2    H313062   3.401   2.062  15.820 -1.4823 -1.1666 -0.0766
  887MPD2     N13063   3.406   2.467  15.594  0.6346 -0.1613  0.2831
  887MPD2    H513064   3.357   2.513  15.517 -1.6302  1.3466  2.6589
  887MPD2    N113065   3.114   2.120  15.481  0.6284 -0.0875 -0.3246
  887MPD2    H713066   3.103   2.184  15.402 -2.6027  0.1706  0.3452
  888MPD2     C13067   0.221   2.115  15.047 -0.4401  0.4686 -0.0959
  888MPD2    C113068   0.156   2.221  15.109  0.8888  0.5365  0.3835
  888MPD2    C213069   0.190   2.349  15.075 -0.2737  0.3726 -0.1139
  888MPD2    C313070   0.296   2.376  14.993 -0.0725 -0.6720 -0.1278
  888MPD2    C413071   0.358   2.274  14.922 -0.3515 -0.1071  0.1089
  888MPD2    C513072   0.323   2.146  14.955 -0.5017 -0.1194 -0.3677
  888MPD2     H13073   0.143   2.435  15.120  0.4258  0.8112 -0.2254
  888MPD2    H113074   0.446   2.281  14.859 -0.6953 -1.6997 -0.5753
  888MPD2    H213075   0.187   2.013  15.056 -1.1941  0.8536  1.4251
  888MPD2    H313076   0.380   2.065  14.910  1.0237  0.2062  0.9904
  888MPD2     N13077   0.316   2.515  14.966  0.4398 -0.6672 -0.0565
  888MPD2    H513078   0.256   2.580  15.015  1.5931  1.2706 -1.2133
  888MPD2    N113079   0.054   2.196  15.203 -0.2042 -0.4418 -0.7348
  888MPD2    H713080   0.025   2.276  15.258  0.5433  0.7133 -2.0586
  889MPD2     C13081   4.621   1.193  13.906  0.0829  0.6691 -0.0750
  889MPD2    C113082   4.698   1.193  13.792  0.5099 -0.0240 -0.6601
  889MPD2    C213083   4.729   1.316  13.733 -0.4402  0.7959 -0.3021
  889MPD2    C313084   4.711   1.431  13.809 -0.9694  0.6245 -0.8858
  889MPD2    C413085   4.654   1.425  13.930 -0.5657  0.1724  0.0749
  889MPD2    C513086   4.611   1.306  13.983 -0.3078 -0.0777 -0.0083
  889MPD2     H13087   0.024   1.324  13.631  2.2702 -0.8244  0.4818
  889MPD2    H113088   4.643   1.513  13.993  0.3302  0.5892 -0.3512
  889MPD2    H213089   4.590   1.095  13.943  0.4490 -0.6543 -3.2921
  889MPD2    H313090   4.569   1.311  14.083  1.0056  0.3177  0.5286
  889MPD2     N13091   4.734   1.556  13.746  0.4394 -0.5075  0.4986
  889MPD2    H513092   0.043   1.551  13.657 -0.8294 -1.2285 -0.1520
  889MPD2    N113093   4.693   1.084  13.697  0.2001 -0.6652 -0.3154
  889MPD2    H713094   4.637   1.004  13.726 -0.7633  0.3680  0.6650
  890MPD2     C13095   3.773   3.556  14.327 -1.0652  0.7758 -0.0187
  890MPD2    C113096   3.866   3.655  14.359  0.4758  0.1366 -0.0573
  890MPD2    C213097   3.950   3.635  14.470 -0.5184 -0.0600  0.0185
  890MPD2    C313098   3.946   3.523  14.543  0.5290  0.3655  0.5018
  890MPD2    C413099   3.858   3.427  14.505 -0.3729 -1.0263  0.5670
  890MPD2    C513100   3.772   3.443  14.403 -0.5425  0.6490 -0.2592
  890MPD2     H13101   4.022   3.712  14.496 -0.4844 -0.1361  0.1483
  890MPD2    H113102   3.865   3.327  14.546  2.8196 -0.3933  1.5612
  890MPD2    H213103   3.716   3.563  14.234  0.5887 -1.3498 -1.1748
  890MPD2    H313104   3.695   3.368  14.393 -0.3092  0.2386  1.0202
  890MPD2     N13105   4.033   3.513  14.652  0.1352  0.0997 -0.1972
  890MPD2    H513106   4.100   3.588  14.666  1.4110 -1.1642  0.4497
  890MPD2    N113107   3.862   3.766  14.269  0.0190  0.1187 -0.2320
  890MPD2    H713108   3.790   3.764  14.197 -0.3045  0.2333  0.0840
  891MPD2     C13109   2.242   1.912  16.206  0.4679 -0.2459  0.2470
  891MPD2    C113110   2.142   1.873  16.293  0.3706 -0.2883  0.3091
  891MPD2    C213111   2.192   1.818  16.409  0.6073 -0.2513  0.0567
  891MPD2    C313112   2.329   1.817  16.431  0.7431  0.4437 -0.4498
  891MPD2    C413113   2.421   1.867  16.340 -0.0680 -0.2300  0.1023
  891MPD2    C513114   2.374   1.914  16.229 -0.5331  0.5655 -0.4035
  891MPD2     H13115   2.124   1.763  16.474 -1.0621  2.1578  0.3640
  891MPD2    H113116   2.527   1.865  16.361 -0.3678 -1.3566  1.5826
  891MPD2    H213117   2.213   1.955  16.110  0.5263  0.0890  0.3795
  891MPD2    H313118   2.439   1.941  16.146 -0.0680  0.4720 -0.0679
  891MPD2     N13119   2.376   1.755  16.554  0.4055 -0.2033 -0.3638
  891MPD2    H513120   2.310   1.704  16.612 -0.3207  0.6747 -0.4184
  891MPD2    N113121   2.009   1.889  16.259 -0.0001  0.2871 -0.6017
  891MPD2    H713122   1.990   1.922  16.165  0.0895  2.5132  0.1565
  892MPD2     C13123   2.808   3.055  14.380  0.7787 -0.1746  0.0447
  892MPD2    C113124   2.710   2.985  14.324  0.2988 -0.2194 -0.4315
  892MPD2    C213125   2.733   2.851  14.288 -0.4669  0.0650 -1.3670
  892MPD2    C313126   2.860   2.792  14.302 -0.1937  0.3856 -0.0833
  892MPD2    C413127   2.955   2.871  14.368 -0.1325  0.4646 -0.1824
  892MPD2    C513128   2.925   2.995  14.423  0.2939  0.4609 -0.0586
  892MPD2     H13129   2.653   2.805  14.231 -0.9755  0.8117 -1.2522
  892MPD2    H113130   3.051   2.829  14.393  0.7155  1.0883 -2.3465
  892MPD2    H213131   2.795   3.155  14.421  0.1099 -0.0279 -0.5427
  892MPD2    H313132   2.998   3.052  14.479  3.6255  0.1929 -4.0939
  892MPD2     N13133   2.898   2.668  14.254 -0.3908 -0.5435 -0.3466
  892MPD2    H513134   2.997   2.651  14.265  0.0866  2.6496  0.4047
  892MPD2    N113135   2.579   3.042  14.311 -0.5600  0.5041 -0.4190
  892MPD2    H713136   2.503   2.988  14.271 -2.0736  1.5749  0.9892
  893MPD2     C13137   4.490   1.140   1.104 -0.0652  0.1659 -0.1699
  893MPD2    C113138   4.519   1.043   1.011  0.2434  0.0446 -0.8294
  893MPD2    C213139   4.416   0.982   0.943 -0.2108  0.1348  0.1239
  893MPD2    C313140   4.286   1.030   0.953  0.3391  1.0694  1.3155
  893MPD2    C413141   4.266   1.139   1.037 -0.5492 -0.0846  0.2905
  893MPD2    C513142   4.366   1.189   1.113  0.4361 -0.2260 -0.4249
  893MPD2     H13143   4.443   0.897   0.882 -0.1345  0.9484 -0.9662
  893MPD2    H113144   4.168   1.175   1.066 -0.6320  0.4508 -0.6540
  893MPD2    H213145   4.562   1.181   1.175 -2.2500  2.0872  0.9693
  893MPD2    H313146   4.344   1.274   1.178  2.0277  2.2003 -3.0334
  893MPD2     N13147   4.182   0.988   0.873 -0.2922 -0.8747  0.3527
  893MPD2    H513148   4.095   1.038   0.889  0.1282 -0.4558  1.3365
  893MPD2    N113149   4.652   0.993   1.003 -0.3354 -0.3364 -0.0565
  893MPD2    H713150   4.709   1.042   1.071 -0.8286 -0.2514  0.2964
  894MPD2     C13151   3.033   4.164   1.219 -0.2861 -0.0667  0.5497
  894MPD2    C113152   3.137   4.078   1.230 -0.2752  0.3988  0.2424
  894MPD2    C213153   3.267   4.116   1.196 -0.2174 -0.2740  0.2126
  894MPD2    C313154   3.285   4.250   1.149  0.7765  1.2952 -0.0384
  894MPD2    C413155   3.174   4.333   1.140 -0.6839 -0.4613  0.3729
  894MPD2    C513156   3.053   4.291   1.173 -0.5283 -0.5980 -0.1261
  894MPD2     H13157   3.348   4.045   1.195 -0.8227 -0.9688  0.6052
  894MPD2    H113158   3.180   4.433   1.098  0.8435 -0.8351 -0.3295
  894MPD2    H213159   2.930   4.138   1.238 -0.7027  0.9398 -0.2703
  894MPD2    H313160   2.969   4.354   1.150  0.4173  0.7146  0.0014
  894MPD2     N13161   3.415   4.291   1.110  0.4936  0.2686 -0.1329
  894MPD2    H513162   3.496   4.237   1.140 -1.1578 -1.1220  1.7915
  894MPD2    N113163   3.116   3.944   1.277  0.1737  0.2639 -0.7069
  894MPD2    H713164   3.186   3.872   1.259 -0.2903 -0.6996  1.3305
  895MPD2     C13165   1.932   2.119  13.759  0.0400 -0.3369 -0.2000
  895MPD2    C113166   1.957   2.099  13.627  0.1313  0.2899  0.0561
  895MPD2    C213167   2.075   2.045  13.595 -0.1270  0.5835  0.4946
  895MPD2    C313168   2.164   2.008  13.693 -0.8070  0.0062  0.7928
  895MPD2    C413169   2.129   2.025  13.826  0.0498 -0.3684  0.2996
  895MPD2    C513170   2.019   2.089  13.856 -0.2231  0.0200  0.1269
  895MPD2     H13171   2.092   2.003  13.496 -2.1663 -1.5463  1.0406
  895MPD2    H113172   2.190   1.987  13.906  0.0988  1.8867  1.3342
  895MPD2    H213173   1.835   2.152  13.794  0.6222  0.9794  0.1624
  895MPD2    H313174   1.986   2.100  13.958 -0.8879 -0.0671 -0.0753
  895MPD2     N13175   2.278   1.932  13.666 -0.3580 -0.7758  0.3777
  895MPD2    H513176   2.306   1.877  13.747  1.3612  0.5084  0.6609
  895MPD2    N113177   1.867   2.134  13.522 -0.2586 -0.0311 -0.6856
  895MPD2    H713178   1.903   2.121  13.428  0.0870  1.5694 -0.7825
  896MPD2     C13179   0.336   3.723   0.889 -0.7803 -0.3201 -0.5854
  896MPD2    C113180   0.295   3.815   0.796 -0.4324 -0.0701 -0.4393
  896MPD2    C213181   0.157   3.818   0.770 -0.7804  0.9895  0.0633
  896MPD2    C313182   0.066   3.741   0.842 -0.1672  0.3806 -1.0437
  896MPD2    C413183   0.112   3.663   0.946 -0.3524 -0.0533  0.2982
  896MPD2    C513184   0.249   3.645   0.963  0.5829  0.5676  0.1234
  896MPD2     H13185   0.120   3.893   0.701 -3.1581 -0.6714 -0.4299
  896MPD2    H113186   0.049   3.596   1.003 -0.1759  0.1633  0.7476
  896MPD2    H213187   0.443   3.716   0.898 -0.9511 -1.4804  0.5048
  896MPD2    H313188   0.281   3.569   1.035  1.2460 -0.0591 -0.8374
  896MPD2     N13189   4.664   3.744   0.797 -0.0970  0.5571 -0.1134
  896MPD2    H513190   4.642   3.798   0.714 -1.6763 -0.0106 -0.0625
  896MPD2    N113191   0.395   3.905   0.752  0.3216 -0.5029  0.0539
  896MPD2    H713192   0.487   3.890   0.791  1.2369  2.6426 -0.8627
  897MPD2     C13193   1.076   0.967  10.358 -0.3810  0.0261  1.2283
  897MPD2    C113194   0.985   1.063  10.317 -0.9558  0.7904 -0.2027
  897MPD2    C213195   0.869   1.076  10.385 -0.6721  0.0827  0.2790
  897MPD2    C313196   0.843   1.001  10.499 -0.1449  0.0358  0.3349
  897MPD2    C413197   0.931   0.910  10.544 -1.0843 -0.2536 -0.4958
  897MPD2    C513198   1.044   0.898  10.473  0.5756  0.4892  0.2692
  897MPD2     H13199   0.805   1.158  10.353 -2.0245  0.3297  3.5844
  897MPD2    H113200   0.921   0.847  10.632 -0.1126  0.3909  0.0856
  897MPD2    H213201   1.163   0.945  10.298 -0.9142 -1.1829  0.9041
  897MPD2    H313202   1.112   0.822  10.510  2.0342  1.1362 -1.0676
  897MPD2     N13203   0.716   1.032  10.571 -0.5753 -0.1536  0.2199
  897MPD2    H513204   0.662   1.106  10.528  0.3859  0.4646  0.0756
  897MPD2    N113205   1.020   1.135  10.198  0.1851 -0.3474  0.3198
  897MPD2    H713206   1.114   1.121  10.164 -0.4376 -1.4391 -0.9600
  898MPD2     C13207   2.662   2.490  16.504 -0.7473  0.0797 -0.2275
  898MPD2    C113208   2.627   2.518  16.635 -0.2964 -0.2239 -0.5843
  898MPD2    C213209   2.525   2.610  16.658  0.4429  0.1898  0.0840
  898MPD2    C313210   2.459   2.674  16.550  0.1332  0.1977 -0.4180
  898MPD2    C413211   2.506   2.649  16.425 -0.0226  0.2525 -0.1183
  898MPD2    C513212   2.604   2.560  16.401 -0.1783 -0.5621 -0.6593
  898MPD2     H13213   2.492   2.620  16.761 -0.5231  0.2867 -0.2296
  898MPD2    H113214   2.485   2.711  16.339 -0.5381 -0.6186 -0.6183
  898MPD2    H213215   2.740   2.423  16.470 -1.1329  0.0823 -1.1198
  898MPD2    H313216   2.637   2.547  16.299  0.1841  0.8238 -0.7167
  898MPD2     N13217   2.354   2.771  16.567 -0.7075 -0.3200 -0.0224
  898MPD2    H513218   2.336   2.798  16.663  0.9398  0.0866  0.1809
  898MPD2    N113219   2.682   2.465  16.750  0.0113 -0.1219  0.3446
  898MPD2    H713220   2.653   2.505  16.839  2.6568 -1.3713  1.7548
  899MPD2     C13221   3.045   2.845  17.509 -0.3077 -0.8816  0.3366
  899MPD2    C113222   3.103   2.969  17.496 -0.0141 -0.3563 -0.3185
  899MPD2    C213223   3.089   3.065  17.593 -0.7769 -0.9245  0.0113
  899MPD2    C313224   3.011   3.045  17.706  0.6454  0.4889  0.0768
  899MPD2    C413225   2.957   2.915  17.719 -0.0112  0.5767  0.1474
  899MPD2    C513226   2.977   2.815  17.626  0.1333 -0.7704 -0.2672
  899MPD2     H13227   3.132   3.165  17.586 -0.8155 -0.8074  1.5880
  899MPD2    H113228   2.892   2.896   0.049  0.5569  1.9405  0.9089
  899MPD2    H213229   3.060   2.759  17.446 -1.2065 -0.6367 -0.2123
  899MPD2    H313230   2.931   2.717  17.635 -1.7285 -0.0874 -2.3783
  899MPD2     N13231   2.969   3.144   0.039 -0.2152 -0.0845  1.1280
  899MPD2    H513232   2.911   3.113   0.117 -1.3216  0.7211  0.6273
  899MPD2    N113233   3.198   2.989  17.392 -0.1916  0.2489  0.4764
  899MPD2    H713234   3.196   2.905  17.335  1.9893  0.9330 -0.6140
  900MPD2     C13235   2.643   4.334  12.042  0.6760  0.3918  0.1829
  900MPD2    C113236   2.549   4.311  12.138  0.4565  0.1806  0.0600
  900MPD2    C213237   2.447   4.394  12.154  0.1054 -0.1453  0.2260
  900MPD2    C313238   2.433   4.506  12.072 -0.0994 -0.9418  1.1990
  900MPD2    C413239   2.531   4.532  11.981 -0.0675 -0.1247  1.0459
  900MPD2    C513240   2.631   4.440  11.958 -0.1431  0.2931 -0.7636
  900MPD2     H13241   2.369   4.373  12.226 -0.8734  1.8202 -0.2615
  900MPD2    H113242   2.530   4.617  11.914  1.3234 -1.7590 -1.0595
  900MPD2    H213243   2.733   4.275  12.031 -0.1946 -0.8251 -0.5278
  900MPD2    H313244   2.709   4.466  11.888  0.2771  0.6770 -0.1600
  900MPD2     N13245   2.316   4.577  12.094  0.0224 -0.0073 -0.4285
  900MPD2    H513246   2.267   4.547  12.178  2.3045  2.3771  1.7718
  900MPD2    N113247   2.587   4.224  12.242  0.6982 -0.0499  0.1190
  900MPD2    H713248   2.680   4.182  12.235  0.0425 -1.8777  2.5539
  901MPD2     C13249   2.620   3.439  12.919 -1.0621 -0.0865 -0.1876
  901MPD2    C113250   2.713   3.462  12.817  0.1506 -0.5367  1.0354
  901MPD2    C213251   2.713   3.584  12.750 -0.1346 -0.0315 -0.1418
  901MPD2    C313252   2.626   3.682  12.787 -0.1282  0.2714 -0.0778
  901MPD2    C413253   2.543   3.672  12.902  0.0380  0.4611 -0.3380
  901MPD2    C513254   2.544   3.548  12.966 -0.1874  0.2325 -0.0246
  901MPD2     H13255   2.780   3.611  12.669  1.1531  0.2293  1.0082
  901MPD2    H113256   2.491   3.758  12.942  1.5267  0.0759  2.4361
  901MPD2    H213257   2.611   3.345  12.971  2.7756 -0.6087 -0.4657
  901MPD2    H313258   2.472   3.518  13.041  2.0063  1.8768  2.6856
  901MPD2     N13259   2.643   3.801  12.720  0.0510  0.0727 -0.4260
  901MPD2    H513260   2.719   3.815  12.654  0.3799  0.2031 -0.0161
  901MPD2    N113261   2.794   3.348  12.779  0.4387 -0.5365 -0.4936
  901MPD2    H713262   2.797   3.263  12.834 -1.0228 -0.7183 -0.6920
  902MPD2     C13263   2.576   2.698  12.197  0.0548 -0.1032  0.5375
  902MPD2    C113264   2.482   2.756  12.128  0.6075 -0.2981  0.6037
  902MPD2    C213265   2.460   2.714  11.997  0.0655  0.0720  0.3794
  902MPD2    C313266   2.530   2.611  11.945 -0.9745 -0.5922 -0.0272
  902MPD2    C413267   2.630   2.557  12.023 -0.1329 -0.0636  0.4538
  902MPD2    C513268   2.654   2.598  12.152 -0.0907  0.2327 -0.6090
  902MPD2     H13269   2.375   2.754  11.943 -1.0937 -1.5169  1.0218
  902MPD2    H113270   2.694   2.475  11.992  0.0587  1.0803 -2.1539
  902MPD2    H213271   2.590   2.728  12.300  0.6542  0.7273  0.2188
  902MPD2    H313272   2.729   2.560  12.221  0.6777  2.3344 -0.2944
  902MPD2     N13273   2.491   2.576  11.816 -0.0856 -0.2374  0.5718
  902MPD2    H513274   2.412   2.629  11.781 -0.3134 -1.3789 -0.6398
  902MPD2    N113275   2.411   2.862  12.186  0.0285 -0.8817  0.4958
  902MPD2    H713276   2.423   2.871  12.286  1.3208 -4.5235  0.6736
  903MPD2     C13277   2.028   2.859  11.462  0.8106  0.1113 -0.5917
  903MPD2    C113278   2.041   2.720  11.470 -0.7529  0.1253  0.6996
  903MPD2    C213279   1.926   2.649  11.497 -0.7096 -0.5296  0.3576
  903MPD2    C313280   1.802   2.711  11.522 -0.4004 -0.2055 -0.3808
  903MPD2    C413281   1.793   2.846  11.510  0.7324  0.5709  0.0234
  903MPD2    C513282   1.909   2.923  11.481 -0.4516 -0.1552  0.7835
  903MPD2     H13283   1.938   2.541  11.497  0.4738 -0.3943  2.2383
  903MPD2    H113284   1.697   2.895  11.520  0.2731 -0.2122 -0.6163
  903MPD2    H213285   2.113   2.923  11.442  1.1853 -0.3689 -0.5315
  903MPD2    H313286   1.901   3.030  11.465 -0.0446  0.0679  2.0804
  903MPD2     N13287   1.682   2.646  11.559  0.6184  0.5047  0.3130
  903MPD2    H513288   1.615   2.712  11.597  1.5806  1.1839  0.8298
  903MPD2    N113289   2.174   2.672  11.453 -0.1600  0.2029  0.5287
  903MPD2    H713290   2.250   2.737  11.433  0.3405  0.4472  3.2659
  904MPD2     C13291   1.812   1.607  13.679  0.0879 -0.3148 -0.3160
  904MPD2    C113292   1.786   1.516  13.773 -0.3167 -0.8148 -0.8195
  904MPD2    C213293   1.875   1.493  13.873  0.1467 -0.0039  0.0162
  904MPD2    C313294   1.994   1.565  13.887 -0.2181 -0.1761  0.8212
  904MPD2    C413295   2.010   1.672  13.800 -0.9778  0.1825  0.8425
  904MPD2    C513296   1.926   1.687  13.695 -0.3678  0.3096  0.4294
  904MPD2     H13297   1.851   1.417  13.947 -0.5709 -0.4901 -0.7138
  904MPD2    H113298   2.098   1.736  13.797 -0.5546 -0.4238  0.1110
  904MPD2    H213299   1.742   1.631  13.600 -1.1995 -0.4353  0.8008
  904MPD2    H313300   1.945   1.771  13.629 -1.5050  0.0039 -0.2724
  904MPD2     N13301   2.090   1.521  13.973  0.0230 -0.1116  0.2428
  904MPD2    H513302   2.060   1.438  14.024  1.4253 -0.6960  0.1231
  904MPD2    N113303   1.661   1.448  13.771  0.1345 -0.1966 -0.3823
  904MPD2    H713304   1.626   1.412  13.860 -1.1978 -2.1565 -1.6817
  905MPD2     C13305   1.683   1.614  13.131 -0.4585 -0.4726 -0.0148
  905MPD2    C113306   1.701   1.568  13.257 -0.3145 -1.0551 -0.3212
  905MPD2    C213307   1.827   1.551  13.306 -0.4491 -0.3024 -0.2835
  905MPD2    C313308   1.945   1.578  13.233  0.1042 -0.2803 -0.3125
  905MPD2    C413309   1.925   1.624  13.102 -0.6415 -0.3303  0.1208
  905MPD2    C513310   1.795   1.641  13.057 -0.6550 -0.2821  0.1784
  905MPD2     H13311   1.834   1.516  13.408  2.7905 -0.8208 -0.6741
  905MPD2    H113312   2.007   1.647  13.036 -0.3215  0.7555  0.8897
  905MPD2    H213313   1.590   1.634  13.079 -1.9428 -1.3321  2.2953
  905MPD2    H313314   1.777   1.667  12.953  2.4594 -1.1975 -0.5812
  905MPD2     N13315   2.070   1.567  13.299 -0.5947  0.6417  0.1039
  905MPD2    H513316   2.071   1.541  13.397  2.2996  0.7880  0.1022
  905MPD2    N113317   1.590   1.530  13.341 -0.7725  0.0082  0.4285
  905MPD2    H713318   1.606   1.466  13.419 -0.4433 -1.4626 -0.8342
  906MPD2     C13319   4.124   1.787  11.243  0.1683  0.7994  0.3571
  906MPD2    C113320   4.117   1.682  11.157  0.6690 -0.3020  0.0180
  906MPD2    C213321   4.053   1.564  11.194  0.4426 -0.2319 -0.2558
  906MPD2    C313322   4.002   1.551  11.320 -0.0756 -0.5363  0.4768
  906MPD2    C413323   4.007   1.657  11.410 -0.5042  0.3253 -0.4369
  906MPD2    C513324   4.067   1.774  11.366  0.1087 -0.3470  0.0665
  906MPD2     H13325   4.032   1.487  11.120  1.7261  0.0943 -0.9531
  906MPD2    H113326   3.964   1.643  11.508  0.1925 -1.3683 -0.3931
  906MPD2    H213327   4.182   1.877  11.227  3.3501 -1.2955  0.1386
  906MPD2    H313328   4.072   1.857  11.435  1.8721 -2.0833  2.0442
  906MPD2     N13329   3.923   1.437  11.362 -0.4347 -0.9882  0.2343
  906MPD2    H513330   3.864   1.451  11.443  1.6294 -0.8686  1.7067
  906MPD2    N113331   4.168   1.685  11.025 -0.3007 -0.0907 -0.5008
  906MPD2    H713332   4.171   1.601  10.969  4.3270  0.4004 -1.0567
  907MPD2     C13333   2.899   0.907  15.660  0.3195  0.1913  0.1225
  907MPD2    C113334   3.017   0.905  15.592 -0.3023 -0.1756 -0.2623
  907MPD2    C213335   3.129   0.952  15.647 -0.0848 -0.4095 -0.7132
  907MPD2    C313336   3.129   1.021  15.770 -0.0081 -0.0156  0.2329
  907MPD2    C413337   3.004   1.049  15.823  0.2846  1.0962  0.1970
  907MPD2    C513338   2.890   0.997  15.764  0.3507 -0.1278 -0.0165
  907MPD2     H13339   3.224   0.932  15.598  0.4572  1.3796 -0.3891
  907MPD2    H113340   2.983   1.098  15.918  0.9697 -0.7051  1.2726
  907MPD2    H213341   2.804   0.871  15.624  1.1606  0.5743 -2.4969
  907MPD2    H313342   2.795   1.017  15.812 -0.0477 -0.8803 -0.5003
  907MPD2     N13343   3.250   1.038  15.843  0.0007 -0.1890 -0.1247
  907MPD2    H513344   3.331   1.006  15.790  0.1574 -0.4923  0.2851
  907MPD2    N113345   3.023   0.861  15.459 -0.3655 -0.3799 -0.4129
  907MPD2    H713346   3.111   0.872  15.411 -0.6025  0.4248 -0.6660
  908MPD2     C13347   1.636   0.937   9.717  0.0788  0.2070  0.1051
  908MPD2    C113348   1.520   0.870   9.715 -0.1328  0.2298 -0.0576
  908MPD2    C213349   1.402   0.937   9.740  0.0002  0.1007 -1.1420
  908MPD2    C313350   1.410   1.077   9.761 -0.5922  0.3186 -0.0556
  908MPD2    C413351   1.528   1.145   9.760  0.7701  0.3052 -0.1575
  908MPD2    C513352   1.645   1.076   9.733 -0.2317  0.2622  0.3003
  908MPD2     H13353   1.303   0.894   9.744 -0.2338  0.6069 -1.5825
  908MPD2    H113354   1.526   1.252   9.781  0.7431  0.6438 -1.9180
  908MPD2    H213355   1.724   0.876   9.701 -1.5332 -2.0384 -0.2738
  908MPD2    H313356   1.736   1.134   9.739  0.6041 -1.0032  0.0088
  908MPD2     N13357   1.289   1.139   9.798 -0.0629 -0.0167 -0.0075
  908MPD2    H513358   1.207   1.086   9.827 -0.7729  1.6425  0.9766
  908MPD2    N113359   1.528   0.730   9.692 -0.6732 -0.6581  0.2728
  908MPD2    H713360   1.627   0.708   9.688 -0.5580  0.3704 -2.5093
  909MPD2     C13361   1.332   3.934  11.330  1.0082  0.0964 -0.1278
  909MPD2    C113362   1.342   4.059  11.382  0.3085  0.2310  0.1329
  909MPD2    C213363   1.233   4.116  11.440  0.5855 -0.5327  0.6632
  909MPD2    C313364   1.107   4.062  11.424 -0.1224 -0.3515 -0.9673
  909MPD2    C413365   1.094   3.943  11.360 -0.0796 -0.4077  0.3779
  909MPD2    C513366   1.207   3.878  11.317  0.0718 -0.3097 -0.7422
  909MPD2     H13367   1.243   4.217  11.478  1.2296 -0.0373 -0.8176
  909MPD2    H113368   1.002   3.898  11.324 -0.4960  0.1964  0.6950
  909MPD2    H213369   1.413   3.886  11.275  0.1418  0.1907 -1.4844
  909MPD2    H313370   1.200   3.795  11.247  1.3527 -0.5689 -0.5690
  909MPD2     N13371   1.000   4.136  11.485  0.6110  0.3201  0.0604
  909MPD2    H513372   1.028   4.219  11.536  0.7047 -1.4765  2.9282
  909MPD2    N113373   1.453   4.144  11.372 -0.0784  0.2566 -0.6357
  909MPD2    H713374   1.441   4.241  11.398  0.2911  0.9001 -2.7944
  910MPD2     C13375   2.546   1.512  16.000  0.1450  0.5185  0.5243
  910MPD2    C113376   2.470   1.404  15.958 -0.9708  0.1376 -0.5864
  910MPD2    C213377   2.380   1.405  15.850  0.0241 -0.3171  0.1282
  910MPD2    C313378   2.361   1.523  15.781  0.7371 -0.1905 -0.1175
  910MPD2    C413379   2.425   1.638  15.831  0.3680 -0.3243  0.5661
  910MPD2    C513380   2.510   1.633  15.941  0.5813  0.3370 -0.3493
  910MPD2     H13381   2.321   1.323  15.812 -0.2080 -0.3546  0.5662
  910MPD2    H113382   2.413   1.736  15.788 -1.5633 -1.0333 -0.5366
  910MPD2    H213383   2.613   1.507  16.085  0.5869  0.5883  0.1800
  910MPD2    H313384   2.560   1.725  15.968  1.8528 -0.0184 -1.4720
  910MPD2     N13385   2.272   1.545  15.677 -0.5307  0.1530  0.6351
  910MPD2    H513386   2.261   1.638  15.637 -0.6873 -0.7460 -1.3876
  910MPD2    N113387   2.486   1.280  16.018  0.1429 -0.1028 -0.0598
  910MPD2    H713388   2.411   1.218  15.988  0.8572 -1.5304  1.1199
  911MPD2     C13389   0.416   2.177  16.674 -0.3518 -0.2348 -0.1585
  911MPD2    C113390   0.450   2.070  16.596  0.0037  0.1759  0.1643
  911MPD2    C213391   0.373   2.043  16.484  0.0014 -0.2610 -0.1389
  911MPD2    C313392   0.264   2.126  16.447  0.2000 -0.1113 -0.0829
  911MPD2    C413393   0.241   2.241  16.528 -0.3923 -0.4769  0.1031
  911MPD2    C513394   0.319   2.266  16.638  0.1366  0.2187  0.5498
  911MPD2     H13395   0.388   1.952  16.428 -4.4201 -0.9982 -0.1188
  911MPD2    H113396   0.161   2.312  16.507 -0.1760 -0.4084 -0.4859
  911MPD2    H213397   0.473   2.197  16.764 -0.8367 -0.0671  0.1076
  911MPD2    H313398   0.304   2.357  16.696 -1.2010 -0.6772  1.5958
  911MPD2     N13399   0.191   2.089  16.331 -0.3617 -0.2512  0.1520
  911MPD2    H513400   0.213   1.999  16.289  0.1976  0.4935 -1.1488
  911MPD2    N113401   0.567   1.991  16.635  0.9293 -0.4811  0.2612
  911MPD2    H713402   0.615   2.006  16.723  0.5496  1.4577  0.1218
  912MPD2     C13403   0.111   1.520  15.870  0.0741 -0.2165  0.0170
  912MPD2    C113404   0.018   1.581  15.956 -0.2880  0.0503  0.1995
  912MPD2    C213405   4.682   1.494  16.035  0.7662  0.5239  0.6674
  912MPD2    C313406   4.680   1.357  16.011 -0.1092 -0.0849 -0.4743
  912MPD2    C413407   0.030   1.303  15.919  0.0449 -0.5749 -0.7635
  912MPD2    C513408   0.115   1.388  15.857  0.4012 -0.1729  1.2607
  912MPD2     H13409   4.613   1.532  16.110 -0.7259  1.2182 -1.0775
  912MPD2    H113410   0.038   1.198  15.892 -0.2044 -0.8277  0.1325
  912MPD2    H213411   0.175   1.585  15.812 -0.7979  1.8691  1.3847
  912MPD2    H313412   0.186   1.352  15.784 -0.3202 -1.4168  1.1751
  912MPD2     N13413   4.596   1.278  16.094  0.4519  0.1376  0.2426
  912MPD2    H513414   4.541   1.311  16.173 -0.0763  0.1920 -0.1532
  912MPD2    N113415   0.021   1.718  15.961  0.3674  0.0714 -0.3959
  912MPD2    H713416   0.099   1.773  15.927 -0.3197 -0.9207 -3.6663
  913MPD2     C13417   0.296   2.752  10.248  0.1823  0.3048 -0.1967
  913MPD2    C113418   0.383   2.831  10.326  0.0404  0.2175 -0.0871
  913MPD2    C213419   0.394   2.968  10.301  0.4850 -0.0196  0.0785
  913MPD2    C313420   0.339   3.021  10.185 -0.1327  0.3144  0.1648
  913MPD2    C413421   0.260   2.940  10.109  0.1198  0.2478  0.4916
  913MPD2    C513422   0.234   2.807  10.141  0.3121 -0.2328 -0.4587
  913MPD2     H13423   0.454   3.034  10.362 -0.3870  2.3006 -1.5844
  913MPD2    H113424   0.206   2.974  10.022 -2.3147 -0.4074  1.7449
  913MPD2    H213425   0.291   2.648  10.279  1.8605 -0.0345 -1.0684
  913MPD2    H313426   0.158   2.751  10.087  0.0164 -1.2582  1.0186
  913MPD2     N13427   0.345   3.157  10.145 -0.8152  0.8910  0.0298
  913MPD2    H513428   0.301   3.175  10.055  0.1173  1.4014 -0.3244
  913MPD2    N113429   0.439   2.765  10.440 -0.7924 -0.2849 -0.6169
  913MPD2    H713430   0.439   2.664  10.438  2.5723 -0.2860 -0.8895
  914MPD2     C13431   3.349   3.360  11.950 -0.0662  0.9508  0.3050
  914MPD2    C113432   3.312   3.452  12.046 -0.5537  0.5552  0.1462
  914MPD2    C213433   3.250   3.407  12.162 -0.1887 -0.0399  0.1831
  914MPD2    C313434   3.229   3.270  12.175 -0.5945  0.6855 -0.2960
  914MPD2    C413435   3.258   3.177  12.076 -0.0117  0.3379 -0.1023
  914MPD2    C513436   3.331   3.226  11.967  0.2934  0.3646 -0.1285
  914MPD2     H13437   3.224   3.467  12.249  0.7103  1.3766 -0.5245
  914MPD2    H113438   3.242   3.070  12.081 -0.5709  0.4344  0.1703
  914MPD2    H213439   3.389   3.391  11.854 -0.5739 -0.0109 -0.2132
  914MPD2    H313440   3.361   3.160  11.886 -0.7949  0.7107 -0.8155
  914MPD2     N13441   3.169   3.236  12.299 -0.0028  0.0521  1.0247
  914MPD2    H513442   3.147   3.313  12.362 -0.4969  1.3513 -0.7305
  914MPD2    N113443   3.339   3.591  12.025  0.4065 -0.0221  0.1641
  914MPD2    H713444   3.380   3.613  11.935 -1.9049 -0.6232 -1.0238
  915MPD2     C13445   1.163   3.546  15.666  0.0523  0.2004  0.1901
  915MPD2    C113446   1.038   3.592  15.634  0.1839 -0.2020  0.2007
  915MPD2    C213447   0.946   3.622  15.729  0.4175 -0.1183 -0.4437
  915MPD2    C313448   0.976   3.596  15.862 -0.3287 -0.2438 -1.1105
  915MPD2    C413449   1.100   3.554  15.899  0.3876 -0.8053  0.2674
  915MPD2    C513450   1.188   3.526  15.799  0.0081  0.4422  0.0106
  915MPD2     H13451   0.847   3.662  15.711  0.0557 -0.7807  0.0973
  915MPD2    H113452   1.127   3.535  16.003  1.3282  0.0911  0.1920
  915MPD2    H213453   1.240   3.527  15.592  0.0934  1.1440 -0.0068
  915MPD2    H313454   1.287   3.491  15.826  0.0996 -0.0218 -0.9117
  915MPD2     N13455   0.873   3.621  15.958 -0.2896  0.3857  0.3296
  915MPD2    H513456   0.787   3.664  15.924  1.0314  1.0507 -2.1691
  915MPD2    N113457   1.023   3.607  15.498 -0.1889  0.0397 -0.1615
  915MPD2    H713458   1.073   3.544  15.437  0.0108 -0.1170  0.1625
  916MPD2     C13459   4.689   1.636  15.359 -0.0983  0.4120  0.0820
  916MPD2    C113460   4.668   1.522  15.433 -0.2952  0.2001 -0.0856
  916MPD2    C213461   4.728   1.407  15.374 -0.2383 -0.1938 -0.4343
  916MPD2    C313462   0.054   1.398  15.253 -0.2409 -0.3028 -0.6118
  916MPD2    C413463   0.073   1.516  15.187 -0.5631  1.1362  0.3350
  916MPD2    C513464   0.013   1.630  15.234  0.1135 -0.2995  0.7923
  916MPD2     H13465   4.725   1.313  15.430  2.0357 -0.2071 -0.3131
  916MPD2    H113466   0.111   1.518  15.085  1.3068 -2.0229  0.9729
  916MPD2    H213467   4.655   1.737  15.377  0.6488  0.6615  0.0925
  916MPD2    H313468   0.015   1.718  15.172  1.8550  0.0408  1.3416
  916MPD2     N13469   0.104   1.276  15.206 -0.7497  0.1868 -0.1598
  916MPD2    H513470   0.078   1.195  15.261 -1.6991  0.3079 -0.4375
  916MPD2    N113471   4.586   1.532  15.545  0.2111 -0.0978 -0.1929
  916MPD2    H713472   4.547   1.624  15.558 -1.7602 -0.9414 -0.2055
  917MPD2     C13473   4.665   3.218  11.381  0.0740  0.0728  0.0718
  917MPD2    C113474   4.578   3.205  11.278 -0.2156 -0.2447  0.2911
  917MPD2    C213475   4.606   3.271  11.161  0.6853  0.2882 -0.3040
  917MPD2    C313476   4.711   3.368  11.154  0.0024 -0.2394  0.3420
  917MPD2    C413477   0.065   3.365  11.252  0.3553 -0.2204  0.4152
  917MPD2    C513478   0.035   3.295  11.367 -0.0437 -0.0018 -0.1597
  917MPD2     H13479   4.551   3.253  11.069 -0.0833  0.4311  0.1310
  917MPD2    H113480   0.162   3.412  11.241  0.3803 -0.0673  1.2802
  917MPD2    H213481   4.649   3.167  11.475  2.6487 -1.3700 -0.2636
  917MPD2    H313482   0.099   3.305  11.454 -1.2460 -0.5121  0.7707
  917MPD2     N13483   4.738   3.451  11.047  0.3541  0.5410 -0.3195
  917MPD2    H513484   0.073   3.519  11.062 -0.9159  2.0529 -0.9258
  917MPD2    N113485   4.477   3.107  11.294 -0.5912 -0.1218  0.6767
  917MPD2    H713486   4.443   3.090  11.389  0.1802  0.3995  1.0409
  918MPD2     C13487   4.472   3.727  11.173 -0.6525 -0.1771 -0.2510
  918MPD2    C113488   4.504   3.642  11.277  0.1089 -0.1138 -0.0726
  918MPD2    C213489   4.431   3.525  11.301 -0.4059  0.1877  0.3765
  918MPD2    C313490   4.320   3.494  11.220 -0.4350 -0.0598 -0.0715
  918MPD2    C413491   4.289   3.586  11.121  0.6359 -0.1191  0.4917
  918MPD2    C513492   4.358   3.698  11.101 -0.3367  0.5257  0.1281
  918MPD2     H13493   4.470   3.476  11.389  0.7408  0.0697 -0.1951
  918MPD2    H113494   4.203   3.561  11.060 -1.3300  0.6235  2.9530
  918MPD2    H213495   4.526   3.815  11.139  1.1082 -0.7182  1.1749
  918MPD2    H313496   4.335   3.761  11.015 -0.2108  1.1669  0.5678
  918MPD2     N13497   4.252   3.372  11.251  0.3274 -0.5063  0.5057
  918MPD2    H513498   4.283   3.319  11.332  1.3188  0.3475  0.6891
  918MPD2    N113499   4.608   3.671  11.371  0.1913 -0.2564  0.7852
  918MPD2    H713500   4.607   3.618  11.457 -1.2809  1.8782  2.0892
  919MPD2     C13501   0.357   2.685  11.186 -0.4141 -0.2856 -0.5411
  919MPD2    C113502   0.279   2.575  11.140 -0.1269 -0.4637 -0.3056
  919MPD2    C213503   0.210   2.586  11.019  0.3246 -0.8460 -0.7185
  919MPD2    C313504   0.227   2.699  10.939 -0.4546  0.4120 -0.2511
  919MPD2    C413505   0.308   2.803  10.988 -0.4197 -0.3939  0.4219
  919MPD2    C513506   0.376   2.795  11.107  0.5536 -0.3634 -1.1671
  919MPD2     H13507   0.154   2.496  10.996 -0.4699 -0.3622 -0.6652
  919MPD2    H113508   0.337   2.888  10.928 -0.6603  0.5973  1.7127
  919MPD2    H213509   0.396   2.680  11.287  0.4379 -2.8338 -1.0046
  919MPD2    H313510   0.417   2.881  11.158 -2.9328  0.0487  0.9471
  919MPD2     N13511   0.179   2.720  10.810 -0.5453 -0.5038  0.0287
  919MPD2    H513512   0.211   2.805  10.763 -3.4802  1.5129  1.6755
  919MPD2    N113513   0.271   2.451  11.208 -0.7583  0.0035  0.3004
  919MPD2    H713514   0.224   2.373  11.162  0.3527  0.0545 -0.9324
  920MPD2     C13515   4.657   3.355  10.040 -0.6767  0.6917  0.0786
  920MPD2    C113516   4.556   3.260  10.039 -1.3918 -0.1899  0.2000
  920MPD2    C213517   4.570   3.146  10.119 -0.1879 -0.1812  0.3206
  920MPD2    C313518   4.667   3.134  10.212  0.3213  0.1073  0.6780
  920MPD2    C413519   0.018   3.235  10.224  0.3292 -0.5878 -0.2250
  920MPD2    C513520   0.021   3.335  10.127 -0.9435 -0.4323  0.1513
  920MPD2     H13521   4.482   3.083  10.122 -1.1766  1.1906  0.2367
  920MPD2    H113522   0.101   3.224  10.294  0.1606 -0.5739 -0.0244
  920MPD2    H213523   4.664   3.428   9.960 -0.0804  1.0326  0.4459
  920MPD2    H313524   0.105   3.403  10.132 -2.0871  0.9459  0.9037
  920MPD2     N13525   4.669   3.016  10.286 -0.2659  0.2463  0.3398
  920MPD2    H513526   4.597   2.949  10.262 -0.0015 -0.5608  1.7835
  920MPD2    N113527   4.444   3.257   9.957  0.3434  0.3995 -0.5042
  920MPD2    H713528   4.377   3.181   9.966  1.5623 -0.6451 -0.1397
  921MPD2     C13529   1.241   2.337  16.335 -0.3959 -0.0723 -0.2645
  921MPD2    C113530   1.286   2.224  16.395  0.3679 -0.2143  0.0234
  921MPD2    C213531   1.208   2.173  16.498  0.1396 -0.3468  1.0573
  921MPD2    C313532   1.094   2.244  16.539  0.1524  0.1139 -0.3079
  921MPD2    C413533   1.064   2.366  16.481  0.0453  0.6097 -0.6552
  921MPD2    C513534   1.137   2.415  16.382  0.1306  0.7100 -0.2478
  921MPD2     H13535   1.232   2.072  16.530  0.2852 -1.4478 -2.5673
  921MPD2    H113536   0.974   2.410  16.522 -0.4213 -2.4203  1.5543
  921MPD2    H213537   1.302   2.372  16.253  0.7872  2.0793  1.5245
  921MPD2    H313538   1.110   2.506  16.330 -2.0292  0.8498  1.1160
  921MPD2     N13539   0.998   2.184  16.631 -0.4960 -0.4765 -0.0857
  921MPD2    H513540   0.904   2.219  16.645  0.1931  1.3089  0.1753
  921MPD2    N113541   1.389   2.154  16.333  0.4698 -0.2104 -0.0790
  921MPD2    H713542   1.422   2.188  16.244  0.7551 -2.0795 -0.6921
  922MPD2     C13543   1.562   4.284   0.037  0.1288 -0.0803 -0.2820
  922MPD2    C113544   1.628   4.385  17.728  0.0358  0.8879  0.3812
  922MPD2    C213545   1.555   4.470  17.644  0.0316  0.1066  0.7876
  922MPD2    C313546   1.418   4.448  17.622  0.5490  0.2160 -0.1337
  922MPD2    C413547   1.356   4.345  17.686  0.4282 -0.1742 -0.0531
  922MPD2    C513548   1.428   4.272   0.017  0.6101 -0.7032  0.3378
  922MPD2     H13549   1.604   4.553  17.594  0.5077 -0.5988  0.0812
  922MPD2    H113550   1.249   4.330  17.684  0.7811 -2.8828  1.1446
  922MPD2    H213551   1.619   4.217   0.100 -0.2117  2.9651  3.2334
  922MPD2    H313552   1.368   4.200   0.070 -2.0442 -0.0488 -1.7454
  922MPD2     N13553   1.350   4.529  17.532  0.6262 -0.2069  0.1034
  922MPD2    H513554   1.412   4.593  17.485 -1.3093  1.3143 -0.3631
  922MPD2    N113555   1.770   4.386  17.739  0.1069  0.4023 -0.0187
  922MPD2    H713556   1.819   4.440  17.668 -0.4677 -1.7082 -2.0527
  923MPD2     C13557   3.040   2.047   8.817 -0.2660 -0.0373 -0.4276
  923MPD2    C113558   3.070   2.155   8.899  0.1989 -0.1122  0.5041
  923MPD2    C213559   3.178   2.142   8.985  0.8304 -0.2610  0.1024
  923MPD2    C313560   3.251   2.024   9.001  0.4831  0.2147 -0.3504
  923MPD2    C413561   3.213   1.923   8.921  0.8144 -0.0994 -0.4714
  923MPD2    C513562   3.110   1.930   8.825  0.3350 -0.2747 -0.7333
  923MPD2     H13563   3.199   2.230   9.045 -2.4455  0.5228  0.0923
  923MPD2    H113564   3.269   1.832   8.904 -2.0833 -2.1006  0.7579
  923MPD2    H213565   2.953   2.059   8.754  0.8700  1.9709 -1.6168
  923MPD2    H313566   3.089   1.837   8.774 -0.0755  1.0198 -2.9055
  923MPD2     N13567   3.360   2.012   9.094 -0.8054 -0.2051  0.4866
  923MPD2    H513568   3.381   1.914   9.103 -1.5158 -0.2832  1.2888
  923MPD2    N113569   2.989   2.270   8.893 -0.2029  0.3652 -0.2121
  923MPD2    H713570   2.906   2.262   8.835 -1.3240 -0.9373  1.5757
  924MPD2     C13571   3.299   0.224  15.979  0.0383  0.7975  0.2152
  924MPD2    C113572   3.302   0.290  16.100  0.5792  0.5655 -0.3208
  924MPD2    C213573   3.355   0.422  16.116  0.1452  0.0107 -0.3431
  924MPD2    C313574   3.397   0.490  16.000 -0.2423  0.2107 -0.1766
  924MPD2    C413575   3.392   0.424  15.880 -0.3307 -0.8660  0.1201
  924MPD2    C513576   3.334   0.298  15.868  0.0479  0.1341 -0.2127
  924MPD2     H13577   3.364   0.472  16.211  0.0725  0.0578 -0.3606
  924MPD2    H113578   3.445   0.454  15.790 -0.4306  0.6055  0.5487
  924MPD2    H213579   3.264   0.123  15.967  3.3658 -0.4514  0.8119
  924MPD2    H313580   3.348   0.246  15.774  2.2530 -0.1388  0.2710
  924MPD2     N13581   3.452   0.620  15.998  0.3809 -0.0128  0.8288
  924MPD2    H513582   3.490   0.649  15.908 -0.9434 -1.6492 -0.2554
  924MPD2    N113583   3.264   0.218  16.209  0.3229  0.3869 -0.0765
  924MPD2    H713584   3.238   0.120  16.201  0.4071  0.4273 -0.8072
  925MPD2     C13585   1.969   2.738  14.623  0.0882  0.7345 -1.1402
  925MPD2    C113586   1.837   2.736  14.577  0.2467 -0.0097  0.1343
  925MPD2    C213587   1.736   2.806  14.646 -0.3846  0.8509  0.4570
  925MPD2    C313588   1.772   2.856  14.770 -0.4107 -0.1795 -0.1380
  925MPD2    C413589   1.901   2.859  14.815  0.0971  0.2219  0.4402
  925MPD2    C513590   2.003   2.804  14.741 -0.2156  0.6067 -0.3471
  925MPD2     H13591   1.630   2.803  14.627  0.1576 -0.2569 -2.3730
  925MPD2    H113592   1.930   2.895  14.914  0.9528  0.4738  0.1028
  925MPD2    H213593   2.049   2.681  14.577  1.5886  0.0132  2.3198
  925MPD2    H313594   2.100   2.794  14.789 -1.1969  0.0585  1.5035
  925MPD2     N13595   1.680   2.884  14.874  0.0086 -0.2248 -0.1020
  925MPD2    H513596   1.722   2.887  14.967  1.1777 -1.3058 -0.5933
  925MPD2    N113597   1.804   2.662  14.461  0.6772  0.0514 -0.4025
  925MPD2    H713598   1.712   2.685  14.424 -0.2266 -1.7726  0.7334
  926MPD2     C13599   1.168   0.517  13.088  0.4976  0.0393 -0.8410
  926MPD2    C113600   1.105   0.636  13.054 -0.1425 -0.3007 -0.0369
  926MPD2    C213601   1.172   0.725  12.982 -0.4314  0.1160  0.1024
  926MPD2    C313602   1.307   0.712  12.950  0.3019 -0.2079 -0.1636
  926MPD2    C413603   1.371   0.597  12.992  0.4352 -0.4335  0.8804
  926MPD2    C513604   1.297   0.495  13.048 -0.4317  0.1407 -0.8326
  926MPD2     H13605   1.127   0.818  12.948  0.2231  0.8755  1.3033
  926MPD2    H113606   1.474   0.576  12.965  0.5659 -1.2767  2.0352
  926MPD2    H213607   1.114   0.441  13.142 -0.9627  0.0135 -2.3361
  926MPD2    H313608   1.350   0.402  13.063  2.1645  1.6599 -0.4175
  926MPD2     N13609   1.385   0.816  12.885 -0.6503  0.3271 -0.5909
  926MPD2    H513610   1.482   0.788  12.873 -0.8943 -0.7337 -0.1318
  926MPD2    N113611   0.978   0.667  13.095 -0.2765  0.0035 -0.3359
  926MPD2    H713612   0.938   0.751  13.053  0.2947 -0.0908 -1.0696
  927MPD2     C13613   4.415   3.298  17.685 -0.0373 -0.2572 -0.3394
  927MPD2    C113614   4.418   3.165  17.709 -0.0637 -0.8485  0.5835
  927MPD2    C213615   4.543   3.098  17.707  0.5006  0.1829 -0.0344
  927MPD2    C313616   4.662   3.171  17.681 -0.7761 -0.1998  0.9043
  927MPD2    C413617   4.651   3.310  17.666 -0.0944  0.4220 -0.7507
  927MPD2    C513618   4.533   3.374  17.659 -0.5084  0.1489  0.0570
  927MPD2     H13619   4.552   2.991  17.721 -1.4303 -0.4584 -3.7625
  927MPD2    H113620   4.736   3.374  17.645  1.6149 -2.4725 -2.7208
  927MPD2    H213621   4.320   3.348  17.675  0.5210  0.6324 -1.1445
  927MPD2    H313622   4.533   3.482  17.646 -0.7327 -0.0427 -1.4791
  927MPD2     N13623   0.039   3.093  17.662 -0.4156 -0.0720 -0.1521
  927MPD2    H513624   0.025   2.993  17.671  1.1902 -0.2365  0.6107
  927MPD2    N113625   4.297   3.102  17.724 -0.7701  0.5683  0.3378
  927MPD2    H713626   4.213   3.153  17.696 -1.1591 -0.2647 -0.0135
  928MPD2     C13627   2.235   1.667   0.314  0.3761 -0.0633 -0.0513
  928MPD2    C113628   2.329   1.698   0.405  0.3876  1.5664 -0.0685
  928MPD2    C213629   2.463   1.687   0.364  0.1072 -0.2185  0.5037
  928MPD2    C313630   2.498   1.648   0.235  0.0885 -0.2847 -0.1374
  928MPD2    C413631   2.397   1.617   0.149  0.4455 -0.3718  0.4224
  928MPD2    C513632   2.265   1.626   0.189 -0.8654 -0.3859 -0.3121
  928MPD2     H13633   2.547   1.700   0.430 -0.3130 -0.9496  1.1875
  928MPD2    H113634   2.425   1.591   0.047  0.3456  0.7264  0.1154
  928MPD2    H213635   2.130   1.666   0.340  0.7973  1.0704  1.6742
  928MPD2    H313636   2.185   1.607   0.118 -1.2711 -1.6600  0.4835
  928MPD2     N13637   2.631   1.656   0.187  0.0076  0.1489  0.8239
  928MPD2    H513638   2.640   1.667   0.087  1.5597 -0.1271  0.9238
  928MPD2    N113639   2.295   1.744   0.533 -0.4529  0.3619  0.2552
  928MPD2    H713640   2.194   1.750   0.538 -0.5095  0.2654 -0.7456
  929MPD2     C13641   3.035   2.190   9.877 -0.0007 -0.1190  0.0632
  929MPD2    C113642   3.008   2.057   9.921  0.0813 -0.1342  0.7414
  929MPD2    C213643   2.940   1.972   9.831  0.6900  0.1584  1.2372
  929MPD2    C313644   2.884   2.027   9.713  0.6638 -0.3351 -0.5353
  929MPD2    C413645   2.918   2.152   9.669  0.6826  0.2563  0.4855
  929MPD2    C513646   2.997   2.232   9.748 -0.4920  0.0081 -0.2944
  929MPD2     H13647   2.932   1.866   9.853  0.7521 -0.2021 -0.4674
  929MPD2    H113648   2.897   2.181   9.566  1.2460  0.6397  0.4779
  929MPD2    H213649   3.083   2.264   9.939 -0.7356  0.4396 -0.0342
  929MPD2    H313650   3.027   2.327   9.705  0.0725  0.0984  0.3072
  929MPD2     N13651   2.808   1.946   9.625 -0.3250 -0.0896 -0.0460
  929MPD2    H513652   2.815   1.965   9.525 -0.4843 -0.0534 -0.0506
  929MPD2    N113653   3.068   2.002  10.040 -0.9150 -0.2490  0.2992
  929MPD2    H713654   3.128   2.056  10.101  0.5678 -1.5406 -0.0134
  930MPD2     C13655   0.069   3.820  14.129 -0.7266  0.2602  0.1755
  930MPD2    C113656   4.704   3.829  14.039  0.0869  0.2736 -0.3730
  930MPD2    C213657   4.618   3.724  14.044 -0.6854  0.4842 -0.2264
  930MPD2    C313658   4.623   3.619  14.135 -0.2106  0.2171  0.6651
  930MPD2    C413659   4.729   3.614  14.221  0.5115  0.5928  0.0218
  930MPD2    C513660   0.088   3.710  14.210 -0.3377  0.4255  0.1389
  930MPD2     H13661   4.543   3.723  13.965 -0.9178  0.3715 -0.0030
  930MPD2    H113662   4.737   3.532  14.292 -4.1884  0.2123  0.1483
  930MPD2    H213663   0.129   3.910  14.130  1.2762 -1.0259 -4.4348
  930MPD2    H313664   0.177   3.708  14.271 -0.1689 -0.5250 -0.1387
  930MPD2     N13665   4.538   3.503  14.126  0.5366  0.3332  0.3449
  930MPD2    H513666   4.565   3.416  14.170 -0.2736 -0.4535 -0.7325
  930MPD2    N113667   4.718   3.925  13.936  0.6431 -0.4702  0.3991
  930MPD2    H713668   0.077   3.952  13.935  0.8679 -1.2977  0.1732
  931MPD2     C13669   4.549   2.844   0.374  0.7217  0.0070 -0.2705
  931MPD2    C113670   4.436   2.767   0.397 -0.3259  0.8533  0.5537
  931MPD2    C213671   4.435   2.679   0.495  0.5141 -0.3039  0.6070
  931MPD2    C313672   4.544   2.657   0.577  0.7557 -0.5187 -0.3128
  931MPD2    C413673   4.655   2.727   0.557  0.2737 -0.2047 -0.3663
  931MPD2    C513674   4.658   2.820   0.453  0.5350  0.4823  0.4852
  931MPD2     H13675   4.347   2.616   0.493  1.3993 -1.5161  0.2100
  931MPD2    H113676   4.739   2.717   0.625 -0.8918 -1.1315  0.9244
  931MPD2    H213677   4.549   2.917   0.294 -0.8104 -0.5834 -0.8156
  931MPD2    H313678   0.008   2.879   0.437 -1.3092  2.2060 -3.3344
  931MPD2     N13679   4.540   2.562   0.682 -0.3329 -0.2613  0.1929
  931MPD2    H513680   4.620   2.547   0.743 -0.5201 -0.2371  0.4417
  931MPD2    N113681   4.322   2.790   0.320 -0.3442 -0.2349  0.5188
  931MPD2    H713682   4.339   2.847   0.238  2.8911 -1.1551  0.5458
  932MPD2     C13683   1.389   2.926  11.459  0.3891 -0.5927  0.2961
  932MPD2    C113684   1.476   2.934  11.345 -0.3273  0.1551  0.0861
  932MPD2    C213685   1.510   2.817  11.282  0.6551 -0.1995  0.0689
  932MPD2    C313686   1.446   2.695  11.312  0.4159  0.3249 -0.2370
  932MPD2    C413687   1.355   2.694  11.410  0.2971  1.1006 -0.4958
  932MPD2    C513688   1.332   2.807  11.483  0.1019 -0.8553 -0.3187
  932MPD2     H13689   1.582   2.816  11.201 -0.3201 -0.4170 -0.7952
  932MPD2    H113690   1.294   2.609  11.436  0.8584  1.1217  0.8787
  932MPD2    H213691   1.357   3.008  11.522 -0.1186  1.2836 -2.4366
  932MPD2    H313692   1.261   2.809  11.565 -1.6816 -0.8223 -1.8817
  932MPD2     N13693   1.473   2.573  11.248  0.0431 -0.0365  0.1434
  932MPD2    H513694   1.415   2.493  11.272  0.9028 -1.0162 -0.9855
  932MPD2    N113695   1.535   3.055  11.298  0.3444 -0.3710 -0.1570
  932MPD2    H713696   1.612   3.042  11.233  0.6184 -1.3518  0.3630
  933MPD2     C13697   1.733   1.878   1.167 -0.5187 -0.2013 -0.5299
  933MPD2    C113698   1.789   1.898   1.039  0.2442 -0.2296 -0.2886
  933MPD2    C213699   1.702   1.944   0.938  0.1654 -0.9776 -0.1580
  933MPD2    C313700   1.569   1.980   0.957  0.0264  0.4769  0.3854
  933MPD2    C413701   1.524   1.962   1.086 -0.5280 -0.5277  0.7534
  933MPD2    C513702   1.604   1.917   1.188  0.0756  0.4493  0.0576
  933MPD2     H13703   1.734   1.946   0.834  1.3640 -2.4737  0.1749
  933MPD2    H113704   1.423   1.989   1.117 -1.0049  0.5833 -1.7813
  933MPD2    H213705   1.795   1.851   1.251 -0.2171 -2.7280 -1.5599
  933MPD2    H313706   1.556   1.902   1.284 -1.2354 -1.7862 -0.9403
  933MPD2     N13707   1.484   2.019   0.851 -0.0966 -0.3819  0.9150
  933MPD2    H513708   1.530   2.026   0.760 -2.1635 -3.2642 -0.3503
  933MPD2    N113709   1.928   1.872   1.010 -0.1376 -0.3247  0.1405
  933MPD2    H713710   1.984   1.833   1.085 -0.1999  0.4644  0.6055
  934MPD2     C13711   3.849   3.401   2.199  0.1868 -0.7682  0.1000
  934MPD2    C113712   3.874   3.303   2.111 -0.3066  0.2089  0.5022
  934MPD2    C213713   3.836   3.314   1.985 -0.1967  0.5463  0.3561
  934MPD2    C313714   3.786   3.431   1.936 -0.0931  0.4273 -0.7025
  934MPD2    C413715   3.745   3.528   2.030 -0.4756  0.0989  0.2402
  934MPD2    C513716   3.765   3.504   2.162  0.1149 -0.4708  0.2437
  934MPD2     H13717   3.861   3.227   1.925  0.0203  1.4311 -0.8268
  934MPD2    H113718   3.698   3.621   2.001 -2.5355 -0.1406  2.8452
  934MPD2    H213719   3.894   3.406   2.298 -0.4603 -1.2751  0.4228
  934MPD2    H313720   3.729   3.579   2.231 -1.7121 -1.4064  0.3228
  934MPD2     N13721   3.757   3.460   1.802  0.3491 -0.2162 -0.3798
  934MPD2    H513722   3.729   3.555   1.781  0.2436  0.5300  3.1162
  934MPD2    N113723   3.950   3.187   2.138  0.0833  0.3267  0.2797
  934MPD2    H713724   3.988   3.149   2.052 -1.2972  3.1247 -1.5600
  935MPD2     C13725   3.903   2.728   1.190 -0.1293  0.1219  0.0543
  935MPD2    C113726   3.844   2.824   1.110 -0.3385 -0.0387  0.2392
  935MPD2    C213727   3.837   2.955   1.152 -0.5438  0.1390  0.4059
  935MPD2    C313728   3.853   2.988   1.287 -0.1876  0.0571 -0.4121
  935MPD2    C413729   3.902   2.887   1.371 -0.2798 -1.0746 -0.1162
  935MPD2    C513730   3.930   2.761   1.317 -0.3623  0.2716 -0.5475
  935MPD2     H13731   3.814   3.033   1.080 -3.5918 -1.1206  0.0077
  935MPD2    H113732   3.933   2.905   1.474  0.1496  4.9927 -1.3087
  935MPD2    H213733   3.916   2.626   1.155  2.6415  0.4594  0.0848
  935MPD2    H313734   3.975   2.689   1.385 -1.9823 -2.2195 -2.1030
  935MPD2     N13735   3.832   3.118   1.336 -0.3455  0.2366 -0.6286
  935MPD2    H513736   3.840   3.126   1.437 -1.4755  3.0948 -0.7716
  935MPD2    N113737   3.783   2.800   0.982 -0.5363  0.0989 -0.4301
  935MPD2    H713738   3.749   2.878   0.927 -0.5865  0.7436  0.5141
  936MPD2     C13739   2.455   0.655  12.508  0.0425 -0.5122 -0.5579
  936MPD2    C113740   2.450   0.746  12.609  0.0094 -0.0490  0.7844
  936MPD2    C213741   2.444   0.876  12.574  0.1345 -0.9135  0.8357
  936MPD2    C313742   2.466   0.919  12.442  0.1224  0.3063 -0.4940
  936MPD2    C413743   2.477   0.826  12.340  0.4565  0.0157  0.5267
  936MPD2    C513744   2.470   0.692  12.376 -0.1442 -0.3539 -0.3496
  936MPD2     H13745   2.431   0.951  12.652  1.2766 -2.1896  2.2403
  936MPD2    H113746   2.475   0.864  12.238 -2.2509  1.4899  1.1205
  936MPD2    H213747   2.442   0.550  12.531  2.5744 -0.5261  0.7390
  936MPD2    H313748   2.451   0.620  12.298  2.1715 -1.6405  0.2801
  936MPD2     N13749   2.447   1.052  12.418 -0.4710 -0.2834 -0.1860
  936MPD2    H513750   2.416   1.106  12.498  1.2412 -0.6677  0.7342
  936MPD2    N113751   2.441   0.709  12.748  0.6382 -1.0820 -0.2922
  936MPD2    H713752   2.436   0.786  12.814 -1.8161  0.6771 -2.5426
  937MPD2     C13753   0.653   1.842  11.077  0.3949 -0.7463 -0.2528
  937MPD2    C113754   0.644   1.978  11.098 -0.7673 -0.9267 -0.1271
  937MPD2    C213755   0.698   2.053  10.995  0.4870 -0.0037 -0.3467
  937MPD2    C313756   0.782   1.998  10.895 -0.5515 -0.3920  0.0763
  937MPD2    C413757   0.805   1.862  10.896 -0.4084  0.1799  0.3129
  937MPD2    C513758   0.733   1.785  10.980 -0.2492  0.1520  0.3964
  937MPD2     H13759   0.694   2.161  11.002 -2.3358 -0.1357 -0.0264
  937MPD2    H113760   0.867   1.809  10.825 -0.5465  1.1463 -0.5240
  937MPD2    H213761   0.599   1.768  11.134  1.3164  0.0871  1.6820
  937MPD2    H313762   0.732   1.677  10.968  2.9275  0.1274  0.5552
  937MPD2     N13763   0.869   2.093  10.817  0.3717 -0.2258  0.4130
  937MPD2    H513764   0.858   2.193  10.829  0.5353 -0.3144  1.3499
  937MPD2    N113765   0.544   2.041  11.172  0.3380  0.1835  0.2408
  937MPD2    H713766   0.532   2.141  11.167  0.1363 -0.0196 -3.0236
  938MPD2     C13767   2.776   3.863   0.987 -0.2514  0.0020 -0.2356
  938MPD2    C113768   2.899   3.815   0.944 -0.5488  0.2971 -0.4469
  938MPD2    C213769   2.912   3.674   0.938  0.4650  0.0298  0.7374
  938MPD2    C313770   2.807   3.585   0.958 -0.0199  0.1345  0.2518
  938MPD2    C413771   2.681   3.640   0.988  0.0456  0.0543 -0.6557
  938MPD2    C513772   2.667   3.777   1.000 -0.1234 -0.9689  0.1387
  938MPD2     H13773   3.009   3.643   0.900 -0.3070 -1.1158 -0.2900
  938MPD2    H113774   2.596   3.575   1.007  0.2579 -0.1500 -0.4017
  938MPD2    H213775   2.750   3.968   0.991  0.4436  0.1501  0.5466
  938MPD2    H313776   2.566   3.810   1.020  0.1165 -0.4229  0.4423
  938MPD2     N13777   2.817   3.448   0.955 -0.3983 -0.0263 -0.5025
  938MPD2    H513778   2.724   3.407   0.945  0.5509 -2.2258 -0.2207
  938MPD2    N113779   3.012   3.891   0.905 -0.6054  0.8644  0.1979
  938MPD2    H713780   3.087   3.831   0.871 -2.0804  0.3366 -2.0976
  939MPD2     C13781   4.261   3.906   0.432  0.0275 -0.5988 -0.8321
  939MPD2    C113782   4.299   4.014   0.349 -0.0137 -0.0223  0.2470
  939MPD2    C213783   4.203   4.058   0.255 -0.3532  0.1979  0.1214
  939MPD2    C313784   4.080   4.004   0.253 -0.0970 -0.8321 -0.1594
  939MPD2    C413785   4.049   3.897   0.331  1.0637 -0.5475  0.2037
  939MPD2    C513786   4.135   3.852   0.424  0.6079 -0.2028 -0.0609
  939MPD2     H13787   4.225   4.148   0.198 -1.5700  0.7080  0.4489
  939MPD2    H113788   3.955   3.844   0.321 -0.1829  1.4847  1.2259
  939MPD2    H213789   4.333   3.856   0.496 -2.0155 -2.3650  0.0850
  939MPD2    H313790   4.104   3.767   0.485 -1.0241 -0.3480 -1.1013
  939MPD2     N13791   3.982   4.058   0.176  0.1124 -0.4220  0.1403
  939MPD2    H513792   4.016   4.123   0.105 -2.0180  1.9092  1.2595
  939MPD2    N113793   4.426   4.070   0.368  0.4250  0.1256  0.2825
  939MPD2    H713794   4.480   4.015   0.434 -0.2485 -0.1871  0.5824
  940MPD2     C13795   2.895   1.044  12.800 -0.1692 -1.0640 -0.3066
  940MPD2    C113796   2.934   0.930  12.877  0.5016 -0.1241  0.5120
  940MPD2    C213797   2.909   0.814  12.813  0.2448  0.4409  0.8174
  940MPD2    C313798   2.851   0.812  12.688 -0.3598  1.1303  0.3771
  940MPD2    C413799   2.824   0.931  12.614  0.6730  0.4392 -0.2099
  940MPD2    C513800   2.833   1.046  12.683  0.2483 -0.7563  0.2128
  940MPD2     H13801   2.928   0.725  12.872  0.9752 -1.7484 -2.7133
  940MPD2    H113802   2.771   0.928  12.520 -0.2793  0.7714  0.3149
  940MPD2    H213803   2.878   1.138  12.852  0.2621 -1.9792  1.5000
  940MPD2    H313804   2.788   1.135  12.640 -0.0524 -1.6075 -1.2268
  940MPD2     N13805   2.817   0.693  12.627 -0.3003  0.4539 -0.1846
  940MPD2    H513806   2.789   0.695  12.530  1.2888  1.6435 -0.6109
  940MPD2    N113807   2.983   0.934  13.009 -0.2671  0.0273 -0.1099
  940MPD2    H713808   2.994   0.850  13.065  0.1276  0.8813  1.1001
  941MPD2     C13809   2.279   0.387   9.565  0.4280 -0.6349 -0.2332
  941MPD2    C113810   2.359   0.310   9.646  0.6770  0.5694  0.3002
  941MPD2    C213811   2.293   0.250   9.755  0.0024 -0.2214  0.5063
  941MPD2    C313812   2.155   0.268   9.784  0.7440  0.0675  0.2225
  941MPD2    C413813   2.080   0.342   9.696  0.7449  0.0519  0.3516
  941MPD2    C513814   2.147   0.400   9.592 -0.3967  0.2630 -0.1872
  941MPD2     H13815   2.361   0.203   9.826  0.5151 -1.1791 -0.6132
  941MPD2    H113816   1.973   0.356   9.710  0.5896 -0.5613 -0.2689
  941MPD2    H213817   2.311   0.437   9.474 -1.2215  0.2537 -0.3390
  941MPD2    H313818   2.079   0.435   9.515 -1.9141 -0.5314  0.7892
  941MPD2     N13819   2.083   0.220   9.892  0.0580  0.0433  0.6075
  941MPD2    H513820   1.990   0.249   9.919  0.3643  1.1504  0.4753
  941MPD2    N113821   2.503   0.316   9.638  0.2329  0.2160 -0.2340
  941MPD2    H713822   2.549   0.268   9.715  2.2091 -0.3965 -1.8113
  942MPD2     C13823   2.031   2.407   9.484 -0.3559  0.0167 -0.0927
  942MPD2    C113824   2.027   2.276   9.446 -0.1742 -0.2465 -0.5338
  942MPD2    C213825   2.137   2.222   9.380  0.6111  0.6314  0.1958
  942MPD2    C313826   2.239   2.301   9.340 -0.4271 -0.4175 -0.1713
  942MPD2    C413827   2.238   2.430   9.373 -0.1518  0.7180 -0.1669
  942MPD2    C513828   2.127   2.491   9.434  0.0954 -0.0454  0.2963
  942MPD2     H13829   2.132   2.123   9.336 -2.8101  1.3265 -0.9741
  942MPD2    H113830   2.320   2.491   9.335  1.6835 -1.2155  0.6934
  942MPD2    H213831   1.954   2.459   9.539  1.4803  1.8849  0.6855
  942MPD2    H313832   2.127   2.598   9.451  4.4944  0.0923 -0.3641
  942MPD2     N13833   2.357   2.249   9.273 -0.4868  0.1463  0.0617
  942MPD2    H513834   2.420   2.329   9.266 -0.6655  0.2528 -0.3079
  942MPD2    N113835   1.910   2.199   9.466 -0.2250 -0.4369  0.0413
  942MPD2    H713836   1.913   2.104   9.431 -0.1275 -0.6754  0.6913
  943MPD2     C13837   1.482   4.627  10.085 -0.9007  0.0638  0.0288
  943MPD2    C113838   1.379   4.578  10.161 -0.4014  0.8841 -0.3929
  943MPD2    C213839   1.333   4.656  10.264 -0.2478  0.7266 -0.0883
  943MPD2    C313840   1.380   0.046  10.283 -0.4284  0.0405  0.2967
  943MPD2    C413841   1.477   0.091  10.204  0.3077 -0.4818 -0.7826
  943MPD2    C513842   1.530   0.010  10.107 -0.6068 -0.0537 -0.1993
  943MPD2     H13843   1.253   4.616  10.325  1.6601 -1.1850  1.1156
  943MPD2    H113844   1.510   0.194  10.208  0.2562 -0.4513 -1.1210
  943MPD2    H213845   1.537   4.566  10.014 -1.0418 -0.1826  0.1313
  943MPD2    H313846   1.606   0.055  10.045  1.1856 -0.9502  1.3337
  943MPD2     N13847   1.322   0.136  10.382 -0.6864 -0.0002  0.1077
  943MPD2    H513848   1.357   0.230  10.397  1.1702 -0.4729 -1.2604
  943MPD2    N113849   1.342   4.441  10.136 -0.2602  0.8959 -0.1050
  943MPD2    H713850   1.393   4.395  10.061  1.8601  0.2555  1.7236
  944MPD2     C13851   1.261   3.721  10.670 -0.0477 -0.0786 -0.2842
  944MPD2    C113852   1.126   3.724  10.691  0.2312 -0.0854 -0.2900
  944MPD2    C213853   1.074   3.811  10.786  0.2697 -0.3571 -0.4401
  944MPD2    C313854   1.153   3.912  10.840  0.5219 -0.0892 -0.2878
  944MPD2    C413855   1.292   3.900  10.817  0.1036  0.3205  0.1869
  944MPD2    C513856   1.340   3.811  10.735  0.0617 -0.6581 -0.0837
  944MPD2     H13857   0.969   3.809  10.815  1.3995  0.0518  3.6579
  944MPD2    H113858   1.366   3.963  10.864  1.6095 -1.0761 -0.3050
  944MPD2    H213859   1.315   3.653  10.605  0.2688 -2.0023  2.0137
  944MPD2    H313860   1.447   3.817  10.719 -0.2115  0.3580 -1.6233
  944MPD2     N13861   1.103   4.010  10.930  0.1220  0.0225 -0.2520
  944MPD2    H513862   1.006   3.996  10.956  0.6499 -0.8493  1.2147
  944MPD2    N113863   1.042   3.627  10.625 -0.1814  0.2282  0.4862
  944MPD2    H713864   1.090   3.573  10.554  1.1023  2.4371 -0.3496
    1TMC1    C113865   3.085   0.351  13.749 -0.7014 -0.5627 -0.0440
    1TMC1    C213866   3.004   0.381  13.858  0.0481  0.2360 -0.0130
    1TMC1    C313867   2.877   0.410  13.831 -0.1717 -0.1547 -0.2634
    1TMC1    C413868   3.040   0.361  13.620 -0.3069  0.4251 -0.8506
    1TMC1    C513869   2.914   0.397  13.604  0.3168 -0.4960 -0.2365
    1TMC1    C613870   2.824   0.422  13.704  0.4872  0.8442  0.1532
    1TMC1     C13871   3.202   0.277  13.763  0.2063  0.1780  0.2154
    1TMC1     O13872   3.223   0.187  13.680 -0.3969 -0.2599  0.2515
    1TMC1     H13873   3.037   0.366  13.960 -1.0283  1.4994  0.5318
    1TMC1    H113874   3.097   0.335  13.531 -0.9913  2.0234 -1.7624
    1TMC1    H213875   2.718   0.446  13.696  0.0456 -0.5941  1.6166
    1TMC1    C713876   2.856   0.409  13.469 -0.7898 -0.6679 -0.2190
    1TMC1    C813877   2.789   0.440  13.946 -0.6257 -0.9126  0.7767
    1TMC1    O113878   2.734   0.389  13.444 -0.1574 -0.5410  0.6219
    1TMC1    O213879   2.672   0.414  13.944  0.7434  0.3485 -0.1262
    1TMC1    O313880   2.934   0.491  13.403  0.0043 -0.2797  0.4205
    1TMC1    H313881   2.993   0.537  13.466  1.3957  0.2811 -1.2822
    1TMC1    O513882   2.851   0.531  14.023  0.4738 -0.4714  0.1028
    1TMC1    H513883   2.926   0.563  13.968 -1.2957  1.9097 -0.8893
    2MPD2     C13884   3.624   0.136  14.009 -1.1637 -0.4187 -1.2320
    2MPD2    C113885   3.590   0.259  14.063  0.5302  0.4308 -0.1922
    2MPD2    C213886   3.476   0.313  14.016 -0.1808  0.0255 -0.3322
    2MPD2    C313887   3.402   0.270  13.909 -0.6718 -0.2440 -0.2469
    2MPD2    C413888   3.441   0.148  13.851  0.2906 -0.4857  0.3122
    2MPD2    C513889   3.545   0.086  13.910 -0.3562 -0.2781  0.1509
    2MPD2     H13890   3.448   0.411  14.055 -0.6384  1.0296 -3.1552
    2MPD2    H113891   3.385   0.087  13.782  0.4427 -2.6323  2.0868
    2MPD2    H213892   3.701   0.072  14.050 -0.8606  0.5049 -0.3704
    2MPD2    H313893   3.575   4.732  13.863  2.3821  0.0537  1.2487
    2MPD2     N13894   3.278   0.323  13.873  0.1467 -0.1745 -0.2683
    2MPD2    H513895   3.249   0.403  13.930  1.7798  1.4746 -1.7429
    2MPD2    N113896   3.670   0.310  14.167 -0.2366  0.0587  0.3197
    2MPD2    H713897   3.746   0.253  14.202  1.3051  1.4203 -0.7898
    3TMC2    C113898   3.789   0.476  14.284 -0.2408  0.2569  0.6723
    3TMC2    C213899   3.848   0.375  14.356 -0.2241 -0.6168  0.6181
    3TMC2    C313900   3.953   0.409  14.425 -0.6728  0.3490 -0.3015
    3TMC2    C413901   3.834   0.604  14.262 -0.3171 -0.3976  0.6073
    3TMC2    C513902   3.935   0.633  14.347  0.1986  0.1189  0.1347
    3TMC2    C613903   3.991   0.539  14.429  0.1498 -0.3717 -0.3493
    3TMC2     C13904   3.675   0.444  14.204  0.3478  0.5955  0.5259
    3TMC2     O13905   3.624   0.535  14.144 -0.5349 -0.3485 -0.4193
    3TMC2     H13906   3.809   0.278  14.385  0.6670 -0.6857  1.6079
    3TMC2    H113907   3.788   0.689  14.214  0.6444 -0.2570 -0.0616
    3TMC2    H213908   4.082   0.560  14.484 -0.1415  0.2310 -0.0933
    3TMC2    C713909   4.012   0.752  14.326  0.2864  0.2528 -0.3575
    3TMC2    C813910   4.026   0.315  14.514 -0.3350 -0.2949 -0.8026
    3TMC2    O113911   4.093   0.772  14.418 -0.1100  0.3335 -0.0570
    3TMC2    O213912   4.021   0.195  14.498  0.5946  0.4271 -0.0798
    3TMC2    O513913   4.078   0.382  14.625  0.5879 -0.1038  0.3304
    3TMC2    H513914   4.062   0.479  14.627 -0.1675 -0.1725 -1.9595
    4TMC2    C113915   3.936   1.138  13.408  0.4172  0.2443 -0.8873
    4TMC2    C213916   4.056   1.174  13.353  0.2034  0.2541 -0.3356
    4TMC2    C313917   4.169   1.181  13.432 -0.1815 -0.1287  0.3562
    4TMC2    C413918   3.933   1.083  13.535 -0.0679 -0.2182  0.1847
    4TMC2    C513919   4.052   1.086  13.607 -0.3325 -0.1063 -0.3422
    4TMC2    C613920   4.169   1.138  13.559  0.2389 -0.1564  0.1598
    4TMC2     C13921   3.828   1.089  13.322 -0.1696  0.1074 -1.2251
    4TMC2     O13922   3.768   0.989  13.362  0.3615 -0.1022  0.1951
    4TMC2     H13923   4.056   1.217  13.254 -3.3013 -0.9432 -0.8668
    4TMC2    H113924   3.842   1.045  13.579 -0.9218 -0.4108 -1.7651
    4TMC2    H213925   4.263   1.121  13.610  0.8843 -0.6729 -1.2166
    4TMC2    C713926   4.037   1.035  13.741  0.0236 -0.4676 -0.6590
    4TMC2    C813927   4.300   1.213  13.385  0.1485  0.4471  0.0392
    4TMC2    O113928   3.926   0.990  13.767 -0.4941 -0.2556  0.4031
    4TMC2    O213929   4.375   1.291  13.443  1.2307  0.3119  0.0760
    4TMC2    O513930   4.302   1.185  13.254  0.6481 -0.0439 -0.1000
    4TMC2    H513931   4.228   1.135  13.215 -0.4530  0.4594  1.3517
    5MPD2     C13932   3.606   1.015  12.863 -0.7309 -0.1437  0.1031
    5MPD2    C113933   3.653   1.149  12.870  0.0560 -0.1607 -0.2209
    5MPD2    C213934   3.717   1.189  12.984  0.2672  0.2247  0.0465
    5MPD2    C313935   3.741   1.106  13.086 -0.2855 -0.5544 -0.1430
    5MPD2    C413936   3.704   0.975  13.078 -0.3411 -0.5190  0.2468
    5MPD2    C513937   3.630   0.933  12.971 -0.2971 -0.0469  0.7893
    5MPD2     H13938   3.754   1.291  12.988  1.2495 -0.1637  0.7419
    5MPD2    H113939   3.727   0.907  13.159  2.4701  1.3035  0.9908
    5MPD2    H213940   3.553   0.982  12.775 -0.4364  1.0401 -0.5146
    5MPD2    H313941   3.598   0.830  12.966  0.4562 -0.2505  0.3144
    5MPD2     N13942   3.812   1.150  13.204  0.4083 -0.3289 -0.4495
    5MPD2    H513943   3.860   1.239  13.195 -0.3273  0.1685  0.5641
    5MPD2    N113944   3.632   1.225  12.752  0.2563 -0.3095 -0.1430
    5MPD2    H713945   3.582   1.187  12.672 -1.6633  2.0178 -0.0448
    6MPD1     C13946   2.186   2.243  12.217 -0.5647 -0.0002 -0.2044
    6MPD1    C113947   2.281   2.338  12.226  0.0998  0.0434 -0.7734
    6MPD1    C213948   2.385   2.309  12.310 -0.0841  0.1283 -0.0359
    6MPD1    C313949   2.400   2.191  12.383 -1.0731 -0.4954  0.3605
    6MPD1    C413950   2.284   2.110  12.388 -0.2051 -0.7571  0.3387
    6MPD1    C513951   2.179   2.138  12.303  0.1382 -0.2959  0.0563
    6MPD1     H13952   2.463   2.384  12.312  1.3192 -1.2732 -1.9678
    6MPD1    H113953   2.285   2.014  12.440  0.1985  0.1378  1.9741
    6MPD1    H213954   2.117   2.251  12.134 -0.9020  0.2654  0.1056
    6MPD1    H313955   2.106   2.059  12.287  1.6610 -1.6768 -0.0351
    6MPD1     N13956   2.521   2.156  12.445 -0.7005 -0.4199 -0.7009
    6MPD1    H513957   2.520   2.070  12.499  0.3725  1.4394  2.2226
    6MPD1    N113958   2.285   2.441  12.138 -0.2300 -0.5698 -0.6227
    6MPD1    H613959   2.193   2.484  12.144  0.2878  0.8223 -2.6595
    6MPD1    H713960   2.359   2.510  12.152  0.1429 -0.2061 -4.5038
    7MPD2     C13961   2.883   1.549  12.690 -0.4499 -0.2418  0.2610
    7MPD2    C113962   2.958   1.633  12.610  0.0462  0.1524 -0.6431
    7MPD2    C213963   3.072   1.578  12.539  0.0105 -0.6231  0.1454
    7MPD2    C313964   3.122   1.457  12.566  0.1077 -0.7848  0.3070
    7MPD2    C413965   3.039   1.369  12.649  0.1729 -0.1663  0.6811
    7MPD2    C513966   2.925   1.422  12.702  0.0825  0.5291 -0.9458
    7MPD2     H13967   3.135   1.651  12.489 -0.2753  0.0343  0.7440
    7MPD2    H113968   3.061   1.267  12.678  0.8765 -0.0083  0.7180
    7MPD2    H213969   2.795   1.582  12.744  0.2739  0.1220  1.2176
    7MPD2    H313970   2.866   1.357  12.766 -2.0659  2.0880 -1.3710
    7MPD2     N13971   3.259   1.413  12.535  0.2579 -0.4294 -0.4852
    7MPD2    H513972   3.305   1.335  12.579 -0.8980 -0.5547  0.4969
    7MPD2    N113973   2.936   1.769  12.595 -0.2605 -0.5832 -0.2547
    7MPD2    H713974   2.993   1.815  12.525  0.9571 -2.1416 -0.3054
    8TMC3    C113975   3.474   1.433  12.446 -0.0433  0.3085 -0.0629
    8TMC3    C213976   3.524   1.364  12.553 -0.2707 -0.4245 -0.8813
    8TMC3    C313977   3.650   1.395  12.599  0.0412 -0.4795  0.5717
    8TMC3    C413978   3.548   1.515  12.369  0.1390  0.1286 -0.4088
    8TMC3    C513979   3.669   1.555  12.423  0.3835  0.0636  0.1367
    8TMC3    C613980   3.722   1.492  12.532  0.2320 -0.1163  0.7798
    8TMC3     C13981   3.338   1.485  12.453  0.3925  0.8660  0.0320
    8TMC3     O13982   3.329   1.591  12.392 -0.2760  0.5563 -0.0510
    8TMC3     H13983   3.461   1.312  12.624 -0.3477 -1.2543 -1.5544
    8TMC3    H113984   3.521   1.549  12.270 -0.7234  0.8669  0.0735
    8TMC3    H213985   3.820   1.524  12.566  1.3442 -2.9598  0.2832
    8TMC3    C713986   3.691   1.694  12.408  0.3189 -0.4198 -0.0390
    8TMC3    C813987   3.698   1.343  12.727  0.2335 -0.0254 -0.0837
    8TMC3    O113988   3.800   1.749  12.410 -0.6684 -0.5461  0.1789
    8TMC3    O213989   3.780   1.407  12.794 -0.1809  0.0159 -0.2751
    9TMC3    C113990   2.752   2.155  12.482 -0.1385  0.8932  0.5978
    9TMC3    C213991   2.877   2.206  12.455 -0.0256 -1.0126 -0.2720
    9TMC3    C313992   2.986   2.137  12.507  0.7124  0.4023  0.1880
    9TMC3    C413993   2.731   2.039  12.564  0.3079 -0.2294  0.0333
    9TMC3    C513994   2.844   1.976  12.609  0.0916  0.5306  0.5181
    9TMC3    C613995   2.968   2.021  12.584 -0.3970  0.2308  0.0315
    9TMC3     C13996   2.644   2.219  12.419  0.0173 -0.3641 -0.2301
    9TMC3     O13997   2.669   2.311  12.341 -0.0861  0.4892  0.7016
    9TMC3     H13998   2.899   2.295  12.396 -1.2974 -0.6373 -0.1799
    9TMC3    H113999   2.636   1.997  12.595  1.7269 -1.2819  2.9137
    9TMC3    H214000   3.061   1.980  12.623 -0.3295 -2.0610 -2.4997
    9TMC3    C714001   2.832   1.841  12.652  0.1941  0.1836 -0.6635
    9TMC3    C814002   3.121   2.162  12.449 -0.7411 -0.8298 -0.4127
    9TMC3    O114003   2.732   1.809  12.715  0.8121  0.9091  0.0673
    9TMC3    O214004   3.153   2.268  12.401  0.2365  0.4616  0.4417
   10MPD2     C14005   3.617   1.980  12.384 -1.0035 -0.1454 -0.0122
   10MPD2    C114006   3.525   1.882  12.400 -0.5371  0.0309 -0.0701
   10MPD2    C214007   3.388   1.904  12.411 -0.1784 -0.0238  0.0308
   10MPD2    C314008   3.342   2.033  12.416 -0.8979  0.1101  0.1011
   10MPD2    C414009   3.431   2.133  12.405 -0.0822 -0.0138  0.0410
   10MPD2    C514010   3.562   2.109  12.384  0.3743  0.1407  0.0632
   10MPD2     H14011   3.335   1.809  12.407 -0.5180 -0.0147  3.7009
   10MPD2    H114012   3.391   2.234  12.417 -1.5638 -0.4471 -1.2369
   10MPD2    H214013   3.725   1.974  12.381 -0.9941  1.0492 -1.4997
   10MPD2    H314014   3.615   2.203  12.374  1.5616 -0.2970  2.0954
   10MPD2     N14015   3.201   2.045  12.447  0.0900 -0.3445 -0.0612
   10MPD2    H514016   3.144   1.964  12.467  0.6676 -0.4295  1.2314
   10MPD2    N114017   3.562   1.749  12.413  0.1384  0.1490  0.1087
   10MPD2    H714018   3.489   1.679  12.425 -1.1416  1.3096 -0.9735
   11MPD2     C14019   4.185   0.959  14.224  0.1341  0.2959  0.1849
   11MPD2    C114020   4.085   0.904  14.148 -0.7666 -0.5405 -0.1130
   11MPD2    C214021   4.075   0.927  14.014  0.3683  0.4549  0.3020
   11MPD2    C314022   4.164   1.018  13.954 -0.7292 -0.2215  0.6792
   11MPD2    C414023   4.270   1.071  14.028 -0.3992  0.0525 -0.1972
   11MPD2    C514024   4.282   1.037  14.161  0.5774  0.9884  0.0810
   11MPD2     H14025   4.010   0.872  13.947 -0.0045  0.5963  0.5524
   11MPD2    H114026   4.328   1.149  13.979 -1.8049  0.4295 -1.2521
   11MPD2    H214027   4.182   0.957  14.332  2.1453  0.5187  0.2431
   11MPD2    H314028   4.350   1.097  14.220  1.9504 -0.9794  0.5016
   11MPD2     N14029   4.149   1.065  13.821 -0.3068 -0.4405 -0.0891
   11MPD2    H514030   4.220   1.121  13.775 -1.7027 -0.0877 -1.8241
   11MPD2    N114031   4.001   0.805  14.201  0.7169 -0.0519 -0.0203
   11MPD2    H714032   3.934   0.759  14.139  0.6610  2.3300 -1.7212
    1MPD1     C14033   2.032   2.857  16.910 -1.0285  0.0265 -0.1730
    1MPD1    C114034   2.127   2.800  16.989  0.2437 -0.2156 -0.0506
    1MPD1    C214035   2.176   2.676  16.956 -0.4464  0.3218 -0.2102
    1MPD1    C314036   2.134   2.613  16.837 -0.1041 -0.0060  0.0287
    1MPD1    C414037   2.045   2.679  16.758 -0.2101  0.4007 -0.6056
    1MPD1    C514038   1.993   2.805  16.791 -0.4472 -0.1371  0.8804
    1MPD1     H14039   2.237   2.621  17.027  0.1379  1.0325 -0.1631
    1MPD1    H114040   2.011   2.636  16.664  0.8621 -2.3293  0.2787
    1MPD1    H214041   1.985   2.951  16.938 -0.7433  1.1725 -3.5528
    1MPD1    H314042   1.911   2.853  16.740 -0.7762 -0.2381  1.3204
    1MPD1     N14043   2.176   2.484  16.800  0.6797 -0.1838 -0.5702
    1MPD1    H514044   2.121   2.457  16.719  1.9024  1.6460 -1.9944
    1MPD1    N114045   2.152   2.858  17.112  0.0472 -0.0679 -0.3802
    1MPD1    H614046   2.247   2.831  17.136  0.2099  0.5706 -0.3236
    1MPD1    H714047   2.155   2.960  17.108  1.2951 -0.1532 -1.8919
    2MPD1     C14048   2.557   1.692  17.270  0.0141 -0.0561 -0.2321
    2MPD1    C114049   2.421   1.733  17.257 -0.6290 -0.0692 -0.0385
    2MPD1    C214050   2.391   1.840  17.174  0.5625 -0.0391 -0.3940
    2MPD1    C314051   2.482   1.881  17.078 -0.1670  0.1548  0.3269
    2MPD1    C414052   2.614   1.840  17.085 -0.5008  0.4937  0.6024
    2MPD1    C514053   2.651   1.744  17.180 -0.3729 -0.1613 -0.4214
    2MPD1     H14054   2.285   1.860  17.162  0.5981  0.7426  0.6212
    2MPD1    H114055   2.693   1.861  17.014  0.7654 -0.8622  1.6102
    2MPD1    H214056   2.589   1.620  17.345 -0.2841 -0.9578 -0.9623
    2MPD1    H314057   2.753   1.709  17.189  0.8807  3.3819 -0.9801
    2MPD1     N14058   2.428   1.953  16.974 -0.2408  0.6304  0.1772
    2MPD1    H514059   2.331   1.979  16.981 -1.0503 -3.1559  3.0304
    2MPD1    N114060   2.323   1.673  17.337 -0.6740  0.0055 -0.7198
    2MPD1    H614061   2.239   1.667  17.280 -0.0171  3.4252 -2.0457
    2MPD1    H714062   2.346   1.577  17.362 -0.9699  0.0197 -0.3973
    3TMC3    C114063   2.433   2.104  16.796  0.5511  0.6562 -0.0026
    3TMC3    C214064   2.453   2.103  16.664  0.7143  0.0515 -0.5211
    3TMC3    C314065   2.385   2.196  16.593  1.1643 -0.6096  0.2472
    3TMC3    C414066   2.350   2.194  16.855  0.3616  0.7023 -0.2123
    3TMC3    C514067   2.295   2.290  16.779 -0.2073  0.0379  0.5096
    3TMC3    C614068   2.314   2.296  16.641 -0.4864  0.1384  0.4420
    3TMC3     C14069   2.505   2.005  16.876  0.3785  0.9948  0.0979
    3TMC3     O14070   2.621   1.978  16.840  0.0003  0.0535 -0.1282
    3TMC3     H14071   2.509   2.016  16.631  0.3823 -0.0184 -0.9043
    3TMC3    H114072   2.329   2.189  16.962 -0.0404 -2.4706 -0.4347
    3TMC3    H214073   2.300   2.387  16.584 -1.5239 -0.5814 -0.4556
    3TMC3    C714074   2.266   2.402  16.863  0.2815 -0.0023 -0.7839
    3TMC3    C814075   2.411   2.205  16.454  0.1322  0.0847 -1.1587
    3TMC3    O114076   2.343   2.419  16.962 -0.6178  0.2015 -0.3286
    3TMC3    O214077   2.347   2.281  16.388 -0.3164 -0.4872  0.6325
    4MPD1     C14078   2.777   2.169  16.095  0.7525 -0.1162  0.7881
    4MPD1    C114079   2.823   2.121  16.216  0.0557 -0.1751 -0.1663
    4MPD1    C214080   2.741   2.122  16.330  0.3208 -0.9702  0.5350
    4MPD1    C314081   2.619   2.181  16.326  0.0252  0.0841  0.7407
    4MPD1    C414082   2.584   2.235  16.205 -0.6287 -0.3449  0.2608
    4MPD1    C514083   2.656   2.228  16.093  0.8204  0.7562  0.5399
    4MPD1     H14084   2.766   2.051  16.408  3.5507  1.2676  1.5373
    4MPD1    H114085   2.488   2.275  16.176 -0.0113  0.8091 -0.1974
    4MPD1    H214086   2.829   2.150  16.002  1.3564  1.6290  0.7693
    4MPD1    H314087   2.623   2.254  15.994 -0.4751 -0.3130  0.6894
    4MPD1     N14088   2.540   2.156  16.437  0.5311 -0.3239 -0.4671
    4MPD1    H514089   2.572   2.096  16.513  1.0692  0.1503 -0.3187
    4MPD1    N114090   2.945   2.057  16.217 -0.1191 -0.6481 -0.4069
    4MPD1    H614091   2.994   2.064  16.305 -2.7984 -1.2112  1.1543
    4MPD1    H714092   3.005   2.094  16.144  1.4474  0.0509  1.2523
    1TCq1    O114093   2.063   1.632  11.117  0.6030 -0.0189 -0.6439
    1TCq1    C114094   2.168   1.696  11.056 -0.2671  0.3005  0.8077
    1TCq1    O214095   2.287   1.677  11.085 -0.5531 -0.5233  0.0334
    1TCq1    C214096   2.119   1.822  11.025  0.4642 -0.0248 -0.4600
    1TCq1    C314097   1.988   1.833  10.995 -0.4663  0.2679 -0.0819
    1TCq1    C414098   1.937   1.948  10.952  0.1218  0.0974 -0.6066
    1TCq1    C514099   2.005   2.060  10.972 -0.1909  0.2863  1.1569
    1TCq1    C614100   2.137   2.059  11.008 -0.6882 -0.1459 -0.1023
    1TCq1    C714101   2.196   1.937  11.037 -0.6942  0.2320  0.6398
    1TCq1    C814102   2.226   2.175  11.014  0.5520  0.5216  0.2518
    1TCq1    O414103   2.349   2.165  10.991  0.1272 -0.4837  0.3640
    1TCq1    C914104   1.794   1.957  10.937  0.3846 -0.2601 -1.0841
    1TCq1    O514105   1.720   1.861  10.975 -0.7577  0.1652  0.2306
    1TCq1    O614106   1.755   2.070  10.904  0.3161 -0.1227  0.4022
    1TCq1    H114107   1.977   1.668  11.085  0.7307 -0.2820 -1.2848
    1TCq1    H214108   1.927   1.748  10.968  0.5779 -0.1853 -1.0273
    1TCq1    H314109   1.957   2.157  10.960 -2.2493 -0.7921  0.5969
    1TCq1    H414110   2.302   1.932  11.061 -0.2707 -1.7280 -1.6295
    2MPD1     C14111   2.228   2.696  11.076  0.1830  0.4892  0.6045
    2MPD1    C114112   2.113   2.639  11.123 -0.9225 -0.4989 -0.0085
    2MPD1    C214113   2.086   2.506  11.104  0.4030 -0.9114  0.1472
    2MPD1    C314114   2.186   2.423  11.054  0.5747 -0.6847  0.2377
    2MPD1    C414115   2.310   2.473  11.020  1.0096  0.5574 -0.4707
    2MPD1    C514116   2.325   2.614  11.027  0.4678  0.1717 -0.9812
    2MPD1     H14117   1.992   2.460  11.130 -0.4601  1.6285  1.4911
    2MPD1    H114118   2.394   2.412  10.988  2.1967  1.2202  1.3924
    2MPD1    H214119   2.241   2.804  11.071 -1.2388  0.7942  3.4487
    2MPD1    H314120   2.419   2.659  10.997  1.0274 -0.7273 -0.5863
    2MPD1     N14121   2.151   2.288  11.043 -0.1487 -0.3892 -0.7256
    2MPD1    H514122   2.056   2.262  11.070  0.6070 -0.6226  1.6630
    2MPD1    N114123   2.012   2.724  11.164 -0.3760  0.0567 -0.3149
    2MPD1    H614124   2.042   2.811  11.207 -0.5699  0.3044 -0.6768
    2MPD1    H714125   1.935   2.686  11.219 -0.6062  1.4399  0.3424
    1TMC1    C114126   1.815   2.288   1.097 -0.4339  0.0537 -0.5161
    1TMC1    C214127   1.768   2.305   0.974  0.1699  0.4163  0.0626
    1TMC1    C314128   1.633   2.317   0.960 -0.0612 -0.1684 -0.9032
    1TMC1    C414129   1.732   2.285   1.200 -0.3122 -0.4029  0.0802
    1TMC1    C514130   1.594   2.294   1.184  0.3027  0.0478  0.4507
    1TMC1    C614131   1.539   2.321   1.059 -0.3810 -0.3344 -0.6584
    1TMC1     C14132   1.951   2.276   1.126 -0.1735  0.2867  0.0016
    1TMC1     O14133   1.985   2.174   1.191 -0.6488 -0.3576 -0.5442
    1TMC1     H14134   1.838   2.329   0.895  0.0480 -1.2658 -0.5544
    1TMC1    H114135   1.788   2.262   1.290  1.3891 -2.0912 -1.4166
    1TMC1    H214136   1.433   2.341   1.045 -0.1712  0.0584 -1.6601
    1TMC1    C714137   1.502   2.273   1.298 -0.3090 -0.6630 -0.7524
    1TMC1    C814138   1.581   2.332   0.829  0.0481 -0.0305  0.6118
    1TMC1    O114139   1.387   2.224   1.299  0.1290 -0.3540 -0.1180
    1TMC1    O214140   1.471   2.381   0.808  0.3351 -0.2251 -0.1526
    1TMC1    O314141   1.571   2.313   1.410  0.2798 -0.2685 -0.3061
    1TMC1    H314142   1.643   2.377   1.391  0.8175 -0.6166  0.5445
    1TMC1    O514143   1.679   2.311   0.738  0.0089 -0.8279  0.7890
    1TMC1    H514144   1.754   2.255   0.767  0.6432 -1.0042 -1.1858
    2MPD1     C14145   2.443   2.404   1.085  0.0815 -0.1383 -0.9291
    2MPD1    C114146   2.373   2.494   1.008  0.8375  0.6569 -0.2351
    2MPD1    C214147   2.234   2.489   1.017 -0.4489  0.6290  0.1348
    2MPD1    C314148   2.174   2.375   1.074  1.1069 -0.3433 -0.1763
    2MPD1    C414149   2.251   2.278   1.129  0.7649  0.1816 -0.2936
    2MPD1    C514150   2.384   2.292   1.137 -0.0075  0.2310  0.0459
    2MPD1     H14151   2.173   2.567   0.972 -1.6110 -1.0681 -1.2002
    2MPD1    H114152   2.195   2.192   1.165 -0.4755  1.8430  1.7653
    2MPD1    H214153   2.550   2.415   1.102 -0.1870  1.7382 -0.4824
    2MPD1    H314154   2.446   2.218   1.185 -0.2092 -0.6360 -1.0373
    2MPD1     N14155   2.026   2.370   1.070 -0.2147  0.5689 -0.8043
    2MPD1    H514156   1.989   2.452   1.023 -1.0942 -1.0078 -2.8463
    2MPD1    N114157   2.447   2.595   0.937 -0.2017  0.0668  0.3943
    2MPD1    H614158   2.404   2.618   0.847 -0.9524  0.1486  0.7692
    2MPD1    H714159   2.544   2.576   0.914 -0.7336 -1.2236 -0.8090
    1MPD1     C14160   3.692   1.230  12.141  0.2660  0.0965  0.1385
    1MPD1    C114161   3.751   1.215  12.021  0.4207  0.1067  0.5770
    1MPD1    C214162   3.869   1.278  11.996 -0.3039 -0.2484  0.6891
    1MPD1    C314163   3.940   1.345  12.087  0.1983  0.0339  0.2662
    1MPD1    C414164   3.883   1.357  12.218 -0.0609 -0.8488  0.5884
    1MPD1    C514165   3.764   1.293  12.238 -0.0327 -0.4911 -1.3379
    1MPD1     H14166   3.907   1.272  11.894  2.6464 -2.0812  1.8962
    1MPD1    H114167   3.944   1.383  12.303  0.3632  0.5630 -0.1619
    1MPD1    H214168   3.601   1.181  12.173  1.0729 -0.8612  0.9742
    1MPD1    H314169   3.717   1.294  12.336  0.7400 -0.3719 -0.9733
    1MPD1     N14170   4.068   1.400  12.060 -0.2674 -0.2832 -0.4328
    1MPD1    H514171   4.103   1.390  11.965 -0.3031  3.5238 -0.8320
    1MPD1    N114172   3.686   1.130  11.922 -0.2334 -0.5953  0.0330
    1MPD1    H614173   3.721   1.128  11.827 -0.7053  0.8577 -0.1789
    1MPD1    H714174   3.586   1.146  11.915  0.0349  0.0661 -2.0995
    2MPD1     C14175   4.359   2.863  10.436 -0.2665 -0.0568 -0.2998
    2MPD1    C114176   4.381   2.803  10.311 -0.1780 -0.8023  0.3510
    2MPD1    C214177   4.377   2.668  10.305  0.0090 -0.2645 -0.1861
    2MPD1    C314178   4.337   2.588  10.412  0.1266 -0.3746 -0.0281
    2MPD1    C414179   4.304   2.650  10.532  0.4207 -0.1526  0.9327
    2MPD1    C514180   4.328   2.782  10.542  0.1182  0.5798  0.2423
    2MPD1     H14181   4.398   2.622  10.209  2.1959 -0.1101  0.2053
    2MPD1    H114182   4.292   2.591  10.622  1.5581 -2.3478 -0.3597
    2MPD1    H214183   4.371   2.970  10.446  0.7395 -0.4292  2.2864
    2MPD1    H314184   4.305   2.829  10.637  1.3193  0.6257  0.5068
    2MPD1     N14185   4.324   2.447  10.413 -0.4666 -0.4829  0.5561
    2MPD1    H514186   4.309   2.408  10.505 -1.7580  1.6680  1.2510
    2MPD1    N114187   4.412   2.872  10.192  1.5117 -0.5440  0.0942
    2MPD1    H614188   4.392   2.818  10.109  0.7896 -0.0858 -0.0222
    2MPD1    H714189   4.367   2.963  10.189 -1.6131 -2.2155 -3.1457
    3MPD1     C14190   4.299   1.894   9.599 -0.7183  0.4226  0.0642
    3MPD1    C114191   4.247   2.016   9.626 -0.6507  0.0777  0.2683
    3MPD1    C214192   4.243   2.053   9.759 -0.8680 -0.3422  0.1929
    3MPD1    C314193   4.288   1.966   9.862 -0.2850 -0.2276  0.3469
    3MPD1    C414194   4.355   1.844   9.822  0.5401 -0.1077  0.4249
    3MPD1    C514195   4.361   1.809   9.692  0.3177 -0.1249 -0.3056
    3MPD1     H14196   4.185   2.136   9.799  1.1676 -0.2224  2.8571
    3MPD1    H114197   4.403   1.782   9.896  1.2274 -1.2106 -0.9350
    3MPD1    H214198   4.298   1.857   9.497  0.7823 -0.1844  0.2692
    3MPD1    H314199   4.402   1.713   9.665  0.1829 -0.7573  1.7493
    3MPD1     N14200   4.269   2.011   9.993 -0.3067 -0.1837 -0.0747
    3MPD1    H514201   4.223   2.099  10.016  0.1036 -0.3463  1.3911
    3MPD1    N114202   4.170   2.087   9.524  0.4465  0.4750 -0.1986
    3MPD1    H614203   4.191   2.186   9.532  1.3720  0.2311  0.3116
    3MPD1    H714204   4.208   2.066   9.431  0.4486  0.2466 -0.1477
    4MPD2     C14205   4.468   2.059  11.878 -0.4945  0.5256 -0.6779
    4MPD2    C114206   4.523   1.929  11.865  0.0429 -0.5785 -0.0628
    4MPD2    C214207   4.593   1.898  11.739  0.3842 -0.1160 -0.1706
    4MPD2    C314208   4.611   2.002  11.643  0.8039 -0.2499  0.6363
    4MPD2    C414209   4.560   2.128  11.656  0.2063  0.3100  0.5010
    4MPD2    C514210   4.489   2.148  11.779 -0.1867  0.0458  0.3711
    4MPD2     H14211   4.640   1.802  11.725 -0.0407  0.2603 -4.0891
    4MPD2    H114212   4.589   2.209  11.589  0.2146 -0.9594 -1.0071
    4MPD2    H214213   4.412   2.095  11.963 -1.2189  1.2708 -1.4634
    4MPD2    H314214   4.459   2.250  11.802 -0.8491  0.2182 -1.2317
    4MPD2     N14215   4.692   1.957  11.537 -0.3058  0.6691 -0.2546
    4MPD2    H514216   4.715   1.859  11.552 -1.5988  0.5908  1.2727
    4MPD2    N114217   4.502   1.831  11.957 -0.3262 -0.2650 -0.7790
    4MPD2    H714218   4.560   1.751  11.934 -0.9744 -0.5174 -1.5581
    5TMC3    C114219   4.428   1.700  12.119  0.4695 -0.2428  0.1763
    5TMC3    C214220   4.296   1.659  12.121 -0.5129 -0.1917  0.2850
    5TMC3    C314221   4.269   1.531  12.075 -0.4226 -0.0618  0.7588
    5TMC3    C414222   4.514   1.609  12.056 -0.9484 -0.2636 -0.1334
    5TMC3    C514223   4.480   1.487  12.003  0.2052  1.0911 -0.0487
    5TMC3    C614224   4.357   1.434  12.015 -0.4500  0.4204 -0.3637
    5TMC3     C14225   4.428   1.839  12.068 -0.5042 -0.7798  0.5527
    5TMC3     O14226   4.352   1.924  12.117 -0.8625 -0.5584 -0.6801
    5TMC3     H14227   4.219   1.726  12.156 -0.4725  0.9977 -1.9059
    5TMC3    H114228   4.620   1.630  12.047 -1.4033  2.1587  0.0580
    5TMC3    H214229   4.332   1.337  11.973 -1.6861 -0.0551  1.4971
    5TMC3    C714230   4.550   1.473  11.878  0.0678 -0.4904 -0.1100
    5TMC3    C814231   4.143   1.477  12.142  0.0121  0.1580  0.6969
    5TMC3    O114232   4.602   1.575  11.834  0.7328  0.0317  0.6734
    5TMC3    O214233   4.115   1.527  12.249 -0.1811 -0.2479 -0.3426
    6TMC3    C114234   4.323   2.233  10.325 -0.5898 -0.0669  0.7823
    6TMC3    C214235   4.282   2.148  10.224  0.3937  0.1095  0.3848
    6TMC3    C314236   4.310   2.018  10.225 -0.5109  0.2552 -0.4321
    6TMC3    C414237   4.403   2.186  10.425  0.2481 -0.6442  0.0325
    6TMC3    C514238   4.415   2.049  10.434 -0.7089 -0.3581  0.1871
    6TMC3    C614239   4.370   1.958  10.335  0.0636 -0.1697 -0.6035
    6TMC3     C14240   4.307   2.370  10.303  0.3672 -0.1645 -0.3635
    6TMC3     O14241   4.304   2.403  10.188 -0.6673 -0.4475 -0.1678
    6TMC3     H14242   4.213   2.188  10.149 -1.8300 -2.4201  1.0887
    6TMC3    H114243   4.449   2.247  10.503 -0.1381 -1.4833  0.9224
    6TMC3    H214244   4.379   1.851  10.346  0.6568 -0.1090 -0.4860
    6TMC3    C714245   4.480   1.996  10.549 -0.3489  0.2255  0.2898
    6TMC3    C814246   4.318   1.940  10.101 -0.6387  0.6132 -0.1718
    6TMC3    O114247   4.492   2.053  10.660 -0.2990  0.2748  0.4495
    6TMC3    O214248   4.380   1.834  10.110  0.6857 -0.0335 -0.4333
    7MPD2     C14249   0.005   1.233  11.466 -0.4441  0.0072  0.7291
    7MPD2    C114250   0.005   1.365  11.495 -0.5947  0.0242 -0.8123
    7MPD2    C214251   4.698   1.401  11.622  0.2526 -1.0597 -0.2113
    7MPD2    C314252   4.648   1.311  11.714  0.5894  0.3876  0.3182
    7MPD2    C414253   4.651   1.175  11.684 -0.0689 -1.0605 -0.3182
    7MPD2    C514254   4.696   1.138  11.558 -0.4029 -0.4093  0.7501
    7MPD2     H14255   4.702   1.508  11.641  0.2489 -0.7585 -1.9395
    7MPD2    H114256   4.608   1.101  11.750 -2.8751  0.3977 -0.5591
    7MPD2    H214257   0.037   1.196  11.369  2.7204  1.0687  1.3616
    7MPD2    H314258   4.685   1.037  11.521 -0.2634  1.0399 -3.2313
    7MPD2     N14259   4.568   1.343  11.833 -0.0360 -0.4006 -0.1153
    7MPD2    H514260   4.531   1.265  11.886 -0.5482 -0.4442 -0.5418
    7MPD2    N114261   0.041   1.459  11.399  0.4595 -0.7153 -0.2381
    7MPD2    H714262   0.090   1.424  11.317 -0.0165 -2.2764  0.1618
    8TMC3    C114263   0.109   1.677  11.345  0.3101  0.0162  0.4937
    8TMC3    C214264   0.075   1.684  11.206 -0.2827  0.1060 -0.1977
    8TMC3    C314265   0.041   1.801  11.146 -0.3661 -0.0296 -0.0478
    8TMC3    C414266   0.099   1.794  11.410 -0.2151 -0.0753  0.1421
    8TMC3    C514267   0.072   1.918  11.345  0.2331 -0.1701 -0.2052
    8TMC3    C614268   0.048   1.921  11.213 -0.7003 -0.8418 -0.2319
    8TMC3     C14269   0.016   1.589  11.413  0.0063 -0.3440 -0.1630
    8TMC3     O14270   4.678   1.655  11.479  0.2476  0.4583 -0.1423
    8TMC3     H14271   0.077   1.591  11.152 -0.8156 -0.4748  0.7899
    8TMC3    H114272   0.112   1.787  11.517  0.9180  2.7698  0.1758
    8TMC3    H214273   0.028   2.012  11.157  1.0308  1.4568  2.9482
    8TMC3    C714274   4.733   2.014  11.419 -0.1568 -0.0575  0.0251
    8TMC3    C814275   4.719   1.812  11.024  0.4263  0.3851  0.0183
    8TMC3    O114276   4.726   2.125  11.375  0.3016 -0.0647  0.1810
    8TMC3    O214277   4.630   1.898  11.019  0.3378 -0.5370 -0.4733
    9MPD2     C14278   0.098   1.667  10.709 -0.4509  0.1854  0.0620
    9MPD2    C114279   0.020   1.746  10.783 -0.1577 -0.7776 -0.1200
    9MPD2    C214280   4.669   1.831  10.727 -0.7007  0.2502  0.6022
    9MPD2    C314281   4.648   1.817  10.586  0.1632 -0.4069 -0.1391
    9MPD2    C414282   4.720   1.726  10.516  0.4909  1.0374 -0.5467
    9MPD2    C514283   0.076   1.652  10.573  1.0256 -0.2797  0.0906
    9MPD2     H14284   4.603   1.894  10.785  0.0379  0.0746  1.6531
    9MPD2    H114285   4.718   1.730  10.408 -0.9075  1.8101 -0.4987
    9MPD2    H214286   0.183   1.606  10.739 -1.8457 -1.4889  0.6072
    9MPD2    H314287   0.117   1.576  10.507  0.7855 -0.1585 -0.1950
    9MPD2     N14288   4.556   1.893  10.506  0.1024 -0.4490 -0.1587
    9MPD2    H514289   4.573   1.893  10.406 -0.0996 -1.5605 -0.1893
    9MPD2    N114290   0.052   1.741  10.927 -0.1570 -0.0690  0.0774
    9MPD2    H714291   0.128   1.682  10.959 -2.9000 -2.4581  2.0862
    1MPD1     C14292   4.110   1.804  16.230 -0.1894 -0.7847 -0.1495
    1MPD1    C114293   4.163   1.793  16.353 -0.4663  0.0425 -0.1151
    1MPD1    C214294   4.094   1.722  16.453 -0.1381  0.3253 -0.1939
    1MPD1    C314295   3.972   1.666  16.426  0.7325  0.0399  0.0309
    1MPD1    C414296   3.926   1.683  16.299 -0.3015 -0.5280  1.0251
    1MPD1    C514297   3.991   1.746  16.200  0.2796  0.1846  1.0500
    1MPD1     H14298   4.142   1.718  16.550  0.5230 -1.5746 -0.5828
    1MPD1    H114299   3.843   1.625  16.261 -0.2835 -1.0280  1.7657
    1MPD1    H214300   4.159   1.863  16.153 -3.1371  1.7816 -0.0677
    1MPD1    H314301   3.946   1.753  16.102 -1.3003  1.7384  1.8827
    1MPD1     N14302   3.897   1.582  16.517 -0.2091 -0.0416  0.3611
    1MPD1    H514303   3.801   1.561  16.490 -0.5909  2.0164  0.0925
    1MPD1    N114304   4.295   1.828  16.378 -0.1154 -0.6399 -0.5585
    1MPD1    H614305   4.307   1.841  16.479 -1.7279 -0.4140 -0.3855
    1MPD1    H714306   4.311   1.913  16.324  1.1474 -1.2176 -1.0747
    2TMC2    C114307   3.826   1.234  16.842 -0.2533 -0.1200 -0.8816
    2TMC2    C214308   3.723   1.187  16.773 -0.5715  0.3222  0.0942
    2TMC2    C314309   3.696   1.250  16.661 -0.4047  0.0473  0.1024
    2TMC2    C414310   3.893   1.344  16.797 -0.7842 -0.6054  0.2427
    2TMC2    C514311   3.860   1.414  16.684 -0.2461 -0.3339 -0.3655
    2TMC2    C614312   3.761   1.358  16.608 -0.3511 -0.0637 -0.5209
    2TMC2     C14313   3.878   1.150  16.952 -0.6365  0.0676  0.0975
    2TMC2     O14314   3.834   1.035  16.951 -0.4344  0.4820  0.0951
    2TMC2     H14315   3.667   1.098  16.799  0.6822 -0.2020  1.0281
    2TMC2    H114316   3.966   1.385  16.865 -0.5522  1.3120 -1.1721
    2TMC2    H214317   3.735   1.393  16.508 -2.0514 -1.4963 -0.5645
    2TMC2    C714318   3.951   1.515  16.631 -0.1572 -0.2809  0.1318
    2TMC2    C814319   3.590   1.199  16.575 -0.9032  0.6720  0.0157
    2TMC2    O114320   4.052   1.532  16.696 -0.1428 -0.0309  0.1701
    2TMC2    O214321   3.543   1.270  16.482 -0.1239  0.4532 -0.6097
    2TMC2    O514322   3.632   1.075  16.562  0.2956 -0.0424 -0.0573
    2TMC2    H514323   3.694   1.043  16.631 -0.5064  1.5645  1.4047
    3MPD1     C14324   4.138   1.097  17.385 -0.1879 -0.2481 -0.7288
    3MPD1    C114325   4.116   1.231  17.358  0.4952  0.4445  0.0904
    3MPD1    C214326   4.048   1.267  17.246 -0.3070 -0.0440 -0.2511
    3MPD1    C314327   4.006   1.169  17.163 -0.0071  0.2784 -0.1804
    3MPD1    C414328   4.032   1.034  17.184  0.1945 -0.0105  0.2738
    3MPD1    C514329   4.108   0.997  17.294 -0.4052  0.0266  0.1517
    3MPD1     H14330   4.039   1.372  17.219  0.9536  0.1948  0.2265
    3MPD1    H114331   4.004   0.955  17.114  1.3290  0.2592 -0.4881
    3MPD1    H214332   4.188   1.058  17.473 -1.3561  0.1141  0.0922
    3MPD1    H314333   4.123   0.891  17.310  1.0018  0.5312  2.1042
    3MPD1     N14334   3.964   1.213  17.043  0.0972  0.0387 -0.5300
    3MPD1    H514335   3.993   1.305  17.012  0.3721 -0.1808 -0.9310
    3MPD1    N114336   4.154   1.323  17.449  0.0243 -0.0481 -0.2881
    3MPD1    H614337   4.172   1.290  17.543  1.8613  1.2900 -0.1763
    3MPD1    H714338   4.097   1.408  17.452  1.7738  1.1256 -0.0759
    1TMC1    C114339   1.280   4.294  13.228  0.3295  0.2729 -1.0047
    1TMC1    C214340   1.256   4.398  13.311 -0.1691 -0.1910  0.5138
    1TMC1    C314341   1.123   4.429  13.323 -0.2392 -0.0754  0.3359
    1TMC1    C414342   1.181   4.225  13.158 -0.1292 -0.7120 -0.3704
    1TMC1    C514343   1.050   4.270  13.172 -0.0716 -0.2959 -0.6105
    1TMC1    C614344   1.023   4.371  13.258  0.5739  0.0667  0.0964
    1TMC1     C14345   1.408   4.237  13.189  0.3503  0.4245 -0.2921
    1TMC1     O14346   1.409   4.160  13.097 -0.2627  0.5027 -0.0007
    1TMC1     H14347   1.331   4.451  13.368 -2.1591  0.9533  2.0639
    1TMC1    H114348   1.199   4.144  13.088  1.1500 -0.8378  0.1064
    1TMC1    H214349   0.921   4.409  13.266  0.7683 -0.1551  3.6144
    1TMC1    C714350   0.924   4.200  13.123 -0.1470  0.3058  0.0607
    1TMC1    C814351   1.101   4.565  13.371  0.0602  0.7782  0.3829
    1TMC1    O114352   0.816   4.195  13.175 -0.1775  0.5819 -0.1995
    1TMC1    O214353   1.196   4.644  13.374  0.2429 -0.2230  0.5814
    1TMC1    O314354   0.960   4.122  13.018  0.1032 -0.4674 -0.2910
    1TMC1    H314355   1.035   4.166  12.971  0.2099  0.2079  0.5094
    1TMC1    O514356   1.001   4.558  13.460  0.0732 -0.7062 -0.6473
    1TMC1    H514357   0.970   4.465  13.468  1.5608 -1.1886 -0.3756
    2MPD2     C14358   1.682   4.127  13.199  0.1127  0.1367 -0.3526
    2MPD2    C114359   1.650   4.255  13.244 -0.1761 -0.0184  0.3840
    2MPD2    C214360   1.754   4.336  13.270 -0.0417  0.3725 -0.0603
    2MPD2    C314361   1.879   4.279  13.269  0.6573  0.0365 -0.1122
    2MPD2    C414362   1.913   4.156  13.225 -0.7482  0.7951 -0.0377
    2MPD2    C514363   1.808   4.078  13.184  0.6581 -0.2273 -0.2823
    2MPD2     H14364   1.727   4.432  13.312 -3.2340  0.1434 -1.5526
    2MPD2    H114365   2.013   4.113  13.224 -1.2438 -0.2899 -3.2833
    2MPD2    H214366   1.598   4.061  13.178 -1.1149  1.6090 -0.0203
    2MPD2    H314367   1.819   3.972  13.162 -3.0407 -0.3332 -1.5561
    2MPD2     N14368   1.978   4.368  13.311 -0.5686  0.2330  0.2233
    2MPD2    H514369   1.952   4.452  13.362  0.5059  0.8844 -0.2954
    2MPD2    N114370   1.514   4.290  13.266  0.0842  0.0457  0.2557
    2MPD2    H714371   1.499   4.382  13.305 -1.5063  0.1185 -0.5146
    3TCq1    O114372   2.386   4.723  13.078 -0.2622 -0.0059 -0.2024
    3TCq1    C114373   2.454   4.675  13.184 -0.3158  0.4322  0.1695
    3TCq1    O214374   2.561   4.719  13.226 -0.6908 -0.3514 -0.0019
    3TCq1    C214375   2.363   4.600  13.264  1.3394  0.1603 -0.2652
    3TCq1    C314376   2.361   4.639  13.396 -0.7800  0.3315 -1.0965
    3TCq1    C414377   2.272   4.581  13.478 -0.2773  0.1384  0.0367
    3TCq1    C514378   2.179   4.491  13.436  0.0423  0.5974  0.0311
    3TCq1    C614379   2.190   4.457  13.301  0.6988  0.2594  0.4994
    3TCq1    C714380   2.285   4.508  13.212  0.2391 -0.4109 -0.5568
    3TCq1    C814381   2.097   4.361  13.252 -0.5979 -0.8693  0.2144
    3TCq1    O414382   2.135   4.314  13.146 -0.1881 -0.3405  0.3559
    3TCq1    C914383   2.289   4.626  13.617 -0.5149 -0.6254 -0.2511
    3TCq1    O514384   2.190   4.615  13.696 -0.3246 -0.4489 -0.8469
    3TCq1    O614385   2.408   4.671  13.646 -0.1171  0.0328  0.3513
    3TCq1    H114386   2.293   4.690  13.080  0.6395 -2.5231 -1.0085
    3TCq1    H214387   2.422   4.720  13.434  1.5258 -1.8423 -0.2376
    3TCq1    H314388   2.116   4.439  13.508  0.0322  1.1709  0.4364
    3TCq1    H414389   2.290   4.474  13.109  0.2215  1.5177 -1.1817
    1MPD2     C14390   2.185   1.311  14.831 -0.5120  0.2697  0.0140
    1MPD2    C114391   2.049   1.271  14.849 -0.9140  0.1795 -0.7106
    1MPD2    C214392   2.021   1.137  14.885  0.4223  0.5606 -0.0822
    1MPD2    C314393   2.130   1.044  14.901 -0.7095 -0.3871  0.3878
    1MPD2    C414394   2.257   1.085  14.877  0.1144 -0.2321  0.6179
    1MPD2    C514395   2.283   1.219  14.844  0.4151 -0.5394  0.2535
    1MPD2     H14396   1.920   1.103  14.905  0.0580 -0.1705 -3.0991
    1MPD2    H114397   2.336   1.010  14.877  0.2554 -0.0799  0.2470
    1MPD2    H214398   2.206   1.412  14.799  0.3443  0.5845  1.5666
    1MPD2    H314399   2.384   1.250  14.819 -0.0823  0.9291  0.1027
    1MPD2     N14400   2.113   0.907  14.927 -0.2593 -0.3065  0.3417
    1MPD2    H514401   2.187   0.847  14.961  1.6810  0.7307 -1.9834
    1MPD2    N114402   1.946   1.366  14.839 -0.2326 -0.4086  0.2095
    1MPD2    H714403   1.973   1.455  14.797  0.8034 -1.3399 -1.1317
    2TMC3    C114404   1.746   1.482  14.897  0.3037  0.5047  0.7866
    2TMC3    C214405   1.639   1.452  14.982  0.0901 -0.8650  0.2776
    2TMC3    C314406   1.517   1.500  14.960  0.0761  0.3173 -0.3115
    2TMC3    C414407   1.717   1.554  14.785  0.4971 -0.2149 -0.6948
    2TMC3    C514408   1.590   1.605  14.766 -0.4415  0.7500  0.4443
    2TMC3    C614409   1.485   1.577  14.850 -0.2868 -0.5623 -0.3895
    2TMC3     C14410   1.819   1.355  14.886  0.5597 -0.0282 -0.2226
    2TMC3     O14411   1.755   1.256  14.914  0.2448  0.0060 -0.0295
    2TMC3     H14412   1.669   1.410  15.078 -0.3688  0.2128  0.8974
    2TMC3    H114413   1.790   1.561  14.705  1.5587 -1.7782  0.1415
    2TMC3    H214414   1.388   1.614  14.818  0.1061  0.6751 -0.1351
    2TMC3    C714415   1.566   1.683  14.642 -0.0184  0.0604 -0.0565
    2TMC3    C814416   1.423   1.391  14.975 -0.2184 -0.9539 -0.3326
    2TMC3    O114417   1.465   1.663  14.576 -0.5548 -0.2113 -0.3211
    2TMC3    O214418   1.305   1.423  15.004 -0.0411  0.0864 -0.0643
    3TCq1    O114419   2.333   2.299  14.010 -0.0790  0.4839 -0.3958
    3TCq1    C114420   2.415   2.298  14.117  0.1510  0.1638  0.0819
    3TCq1    O214421   2.534   2.284  14.112 -0.2344 -0.3932  0.7833
    3TCq1    C214422   2.325   2.275  14.228 -0.1352  0.1002  0.2543
    3TCq1    C314423   2.363   2.303  14.358 -0.2493 -0.0278 -0.8089
    3TCq1    C414424   2.270   2.301  14.463 -0.1913 -0.5102 -0.0709
    3TCq1    C514425   2.145   2.253  14.438 -0.3157  0.2986  0.4029
    3TCq1    C614426   2.106   2.231  14.309 -0.1982  0.7929  0.2468
    3TCq1    C714427   2.191   2.247  14.201  1.0491  0.7677 -0.1038
    3TCq1    C814428   1.969   2.172  14.293 -0.0194 -0.0879 -0.5977
    3TCq1    O414429   1.932   2.144  14.180  1.1849  0.4001  0.2801
    3TCq1    C914430   2.308   2.326  14.602 -0.2731 -0.1194  0.3582
    3TCq1    O514431   2.232   2.277  14.695  0.1357  0.1166  0.0357
    3TCq1    O614432   2.424   2.376  14.618 -1.1248 -0.0866  0.7391
    3TCq1    H114433   2.244   2.338  14.022  0.6689  2.8468 -2.4616
    3TCq1    H214434   2.466   2.332  14.378  0.3620 -1.0212 -2.4729
    3TCq1    H314435   2.078   2.254  14.524 -0.0607 -0.4887  0.6140
    3TCq1    H414436   2.148   2.220  14.106  0.5887 -0.9399  0.5806
    4MPD2     C14437   1.694   2.080  14.334  0.8441 -0.0237 -0.3237
    4MPD2    C114438   1.796   2.059  14.427  0.1944 -0.2511 -0.0020
    4MPD2    C214439   1.782   1.960  14.520 -0.1800  0.3129  0.1536
    4MPD2    C314440   1.672   1.877  14.518 -0.2084  0.1292 -0.1090
    4MPD2    C414441   1.562   1.909  14.435 -0.4754 -1.1411  0.6476
    4MPD2    C514442   1.579   2.011  14.350 -0.5452 -0.9931 -0.4717
    4MPD2     H14443   1.871   1.939  14.578  0.0100 -0.4054 -0.3995
    4MPD2    H114444   1.466   1.859  14.439 -1.4896  0.9482  2.6273
    4MPD2    H214445   1.702   2.160  14.262 -3.2190  1.0130  0.3913
    4MPD2    H314446   1.505   2.031  14.273  1.2286 -1.7084 -2.3752
    4MPD2     N14447   1.668   1.772  14.611 -0.5812  0.3921 -0.3827
    4MPD2    H514448   1.747   1.761  14.673 -0.6504  1.2210 -0.1568
    4MPD2    N114449   1.920   2.124  14.411 -0.6626 -0.1622 -0.3618
    4MPD2    H714450   1.984   2.116  14.490 -1.0004  0.2142 -0.0498
    5TMC2    C114451   1.772   0.641  15.070  0.0070  1.0464 -1.0064
    5TMC2    C214452   1.831   0.617  15.195  0.0954  0.0298  0.1508
    5TMC2    C314453   1.962   0.651  15.207 -0.5061  0.0339  0.7605
    5TMC2    C414454   1.851   0.690  14.967  0.1138  0.2361 -0.2467
    5TMC2    C514455   1.979   0.719  14.981  0.0993 -0.4103 -0.0212
    5TMC2    C614456   2.035   0.712  15.108 -0.0224 -0.0979  0.3765
    5TMC2     C14457   1.639   0.694  15.085 -0.1214  0.1103 -0.1733
    5TMC2     O14458   1.565   0.640  15.170  0.1726  0.1495 -0.1947
    5TMC2     H14459   1.768   0.578  15.274  0.4285  0.4668  0.6295
    5TMC2    H114460   1.813   0.681  14.866  0.4435 -1.5703 -0.2033
    5TMC2    H214461   2.139   0.738  15.125  0.4135 -1.6873  0.1614
    5TMC2    C714462   1.989   0.843  14.914 -0.4364  0.3725 -0.5875
    5TMC2    C814463   2.033   0.591  15.311 -0.1084 -0.7385 -0.2981
    5TMC2    O114464   1.890   0.882  14.853  0.0402  0.9752 -0.0480
    5TMC2    O214465   2.000   0.562  15.427 -0.5062 -0.0321  0.1359
    5TMC2    O514466   2.133   0.516  15.249 -0.4114  0.3932 -0.2591
    5TMC2    H514467   2.109   0.495  15.157  2.7316 -3.0173 -0.3075
    6MPD2     C14468   1.345   1.110  15.049 -0.7629 -0.1767 -0.0021
    6MPD2    C114469   1.455   1.145  14.979 -0.1706 -0.5877  0.0500
    6MPD2    C214470   1.540   1.036  14.956  0.1936 -0.8112 -0.1003
    6MPD2    C314471   1.526   0.914  15.019  0.9524 -0.8991  0.0503
    6MPD2    C414472   1.408   0.888  15.091 -0.4336 -0.0226 -0.4531
    6MPD2    C514473   1.320   0.990  15.100  0.8154  1.1849 -0.0423
    6MPD2     H14474   1.640   1.039  14.913  0.2075  0.7095  0.0444
    6MPD2    H114475   1.386   0.800  15.150 -0.9740  1.0555  0.9404
    6MPD2    H214476   1.272   1.186  15.074 -2.7689 -1.3678 -2.1327
    6MPD2    H314477   1.233   0.966  15.159  1.3744 -1.9579 -0.4892
    6MPD2     N14478   1.626   0.812  15.011  0.9571 -0.0442  0.1362
    6MPD2    H514479   1.711   0.840  14.962  0.5449  0.9695  0.0034
    6MPD2    N114480   1.491   1.278  14.943  0.0761  0.2374  0.2880
    6MPD2    H714481   1.583   1.290  14.903  0.1763  0.0816  0.4758
  945NH4     N114482   0.210   0.416  12.771 -0.4317  0.4010  0.4915
  945NH4     H214483   0.314   0.417  12.771 -0.4673  1.5171  3.5951
  945NH4     H314484   0.166   0.323  12.783  0.7181 -0.4791 -2.0101
  945NH4     H414485   0.181   0.442  12.674  1.3282 -1.3293 -0.5052
  945NH4     H514486   0.180   0.480  12.847 -2.0059  0.5427 -0.2534
  946SOD     NA14487   2.596   0.021  13.714 -0.0095  0.1116 -0.1477
  947SOD     NA14488   4.578   2.948  10.952  0.1228  0.2223  0.3218
  948SOD     NA14489   0.507   2.720  13.340 -0.1806  0.1289  0.1821
  949SOD     NA14490   3.272   3.128  16.258 -0.3023 -0.3049 -0.2375
  950SOD     NA14491   1.002   3.901   5.335 -0.2840  0.0875 -0.3613
  951SOD     NA14492   2.460   2.533   2.261 -0.2309 -0.2221  0.6049
  952SOD     NA14493   2.648   2.200  11.897  0.2812  0.3728  0.3099
  953SOL     OW14494   3.997   1.285   6.023 -0.2722 -0.0237  0.0729
  953SOL    HW114495   3.997   1.237   5.939  2.2259  0.9342 -0.4669
  953SOL    HW214496   4.090   1.308   6.018 -0.3424 -0.2554 -2.5247
  954SOL     OW14497   0.047   2.920   7.693 -0.0441 -0.4392 -0.0828
  954SOL    HW114498   0.123   2.901   7.748 -0.2658  1.5396  0.8720
  954SOL    HW214499   0.099   2.961   7.624 -0.6604  1.5864  0.6646
  955SOL     OW14500   1.639   2.856   7.794 -0.8884 -1.0045  0.2661
  955SOL    HW114501   1.727   2.818   7.797 -0.5173 -0.3831 -3.5437
  955SOL    HW214502   1.613   2.835   7.704  2.8254 -1.2479 -0.7403
  956SOL     OW14503   2.176   1.331   5.927 -0.0210  0.0291 -0.0493
  956SOL    HW114504   2.213   1.406   5.880 -1.1551 -1.2032 -2.9021
  956SOL    HW214505   2.090   1.366   5.953 -0.0460  0.8289 -1.2133
  957SOL     OW14506   2.769   2.249   6.455 -0.1195 -0.7362  0.4828
  957SOL    HW114507   2.830   2.294   6.396 -0.8661  0.4581  0.6349
  957SOL    HW214508   2.818   2.172   6.485 -2.1856 -1.9371  0.7383
  958SOL     OW14509   3.933   2.157   4.410  0.1245 -0.0086 -0.1486
  958SOL    HW114510   3.901   2.241   4.443 -1.4254 -0.1606 -1.2469
  958SOL    HW214511   3.851   2.108   4.411 -1.8783  3.3512  0.6068
  959SOL     OW14512   0.423   4.299   1.062  0.3856 -0.5467  0.6686
  959SOL    HW114513   0.420   4.381   1.013  0.9778 -1.1982 -0.4438
  959SOL    HW214514   0.480   4.322   1.135 -0.2549  0.8421  0.7335
  960SOL     OW14515   2.694   3.276   4.107  0.2914  0.9176  0.4222
  960SOL    HW114516   2.730   3.301   4.192  1.2287 -0.0618  0.3119
  960SOL    HW214517   2.763   3.220   4.073 -1.9832 -0.9066 -1.2408
  961SOL     OW14518   2.498   1.569   0.987  0.5940  0.5147 -0.7465
  961SOL    HW114519   2.434   1.587   1.056  0.4710 -0.7945 -0.5301
  961SOL    HW214520   2.439   1.529   0.923  0.1979  1.4920 -1.0061
  962SOL     OW14521   2.703   1.174   2.247  0.1044 -0.0071 -0.5320
  962SOL    HW114522   2.624   1.179   2.302  0.0732 -0.7237 -0.5059
  962SOL    HW214523   2.750   1.256   2.261  2.2877 -1.2309 -0.7675
  963SOL     OW14524   4.462   4.070   9.728 -0.5238 -0.1589 -0.2058
  963SOL    HW114525   4.543   4.108   9.693 -0.2305 -0.0810  0.5754
  963SOL    HW214526   4.430   4.039   9.643 -0.7346 -0.2660 -0.0877
  964SOL     OW14527   3.786   3.049  12.697 -0.1521  0.8190  0.6008
  964SOL    HW114528   3.792   3.144  12.693 -2.2114  1.0042  1.6487
  964SOL    HW214529   3.857   3.034  12.635 -0.4661  0.3185  0.3591
  965SOL     OW14530   3.690   4.164   5.770  0.1088  0.1290  0.5265
  965SOL    HW114531   3.687   4.253   5.806  1.8475  0.7390 -0.8568
  965SOL    HW214532   3.721   4.192   5.684 -1.2056 -0.5185 -0.1683
  966SOL     OW14533   0.929   1.319   2.920  0.1980  0.0450 -0.2930
  966SOL    HW114534   0.969   1.382   2.979 -0.3349  0.9302 -0.8700
  966SOL    HW214535   0.935   1.368   2.838 -0.5218 -0.1935 -0.4887
  967SOL     OW14536   2.797   4.722   0.814  0.7425  0.1054 -0.2085
  967SOL    HW114537   2.711   0.002   0.850  1.1733 -0.9527  1.3858
  967SOL    HW214538   2.851   0.051   0.852  1.1673 -0.6864  0.6139
  968SOL     OW14539   4.548   1.377   3.178 -0.3532  0.0140 -0.4388
  968SOL    HW114540   4.607   1.338   3.113  0.6917  2.9029 -1.2080
  968SOL    HW214541   4.471   1.323   3.159 -0.6307 -0.1545  1.1638
  969SOL     OW14542   1.892   1.377  16.877  0.0317 -0.2744 -0.2197
  969SOL    HW114543   1.904   1.441  16.947 -1.4579 -1.0187  0.7108
  969SOL    HW214544   1.818   1.416  16.830 -0.0416  0.3679  0.4373
  970SOL     OW14545   4.305   0.154   1.451 -0.4204 -0.2246  0.2780
  970SOL    HW114546   4.238   0.089   1.471  0.5507 -0.5712  2.4525
  970SOL    HW214547   4.337   0.186   1.536 -1.7568 -2.7962  1.7573
  971SOL     OW14548   2.688   1.747   5.749  0.4167 -0.6155 -0.0411
  971SOL    HW114549   2.767   1.797   5.729  0.2744  0.1461  1.3334
  971SOL    HW214550   2.682   1.768   5.842  1.7352  0.4177 -0.1780
  972SOL     OW14551   0.826   2.821   8.468 -0.2380 -0.7303 -0.0875
  972SOL    HW114552   0.747   2.855   8.426 -0.4637 -1.8969 -0.6051
  972SOL    HW214553   0.791   2.778   8.545  3.3377 -0.4885  1.6730
  973SOL     OW14554   2.443   0.440   8.879  0.4684 -0.0112  0.6489
  973SOL    HW114555   2.486   0.427   8.963 -1.4414 -0.6585  1.5418
  973SOL    HW214556   2.368   0.381   8.889  0.2957  0.1449  0.2607
  974SOL     OW14557   4.318   1.088   9.238  0.4296  0.1012 -0.5411
  974SOL    HW114558   4.226   1.066   9.250  0.5982 -0.8293 -0.9551
  974SOL    HW214559   4.357   1.002   9.224 -0.0859 -0.1010 -0.7180
  975SOL     OW14560   1.051   0.001   8.372  0.1448  0.1439  0.1143
  975SOL    HW114561   1.091   4.720   8.287  1.9088  2.4514  0.3656
  975SOL    HW214562   1.125   4.735   8.432 -0.6817  1.0248  1.1955
  976SOL     OW14563   2.109   3.363   5.390  0.4289  0.0948  0.2691
  976SOL    HW114564   2.052   3.328   5.321 -0.5875 -0.6932  1.5026
  976SOL    HW214565   2.084   3.454   5.406  0.5597  0.2818 -0.5678
  977SOL     OW14566   2.335   4.014   8.627 -0.0058 -0.4631 -0.4709
  977SOL    HW114567   2.302   3.927   8.649  1.4758 -0.9957 -0.3322
  977SOL    HW214568   2.261   4.057   8.670  0.2242  0.4092 -0.9444
  978SOL     OW14569   0.774   2.740   8.816 -0.4395 -0.2728  0.3645
  978SOL    HW114570   0.757   2.804   8.885  1.1494  0.2941  0.2417
  978SOL    HW214571   0.690   2.696   8.826  0.4910 -1.6190  2.2651
  979SOL     OW14572   0.828   3.305   2.933  0.3807 -0.2237  0.3090
  979SOL    HW114573   0.842   3.271   3.022  1.2303  0.2999  0.3746
  979SOL    HW214574   0.893   3.264   2.877  0.2567  0.8965 -0.6550
  980SOL     OW14575   1.195   3.456  10.442 -0.1539  0.3298 -0.2089
  980SOL    HW114576   1.223   3.398  10.371 -0.3000 -0.6195  0.5045
  980SOL    HW214577   1.287   3.469  10.467 -0.3738  2.0412 -0.3020
  981SOL     OW14578   2.727   3.819  14.931 -0.0334 -0.3095  0.4218
  981SOL    HW114579   2.750   3.891  14.873  0.6588 -0.4422  0.5372
  981SOL    HW214580   2.779   3.838  15.010 -0.6149 -1.0025  0.9753
  982SOL     OW14581   3.316   1.849   8.624 -0.5124  0.3245  0.8356
  982SOL    HW114582   3.248   1.903   8.585  0.9386  1.6929  0.1837
  982SOL    HW214583   3.375   1.919   8.654  0.0097 -0.6575  2.1086
  983SOL     OW14584   0.360   3.850   6.822 -0.0146 -0.0742  0.4438
  983SOL    HW114585   0.300   3.776   6.817 -0.3073  0.3643 -2.1369
  983SOL    HW214586   0.301   3.921   6.799  0.8245 -0.3245 -2.4311
  984SOL     OW14587   2.851   0.738   1.382  0.2900  0.3630  0.4540
  984SOL    HW114588   2.838   0.827   1.414 -0.4001 -0.4504  2.4286
  984SOL    HW214589   2.776   0.731   1.324  2.5368  1.8328 -2.6541
  985SOL     OW14590   1.508   2.197   4.587 -0.6228  0.5688 -0.7088
  985SOL    HW114591   1.531   2.232   4.501  0.3199 -0.6666 -0.9515
  985SOL    HW214592   1.526   2.106   4.563  0.6076  0.3725  0.9632
  986SOL     OW14593   1.960   2.804   4.494 -0.1654 -0.3533 -0.0887
  986SOL    HW114594   2.005   2.828   4.575 -0.8951  0.5489  0.0550
  986SOL    HW214595   1.935   2.893   4.467  0.7062 -0.1373 -0.1635
  987SOL     OW14596   2.980   2.152   6.103  0.3470 -0.9820 -0.1429
  987SOL    HW114597   3.073   2.137   6.084  0.1753 -0.2712 -1.5351
  987SOL    HW214598   2.962   2.242   6.076 -0.4997 -1.2214 -0.3707
  988SOL     OW14599   2.082   2.259   6.387  0.4225  0.2521 -0.1030
  988SOL    HW114600   2.043   2.235   6.471  0.6345 -1.1656 -0.4238
  988SOL    HW214601   2.147   2.191   6.371 -0.4495 -0.7034  0.4598
  989SOL     OW14602   3.978   0.517   3.426  0.8961 -0.3124 -0.2230
  989SOL    HW114603   3.935   0.590   3.471 -0.9761 -0.9377 -0.9931
  989SOL    HW214604   3.909   0.499   3.362  0.6971 -1.2992  0.2731
  990SOL     OW14605   2.527   0.421   3.105 -0.2313 -0.3896 -0.2435
  990SOL    HW114606   2.493   0.435   3.017  0.3933 -1.3566 -0.6401
  990SOL    HW214607   2.535   0.325   3.101  0.6883 -0.2990 -0.6340
  991SOL     OW14608   0.968   0.367  11.413 -0.0545  0.2696 -0.1123
  991SOL    HW114609   0.890   0.415  11.387 -1.8017 -1.7283  1.4511
  991SOL    HW214610   0.945   0.305  11.482  0.0946  1.8274  1.3435
  992SOL     OW14611   2.317   2.771   4.599  0.7353 -0.5513  0.0921
  992SOL    HW114612   2.339   2.860   4.624  1.2837 -0.8823  0.8018
  992SOL    HW214613   2.267   2.745   4.676  0.3891 -0.6977 -0.1822
  993SOL     OW14614   0.571   2.412   8.352  0.1956  0.1996 -0.4713
  993SOL    HW114615   0.496   2.394   8.296  0.5082  0.0567 -0.8472
  993SOL    HW214616   0.608   2.486   8.304  1.0329 -1.0115 -1.7119
  994SOL     OW14617   2.013   1.017   4.440 -0.1824 -0.4463 -0.6010
  994SOL    HW114618   2.007   1.018   4.535  0.6162  0.8532 -0.5518
  994SOL    HW214619   2.043   0.929   4.420  2.7081  1.1630 -3.3578
  995SOL     OW14620   0.023   3.189   4.739  0.2587  0.0092 -0.2116
  995SOL    HW114621   0.022   3.197   4.644  1.1719 -0.4863 -0.2662
  995SOL    HW214622   4.670   3.207   4.759  0.0947 -0.3598 -0.6520
  996SOL     OW14623   3.539   0.308   2.359 -0.6048  0.0592  0.2231
  996SOL    HW114624   3.496   0.393   2.374  2.0856  1.5231 -0.3535
  996SOL    HW214625   3.625   0.338   2.330  0.3270 -1.6049  1.2976
  997SOL     OW14626   3.827   3.913   8.679 -0.1015 -0.0736 -0.6956
  997SOL    HW114627   3.892   3.846   8.657 -0.7236 -1.1714  0.7994
  997SOL    HW214628   3.742   3.877   8.653  0.6648 -1.9388 -0.6501
  998SOL     OW14629   1.505   4.249  10.867 -0.2886 -0.4481 -0.3872
  998SOL    HW114630   1.489   4.340  10.841 -0.2713 -0.7570 -1.4404
  998SOL    HW214631   1.423   4.223  10.910 -0.4722 -1.8232 -1.5823
  999SOL     OW14632   3.314   1.041   5.447 -0.5467 -0.4029  0.7822
  999SOL    HW114633   3.291   1.129   5.474 -1.0234 -0.1848 -0.3476
  999SOL    HW214634   3.298   1.040   5.352 -1.4840  0.3401  0.9390
 1000SOL     OW14635   1.361   0.035  10.877 -0.0736  0.1612 -0.5675
 1000SOL    HW114636   1.326   0.122  10.860  1.9502  1.1517  0.3396
 1000SOL    HW214637   1.453   0.056  10.863  0.4584 -2.3080 -0.9103
 1001SOL     OW14638   1.192   1.694   5.719 -0.7259  0.4500 -0.2715
 1001SOL    HW114639   1.166   1.781   5.690 -2.5484 -0.3436 -1.0437
 1001SOL    HW214640   1.284   1.710   5.741 -0.4645 -2.0612  0.4860
 1002SOL     OW14641   0.368   4.468   3.760 -0.5734 -0.2600  0.0503
 1002SOL    HW114642   0.405   4.384   3.734  0.6354 -0.2734  1.8219
 1002SOL    HW214643   0.443   4.526   3.772 -1.5471  1.4367 -2.0579
 1003SOL     OW14644   1.545   4.348   9.883 -0.2228 -0.1528 -0.0462
 1003SOL    HW114645   1.542   4.422   9.823 -1.0536 -1.1403 -1.2203
 1003SOL    HW214646   1.540   4.276   9.821  1.6230 -1.7641  1.6766
 1004SOL     OW14647   1.211   0.525   1.205 -0.8073  0.0015  0.1472
 1004SOL    HW114648   1.197   0.440   1.248 -1.6091  0.4638  0.8023
 1004SOL    HW214649   1.128   0.535   1.160 -0.1728  0.5679 -0.9032
 1005SOL     OW14650   4.264   1.530   2.693  0.5675 -0.3671 -0.2522
 1005SOL    HW114651   4.287   1.453   2.746 -1.8515 -2.3075 -1.9679
 1005SOL    HW214652   4.347   1.577   2.689 -0.8091  1.9411 -1.3915
 1006SOL     OW14653   0.258   2.972  13.364  0.2489  0.1627  0.4115
 1006SOL    HW114654   0.350   2.956  13.343  0.0632  1.6956 -1.5175
 1006SOL    HW214655   0.228   2.976  13.273 -0.3368 -0.4146  0.5762
 1007SOL     OW14656   3.743   3.073   7.958 -0.5634 -0.6717  0.3861
 1007SOL    HW114657   3.691   3.154   7.957  0.3760 -0.0421  2.3858
 1007SOL    HW214658   3.766   3.062   7.865 -0.8710  1.3190  0.0619
 1008SOL     OW14659   3.806   2.917  11.109 -0.0419 -0.4788 -0.0778
 1008SOL    HW114660   3.898   2.904  11.133 -0.3686 -1.4167  0.6763
 1008SOL    HW214661   3.795   2.857  11.035  0.5036  0.8146 -1.2053
 1009SOL     OW14662   3.717   3.994   5.106  0.0430 -0.0665 -0.1486
 1009SOL    HW114663   3.741   4.002   5.014  0.9772 -0.5359  0.0583
 1009SOL    HW214664   3.642   4.054   5.110 -0.6624 -1.0542  1.5198
 1010SOL     OW14665   0.843   3.293   6.214 -0.1620  0.1270  0.2758
 1010SOL    HW114666   0.869   3.273   6.303  1.2721  1.5709  0.1665
 1010SOL    HW214667   0.838   3.203   6.181 -0.4625  0.3049 -0.1627
 1011SOL     OW14668   3.248   0.441   7.549  0.1571 -0.2401 -0.1538
 1011SOL    HW114669   3.177   0.424   7.611 -0.1484  0.6344 -0.2500
 1011SOL    HW214670   3.323   0.420   7.604 -0.1988  0.6384  0.6714
 1012SOL     OW14671   3.169   2.245   3.771 -0.2823 -0.6052 -0.2389
 1012SOL    HW114672   3.119   2.285   3.843 -0.4939 -0.6630 -0.3543
 1012SOL    HW214673   3.178   2.155   3.803  0.0887  0.7190  3.4441
 1013SOL     OW14674   3.808   0.156   1.337 -0.5791 -0.4123  0.5359
 1013SOL    HW114675   3.777   0.069   1.312 -2.8970  0.4847  0.3297
 1013SOL    HW214676   3.898   0.141   1.308 -0.7832 -0.8142  0.1239
 1014SOL     OW14677   2.198   2.701   1.420 -0.1491 -0.0696  0.5534
 1014SOL    HW114678   2.202   2.759   1.344  2.1396 -0.6250  0.2535
 1014SOL    HW214679   2.116   2.739   1.453  0.1940  1.4523 -0.3591
 1015SOL     OW14680   0.703   2.468   2.743  0.1089 -0.3450 -0.4907
 1015SOL    HW114681   0.791   2.490   2.775 -1.1759  2.3357  1.0722
 1015SOL    HW214682   0.654   2.546   2.766 -1.3380 -1.0667 -1.1348
 1016SOL     OW14683   0.920   3.941   9.096  0.2438 -0.1487 -0.0993
 1016SOL    HW114684   0.951   3.942   9.006  1.0757 -0.6236  0.1830
 1016SOL    HW214685   0.962   3.869   9.143 -1.4229 -2.2273 -1.8028
 1017SOL     OW14686   1.816   2.117   2.471  0.0112 -0.0500  0.0309
 1017SOL    HW114687   1.781   2.047   2.527  0.6611 -0.3179  0.1051
 1017SOL    HW214688   1.804   2.081   2.383 -0.6481 -1.7802  0.8036
 1018SOL     OW14689   1.851   3.516   0.162  0.2096  0.2272  0.1125
 1018SOL    HW114690   1.765   3.557   0.175 -0.4159 -0.5978 -1.3593
 1018SOL    HW214691   1.849   3.434   0.211  0.5909  0.7197  0.9446
 1019SOL     OW14692   0.632   0.052   6.816  0.3273 -0.2225  0.2011
 1019SOL    HW114693   0.726   0.068   6.803  0.1880 -0.0761 -0.6432
 1019SOL    HW214694   0.619   4.706   6.774 -1.9294  0.5691 -0.7010
 1020SOL     OW14695   4.559   0.049   6.416  0.3929 -0.4825 -0.1549
 1020SOL    HW114696   4.606   0.044   6.499 -1.6704 -1.4456  0.9476
 1020SOL    HW214697   4.511   0.131   6.428  0.4391 -0.2943 -1.2745
 1021SOL     OW14698   2.065   0.890   6.707  0.4157 -0.3685  0.3593
 1021SOL    HW114699   2.102   0.822   6.650 -0.7376 -0.0405 -0.7962
 1021SOL    HW214700   1.970   0.883   6.694  0.6525 -0.0680 -1.6187
 1022SOL     OW14701   2.079   1.748  10.316  0.6235  0.1716  0.8469
 1022SOL    HW114702   2.042   1.832  10.291 -1.4124 -0.3452  2.1637
 1022SOL    HW214703   2.076   1.756  10.411 -1.2157 -1.8734  0.9586
 1023SOL     OW14704   0.913   0.999   1.700  0.3899 -0.0503  0.0522
 1023SOL    HW114705   0.823   1.030   1.686  0.9076  1.3385 -0.1721
 1023SOL    HW214706   0.896   0.917   1.746  2.1049 -0.6727 -0.4470
 1024SOL     OW14707   4.712   3.709   2.823  0.0181  0.1700  0.5703
 1024SOL    HW114708   4.653   3.784   2.834 -1.2240 -0.7529  0.1969
 1024SOL    HW214709   4.672   3.650   2.887  0.3158  0.9118  1.4415
 1025SOL     OW14710   3.904   3.986   1.839  0.4406  0.0319  0.0343
 1025SOL    HW114711   3.891   4.001   1.745 -0.4556  0.0524  0.1701
 1025SOL    HW214712   3.917   3.891   1.844  0.2411  0.0781  1.2668
 1026SOL     OW14713   4.467   4.092  13.320 -0.1725  0.1502  0.1831
 1026SOL    HW114714   4.524   4.015  13.316  0.2696  0.4827  0.2167
 1026SOL    HW214715   4.456   4.124  13.231  1.7419 -0.6542 -0.3248
 1027SOL     OW14716   1.272   1.552   6.542  0.0463 -0.0339  0.1568
 1027SOL    HW114717   1.332   1.513   6.477  2.7112 -0.4105  2.8331
 1027SOL    HW214718   1.189   1.526   6.502 -0.2592  2.0090 -0.5319
 1028SOL     OW14719   3.308   1.161   3.611 -0.6521 -0.1001  0.3757
 1028SOL    HW114720   3.356   1.080   3.629  0.3701  0.1761 -1.1231
 1028SOL    HW214721   3.222   1.134   3.579 -2.2152  1.4477  3.2611
 1029SOL     OW14722   1.072   1.384   1.386 -0.1537  0.3367 -0.1700
 1029SOL    HW114723   0.985   1.391   1.346 -0.0436 -0.2735 -0.5064
 1029SOL    HW214724   1.052   1.311   1.444 -0.4537  0.3093 -0.3062
 1030SOL     OW14725   0.664   2.848   7.306  0.0828  0.5430 -0.0737
 1030SOL    HW114726   0.664   2.761   7.268 -3.0770  1.4629 -2.1748
 1030SOL    HW214727   0.633   2.907   7.237 -0.3839  1.7511  1.1569
 1031SOL     OW14728   0.220   3.077  15.537 -0.3524  0.0551 -0.2476
 1031SOL    HW114729   0.252   3.060  15.625 -0.2420  1.2044 -0.0766
 1031SOL    HW214730   0.208   2.987  15.506 -2.5166  0.1733  0.2290
 1032SOL     OW14731   3.846   4.595   4.359  0.3198 -0.2099  0.2515
 1032SOL    HW114732   3.821   4.688   4.363 -1.8261 -0.7752 -0.0835
 1032SOL    HW214733   3.827   4.569   4.269 -2.0909 -3.0283  1.5868
 1033SOL     OW14734   4.462   0.518  14.626  0.2428  0.3411  0.0628
 1033SOL    HW114735   4.403   0.593  14.627  0.2558  0.3271  1.9401
 1033SOL    HW214736   4.427   0.471  14.551  3.1459 -2.0727  0.2158
 1034SOL     OW14737   3.710   0.908   8.340  0.0503 -0.0169 -0.1456
 1034SOL    HW114738   3.730   0.865   8.257  0.4806 -0.0923 -0.0050
 1034SOL    HW214739   3.640   0.965   8.310  0.3617  0.5503  0.2094
 1035SOL     OW14740   3.288   1.501  13.256  0.3693  0.6481  0.1988
 1035SOL    HW114741   3.230   1.489  13.180 -0.4651 -4.6521  1.6622
 1035SOL    HW214742   3.266   1.421  13.305 -0.7460 -0.4222 -2.0423
 1036SOL     OW14743   4.275   4.453   1.226 -0.6616  0.6936 -0.1138
 1036SOL    HW114744   4.305   4.543   1.210 -0.0782  0.6099  0.4629
 1036SOL    HW214745   4.219   4.443   1.150 -0.9565  0.9409  0.0724
 1037SOL     OW14746   3.123   0.583   6.715 -0.2762 -0.2322 -0.1816
 1037SOL    HW114747   3.108   0.543   6.800 -0.0999 -1.1082 -0.5656
 1037SOL    HW214748   3.051   0.644   6.702  0.2071  0.3791  0.0058
 1038SOL     OW14749   3.793   2.383   9.118  0.0814 -0.2637  0.1199
 1038SOL    HW114750   3.841   2.311   9.160 -0.9565  0.1416  2.0181
 1038SOL    HW214751   3.845   2.455   9.154 -1.7104  1.6426 -1.1699
 1039SOL     OW14752   4.354   2.053  12.362  0.3838 -0.0810 -0.1178
 1039SOL    HW114753   4.365   2.005  12.280  0.4626 -0.4742  0.1226
 1039SOL    HW214754   4.312   2.127  12.318 -0.2447 -0.5013 -0.2352
 1040SOL     OW14755   1.071   2.266   6.501  0.3894  0.6719 -0.1508
 1040SOL    HW114756   0.977   2.277   6.514  0.1855 -2.0550  0.6880
 1040SOL    HW214757   1.094   2.345   6.452  1.1473  0.8670  0.5264
 1041SOL     OW14758   3.217   2.150   5.974  0.2569  0.0255 -0.2516
 1041SOL    HW114759   3.253   2.064   5.991 -0.0615  0.0709  0.6338
 1041SOL    HW214760   3.217   2.160   5.878  1.8299  0.7884 -0.1698
 1042SOL     OW14761   3.620   4.525  17.587 -0.3608 -0.0721 -0.4004
 1042SOL    HW114762   3.551   4.591  17.598  1.5414  1.5447  1.9171
 1042SOL    HW214763   3.568   4.445  17.581 -1.3661  0.6682 -1.7062
 1043SOL     OW14764   2.189   3.823   1.754 -0.1118 -0.6545 -0.0301
 1043SOL    HW114765   2.175   3.784   1.668  2.3015 -1.5541  0.0008
 1043SOL    HW214766   2.113   3.793   1.804  0.4957  1.0028  1.9121
 1044SOL     OW14767   1.959   3.271   1.722 -0.4914 -0.4854 -0.4169
 1044SOL    HW114768   1.896   3.303   1.787  1.5020  0.8676  0.8519
 1044SOL    HW214769   2.042   3.287   1.768 -1.6448  0.7196  1.2223
 1045SOL     OW14770   3.458   2.617  14.544  0.0133  0.1170 -0.2637
 1045SOL    HW114771   3.445   2.523  14.555  3.2825 -0.5646 -2.2216
 1045SOL    HW214772   3.466   2.652  14.633 -0.8414 -0.3434 -0.0113
 1046SOL     OW14773   3.525   2.158   1.925 -0.0184 -0.4583  0.6292
 1046SOL    HW114774   3.555   2.168   1.834 -0.5371  1.2231  0.6395
 1046SOL    HW214775   3.445   2.109   1.907  0.5226 -0.9260 -0.4988
 1047SOL     OW14776   3.183   0.478  15.237  0.1190 -0.1391 -0.3486
 1047SOL    HW114777   3.245   0.524  15.294 -1.1275 -0.0703  0.9212
 1047SOL    HW214778   3.126   0.448  15.307  0.8324 -2.1362 -0.6147
 1048SOL     OW14779   1.689   4.518   2.796  0.2339  0.3195 -0.4051
 1048SOL    HW114780   1.732   4.529   2.880  1.0485  0.5917 -0.8555
 1048SOL    HW214781   1.702   4.603   2.753 -2.4528  1.5353  1.2391
 1049SOL     OW14782   1.297   3.233  15.600  0.1393  0.0556 -0.2118
 1049SOL    HW114783   1.373   3.266  15.648  0.2657 -0.6479  0.0784
 1049SOL    HW214784   1.233   3.230  15.671  3.1087  0.8832  2.4895
 1050SOL     OW14785   2.076   3.162   8.912  0.1424 -0.7686  0.2657
 1050SOL    HW114786   2.071   3.126   9.001 -0.6751 -2.7019 -0.5635
 1050SOL    HW214787   1.982   3.157   8.896 -0.4615  0.0212  3.6714
 1051SOL     OW14788   2.949   3.117   2.820 -0.6651  0.4183  0.1064
 1051SOL    HW114789   2.981   3.192   2.869  1.6027  0.5437 -1.5577
 1051SOL    HW214790   2.858   3.105   2.845 -0.8342 -1.6021 -1.4399
 1052SOL     OW14791   1.545   0.621   8.188  0.0955  0.2887 -0.4585
 1052SOL    HW114792   1.624   0.675   8.196  0.9335 -1.0086  0.0656
 1052SOL    HW214793   1.499   0.651   8.266  1.6708 -1.9097  1.3254
 1053SOL     OW14794   0.254   1.264  12.746  0.0045  0.2819 -0.6538
 1053SOL    HW114795   0.324   1.287  12.684  2.5230 -2.3349  1.1832
 1053SOL    HW214796   0.222   1.184  12.705 -0.3011 -0.1070  0.3458
 1054SOL     OW14797   0.218   0.902   8.622  0.4452  0.1649  0.0173
 1054SOL    HW114798   0.181   0.969   8.564 -0.6801 -0.5649 -0.1028
 1054SOL    HW214799   0.171   0.822   8.600  0.3033  0.4983 -0.9035
 1055SOL     OW14800   3.929   1.055   5.609  0.5184  0.1179  0.0973
 1055SOL    HW114801   3.925   1.034   5.515  1.4847 -1.0521  0.3242
 1055SOL    HW214802   4.010   1.014   5.638  0.7100  0.4690  0.0592
 1056SOL     OW14803   3.888   0.596   1.265 -0.3298 -0.4902 -0.1778
 1056SOL    HW114804   3.830   0.521   1.255  0.4240 -0.7053 -3.0424
 1056SOL    HW214805   3.968   0.563   1.224 -0.6824 -3.1707  1.3413
 1057SOL     OW14806   1.813   2.155  10.177  0.6173 -0.2324 -0.4936
 1057SOL    HW114807   1.766   2.194  10.251  0.6971  1.5886 -1.3980
 1057SOL    HW214808   1.780   2.203  10.101 -0.1848 -0.2538 -0.1650
 1058SOL     OW14809   1.529   1.029   2.275 -0.1872 -0.3138 -0.1967
 1058SOL    HW114810   1.471   0.979   2.334  0.0929 -1.3507 -0.8010
 1058SOL    HW214811   1.615   1.005   2.311  0.1849  2.0878  0.5176
 1059SOL     OW14812   3.279   3.810   2.897  0.5212 -0.2480  0.2268
 1059SOL    HW114813   3.275   3.754   2.974 -1.6607 -0.9092 -0.3735
 1059SOL    HW214814   3.191   3.786   2.868  0.3239  2.8592 -1.8303
 1060SOL     OW14815   0.963   1.322  11.946 -0.2492 -0.3046 -0.1261
 1060SOL    HW114816   0.929   1.358  12.028  0.3928 -1.5196  0.6769
 1060SOL    HW214817   1.057   1.342  11.942 -0.4294  0.1498 -2.1556
 1061SOL     OW14818   2.966   0.081  13.426  0.6665  0.3667 -0.3674
 1061SOL    HW114819   3.054   0.042  13.436  1.0071  0.9722 -1.0124
 1061SOL    HW214820   2.976   0.121  13.340 -1.5586 -1.4987 -1.4869
 1062SOL     OW14821   1.557   2.669   8.524  0.0704  0.1294  0.4263
 1062SOL    HW114822   1.602   2.674   8.440 -0.4582 -0.8334  0.0746
 1062SOL    HW214823   1.552   2.761   8.551  2.1886  0.6204 -0.9353
 1063SOL     OW14824   2.934   2.734   6.385  0.4049  0.4021 -0.1072
 1063SOL    HW114825   2.898   2.698   6.304  0.5658 -0.0556  0.0203
 1063SOL    HW214826   2.948   2.827   6.368 -1.4414  0.6246 -0.4453
 1064SOL     OW14827   2.436   0.466  14.254  0.3074  0.6173 -0.9777
 1064SOL    HW114828   2.483   0.385  14.234  0.6795  1.2656 -2.6938
 1064SOL    HW214829   2.450   0.457  14.348  0.5861  2.7018 -0.8173
 1065SOL     OW14830   2.388   1.821   2.143 -0.5389 -0.4995  0.3359
 1065SOL    HW114831   2.479   1.797   2.161 -0.1804 -0.5784 -1.6551
 1065SOL    HW214832   2.370   1.767   2.066  1.9908 -0.7709 -0.0790
 1066SOL     OW14833   4.728   0.639   1.975 -0.5439  0.1606  0.3395
 1066SOL    HW114834   0.057   0.707   1.974 -0.5528  0.1691  0.3095
 1066SOL    HW214835   4.653   0.689   2.008 -1.3781  0.5496 -2.0892
 1067SOL     OW14836   2.885   0.235   6.224  0.1543 -0.7247 -0.4251
 1067SOL    HW114837   2.863   0.243   6.131 -1.8082 -1.6446 -0.0527
 1067SOL    HW214838   2.827   0.164   6.253 -0.6871  0.8126  1.6753
 1068SOL     OW14839   3.236   0.574   2.266 -0.1220 -0.0027  0.4418
 1068SOL    HW114840   3.239   0.500   2.206 -1.4037  0.9610 -0.8169
 1068SOL    HW214841   3.288   0.538   2.338  0.8231  1.2043  0.3728
 1069SOL     OW14842   4.144   1.061  13.064  0.1094 -0.2664 -0.4770
 1069SOL    HW114843   4.142   1.071  12.968 -1.1345  0.7786 -0.3530
 1069SOL    HW214844   4.062   1.012  13.073 -0.1093  0.1915  0.0215
 1070SOL     OW14845   3.165   4.664  17.747 -0.6684 -0.3209 -0.2933
 1070SOL    HW114846   3.235   4.676  17.683 -0.1737 -0.7864  0.1717
 1070SOL    HW214847   3.227   4.647   0.063 -1.1918 -0.2455  0.1901
 1071SOL     OW14848   4.607   3.923   6.839 -0.4338  0.0818  0.4942
 1071SOL    HW114849   4.562   3.992   6.791  1.6453  1.1055  0.0038
 1071SOL    HW214850   4.589   3.843   6.789 -1.0402 -0.0915  0.9827
 1072SOL     OW14851   3.119   2.991  16.382  0.2945 -0.1145  0.1497
 1072SOL    HW114852   3.160   2.911  16.413 -4.0264 -1.7544  1.6844
 1072SOL    HW214853   3.056   3.017  16.449 -0.6360  0.0306 -0.7878
 1073SOL     OW14854   2.224   0.010   2.437  0.2123  0.1238  0.0490
 1073SOL    HW114855   2.162   0.082   2.454  0.6734  0.3730  0.6823
 1073SOL    HW214856   2.156   4.686   2.458 -0.4207  0.5640 -0.6423
 1074SOL     OW14857   0.938   0.306   6.687  0.2305  0.1484 -0.7483
 1074SOL    HW114858   0.913   0.229   6.635 -2.3726  0.2520  0.3739
 1074SOL    HW214859   0.891   0.372   6.637 -0.0628  1.1035  0.7956
 1075SOL     OW14860   2.087   0.779   4.799  0.2993  0.7042  0.2962
 1075SOL    HW114861   2.056   0.709   4.741 -1.1872  1.4424  0.1881
 1075SOL    HW214862   2.040   0.849   4.753 -3.0664 -0.0635  2.5784
 1076SOL     OW14863   0.995   2.595  17.325  0.4139 -0.5372  0.1305
 1076SOL    HW114864   0.932   2.624  17.392 -0.9396  1.4407 -2.0047
 1076SOL    HW214865   1.074   2.631  17.367 -0.2705  1.9351 -0.7495
 1077SOL     OW14866   0.490   3.525  17.006 -0.4572 -0.1764 -0.2649
 1077SOL    HW114867   0.486   3.585  17.081  5.0331  1.2253 -1.1166
 1077SOL    HW214868   0.480   3.589  16.935 -1.6183 -0.5824 -0.4629
 1078SOL     OW14869   3.817   1.714   7.887  0.0935 -0.0139 -0.0963
 1078SOL    HW114870   3.829   1.626   7.853  0.7159  0.0480 -0.0323
 1078SOL    HW214871   3.778   1.701   7.973 -1.4377  3.0187 -0.3024
 1079SOL     OW14872   4.499   3.276  17.144  0.1654  0.0728  0.7807
 1079SOL    HW114873   4.571   3.331  17.117 -0.6362  0.2310 -1.0234
 1079SOL    HW214874   4.519   3.244  17.232 -2.3204  0.7673  1.6030
 1080SOL     OW14875   2.407   4.586  11.242 -0.6084  0.1962  0.1005
 1080SOL    HW114876   2.475   4.519  11.250 -0.8019  0.0681  0.7150
 1080SOL    HW214877   2.444   4.659  11.194 -0.6620  0.0724 -0.1288
 1081SOL     OW14878   2.139   1.340   0.275 -0.3629 -0.1667 -0.2824
 1081SOL    HW114879   2.147   1.407   0.342  1.0115 -0.6240  0.0110
 1081SOL    HW214880   2.125   1.260   0.326  0.7071  0.3133  0.7529
 1082SOL     OW14881   0.300   1.822   8.507  0.3466 -0.3530 -0.1019
 1082SOL    HW114882   0.368   1.837   8.572 -0.1760  1.3631  0.0629
 1082SOL    HW214883   0.266   1.911   8.517 -0.4475 -0.7627  0.8641
 1083SOL     OW14884   1.171   4.425   2.509  0.3027 -0.1340 -0.4379
 1083SOL    HW114885   1.257   4.467   2.508  1.3045 -2.2172 -1.0545
 1083SOL    HW214886   1.160   4.438   2.604  0.3727  0.6214 -0.5352
 1084SOL     OW14887   4.556   0.849   6.447 -0.3859  0.0694 -0.0762
 1084SOL    HW114888   4.553   0.939   6.480 -1.2961  0.7861 -2.1503
 1084SOL    HW214889   4.650   0.842   6.431 -0.4689 -1.1393 -0.0001
 1085SOL     OW14890   2.602   2.846   8.647 -0.1358  0.4285  0.7446
 1085SOL    HW114891   2.585   2.786   8.719 -1.2598  0.2769  0.3441
 1085SOL    HW214892   2.674   2.799   8.605 -0.0434  0.0903  1.2877
 1086SOL     OW14893   4.520   4.157   9.236  0.1000 -0.0005  0.1649
 1086SOL    HW114894   4.458   4.178   9.166 -1.1200  0.9220  1.5182
 1086SOL    HW214895   4.523   4.063   9.222  0.0292  0.0586 -0.2737
 1087SOL     OW14896   1.131   3.958  14.410  0.2074  0.1327  0.8164
 1087SOL    HW114897   1.175   3.881  14.374 -1.4885 -0.0817 -0.8218
 1087SOL    HW214898   1.145   3.950  14.504  1.4680 -0.0844  0.6084
 1088SOL     OW14899   1.033   0.657  15.463  0.5043  0.0226 -0.1614
 1088SOL    HW114900   1.088   0.694  15.531  0.0108  0.0984  0.2032
 1088SOL    HW214901   1.027   0.564  15.486  1.8834 -0.0614 -0.1931
 1089SOL     OW14902   4.727   1.331   4.720 -0.4475  0.2363 -0.2321
 1089SOL    HW114903   4.730   1.277   4.641  0.5651  0.1918 -0.1656
 1089SOL    HW214904   0.049   1.401   4.695 -0.7251  0.9529  1.1100
 1090SOL     OW14905   3.591   3.738  13.782  0.2277  0.2844 -0.4773
 1090SOL    HW114906   3.638   3.756  13.700  2.6534 -3.0038  0.1881
 1090SOL    HW214907   3.527   3.809  13.783  1.1091  1.0849 -0.7899
 1091SOL     OW14908   0.173   4.169   7.738  0.3080 -0.5924 -0.1966
 1091SOL    HW114909   0.267   4.184   7.747  0.2909 -0.8373  0.3386
 1091SOL    HW214910   0.145   4.253   7.699 -1.4689 -0.0697  2.2118
 1092SOL     OW14911   1.584   2.697   6.617  0.0669  0.0054  0.3350
 1092SOL    HW114912   1.566   2.790   6.629 -0.8194 -0.2568  0.9927
 1092SOL    HW214913   1.619   2.664   6.700  0.1973 -0.1808  0.2061
 1093SOL     OW14914   2.844   1.477   4.663 -0.1249  0.1548  0.3488
 1093SOL    HW114915   2.883   1.512   4.582 -1.1408  0.9032  0.1878
 1093SOL    HW214916   2.829   1.556   4.715  0.8635 -0.5494  1.6869
 1094SOL     OW14917   3.973   2.179   9.250  0.1540  0.3750 -1.0122
 1094SOL    HW114918   4.064   2.182   9.280 -0.1011 -2.2113  0.0172
 1094SOL    HW214919   3.960   2.087   9.226  0.6213  0.3717 -1.2520
 1095SOL     OW14920   1.946   3.212   2.085  0.0045  0.0628 -0.0562
 1095SOL    HW114921   2.019   3.260   2.047 -0.7554  0.0195 -1.5468
 1095SOL    HW214922   1.886   3.286   2.101  1.4363  1.6540 -2.0719
 1096SOL     OW14923   3.822   3.320   2.546  0.1613 -0.4903  0.2186
 1096SOL    HW114924   3.879   3.385   2.587  0.0885 -0.1393 -0.2467
 1096SOL    HW214925   3.876   3.270   2.486 -2.6042 -1.0972 -1.7375
 1097SOL     OW14926   1.024   2.216  16.046 -0.6662 -0.0465 -0.5511
 1097SOL    HW114927   0.982   2.290  16.090 -0.8956  0.5601 -1.8022
 1097SOL    HW214928   0.997   2.141  16.099  2.6400 -0.0270  1.1366
 1098SOL     OW14929   4.648   0.343  15.973 -0.4504  0.1269 -0.5375
 1098SOL    HW114930   4.682   0.263  15.934  0.0388 -0.6444  1.4352
 1098SOL    HW214931   4.692   0.347  16.058 -1.5617  0.7603  0.0042
 1099SOL     OW14932   4.540   0.969  17.146  0.3255  0.1440  0.2327
 1099SOL    HW114933   4.518   1.054  17.186 -0.5143  0.5148 -1.0128
 1099SOL    HW214934   4.607   0.943  17.209  0.4551 -0.4304 -0.1553
 1100SOL     OW14935   2.615   0.186  11.024 -0.1223 -0.4506  0.0222
 1100SOL    HW114936   2.656   0.199  11.110 -0.6005  0.8984  0.0465
 1100SOL    HW214937   2.523   0.175  11.048  0.4854 -0.7804  2.2412
 1101SOL     OW14938   0.477   3.178   7.184  0.3522  0.0877 -0.3606
 1101SOL    HW114939   0.507   3.159   7.095 -0.1342  1.0410 -0.7199
 1101SOL    HW214940   0.562   3.197   7.225  1.3885  0.7950 -2.7867
 1102SOL     OW14941   1.985   1.568  16.371 -0.3430  0.5784 -0.2258
 1102SOL    HW114942   1.920   1.520  16.321 -1.1085  0.0526  1.2828
 1102SOL    HW214943   2.043   1.597  16.300 -0.2324 -0.2678 -0.4728
 1103SOL     OW14944   0.698   2.776   3.257 -0.3389 -0.6131  0.0071
 1103SOL    HW114945   0.681   2.849   3.198  2.5012 -1.4187 -1.8113
 1103SOL    HW214946   0.700   2.703   3.195 -0.8865  1.8114 -2.8297
 1104SOL     OW14947   3.309   1.908   5.292 -0.1426  0.2359 -0.7087
 1104SOL    HW114948   3.337   2.000   5.287 -0.0067  0.2049 -0.5030
 1104SOL    HW214949   3.266   1.899   5.377  0.6953  0.8139 -0.2297
 1105SOL     OW14950   2.204   1.073   7.807 -0.5404  0.5020 -0.3069
 1105SOL    HW114951   2.193   1.029   7.723 -0.1370  0.9391 -0.5918
 1105SOL    HW214952   2.115   1.088   7.837 -0.2391  0.0875  0.7906
 1106SOL     OW14953   1.919   0.553   3.942  0.3556 -0.3857  0.0525
 1106SOL    HW114954   1.838   0.576   3.897  0.0769  0.1479  0.8299
 1106SOL    HW214955   1.982   0.623   3.924  2.6599 -3.3642 -3.3573
 1107SOL     OW14956   0.608   3.636  10.908 -0.2204  0.0562 -0.4671
 1107SOL    HW114957   0.674   3.622  10.839 -0.5289 -0.8567 -0.5837
 1107SOL    HW214958   0.531   3.598  10.866  1.0771  0.1444 -2.9509
 1108SOL     OW14959   0.071   4.522  11.715  0.0902 -0.0295 -0.3167
 1108SOL    HW114960   0.026   4.603  11.741 -0.3915 -1.0147  1.9422
 1108SOL    HW214961   0.051   4.483  11.800  3.1408  0.0277  0.4359
 1109SOL     OW14962   2.836   0.656   7.671  0.2110  0.1173 -0.6382
 1109SOL    HW114963   2.748   0.683   7.696  0.5261 -1.0376  1.7051
 1109SOL    HW214964   2.866   0.737   7.630 -2.5843  0.2614 -2.4012
 1110SOL     OW14965   4.425   2.373  11.342 -0.3454  0.8061  0.1193
 1110SOL    HW114966   4.335   2.353  11.367 -0.0167 -1.8763 -0.8135
 1110SOL    HW214967   4.421   2.401  11.250 -0.8450  0.1039 -0.0728
 1111SOL     OW14968   0.704   2.376   5.823  0.5688  0.3440 -0.1743
 1111SOL    HW114969   0.636   2.329   5.871  0.7817  1.7988  1.5367
 1111SOL    HW214970   0.691   2.342   5.735 -0.0439 -0.1536  0.1100
 1112SOL     OW14971   3.979   3.707   8.571 -0.2036  0.2592  0.0589
 1112SOL    HW114972   3.920   3.635   8.549  1.9387 -1.3181 -0.4799
 1112SOL    HW214973   4.060   3.671   8.608 -0.2778 -2.0256 -2.0128
 1113SOL     OW14974   0.120   4.681   5.173  0.0853  0.2512 -0.4937
 1113SOL    HW114975   0.115   0.023   5.224 -0.8464  0.7702 -1.4205
 1113SOL    HW214976   0.178   4.717   5.107  0.2831 -1.1025 -1.0634
 1114SOL     OW14977   0.614   1.738   5.913  0.0776  0.4644 -0.5114
 1114SOL    HW114978   0.519   1.747   5.918 -0.2720 -2.9617 -0.8515
 1114SOL    HW214979   0.640   1.793   5.987 -1.2604  0.0904  0.2385
 1115SOL     OW14980   1.555   4.118   2.575 -0.0405  0.2967 -0.4502
 1115SOL    HW114981   1.608   4.189   2.537  1.8011 -1.9025 -1.9681
 1115SOL    HW214982   1.483   4.122   2.513 -1.1336  1.4069  0.9027
 1116SOL     OW14983   3.695   3.515   3.871 -0.1018 -0.1236  0.1737
 1116SOL    HW114984   3.629   3.528   3.803  0.9249 -1.8661 -1.1410
 1116SOL    HW214985   3.701   3.603   3.908 -1.1975  0.4735 -1.0788
 1117SOL     OW14986   0.523   1.817   8.329  0.0440  0.0988  0.2830
 1117SOL    HW114987   0.443   1.805   8.379  0.7851 -2.4548  0.8189
 1117SOL    HW214988   0.536   1.912   8.333 -0.7271  0.0543  3.3732
 1118SOL     OW14989   1.105   3.610  13.585 -0.1324  0.0946 -0.2751
 1118SOL    HW114990   1.106   3.515  13.572 -1.6619  0.1418 -0.8402
 1118SOL    HW214991   1.053   3.639  13.509 -0.7021  0.4390  0.2460
 1119SOL     OW14992   2.118   1.685   4.200 -0.3670  0.3814 -0.4610
 1119SOL    HW114993   2.056   1.634   4.252  0.5523 -1.4206 -1.1164
 1119SOL    HW214994   2.155   1.616   4.144 -0.3452 -0.5380  0.6665
 1120SOL     OW14995   4.119   0.249   7.584 -0.1289 -0.3668  0.8076
 1120SOL    HW114996   4.085   0.162   7.605  1.7951 -1.2679  0.2044
 1120SOL    HW214997   4.094   0.240   7.492 -1.0132  0.5533  0.9550
 1121SOL     OW14998   4.549   0.855   8.017  0.3874  0.0558 -0.3009
 1121SOL    HW114999   4.554   0.796   7.942 -0.3516 -0.1712 -0.1760
 1121SOL    HW215000   4.455   0.875   8.014  0.7401  1.5733 -0.8436
 1122SOL     OW15001   2.697   4.514  13.687  1.2973  0.6769 -0.0077
 1122SOL    HW115002   2.715   4.457  13.761 -0.5779  0.2973  0.1309
 1122SOL    HW215003   2.779   4.508  13.638  0.6892 -2.3845 -0.6534
 1123SOL     OW15004   0.845   1.508   4.147 -0.2930 -0.2637  0.7537
 1123SOL    HW115005   0.889   1.551   4.074 -0.9243 -1.7224 -0.4844
 1123SOL    HW215006   0.822   1.579   4.207 -2.8488 -0.1098 -0.4354
 1124SOL     OW15007   3.000   3.670   2.512 -0.2050  0.1800 -0.2749
 1124SOL    HW115008   2.932   3.735   2.495  0.1782  1.0451  1.5325
 1124SOL    HW215009   3.078   3.726   2.508 -0.1451  0.1152  0.0372
 1125SOL     OW15010   1.958   4.338  16.856  0.3592 -0.1480  0.6607
 1125SOL    HW115011   1.951   4.414  16.913  0.5362  0.2578  0.1357
 1125SOL    HW215012   1.970   4.375  16.769  2.1172 -2.4697 -0.1069
 1126SOL     OW15013   0.852   0.290   2.181  0.5655  0.7222  0.5148
 1126SOL    HW115014   0.810   0.205   2.195  0.2742  0.6871 -0.5601
 1126SOL    HW215015   0.938   0.267   2.145 -0.2050 -0.8737 -0.3157
 1127SOL     OW15016   0.061   1.106  17.188 -0.0113 -0.0900  0.1980
 1127SOL    HW115017   0.038   1.110  17.095 -0.2320 -0.4293  0.2384
 1127SOL    HW215018   0.154   1.129  17.194  0.1351 -0.8939  0.9791
 1128SOL     OW15019   0.114   0.022   1.330 -0.0244  0.3137  0.2075
 1128SOL    HW115020   0.202   4.732   1.304 -0.2433 -0.6280  0.5049
 1128SOL    HW215021   0.122   0.031   1.425 -2.5166 -0.1472  0.4642
 1129SOL     OW15022   1.242   1.675   2.998  0.0995  0.3053  0.7996
 1129SOL    HW115023   1.293   1.707   2.924 -0.9775 -0.6632 -0.3636
 1129SOL    HW215024   1.224   1.760   3.036  1.2870  0.1048  1.7969
 1130SOL     OW15025   4.094   0.662   2.919  0.4993 -0.4040 -0.2504
 1130SOL    HW115026   4.116   0.574   2.890 -0.4113 -0.3687 -1.0689
 1130SOL    HW215027   4.002   0.671   2.894  0.9750  1.3520 -1.3882
 1131SOL     OW15028   0.631   1.057   2.081  0.4377 -0.1826 -0.0225
 1131SOL    HW115029   0.617   1.008   2.162  0.9688 -0.8318 -0.3205
 1131SOL    HW215030   0.624   0.979   2.025  2.2527 -0.0598 -0.4146
 1132SOL     OW15031   2.875   4.259  15.783  0.2695 -0.4417  0.2221
 1132SOL    HW115032   2.795   4.271  15.731 -0.2822  1.1673  1.4653
 1132SOL    HW215033   2.902   4.350  15.788  3.1187 -1.2818  0.2463
 1133SOL     OW15034   0.056   2.746   2.358 -0.0439  0.2392  0.1514
 1133SOL    HW115035   0.134   2.707   2.397  0.7929 -0.5624 -2.2987
 1133SOL    HW215036   4.728   2.698   2.406  1.0882  0.1177  1.6126
 1134SOL     OW15037   0.130   2.419   9.393 -0.6899 -0.0023  0.2994
 1134SOL    HW115038   0.058   2.481   9.407  1.0928  1.6284  2.2387
 1134SOL    HW215039   0.150   2.392   9.483 -1.6583 -0.7218  0.3041
 1135SOL     OW15040   0.455   2.175   3.822 -0.0856 -0.2590  0.3949
 1135SOL    HW115041   0.483   2.223   3.899  2.6214 -1.0492 -0.0696
 1135SOL    HW215042   0.403   2.246   3.786  0.7620  0.2028  0.0638
 1136SOL     OW15043   0.838   0.582   8.467 -0.4223 -0.3691 -0.0591
 1136SOL    HW115044   0.801   0.528   8.397  1.8168  0.2396 -1.6868
 1136SOL    HW215045   0.766   0.604   8.526 -1.3487  0.5156 -1.5344
 1137SOL     OW15046   1.314   0.751   2.060 -0.1635  0.1194  0.2570
 1137SOL    HW115047   1.301   0.807   1.983 -1.1309 -1.3688 -0.6741
 1137SOL    HW215048   1.243   0.774   2.120 -1.9369 -0.3710 -1.6543
 1138SOL     OW15049   1.494   1.198   3.171  0.0642 -0.1104 -0.3398
 1138SOL    HW115050   1.419   1.227   3.119 -0.7771  0.1772  1.0392
 1138SOL    HW215051   1.511   1.271   3.231  2.1326 -0.1490 -0.8760
 1139SOL     OW15052   4.602   2.983   2.742  0.0133  0.0775  0.2879
 1139SOL    HW115053   4.601   2.887   2.745 -0.1788  0.0554 -0.4905
 1139SOL    HW215054   4.539   2.992   2.670 -0.6987 -0.0060  0.9010
 1140SOL     OW15055   4.141   4.683   9.864 -0.1310  0.0693 -0.0166
 1140SOL    HW115056   4.137   0.038   9.884  1.4839 -0.0630  0.9245
 1140SOL    HW215057   4.189   4.647   9.939 -0.5708  0.8352  0.6435
 1141SOL     OW15058   0.558   3.503   4.352 -0.2514  0.2112 -0.8330
 1141SOL    HW115059   0.577   3.511   4.258  1.4453  2.3051 -0.2992
 1141SOL    HW215060   0.542   3.409   4.362  0.0567  0.1076 -1.2850
 1142SOL     OW15061   1.370   0.689   8.985 -0.2618  0.4083 -0.1275
 1142SOL    HW115062   1.328   0.613   8.945 -0.2782  0.2260  0.2382
 1142SOL    HW215063   1.289   0.733   9.011 -0.0974 -0.0995  1.2247
 1143SOL     OW15064   2.727   0.030   3.991 -0.3904 -0.0469 -0.0254
 1143SOL    HW115065   2.641   0.068   4.007  0.2216  1.1006  0.5616
 1143SOL    HW215066   2.724   4.705   4.061  2.1300  0.1199  0.2332
 1144SOL     OW15067   4.472   4.529   9.229 -0.0745  0.5563  0.1031
 1144SOL    HW115068   4.559   4.517   9.268  0.0673  2.6419  0.4591
 1144SOL    HW215069   4.488   4.496   9.140 -1.4938  1.9831 -0.6949
 1145SOL     OW15070   1.347   4.652   6.796  0.2046 -0.3649  0.4108
 1145SOL    HW115071   1.329   4.601   6.717  0.2303 -0.3623  0.4032
 1145SOL    HW215072   1.432   4.690   6.773  0.0046  0.7135  1.4166
 1146SOL     OW15073   1.868   0.660   5.254 -0.6276  0.2931  0.4509
 1146SOL    HW115074   1.873   0.755   5.239 -0.5088  0.6198  2.5868
 1146SOL    HW215075   1.815   0.661   5.334 -0.1303  0.0642  0.7837
 1147SOL     OW15076   3.054   4.615   7.556 -0.1664  0.2632  0.2815
 1147SOL    HW115077   3.071   4.709   7.547 -1.3680  0.3861 -0.6401
 1147SOL    HW215078   3.125   4.576   7.506 -0.0917  1.2886 -0.4133
 1148SOL     OW15079   2.415   3.884   3.692 -0.2397 -0.0540 -0.5260
 1148SOL    HW115080   2.478   3.906   3.761  0.7397 -1.5677 -0.9506
 1148SOL    HW215081   2.391   3.792   3.701  0.8406 -0.3259 -0.3362
 1149SOL     OW15082   2.192   4.386  16.020  0.3208  0.2941 -0.0712
 1149SOL    HW115083   2.261   4.388  16.087 -0.7959  0.7033  1.0835
 1149SOL    HW215084   2.136   4.452  16.062  1.6009  1.3547 -0.0303
 1150SOL     OW15085   1.489   3.568   7.810  0.1558 -0.4819  0.0749
 1150SOL    HW115086   1.550   3.571   7.736 -1.4810 -2.2374 -1.3688
 1150SOL    HW215087   1.404   3.570   7.766  0.4013  0.0708 -0.3727
 1151SOL     OW15088   0.211   1.980   9.100 -0.6065  0.1562  0.1022
 1151SOL    HW115089   0.246   2.061   9.139 -1.1113  0.1900  0.4836
 1151SOL    HW215090   0.226   1.914   9.168 -0.8738  1.9858  1.9438
 1152SOL     OW15091   0.417   3.265  17.085 -0.2997  0.3538 -0.5126
 1152SOL    HW115092   0.489   3.208  17.059 -0.1333  1.2414 -2.0070
 1152SOL    HW215093   0.464   3.348  17.087 -1.4051  0.9497  0.9986
 1153SOL     OW15094   2.934   1.641   7.399 -0.1156 -0.2093  0.1212
 1153SOL    HW115095   2.984   1.633   7.481 -0.5216  2.6910  0.6571
 1153SOL    HW215096   3.011   1.648   7.342 -2.1694  0.1558 -2.5790
 1154SOL     OW15097   1.210   1.794  10.567 -0.3132 -0.1241 -0.2351
 1154SOL    HW115098   1.256   1.736  10.628  2.1421  0.9395 -1.0617
 1154SOL    HW215099   1.142   1.835  10.620 -1.0804  1.4026 -2.4253
 1155SOL     OW15100   1.959   3.322   3.933  0.5187  0.1181  0.1560
 1155SOL    HW115101   1.903   3.254   3.971 -2.1957  0.5511 -3.0593
 1155SOL    HW215102   2.048   3.289   3.930  0.0457 -1.1996  0.4819
 1156SOL     OW15103   3.287   0.868  15.327 -0.4824  0.3670 -0.0358
 1156SOL    HW115104   3.357   0.847  15.265 -1.3141  1.5192 -1.3510
 1156SOL    HW215105   3.302   0.961  15.338 -0.6004 -0.0792  3.8787
 1157SOL     OW15106   3.760   1.510   2.296 -0.0898  0.3086 -0.4381
 1157SOL    HW115107   3.712   1.583   2.258  2.8387  2.4909  0.0041
 1157SOL    HW215108   3.793   1.545   2.378  0.6701 -0.0182 -0.6002
 1158SOL     OW15109   3.967   1.528   2.052  0.2882  0.6267 -0.2469
 1158SOL    HW115110   4.005   1.614   2.069 -0.7923  0.9198  0.6851
 1158SOL    HW215111   3.899   1.525   2.119  2.2928  1.0470  1.8266
 1159SOL     OW15112   1.198   0.475  15.182  0.5540 -0.4129  0.1919
 1159SOL    HW115113   1.220   0.461  15.090  2.2658  1.5646  0.2857
 1159SOL    HW215114   1.187   0.382  15.197 -2.3354 -0.0105  0.4420
 1160SOL     OW15115   3.064   4.589   5.884  0.5728 -0.2484 -0.0835
 1160SOL    HW115116   3.134   4.592   5.949 -1.2312 -0.7452  1.8877
 1160SOL    HW215117   3.058   4.494   5.873  0.2806 -0.3818  1.2625
 1161SOL     OW15118   0.066   3.228   1.705  0.4222  0.1805 -0.1358
 1161SOL    HW115119   4.736   3.188   1.653  0.0792  0.9271 -0.2410
 1161SOL    HW215120   0.061   3.319   1.677 -0.6143 -0.3648 -1.6761
 1162SOL     OW15121   4.662   3.021   6.171 -0.4912 -0.2568 -0.2493
 1162SOL    HW115122   4.614   3.067   6.103 -3.4960 -0.3441  1.8177
 1162SOL    HW215123   4.739   3.079   6.172 -1.1047  0.5526 -0.5867
 1163SOL     OW15124   3.004   3.518   4.082  0.2335 -0.5174  0.1618
 1163SOL    HW115125   2.972   3.437   4.044 -1.7102  1.1101 -1.6838
 1163SOL    HW215126   3.061   3.538   4.008  0.0592 -0.1482  0.1261
 1164SOL     OW15127   4.421   0.066   7.033 -0.0749 -0.0217  0.0834
 1164SOL    HW115128   4.399   0.117   6.955 -1.1716  0.2154  0.5489
 1164SOL    HW215129   4.517   0.060   7.031 -0.2906 -2.6849 -2.1444
 1165SOL     OW15130   3.588   1.085  12.478  0.1075  0.2423 -0.2337
 1165SOL    HW115131   3.539   1.007  12.502  0.8381  0.7978  3.2151
 1165SOL    HW215132   3.533   1.107  12.403 -1.5608  0.2223  0.9759
 1166SOL     OW15133   0.268   3.392  14.250 -0.0642 -0.1091 -0.1029
 1166SOL    HW115134   0.324   3.466  14.226 -0.8435  0.2125 -0.9122
 1166SOL    HW215135   0.276   3.389  14.345  2.9660  2.4065 -0.2828
 1167SOL     OW15136   2.628   4.561   3.466  0.8579  0.0579 -0.0243
 1167SOL    HW115137   2.652   4.525   3.381 -0.0675 -0.8680  0.1144
 1167SOL    HW215138   2.676   4.505   3.527  0.0209  2.1806  2.6130
 1168SOL     OW15139   2.042   3.248   4.307  0.4591  0.7934 -0.5771
 1168SOL    HW115140   2.135   3.271   4.306  0.3681  1.1919  1.4475
 1168SOL    HW215141   2.045   3.181   4.238  0.7170  2.0504 -1.7959
 1169SOL     OW15142   2.832   2.809   4.288  0.1082 -0.0532 -0.1802
 1169SOL    HW115143   2.898   2.804   4.220  1.8240 -0.7941  1.5482
 1169SOL    HW215144   2.768   2.746   4.255 -0.4480  1.7326 -2.5086
 1170SOL     OW15145   3.834   4.722   5.815 -0.7156 -0.3381 -0.0021
 1170SOL    HW115146   3.755   4.720   5.762 -1.0405  2.1699  0.3943
 1170SOL    HW215147   3.807   0.008   5.904 -1.1801 -0.1931 -0.1837
 1171SOL     OW15148   2.781   4.472   8.145 -0.0004  0.5425  0.5430
 1171SOL    HW115149   2.869   4.437   8.152  0.2363  0.8381 -0.9236
 1171SOL    HW215150   2.729   4.392   8.130  0.8430  0.1138 -0.0840
 1172SOL     OW15151   0.265   1.554   1.835  0.0981 -0.1614 -0.2992
 1172SOL    HW115152   0.269   1.469   1.880 -2.8640 -0.8299 -1.3212
 1172SOL    HW215153   0.230   1.532   1.748 -2.6088  0.7193  0.5744
 1173SOL     OW15154   0.545   0.767  10.075 -0.0129  0.2780 -0.2986
 1173SOL    HW115155   0.625   0.749  10.126  2.0305  1.4511 -3.1072
 1173SOL    HW215156   0.498   0.823  10.136 -0.5275  0.5959 -0.9907
 1174SOL     OW15157   2.277   2.063  13.181  0.1453  0.0959 -0.6968
 1174SOL    HW115158   2.242   2.014  13.256  2.3867 -0.4412  0.0042
 1174SOL    HW215159   2.367   2.032  13.183  0.9561  2.4784 -0.1763
 1175SOL     OW15160   3.381   3.577  16.541 -0.3090  0.0164  0.3072
 1175SOL    HW115161   3.400   3.564  16.448  1.0029  0.3943  0.5237
 1175SOL    HW215162   3.336   3.496  16.565 -3.2050  1.0350 -1.6028
 1176SOL     OW15163   0.922   4.194  12.615  0.1533  0.5875  0.6203
 1176SOL    HW115164   1.001   4.242  12.592 -0.8487  2.4204  1.0115
 1176SOL    HW215165   0.953   4.106  12.639  0.0750  0.0231 -1.3610
 1177SOL     OW15166   1.937   1.329   5.598  0.0183 -0.2201  0.0754
 1177SOL    HW115167   1.946   1.424   5.584  1.3872 -0.3098  0.3737
 1177SOL    HW215168   2.004   1.294   5.540 -0.7342  0.3103 -1.1116
 1178SOL     OW15169   1.931   0.248   3.278  0.3071  0.2527 -0.3707
 1178SOL    HW115170   1.988   0.178   3.310 -0.5729  0.6922  2.2153
 1178SOL    HW215171   1.940   0.311   3.350  0.6903 -0.1364 -0.0831
 1179SOL     OW15172   2.173   2.564  11.817 -0.1004 -0.1246 -0.0579
 1179SOL    HW115173   2.210   2.476  11.825  0.8272  0.0494 -2.5234
 1179SOL    HW215174   2.097   2.558  11.874  0.3699  0.4345  0.6174
 1180SOL     OW15175   0.833   3.283  15.933 -0.0121 -0.2013  0.5676
 1180SOL    HW115176   0.844   3.218  16.003  1.7347  0.5328  0.9480
 1180SOL    HW215177   0.876   3.357  15.975  2.4379 -0.5593 -1.3318
 1181SOL     OW15178   2.448   1.190  15.496 -0.0403 -0.2519  0.2331
 1181SOL    HW115179   2.382   1.249  15.532 -1.2742  0.2766 -2.8841
 1181SOL    HW215180   2.464   1.230  15.410  1.7831 -1.7545 -0.1118
 1182SOL     OW15181   2.831   3.172  13.026 -0.2303  0.9932  0.6544
 1182SOL    HW115182   2.911   3.178  13.078  0.0822 -0.9062  0.3859
 1182SOL    HW215183   2.804   3.081  13.036  0.3719  0.5581 -1.6128
 1183SOL     OW15184   2.175   1.072   3.989 -0.9226 -0.3321 -0.4175
 1183SOL    HW115185   2.209   1.106   4.072  1.8548  0.7988 -2.0159
 1183SOL    HW215186   2.233   0.996   3.984  0.9054  0.9928  0.5519
 1184SOL     OW15187   4.108   0.159   8.655  0.4152 -0.3553 -0.8730
 1184SOL    HW115188   4.091   0.235   8.599  0.6922 -1.3871 -2.3596
 1184SOL    HW215189   4.062   0.088   8.611 -0.2819  0.2805 -1.1719
 1185SOL     OW15190   0.982   3.862  13.281 -0.7779  0.4359  0.2193
 1185SOL    HW115191   1.074   3.867  13.255 -0.6830  2.2493  0.8845
 1185SOL    HW215192   0.939   3.909  13.209 -0.2810  0.7100  0.1044
 1186SOL     OW15193   2.588   2.676   5.906 -0.1266  0.1818  0.3997
 1186SOL    HW115194   2.582   2.616   5.832  0.9158  0.4499  0.1041
 1186SOL    HW215195   2.579   2.617   5.981 -1.7347  0.4413  0.4103
 1187SOL     OW15196   0.415   4.268   4.642  0.6340 -0.3920  0.1881
 1187SOL    HW115197   0.375   4.249   4.727  0.8707  3.5662  1.2250
 1187SOL    HW215198   0.488   4.207   4.632  0.4071 -0.4696 -0.9933
 1188SOL     OW15199   0.735   3.930  14.450 -0.2220  0.0411 -0.2029
 1188SOL    HW115200   0.656   3.945  14.502  0.3586  1.6085  0.2125
 1188SOL    HW215201   0.804   3.952  14.512  1.4526 -1.4176 -1.5431
 1189SOL     OW15202   4.456   3.662   7.687 -0.5798  0.0567 -0.0750
 1189SOL    HW115203   4.362   3.675   7.677 -0.8572  1.4328  4.3243
 1189SOL    HW215204   4.480   3.751   7.714 -4.4613  0.6300  1.3873
 1190SOL     OW15205   4.646   1.146   1.500 -0.0428  0.6806 -0.0362
 1190SOL    HW115206   4.630   1.176   1.590 -0.0454  0.7791 -0.0694
 1190SOL    HW215207   4.610   1.057   1.505  3.1337 -0.6722 -1.3322
 1191SOL     OW15208   1.064   4.516   5.794 -0.3688 -0.2851  0.3415
 1191SOL    HW115209   1.054   4.422   5.809  0.0744 -0.3633  0.1325
 1191SOL    HW215210   1.137   4.547   5.847 -0.7617 -0.6632  1.1154
 1192SOL     OW15211   0.742   1.370  17.302 -0.4185 -0.2519  0.5865
 1192SOL    HW115212   0.793   1.342  17.378  1.4891  0.8808 -0.2669
 1192SOL    HW215213   0.670   1.309  17.290  1.1664 -2.1312  0.5825
 1193SOL     OW15214   2.034   3.450   8.590 -0.8793 -0.8136 -0.0665
 1193SOL    HW115215   1.973   3.463   8.663  0.3044 -0.6165  0.8824
 1193SOL    HW215216   2.033   3.542   8.564 -0.3422 -1.3114 -1.8503
 1194SOL     OW15217   4.382   1.491   6.652  0.0924  1.2606  0.3281
 1194SOL    HW115218   4.477   1.487   6.647 -0.1316 -1.9239 -1.0768
 1194SOL    HW215219   4.352   1.411   6.694 -0.1945  0.2371 -1.8060
 1195SOL     OW15220   4.679   0.898  12.702 -0.0208 -0.0720 -0.1486
 1195SOL    HW115221   4.646   0.809  12.709 -0.3212  0.0649  0.1834
 1195SOL    HW215222   4.600   0.943  12.672  0.2779  0.0451 -0.7561
 1196SOL     OW15223   0.920   0.217   3.691  0.2833  0.3817 -0.1810
 1196SOL    HW115224   0.923   0.143   3.630 -0.2958  1.7513 -1.8607
 1196SOL    HW215225   0.860   0.175   3.753  1.0048 -0.0988  0.1863
 1197SOL     OW15226   3.656   1.224  15.006 -0.0176 -0.0496 -0.0562
 1197SOL    HW115227   3.562   1.242  15.019  0.2498  1.1498  0.2265
 1197SOL    HW215228   3.655   1.180  14.921 -2.1758  0.4441 -0.2924
 1198SOL     OW15229   1.138   3.923  14.664  0.1894 -0.1566  0.3139
 1198SOL    HW115230   1.137   3.865  14.741 -0.1849 -1.1829 -0.4625
 1198SOL    HW215231   1.225   3.958  14.685 -0.2203  0.5763  0.7755
 1199SOL     OW15232   1.212   1.489  16.718 -0.0917 -0.0168 -0.2813
 1199SOL    HW115233   1.157   1.460  16.646  0.7394 -1.1013 -0.4851
 1199SOL    HW215234   1.223   1.409  16.770 -0.8942 -0.0300 -0.1360
 1200SOL     OW15235   2.455   3.759   5.589 -0.2557 -0.8026  0.1145
 1200SOL    HW115236   2.409   3.748   5.506 -0.9290 -2.1024  0.6610
 1200SOL    HW215237   2.432   3.852   5.597  0.7121 -0.4974 -0.6933
 1201SOL     OW15238   1.623   0.936  14.047 -0.1681  0.0915 -0.2955
 1201SOL    HW115239   1.546   0.880  14.043  2.0911 -3.1127  0.8492
 1201SOL    HW215240   1.688   0.867  14.053 -0.8751 -0.6954 -1.8224
 1202SOL     OW15241   3.752   2.011   1.993 -0.3064  0.1722  0.6668
 1202SOL    HW115242   3.735   2.064   1.915  1.6760  0.7137  0.5948
 1202SOL    HW215243   3.847   2.018   2.001 -0.4585  2.6194  0.2703
 1203SOL     OW15244   3.971   4.660  17.660  0.0664 -0.1964  0.2629
 1203SOL    HW115245   3.976   0.008  17.700  1.7724  0.8197 -2.1320
 1203SOL    HW215246   3.919   4.681  17.583 -0.5315 -0.6217  0.5530
 1204SOL     OW15247   4.495   3.633   5.633  0.4037 -0.1653 -0.1856
 1204SOL    HW115248   4.414   3.673   5.601 -0.5524 -1.6137  0.4191
 1204SOL    HW215249   4.535   3.707   5.679 -0.1390 -1.1924  1.9429
 1205SOL     OW15250   3.079   1.886   8.060 -0.3222 -0.0319 -0.0712
 1205SOL    HW115251   3.018   1.952   8.093  0.2888  0.9132 -0.8175
 1205SOL    HW215252   3.123   1.856   8.139 -0.9027 -1.3306 -0.2513
 1206SOL     OW15253   0.973   2.870   2.628 -0.3164  0.1390  0.3062
 1206SOL    HW115254   0.893   2.879   2.678 -1.8753 -2.0754 -1.7908
 1206SOL    HW215255   1.031   2.860   2.704 -0.4484  0.7375  0.4861
 1207SOL     OW15256   0.184   1.852   2.272  0.3612  0.1112  0.8332
 1207SOL    HW115257   0.210   1.852   2.364  0.8846 -1.2711  0.6786
 1207SOL    HW215258   0.253   1.904   2.230 -2.0855  0.2692 -3.0504
 1208SOL     OW15259   1.267   0.872   7.180  0.5275 -0.1883 -0.0697
 1208SOL    HW115260   1.218   0.814   7.123 -0.4457  0.5023  0.0704
 1208SOL    HW215261   1.344   0.893   7.127 -0.1154 -0.9836 -1.3116
 1209SOL     OW15262   0.870   1.914   9.069 -0.3371  0.3105  0.0502
 1209SOL    HW115263   0.965   1.902   9.074 -0.5676 -1.4251  0.3367
 1209SOL    HW215264   0.841   1.883   9.154 -0.9604  1.7899  0.3756
 1210SOL     OW15265   2.656   0.434   3.943 -0.0786 -0.2781 -0.1875
 1210SOL    HW115266   2.728   0.442   4.006 -2.3576  0.7417  2.2722
 1210SOL    HW215267   2.590   0.380   3.987 -0.3483  1.1651  1.1582
 1211SOL     OW15268   0.360   4.435  15.144  0.0390  0.6693 -0.3635
 1211SOL    HW115269   0.452   4.459  15.155 -0.1657  0.7880  1.1366
 1211SOL    HW215270   0.368   4.428  15.049  2.5956  0.0945 -0.0942
 1212SOL     OW15271   1.172   1.050  11.666 -0.0567  0.5718  0.6079
 1212SOL    HW115272   1.115   1.055  11.589 -0.5365  1.1260  0.9998
 1212SOL    HW215273   1.177   1.144  11.685  0.5630  0.8682 -1.0096
 1213SOL     OW15274   0.504   2.502  16.914  0.3399  0.4067  0.7734
 1213SOL    HW115275   0.576   2.516  16.852 -0.3232 -1.9414 -0.5385
 1213SOL    HW215276   0.541   2.430  16.966  1.9209  0.8222  0.2460
 1214SOL     OW15277   1.955   4.549   4.786 -0.1410 -0.4654 -0.2380
 1214SOL    HW115278   1.979   4.564   4.694 -0.7084  1.2111 -0.1053
 1214SOL    HW215279   1.907   4.466   4.789 -0.0874 -0.5457 -1.4564
 1215SOL     OW15280   0.069   3.808   9.385  1.1003 -0.6193  0.3864
 1215SOL    HW115281   0.150   3.761   9.366 -0.5525 -2.8983 -1.0645
 1215SOL    HW215282   0.037   3.820   9.295 -0.5101  1.6987  1.2620
 1216SOL     OW15283   0.709   1.245   9.007 -0.4655  0.0785  0.2873
 1216SOL    HW115284   0.648   1.190   9.056  2.5453 -2.2458  1.3805
 1216SOL    HW215285   0.650   1.310   8.969  0.6216 -0.4013 -2.2171
 1217SOL     OW15286   3.183   1.532   2.769 -0.1930 -0.2006 -0.9585
 1217SOL    HW115287   3.106   1.589   2.781 -0.4010 -1.0241  1.5444
 1217SOL    HW215288   3.200   1.513   2.861 -0.3611  1.2604 -0.6207
 1218SOL     OW15289   4.121   2.407   8.102  0.4824  0.1602 -0.1507
 1218SOL    HW115290   4.074   2.337   8.057  0.7068 -0.2500  0.2550
 1218SOL    HW215291   4.160   2.453   8.028 -1.4728  2.8428  0.4599
 1219SOL     OW15292   2.407   4.508   9.504  0.2050  0.2966 -0.2146
 1219SOL    HW115293   2.485   4.475   9.548 -0.6771  0.9545  1.8237
 1219SOL    HW215294   2.384   4.433   9.449 -2.0590  0.8370 -0.0025
 1220SOL     OW15295   3.654   4.478   7.449 -0.3006  0.1354  0.1136
 1220SOL    HW115296   3.673   4.541   7.518 -2.2508 -1.6217  2.2396
 1220SOL    HW215297   3.581   4.520   7.404  1.4733  3.9865  0.7535
 1221SOL     OW15298   0.915   0.994   2.208 -0.1140  0.0954 -0.3791
 1221SOL    HW115299   0.944   1.080   2.178 -4.0281  1.3017 -0.6701
 1221SOL    HW215300   0.874   0.972   2.125  0.0735 -0.7336 -0.2522
 1222SOL     OW15301   1.687   2.193   7.520 -0.0847 -0.2018  0.5150
 1222SOL    HW115302   1.637   2.274   7.517  0.2274 -0.0733 -1.4017
 1222SOL    HW215303   1.687   2.155   7.432  2.0171  0.3076  0.2815
 1223SOL     OW15304   4.510   0.284  15.009 -0.1771  0.2786 -0.3481
 1223SOL    HW115305   4.506   0.376  15.037 -0.1981 -0.3887  1.8277
 1223SOL    HW215306   4.462   0.300  14.928  1.9471 -1.0268 -1.8378
 1224SOL     OW15307   3.938   1.123   0.907 -0.4815 -1.0424  0.0596
 1224SOL    HW115308   3.859   1.091   0.949  1.0089 -2.8824  1.4890
 1224SOL    HW215309   3.934   1.216   0.932  3.1286 -1.0290  0.6258
 1225SOL     OW15310   1.498   0.155   4.674 -0.5427 -0.7769  0.4591
 1225SOL    HW115311   1.422   0.107   4.706 -2.0240  1.7117  0.7056
 1225SOL    HW215312   1.459   0.228   4.626  0.5769 -0.4038  0.1076
 1226SOL     OW15313   0.347   0.732   3.196 -0.4931 -0.1928  0.4358
 1226SOL    HW115314   0.252   0.729   3.195 -0.4467 -1.2798 -0.7743
 1226SOL    HW215315   0.365   0.638   3.191  2.1422  0.3066  0.6668
 1227SOL     OW15316   2.266   3.046  11.214  0.4377 -0.0751 -0.1526
 1227SOL    HW115317   2.285   3.094  11.133 -1.1455 -1.0974 -1.1354
 1227SOL    HW215318   2.256   3.115  11.280 -1.7680  0.6405 -1.2454
 1228SOL     OW15319   0.188   0.180   4.065  0.0526 -0.3495  0.3411
 1228SOL    HW115320   0.173   0.167   4.159  0.7718 -1.3707  0.3193
 1228SOL    HW215321   0.113   0.234   4.039  1.7393  2.5920  1.4956
 1229SOL     OW15322   1.604   1.941   5.786  0.4252  0.0823  0.4426
 1229SOL    HW115323   1.649   1.944   5.701 -1.6535 -0.6832 -0.6942
 1229SOL    HW215324   1.659   1.993   5.844  1.4083  2.8114 -2.9031
 1230SOL     OW15325   2.620   1.965   7.797 -0.5644 -0.1333  0.0508
 1230SOL    HW115326   2.674   1.889   7.819  0.0110 -0.3794 -2.2114
 1230SOL    HW215327   2.568   1.935   7.723 -1.1279 -3.3322  1.7162
 1231SOL     OW15328   2.540   3.152  14.752  0.1769  0.0156 -0.0504
 1231SOL    HW115329   2.529   3.204  14.832  0.1985  1.4051 -0.9479
 1231SOL    HW215330   2.449   3.125  14.749  0.0458  0.7285 -2.4659
 1232SOL     OW15331   1.285   2.484   5.621  0.0998 -0.8562  0.0165
 1232SOL    HW115332   1.198   2.446   5.607  0.0313 -0.7106  0.0488
 1232SOL    HW215333   1.343   2.413   5.594  1.6286 -0.8053  3.1087
 1233SOL     OW15334   2.833   2.622   9.652  0.0887 -0.4173 -0.4120
 1233SOL    HW115335   2.888   2.658   9.582 -0.4359  0.6442 -0.2863
 1233SOL    HW215336   2.789   2.552   9.604 -4.5130  1.2114  1.4116
 1234SOL     OW15337   1.677   3.007   6.332  0.5572  0.2597 -0.6488
 1234SOL    HW115338   1.637   2.987   6.247 -0.5594  0.2028 -0.1142
 1234SOL    HW215339   1.757   2.955   6.331  0.4403  0.0700 -0.2692
 1235SOL     OW15340   2.053   4.086   4.692  0.1300  0.3188 -0.1499
 1235SOL    HW115341   1.995   4.158   4.715 -1.8567 -0.4841 -2.6971
 1235SOL    HW215342   2.050   4.076   4.597  0.1725  3.0583 -0.4401
 1236SOL     OW15343   2.705   1.702   7.824 -0.4071  0.4063  0.7234
 1236SOL    HW115344   2.638   1.634   7.816 -2.2263  2.1988  0.7709
 1236SOL    HW215345   2.781   1.647   7.809 -0.1152  1.5319 -1.9876
 1237SOL     OW15346   4.483   1.742   2.210  0.2851 -0.0565 -0.1135
 1237SOL    HW115347   4.557   1.771   2.265 -1.2393  1.8250  0.9364
 1237SOL    HW215348   4.524   1.689   2.141 -0.2735  2.2307 -2.1818
 1238SOL     OW15349   3.607   0.430   3.711 -0.0015 -0.0093  0.7420
 1238SOL    HW115350   3.624   0.359   3.650  1.1447  2.1010 -1.3950
 1238SOL    HW215351   3.696   0.448   3.741  1.3148 -0.5099 -2.9702
 1239SOL     OW15352   0.530   3.465   1.771  0.3229 -0.6548  0.3290
 1239SOL    HW115353   0.592   3.476   1.844 -0.5444 -1.7428  1.2278
 1239SOL    HW215354   0.592   3.480   1.699 -0.5914 -0.8131 -0.4867
 1240SOL     OW15355   4.048   0.904   7.682  0.0623 -0.6626 -0.1895
 1240SOL    HW115356   4.123   0.962   7.667 -0.3779  0.1445  0.6958
 1240SOL    HW215357   4.003   0.891   7.599 -0.6711  0.0692  0.0993
 1241SOL     OW15358   3.426   1.952  14.280 -0.1521  0.2205  0.2557
 1241SOL    HW115359   3.501   1.898  14.252  0.0972  0.5005  0.3867
 1241SOL    HW215360   3.359   1.883  14.281 -0.6550  0.7559  3.2317
 1242SOL     OW15361   1.271   4.604   3.060  0.1560  0.2587  0.4182
 1242SOL    HW115362   1.231   4.530   3.105 -0.9730 -0.0573 -1.0981
 1242SOL    HW215363   1.305   4.562   2.981  4.7014 -0.1470  2.5609
 1243SOL     OW15364   3.929   3.396   3.319 -0.2205  0.2455 -0.1142
 1243SOL    HW115365   4.022   3.390   3.298  0.2003 -2.0185  2.3887
 1243SOL    HW215366   3.909   3.475   3.268 -0.4978  0.2937  0.0735
 1244SOL     OW15367   4.673   4.272   5.890 -0.1043 -0.0187  0.7589
 1244SOL    HW115368   4.705   4.300   5.976  0.7677  1.8884 -0.2037
 1244SOL    HW215369   0.000   4.208   5.865  0.3053  0.4129  0.7319
 1245SOL     OW15370   3.157   2.243  16.738 -0.1359  0.2175 -0.1588
 1245SOL    HW115371   3.154   2.278  16.649  1.5798  2.8175  0.7881
 1245SOL    HW215372   3.218   2.169  16.736 -2.4001 -1.6260 -0.6125
 1246SOL     OW15373   1.430   4.366   8.997  0.2020  0.0496  0.3083
 1246SOL    HW115374   1.348   4.353   8.950 -0.4176 -1.0586  1.6825
 1246SOL    HW215375   1.497   4.338   8.935  0.6737  3.6872 -0.8077
 1247SOL     OW15376   0.370   1.587   6.395 -0.6886 -0.2712  0.2546
 1247SOL    HW115377   0.423   1.640   6.336  0.8294  0.0522  1.9067
 1247SOL    HW215378   0.292   1.643   6.388  0.8107  1.8371  0.5363
 1248SOL     OW15379   3.141   4.292  14.465  0.0536 -0.5192 -0.2420
 1248SOL    HW115380   3.216   4.254  14.419  0.0829  0.4201 -0.9641
 1248SOL    HW215381   3.084   4.215  14.456  1.1861 -1.3516 -0.3351
 1249SOL     OW15382   2.603   3.534   4.850 -0.4896  0.2115  0.2423
 1249SOL    HW115383   2.666   3.585   4.799 -1.1948 -0.7961 -1.6078
 1249SOL    HW215384   2.658   3.532   4.929 -2.9028  1.2762  1.9648
 1250SOL     OW15385   3.719   0.591   9.655  0.1539 -0.3491  0.3712
 1250SOL    HW115386   3.672   0.515   9.690 -1.2872 -0.7045 -2.3264
 1250SOL    HW215387   3.673   0.659   9.703  0.8264  1.1857 -1.1782
 1251SOL     OW15388   0.462   3.727   6.137 -0.0476  0.2406  0.3152
 1251SOL    HW115389   0.497   3.757   6.053  0.2283 -0.1129  0.3041
 1251SOL    HW215390   0.524   3.751   6.206 -1.0978  1.3241  0.8637
 1252SOL     OW15391   1.256   3.582   3.408  0.5602  0.5373  0.1253
 1252SOL    HW115392   1.170   3.547   3.431  0.0523  0.8063 -1.3754
 1252SOL    HW215393   1.303   3.499   3.410  1.0083  0.8429  2.7630
 1253SOL     OW15394   0.567   2.316   4.009  0.3450  0.2515 -0.4039
 1253SOL    HW115395   0.662   2.314   4.009  0.3859  1.5789  1.9411
 1253SOL    HW215396   0.537   2.334   4.099 -1.4415 -2.9330 -0.3446
 1254SOL     OW15397   2.657   0.462   7.755 -0.4579  0.8218  0.5284
 1254SOL    HW115398   2.749   0.471   7.734 -0.2237 -0.2757  1.0766
 1254SOL    HW215399   2.647   0.508   7.839 -1.6002  1.5370  0.0189
 1255SOL     OW15400   2.909   4.673   4.637  0.4614 -0.2888  1.0331
 1255SOL    HW115401   2.846   4.698   4.569  0.2403  0.4447  1.5066
 1255SOL    HW215402   2.950   0.018   4.655  0.1226  0.5289 -2.1026
 1256SOL     OW15403   2.542   0.665   1.345 -0.3157  0.1094 -0.1201
 1256SOL    HW115404   2.495   0.711   1.414 -0.8449  0.5398 -0.7670
 1256SOL    HW215405   2.536   0.734   1.279 -1.2322  0.9619  0.8652
 1257SOL     OW15406   2.856   4.708   1.744 -0.0716 -0.0753 -0.1353
 1257SOL    HW115407   2.832   4.697   1.652  1.7178 -1.5165 -0.4187
 1257SOL    HW215408   2.776   4.731   1.791 -0.0141  0.6636 -0.3975
 1258SOL     OW15409   3.419   4.095   2.108  0.0746  0.1505 -0.1958
 1258SOL    HW115410   3.408   4.189   2.096  0.4310  0.1247 -0.7061
 1258SOL    HW215411   3.331   4.072   2.139  0.6972 -1.8599  0.0605
 1259SOL     OW15412   0.183   3.105   0.830  0.3831  0.0013  0.1669
 1259SOL    HW115413   0.216   3.075   0.915  1.9651 -1.8082 -1.0691
 1259SOL    HW215414   0.242   3.178   0.809  0.6699 -0.0954  0.6386
 1260SOL     OW15415   4.154   2.223  11.125  0.1326  0.7543  0.4629
 1260SOL    HW115416   4.215   2.216  11.052  0.5223 -2.0938  1.0828
 1260SOL    HW215417   4.070   2.238  11.081  0.3690 -3.2180 -1.3050
 1261SOL     OW15418   4.144   4.736   2.548  0.1254 -0.3022 -0.1951
 1261SOL    HW115419   4.094   0.044   2.614 -0.8847  1.4385 -2.1766
 1261SOL    HW215420   4.082   0.011   2.477  0.9503  4.7018  0.0826
 1262SOL     OW15421   3.614   3.971   0.544 -0.2296 -0.3400  0.3915
 1262SOL    HW115422   3.682   3.977   0.477 -1.9041  0.0027 -1.2629
 1262SOL    HW215423   3.652   4.008   0.623  1.7242 -1.4720 -0.0280
 1263SOL     OW15424   2.649   3.812   5.761  0.9853  0.3364 -0.1123
 1263SOL    HW115425   2.608   3.776   5.683  0.9638  1.2874 -0.5465
 1263SOL    HW215426   2.595   3.888   5.784  0.8176  0.3192 -0.4528
 1264SOL     OW15427   4.141   4.567   1.768  0.7220  0.0548 -0.4321
 1264SOL    HW115428   4.069   4.507   1.792  1.1048  0.1190  0.9071
 1264SOL    HW215429   4.130   4.627   1.841 -0.3366  0.4837 -0.9465
 1265SOL     OW15430   1.455   2.140   9.062 -0.4196  0.1341 -0.3546
 1265SOL    HW115431   1.369   2.134   9.103 -0.7977  0.7178 -1.0540
 1265SOL    HW215432   1.451   2.224   9.018 -2.3405  0.2152  0.0010
 1266SOL     OW15433   1.930   2.913  11.950 -0.3696  0.1450 -0.2971
 1266SOL    HW115434   1.891   2.948  11.870 -1.6691 -1.0458 -0.1860
 1266SOL    HW215435   1.861   2.854  11.981  0.6943  0.0525  1.8749
 1267SOL     OW15436   3.881   3.836   3.798 -0.0347  0.1156  0.8589
 1267SOL    HW115437   3.898   3.771   3.730 -2.0653 -2.1395  2.5189
 1267SOL    HW215438   3.817   3.797   3.857  0.2735  0.5843  1.4979
 1268SOL     OW15439   3.463   2.682  11.639 -0.5902  0.5569  0.0382
 1268SOL    HW115440   3.376   2.701  11.674  0.2888 -0.5066  2.8033
 1268SOL    HW215441   3.496   2.771  11.650 -1.9967  0.8753  1.7705
 1269SOL     OW15442   3.753   3.642   8.353  0.1300  0.2516  0.1605
 1269SOL    HW115443   3.729   3.644   8.446  2.5834  0.5888  0.7752
 1269SOL    HW215444   3.683   3.700   8.320 -0.3455  0.0077  0.7430
 1270SOL     OW15445   4.583   4.578   8.746  0.0879  0.6973 -0.2428
 1270SOL    HW115446   4.553   4.573   8.836 -0.2604  0.2409 -0.3842
 1270SOL    HW215447   4.671   4.540   8.749 -0.7699 -1.3692 -1.2179
 1271SOL     OW15448   3.730   3.730   5.719 -0.1672  0.2118 -0.2568
 1271SOL    HW115449   3.673   3.798   5.683 -0.2105  0.2367 -0.1383
 1271SOL    HW215450   3.666   3.662   5.697 -0.7568  0.3003  1.2068
 1272SOL     OW15451   0.715   2.449   6.294 -0.0192 -0.1080 -0.1071
 1272SOL    HW115452   0.743   2.480   6.207 -0.7920 -0.2737 -0.4162
 1272SOL    HW215453   0.705   2.358   6.267  0.2878  0.2903 -1.5802
 1273SOL     OW15454   3.417   2.020   3.054  0.1486 -0.0167 -0.3205
 1273SOL    HW115455   3.489   2.045   3.112  0.7223 -0.6827 -0.7315
 1273SOL    HW215456   3.425   1.924   3.052 -1.3193 -0.1479  0.3841
 1274SOL     OW15457   4.652   0.761   2.932  0.4379  0.2442  0.5007
 1274SOL    HW115458   4.716   0.759   2.861 -2.6946  1.7633 -2.3119
 1274SOL    HW215459   4.576   0.713   2.898  0.0106  0.4168  1.2170
 1275SOL     OW15460   0.468   3.366   3.979  0.4913  0.6215  0.2275
 1275SOL    HW115461   0.529   3.292   3.979  0.8955  0.9409  2.5575
 1275SOL    HW215462   0.408   3.343   3.908 -1.8517  3.2229  1.3686
 1276SOL     OW15463   2.678   3.131   0.083  0.0308  0.1267 -0.1543
 1276SOL    HW115464   2.693   3.135   0.178 -0.2154 -0.7771 -0.0821
 1276SOL    HW215465   2.626   3.212   0.079  1.3205  0.9475 -0.3573
 1277SOL     OW15466   1.285   2.968  15.916 -0.5094 -0.0372  0.6520
 1277SOL    HW115467   1.359   2.917  15.948 -0.9380 -0.8271  0.3889
 1277SOL    HW215468   1.308   3.050  15.958 -0.1714 -0.2920  0.9712
 1278SOL     OW15469   1.084   0.567  13.468  0.0290 -1.2027  0.0563
 1278SOL    HW115470   1.034   0.533  13.394  1.6052 -0.6106 -1.2650
 1278SOL    HW215471   1.129   0.640  13.425  1.7586 -1.6785  1.0462
 1279SOL     OW15472   4.137   3.063   8.757 -0.5673  0.5342  0.2532
 1279SOL    HW115473   4.070   3.002   8.726 -0.7460  0.8297  0.0613
 1279SOL    HW215474   4.099   3.102   8.836 -3.9984 -1.0156 -0.6457
 1280SOL     OW15475   3.859   1.061   2.564  0.1381  0.2857  0.0677
 1280SOL    HW115476   3.898   1.111   2.492 -1.1527  1.5370  0.2463
 1280SOL    HW215477   3.931   1.065   2.627 -0.0282  0.7140  0.2303
 1281SOL     OW15478   0.210   2.710   6.618 -0.0062  0.4475 -0.1105
 1281SOL    HW115479   0.211   2.790   6.564 -0.3514  0.1674 -0.5403
 1281SOL    HW215480   0.140   2.660   6.575 -0.7679  2.0781 -0.7852
 1282SOL     OW15481   0.139   0.562   6.301 -0.5214 -0.0840 -0.1804
 1282SOL    HW115482   0.178   0.572   6.388 -1.5188  1.3775  0.0891
 1282SOL    HW215483   0.055   0.519   6.319  0.4987 -1.2236  1.8808
 1283SOL     OW15484   1.534   2.637   4.906  0.3542  0.3240 -0.0441
 1283SOL    HW115485   1.564   2.656   4.994 -0.0273  1.4669 -0.1550
 1283SOL    HW215486   1.556   2.545   4.896 -0.8954 -0.1670  1.8302
 1284SOL     OW15487   2.691   3.991  14.612 -0.0043 -0.1207 -0.1703
 1284SOL    HW115488   2.627   4.059  14.634  1.2307  0.1748  2.5307
 1284SOL    HW215489   2.636   3.937  14.556  0.8559 -1.2442  0.0779
 1285SOL     OW15490   3.529   0.874   8.592  0.8206 -0.1586  0.4769
 1285SOL    HW115491   3.614   0.856   8.552  2.3068  0.7150  3.1791
 1285SOL    HW215492   3.518   0.788   8.632 -0.8132 -0.6518 -1.0194
 1286SOL     OW15493   1.435   1.149   2.719 -0.0879 -0.2589  0.9608
 1286SOL    HW115494   1.358   1.206   2.730 -1.5441 -2.4926  2.4566
 1286SOL    HW215495   1.397   1.081   2.664 -1.2511  1.0031  0.1992
 1287SOL     OW15496   0.561   1.497  10.962 -0.6172  0.4813  0.3124
 1287SOL    HW115497   0.602   1.465  11.042  1.8600 -0.8975 -1.4853
 1287SOL    HW215498   0.585   1.422  10.907 -0.5432  0.8697 -0.1898
 1288SOL     OW15499   0.999   0.235   7.201  0.1817 -0.3115  0.2107
 1288SOL    HW115500   0.933   0.231   7.270  0.2652 -1.0905  0.2477
 1288SOL    HW215501   1.036   0.321   7.222  0.2345  0.1672 -1.8418
 1289SOL     OW15502   2.402   2.611   5.092  0.5726  0.7978 -0.0284
 1289SOL    HW115503   2.353   2.557   5.155 -0.0888  2.2980  0.7431
 1289SOL    HW215504   2.488   2.568   5.088  1.3072  2.2374  0.4881
 1290SOL     OW15505   3.673   1.017  13.932  0.8937  0.5691 -0.3113
 1290SOL    HW115506   3.675   1.108  13.963  1.1175 -0.2116  2.0196
 1290SOL    HW215507   3.731   1.020  13.856  0.7751 -1.9998 -0.5226
 1291SOL     OW15508   3.541   3.143   4.966  0.0523 -0.4540  0.6890
 1291SOL    HW115509   3.457   3.126   4.924 -0.1531 -0.0513  0.9366
 1291SOL    HW215510   3.604   3.166   4.898 -1.5812  1.6514 -0.1173
 1292SOL     OW15511   3.902   0.115   8.848  0.3918  0.4721 -0.2227
 1292SOL    HW115512   3.947   0.137   8.766 -1.2570  0.2422 -1.2010
 1292SOL    HW215513   3.934   0.033   8.884 -1.6915 -0.2759 -0.0854
 1293SOL     OW15514   1.174   0.979  16.539  0.3375  0.7663  0.3638
 1293SOL    HW115515   1.097   0.925  16.518  1.7519 -0.6529 -1.0781
 1293SOL    HW215516   1.239   0.909  16.546  0.9891  0.9810 -3.6233
 1294SOL     OW15517   0.276   0.341   6.600 -0.0962  0.4956  0.4439
 1294SOL    HW115518   0.230   0.422   6.620 -1.6468  0.1152 -1.5633
 1294SOL    HW215519   0.261   0.292   6.681  1.6177  0.9714  1.0589
 1295SOL     OW15520   0.237   1.195   5.995 -0.2532  0.0264  0.1257
 1295SOL    HW115521   0.251   1.289   5.985  1.0686 -0.0908  0.8368
 1295SOL    HW215522   0.167   1.188   5.930  0.3713  0.2468 -0.5730
 1296SOL     OW15523   0.315   4.647   1.560 -0.5464 -0.3330  0.4344
 1296SOL    HW115524   0.260   4.568   1.555  0.6067 -1.1157 -0.0301
 1296SOL    HW215525   0.386   4.606   1.509 -1.6240 -1.8559  0.1690
 1297SOL     OW15526   2.986   3.911   9.849 -0.1249 -0.1563 -0.2850
 1297SOL    HW115527   3.039   3.901   9.929  0.4833  0.2903 -0.6319
 1297SOL    HW215528   2.902   3.879   9.881 -0.4376 -0.3560 -1.3111
 1298SOL     OW15529   0.700   0.641  10.802 -0.3481  0.1820 -0.1654
 1298SOL    HW115530   0.660   0.596  10.877 -1.8011 -0.6797 -1.4823
 1298SOL    HW215531   0.682   0.733  10.821 -1.3963  0.1290 -0.9056
 1299SOL     OW15532   1.527   1.451   4.581 -0.0931  0.5430 -0.0058
 1299SOL    HW115533   1.530   1.464   4.676 -0.0806 -0.3509  0.1111
 1299SOL    HW215534   1.502   1.359   4.575 -0.3139  0.4502  2.2283
 1300SOL     OW15535   0.683   4.406   1.174 -0.0019  0.0080 -0.8023
 1300SOL    HW115536   0.671   4.472   1.105 -1.5164  0.2878 -0.2772
 1300SOL    HW215537   0.766   4.439   1.210 -0.2404 -1.1071  0.7896
 1301SOL     OW15538   2.199   2.656   7.746 -0.7028 -0.0135  0.7074
 1301SOL    HW115539   2.177   2.563   7.738 -1.2234  0.1257  0.5185
 1301SOL    HW215540   2.154   2.696   7.672 -1.5285 -3.8440 -0.8373
 1302SOL     OW15541   1.002   0.307  12.134 -0.3738 -0.4338 -0.0447
 1302SOL    HW115542   1.003   0.248  12.209  0.7514 -0.9898 -0.4860
 1302SOL    HW215543   1.073   0.369  12.154 -1.0668 -0.9683  3.9741
 1303SOL     OW15544   3.689   1.634   5.705 -0.2805  0.1289 -0.5105
 1303SOL    HW115545   3.702   1.592   5.620 -2.2772 -0.2241 -0.6517
 1303SOL    HW215546   3.593   1.632   5.705 -0.3111  1.4016 -0.6555
 1304SOL     OW15547   1.339   3.667   3.161  0.4865 -0.9689  0.0535
 1304SOL    HW115548   1.245   3.679   3.148  0.1402 -2.7963  0.9202
 1304SOL    HW215549   1.346   3.638   3.252  1.3477  1.6199  0.8299
 1305SOL     OW15550   2.986   1.248  15.459  0.4896  0.0618  0.4124
 1305SOL    HW115551   2.930   1.323  15.440 -0.2816 -0.8730 -0.9499
 1305SOL    HW215552   3.005   1.248  15.553 -0.6972 -1.2081  0.6483
 1306SOL     OW15553   1.718   4.693   7.030  0.2634 -0.4562  0.3230
 1306SOL    HW115554   1.692   4.612   7.074  1.8191 -2.0614 -1.6898
 1306SOL    HW215555   1.703   4.666   6.940  0.5149 -3.0800  1.0834
 1307SOL     OW15556   4.667   1.865   4.780 -0.3443  0.3790  0.6663
 1307SOL    HW115557   4.720   1.897   4.708  0.0513  0.0582  0.8105
 1307SOL    HW215558   4.587   1.911   4.759 -0.0422  0.7688  0.3746
 1308SOL     OW15559   1.863   1.357   5.086 -0.3741 -0.2857 -0.1958
 1308SOL    HW115560   1.807   1.299   5.034  2.1396 -0.0550 -3.1723
 1308SOL    HW215561   1.943   1.304   5.079 -0.4481 -0.5776  1.1991
 1309SOL     OW15562   3.240   0.763   7.005 -0.9800 -0.4520  0.4023
 1309SOL    HW115563   3.204   0.680   6.973 -0.3292 -0.0891 -1.2746
 1309SOL    HW215564   3.185   0.782   7.081 -0.3572 -0.9874  0.9801
 1310SOL     OW15565   3.968   0.591  15.888  0.3084  0.6025 -0.4190
 1310SOL    HW115566   3.932   0.520  15.941  1.7261  0.0743 -0.1646
 1310SOL    HW215567   4.047   0.550  15.854 -0.0434  0.0143 -0.5227
 1311SOL     OW15568   4.144   4.541   8.316 -0.8836 -0.2539  0.3909
 1311SOL    HW115569   4.216   4.559   8.376  0.4988 -2.8096 -0.4742
 1311SOL    HW215570   4.157   4.619   8.263 -1.3230 -1.6114 -1.7300
 1312SOL     OW15571   0.422   3.012   6.687 -0.2533  0.1301  0.4493
 1312SOL    HW115572   0.392   3.059   6.610  2.2147  1.4296  0.2895
 1312SOL    HW215573   0.346   3.010   6.745 -0.5801 -1.4722 -0.0593
 1313SOL     OW15574   4.092   3.898  11.099  0.1269 -0.4801 -0.2178
 1313SOL    HW115575   4.179   3.912  11.136  0.2085  0.9361 -0.9343
 1313SOL    HW215576   4.067   3.815  11.140 -0.9882  1.2212  2.5964
 1314SOL     OW15577   2.782   1.984   4.719 -0.8236 -0.4698  0.9550
 1314SOL    HW115578   2.711   2.049   4.717  0.7000  1.1670 -0.1493
 1314SOL    HW215579   2.779   1.936   4.637 -0.7930 -0.5796  1.0183
 1315SOL     OW15580   2.847   3.370   5.522  0.3565 -0.0243  0.2509
 1315SOL    HW115581   2.821   3.350   5.612  0.3484  1.0595  0.4835
 1315SOL    HW215582   2.830   3.287   5.477  0.5178  1.2499 -2.1800
 1316SOL     OW15583   0.238   0.153   7.049 -0.3109  0.2267  0.4755
 1316SOL    HW115584   0.243   0.167   7.143  0.0086  0.3924  0.4336
 1316SOL    HW215585   0.309   0.094   7.024 -1.5330  0.3101 -3.2846
 1317SOL     OW15586   1.784   3.398   4.311 -0.6369  0.1869  0.1823
 1317SOL    HW115587   1.777   3.309   4.278 -0.8800  0.1989  0.2036
 1317SOL    HW215588   1.857   3.424   4.255  0.5946 -0.8436  1.3320
 1318SOL     OW15589   1.817   2.897  15.138 -0.1313  0.0108 -0.7178
 1318SOL    HW115590   1.780   2.984  15.149  2.4243  0.8531  1.4642
 1318SOL    HW215591   1.797   2.848  15.218 -1.5995  0.0592 -1.0718
 1319SOL     OW15592   1.095   1.262  13.921 -0.0674  0.4065  0.0885
 1319SOL    HW115593   1.063   1.328  13.982 -0.3507 -0.3224  0.7277
 1319SOL    HW215594   1.090   1.316  13.841  2.5597  1.2103  0.4904
 1320SOL     OW15595   2.500   1.879   3.721  0.3890  0.0275 -0.4113
 1320SOL    HW115596   2.422   1.930   3.697 -0.6390 -0.8772  1.0031
 1320SOL    HW215597   2.483   1.788   3.698  3.2851 -0.8556  0.9751
 1321SOL     OW15598   3.445   2.129  12.037 -0.0859 -0.0537 -0.5292
 1321SOL    HW115599   3.469   2.187  12.109  2.4375 -1.0356 -0.5827
 1321SOL    HW215600   3.391   2.064  12.082 -0.1452  0.1922 -0.2489
 1322SOL     OW15601   1.256   4.447  15.702  0.2346  0.5770  0.6806
 1322SOL    HW115602   1.187   4.505  15.735 -0.2927 -0.5913  1.6182
 1322SOL    HW215603   1.227   4.440  15.611  0.6960  0.9053  0.5095
 1323SOL     OW15604   0.515   0.250   5.493  0.1886 -0.0288  0.2433
 1323SOL    HW115605   0.489   0.237   5.585 -0.5776  2.5973  0.4121
 1323SOL    HW215606   0.537   0.162   5.465  1.1413 -0.3769  2.1121
 1324SOL     OW15607   0.548   3.779   8.987 -0.3727  0.5666 -0.3737
 1324SOL    HW115608   0.631   3.827   8.989 -0.7512  1.1909  0.7159
 1324SOL    HW215609   0.490   3.852   9.011 -0.8257  0.5042 -1.2621
 1325SOL     OW15610   4.469   4.363   1.858  0.1121  0.0427 -0.0911
 1325SOL    HW115611   4.434   4.336   1.943 -0.6077 -0.9068 -0.6990
 1325SOL    HW215612   4.532   4.293   1.842  0.0275 -0.6076  2.3768
 1326SOL     OW15613   1.391   3.164   7.817 -0.6575  0.0139  0.2924
 1326SOL    HW115614   1.309   3.209   7.837 -0.4903  0.1500  0.6666
 1326SOL    HW215615   1.365   3.074   7.837 -0.0189  0.2517  2.2101
 1327SOL     OW15616   1.477   4.538   8.507  0.3560  0.0971 -0.3741
 1327SOL    HW115617   1.382   4.539   8.522  0.4006  0.7815 -0.1511
 1327SOL    HW215618   1.489   4.612   8.448 -0.5519 -0.8250 -1.7335
 1328SOL     OW15619   4.324   2.391   7.364  0.2172  0.1367  0.5635
 1328SOL    HW115620   4.337   2.424   7.452 -2.5426  0.1470  0.9888
 1328SOL    HW215621   4.402   2.340   7.343  0.7402  1.3246 -0.3916
 1329SOL     OW15622   3.883   3.642   3.200 -0.0224  0.1371 -0.0642
 1329SOL    HW115623   3.791   3.634   3.228 -0.8454  1.4419 -2.4201
 1329SOL    HW215624   3.872   3.708   3.131  1.0398 -1.2249 -1.5418
 1330SOL     OW15625   1.581   1.540   2.132  0.2500  0.4253 -0.8620
 1330SOL    HW115626   1.638   1.566   2.205 -0.0188 -2.4129  0.3426
 1330SOL    HW215627   1.516   1.503   2.191  3.4101  0.0423  2.4008
 1331SOL     OW15628   2.284   1.018   6.728 -0.3889 -0.0839 -0.1860
 1331SOL    HW115629   2.213   0.954   6.730  0.8358 -1.4616 -0.3906
 1331SOL    HW215630   2.356   0.956   6.743 -0.4090 -0.2185 -0.6208
 1332SOL     OW15631   2.148   2.481   3.920 -0.5515 -0.2671  0.1209
 1332SOL    HW115632   2.077   2.528   3.964  0.7410  1.1404  0.6877
 1332SOL    HW215633   2.160   2.523   3.835  1.2492  2.2479  1.6303
 1333SOL     OW15634   4.117   0.460   1.977  0.3776  0.2129  0.3322
 1333SOL    HW115635   4.048   0.492   1.919  0.8091 -0.2936 -0.4640
 1333SOL    HW215636   4.185   0.479   1.914 -0.6473  0.7485 -0.6161
 1334SOL     OW15637   2.387   0.346   3.479 -0.2967 -0.0379  0.3528
 1334SOL    HW115638   2.301   0.321   3.514 -0.3563  0.3402  0.4771
 1334SOL    HW215639   2.432   0.263   3.465  0.4748  0.6230 -1.0243
 1335SOL     OW15640   2.774   3.686   4.703  0.0423  1.1924  0.2933
 1335SOL    HW115641   2.846   3.645   4.750 -1.1278 -0.5270  0.5946
 1335SOL    HW215642   2.797   3.778   4.713  0.2182  1.1522  0.2470
 1336SOL     OW15643   0.235   0.618   6.562  0.1948  0.2914 -0.0422
 1336SOL    HW115644   0.292   0.689   6.594 -2.7314  2.7947 -0.3623
 1336SOL    HW215645   0.162   0.621   6.624  0.3666  0.1898  0.1670
 1337SOL     OW15646   4.398   2.155  17.029  0.6260 -0.4488 -0.1615
 1337SOL    HW115647   4.407   2.248  17.011  1.2095 -0.3795  0.4773
 1337SOL    HW215648   4.459   2.149  17.103  3.6333  1.1633 -2.5158
 1338SOL     OW15649   4.532   0.442   6.670 -0.0434 -0.2468  0.5048
 1338SOL    HW115650   4.525   0.528   6.713 -0.0098  0.4397 -0.8523
 1338SOL    HW215651   4.622   0.452   6.639  0.1883  1.1230  1.6129
 1339SOL     OW15652   3.286   4.498   3.570 -0.7974 -0.6276  0.4788
 1339SOL    HW115653   3.265   4.473   3.480  3.2487 -0.0981 -0.5981
 1339SOL    HW215654   3.378   4.481   3.592  0.7539  4.0964 -2.4084
 1340SOL     OW15655   3.006   4.264  17.050  0.3342 -0.2995  0.2374
 1340SOL    HW115656   2.997   4.300  16.961 -1.3820 -2.2343 -0.3648
 1340SOL    HW215657   3.093   4.291  17.080  0.0840  0.7789  0.0065
 1341SOL     OW15658   4.509   2.523   9.666 -0.2553 -0.1863 -0.0501
 1341SOL    HW115659   4.544   2.531   9.755  0.2351  0.8963 -0.3393
 1341SOL    HW215660   4.436   2.584   9.659  0.6485  0.8118 -0.8049
 1342SOL     OW15661   0.817   1.018  15.906  0.1967  0.3455  0.5563
 1342SOL    HW115662   0.819   0.941  15.849  1.3187  0.1785  0.8221
 1342SOL    HW215663   0.844   1.086  15.844  0.4456 -1.8550 -1.7728
 1343SOL     OW15664   2.411   0.315   0.918 -0.0601 -0.3210 -0.2104
 1343SOL    HW115665   2.467   0.242   0.941 -1.1935 -0.6652  1.4609
 1343SOL    HW215666   2.357   0.265   0.857  2.1209  0.0564 -2.4675
 1344SOL     OW15667   4.680   1.142   9.299 -0.0037 -0.7660  0.6154
 1344SOL    HW115668   4.616   1.097   9.245 -0.6535  0.7526  0.1310
 1344SOL    HW215669   0.002   1.068   9.305  2.1643  0.7950 -2.0936
 1345SOL     OW15670   1.660   2.917   8.125 -0.2826 -0.1115  0.2673
 1345SOL    HW115671   1.623   2.909   8.037 -0.2612  3.7881 -0.0986
 1345SOL    HW215672   1.687   2.827   8.140 -1.2620 -0.5038 -0.3501
 1346SOL     OW15673   3.394   4.497   2.543  0.8574  0.4077  0.0349
 1346SOL    HW115674   3.461   4.526   2.481 -0.6234  1.4509 -1.0743
 1346SOL    HW215675   3.319   4.515   2.486 -0.5015 -0.3007  1.6108
 1347SOL     OW15676   1.497   1.660   7.130 -0.2779 -0.4854 -0.1094
 1347SOL    HW115677   1.406   1.680   7.111  0.3188  1.0107 -1.3602
 1347SOL    HW215678   1.515   1.694   7.218  1.7554  0.9619 -1.1012
 1348SOL     OW15679   3.101   0.624   1.299  0.8494 -0.1811  0.2781
 1348SOL    HW115680   3.161   0.696   1.278 -1.5819  1.7008 -0.2246
 1348SOL    HW215681   3.025   0.680   1.316 -1.0996 -2.9930  0.9166
 1349SOL     OW15682   0.283   1.704  13.077  0.0777  0.2671 -0.1917
 1349SOL    HW115683   0.245   1.791  13.071  0.9332  0.6906  0.3658
 1349SOL    HW215684   0.236   1.647  13.017 -0.5197  0.2540  0.2906
 1350SOL     OW15685   0.251   2.803   5.174 -0.2141 -0.0263 -0.2416
 1350SOL    HW115686   0.206   2.830   5.254 -0.3347  0.0714 -0.3434
 1350SOL    HW215687   0.308   2.878   5.158  2.8322 -2.5542 -1.2261
 1351SOL     OW15688   3.999   0.515   5.876  0.1183  0.6206  0.0563
 1351SOL    HW115689   4.090   0.527   5.850  0.6354 -3.4845 -0.0383
 1351SOL    HW215690   3.960   0.454   5.813 -2.1280  0.3087  1.7206
 1352SOL     OW15691   0.744   2.326   1.675  0.3186  0.5278  0.1184
 1352SOL    HW115692   0.681   2.254   1.671  0.5688  0.3751 -1.0690
 1352SOL    HW215693   0.741   2.361   1.764 -1.8420 -0.9876  0.6297
 1353SOL     OW15694   1.365   0.846   8.341  0.1893  0.3224  0.2013
 1353SOL    HW115695   1.395   0.929   8.378 -0.4152  1.7356 -2.4979
 1353SOL    HW215696   1.374   0.795   8.421  0.8657  1.7946  1.0607
 1354SOL     OW15697   4.304   3.139   8.063  0.3613 -0.3511 -0.2567
 1354SOL    HW115698   4.327   3.047   8.054 -1.6133 -0.9742  1.0763
 1354SOL    HW215699   4.335   3.163   8.150  1.2515  0.4184 -0.7803
 1355SOL     OW15700   4.705   0.061   1.877 -0.2464  0.0552 -0.3265
 1355SOL    HW115701   4.692   4.713   1.915  0.0144  1.2795  2.5800
 1355SOL    HW215702   0.001   0.106   1.953 -2.4473  2.2750 -0.6129
 1356SOL     OW15703   0.577   0.104   4.329 -0.3933 -0.4018 -0.1642
 1356SOL    HW115704   0.554   0.187   4.288 -4.5211 -1.3032  0.2330
 1356SOL    HW215705   0.652   0.082   4.273  0.8608  2.7968  0.3261
 1357SOL     OW15706   1.053   3.661  12.021  0.2775 -0.0615  0.7323
 1357SOL    HW115707   1.143   3.630  12.019  0.6788  1.2651 -1.8473
 1357SOL    HW215708   1.043   3.676  11.927 -2.3863  1.6271  1.2620
 1358SOL     OW15709   0.367   4.676   4.999  0.3385  0.0880 -0.0435
 1358SOL    HW115710   0.402   0.019   4.964  0.4125  0.4639  0.9165
 1358SOL    HW215711   0.429   4.668   5.072  2.9292  1.2582 -2.1041
 1359SOL     OW15712   4.635   4.588   9.557 -0.5344 -0.3576 -0.2693
 1359SOL    HW115713   4.556   4.628   9.591 -0.4148 -1.5341  1.3881
 1359SOL    HW215714   4.698   4.630   9.615 -0.3821  1.0032 -1.4257
 1360SOL     OW15715   2.915   0.824   6.980  0.5516  0.3193  0.0103
 1360SOL    HW115716   2.910   0.918   7.000 -1.1447  0.1697  0.2747
 1360SOL    HW215717   2.882   0.780   7.058 -0.5691 -1.0757 -1.2668
 1361SOL     OW15718   3.226   3.621  13.220  0.2097 -0.3266  0.3249
 1361SOL    HW115719   3.162   3.559  13.185 -0.2104  0.7538 -0.7915
 1361SOL    HW215720   3.181   3.652  13.299  0.6529 -2.2990  1.3688
 1362SOL     OW15721   3.411   4.320   9.406 -0.1622  0.0780  0.0576
 1362SOL    HW115722   3.368   4.244   9.444 -2.7716  1.0103 -1.0275
 1362SOL    HW215723   3.465   4.343   9.482  1.0685  0.4253 -0.9168
 1363SOL     OW15724   4.671   0.493   8.107 -0.8593  0.2082  0.0861
 1363SOL    HW115725   0.013   0.476   8.059 -1.5877  0.1422 -1.1204
 1363SOL    HW215726   4.685   0.585   8.129 -1.6187 -0.4248  3.1493
 1364SOL     OW15727   4.354   3.020   8.584 -0.1228  0.1772  0.6933
 1364SOL    HW115728   4.287   3.041   8.650  0.7376  1.1127  1.2763
 1364SOL    HW215729   4.361   2.925   8.582 -1.4132  0.0634  1.5063
 1365SOL     OW15730   3.159   0.400   9.041  0.0703 -0.7969 -0.5751
 1365SOL    HW115731   3.105   0.439   8.972  0.3094  0.9930  0.2551
 1365SOL    HW215732   3.099   0.340   9.084  1.6623 -2.5729 -0.8195
 1366SOL     OW15733   1.520   0.482   4.640  0.3495  0.5797 -0.3649
 1366SOL    HW115734   1.510   0.513   4.730  0.1484  1.6664 -0.7610
 1366SOL    HW215735   1.434   0.444   4.621 -0.5352  1.4895  1.9383
 1367SOL     OW15736   0.464   2.784   2.518 -0.3619  0.5051  0.6705
 1367SOL    HW115737   0.443   2.874   2.545 -1.7351  0.4688 -0.2682
 1367SOL    HW215738   0.377   2.743   2.519  0.1228 -0.5427 -0.5029
 1368SOL     OW15739   2.241   1.627   8.717 -0.1302 -0.1935 -0.2990
 1368SOL    HW115740   2.329   1.664   8.715 -0.1621 -0.0266  1.2121
 1368SOL    HW215741   2.210   1.656   8.631  0.7852 -0.9698 -0.8958
 1369SOL     OW15742   4.555   1.690   8.968  0.4089 -0.1128 -0.0743
 1369SOL    HW115743   4.587   1.715   8.882 -0.3573  0.1747 -0.2786
 1369SOL    HW215744   4.578   1.777   9.000 -1.4544  1.3832 -2.7096
 1370SOL     OW15745   3.164   0.570   0.878 -0.0593  0.2602 -0.0940
 1370SOL    HW115746   3.072   0.556   0.854 -0.3169  0.9788  0.4828
 1370SOL    HW215747   3.181   0.519   0.957 -1.2619 -0.8780 -0.5663
 1371SOL     OW15748   3.531   0.660   8.767  0.2051  0.3168 -0.5423
 1371SOL    HW115749   3.587   0.604   8.714  0.9998 -0.1724  0.8191
 1371SOL    HW215750   3.597   0.697   8.825 -1.7160  4.2662 -0.8460
 1372SOL     OW15751   0.412   0.205   1.827  0.6376 -0.1660  0.0437
 1372SOL    HW115752   0.474   0.222   1.756 -0.7424  1.4843 -0.7619
 1372SOL    HW215753   0.331   0.178   1.784  0.5387 -0.5374  0.4548
 1373SOL     OW15754   3.133   2.333   3.172  0.5148  0.5921  0.2776
 1373SOL    HW115755   3.153   2.247   3.136  0.9838  0.3000  1.2460
 1373SOL    HW215756   3.210   2.340   3.229  2.3220  0.0857 -2.0663
 1374SOL     OW15757   2.294   2.599   4.851 -0.0318  0.0832 -0.0828
 1374SOL    HW115758   2.322   2.590   4.943  0.0661 -1.0074 -0.2264
 1374SOL    HW215759   2.348   2.530   4.812  0.0226  0.4807 -0.7095
 1375SOL     OW15760   3.781   1.638   0.546  0.1342  0.1909 -0.6866
 1375SOL    HW115761   3.730   1.666   0.622  0.2229  0.9250 -0.8985
 1375SOL    HW215762   3.771   1.544   0.562  1.5379 -0.2288 -2.2210
 1376SOL     OW15763   3.775   1.971  14.815 -0.0602 -0.0023 -0.7236
 1376SOL    HW115764   3.740   1.892  14.855  1.3031  0.5910  1.5958
 1376SOL    HW215765   3.835   1.917  14.764  1.3625  2.2954 -1.4740
 1377SOL     OW15766   1.166   1.500   6.294  0.2035 -0.5944 -0.2153
 1377SOL    HW115767   1.189   1.575   6.239  2.5077  0.4811  2.1794
 1377SOL    HW215768   1.072   1.514   6.305  0.2645 -0.0284 -0.3951
 1378SOL     OW15769   2.964   4.397   9.037  0.2506  0.2550  0.5337
 1378SOL    HW115770   2.905   4.322   9.040 -0.4636  0.7592 -0.9976
 1378SOL    HW215771   3.039   4.364   8.987  1.0494  0.0955  1.8384
 1379SOL     OW15772   2.255   1.439   8.311 -0.1686  0.3678  0.1203
 1379SOL    HW115773   2.298   1.458   8.228 -4.3965  0.5476 -2.0202
 1379SOL    HW215774   2.333   1.446   8.366 -0.9896  0.5441  1.2712
 1380SOL     OW15775   3.849   4.456   2.538 -0.3903  0.4035 -0.1412
 1380SOL    HW115776   3.798   4.379   2.513  0.0556 -0.2077  0.8304
 1380SOL    HW215777   3.937   4.427   2.562 -0.9419  0.1608  1.6003
 1381SOL     OW15778   3.429   2.677   9.158 -0.3427  0.9522  0.1340
 1381SOL    HW115779   3.378   2.678   9.239  0.7759 -1.9063  0.8783
 1381SOL    HW215780   3.368   2.714   9.094 -0.2386 -1.3672 -1.2918
 1382SOL     OW15781   4.591   3.402   7.306  0.2464 -0.6642 -0.0247
 1382SOL    HW115782   4.572   3.338   7.237 -1.8480  0.4231 -0.4436
 1382SOL    HW215783   4.626   3.354   7.381 -0.2657  0.9670  1.2618
 1383SOL     OW15784   0.151   1.977   0.955  0.0443  0.0949 -0.2635
 1383SOL    HW115785   0.127   1.897   0.908  0.4623 -1.8567  2.8497
 1383SOL    HW215786   0.150   2.036   0.880 -1.2017  1.7595  1.0644
 1384SOL     OW15787   1.224   1.551   1.554  0.1825 -0.7300  0.1850
 1384SOL    HW115788   1.173   1.475   1.527 -0.1876  0.5817 -2.9068
 1384SOL    HW215789   1.166   1.616   1.514  0.8940 -0.6167 -0.6696
 1385SOL     OW15790   0.889   2.720   4.119  0.4183 -0.4060 -0.6024
 1385SOL    HW115791   0.937   2.654   4.069 -1.2186 -1.6634 -0.4963
 1385SOL    HW215792   0.818   2.727   4.055  1.4393 -1.4011 -1.8539
 1386SOL     OW15793   3.690   1.551   5.086 -0.5517  0.5351 -0.1831
 1386SOL    HW115794   3.759   1.503   5.041 -0.7271 -0.4195  0.5500
 1386SOL    HW215795   3.677   1.485   5.154 -1.4296  0.1126 -0.7591
 1387SOL     OW15796   3.167   0.898   0.066 -0.2673  0.2632  0.1792
 1387SOL    HW115797   3.087   0.950   0.068 -0.5031 -0.1235  0.9676
 1387SOL    HW215798   3.199   0.932  17.738  2.0101  1.1386  1.4184
 1388SOL     OW15799   0.329   3.278  12.331 -0.7671  0.2012 -0.2487
 1388SOL    HW115800   0.377   3.215  12.278  1.2374 -0.0305  1.8290
 1388SOL    HW215801   0.242   3.272  12.290 -0.5246  0.0007 -0.7360
 1389SOL     OW15802   1.865   4.122  13.932 -0.6430  0.1766  0.0531
 1389SOL    HW115803   1.895   4.212  13.917 -0.1360  0.9125  5.3453
 1389SOL    HW215804   1.891   4.120  14.024 -0.2529  1.4458 -0.0383
 1390SOL     OW15805   4.411   3.919   8.644 -0.0516  0.0544 -0.1334
 1390SOL    HW115806   4.462   3.998   8.629 -0.0913  0.1691  0.3333
 1390SOL    HW215807   4.328   3.948   8.606  0.3019  2.5287  0.9912
 1391SOL     OW15808   0.534   1.298   8.210 -0.3114 -0.2422  0.6143
 1391SOL    HW115809   0.449   1.314   8.252  0.7993  0.9006  2.4425
 1391SOL    HW215810   0.557   1.212   8.246 -1.3302 -0.9449 -0.4135
 1392SOL     OW15811   0.778   1.935   5.592  0.2093 -0.2091  0.4765
 1392SOL    HW115812   0.791   1.951   5.498 -1.8573 -1.8845 -0.0927
 1392SOL    HW215813   0.810   1.845   5.593 -1.5295 -0.8794 -3.4175
 1393SOL     OW15814   4.261   0.010  17.707  0.1712 -0.1688 -0.5370
 1393SOL    HW115815   4.212   4.707  17.637 -2.3051 -0.9805  1.6756
 1393SOL    HW215816   4.212   4.707   0.023  3.0781 -2.5751  0.0284
 1394SOL     OW15817   0.546   0.599   8.918  0.0097  0.3748 -0.8506
 1394SOL    HW115818   0.581   0.527   8.971  0.0599 -0.5476 -2.1108
 1394SOL    HW215819   0.564   0.673   8.975 -1.1308  2.0462 -2.6661
 1395SOL     OW15820   3.198   4.356   3.352  0.0026 -0.6160 -0.2001
 1395SOL    HW115821   3.201   4.360   3.256 -1.0186  1.4132 -0.1490
 1395SOL    HW215822   3.146   4.276   3.352 -1.0841  0.0868 -1.1948
 1396SOL     OW15823   3.009   1.237   7.318 -0.4617 -0.1847  0.1809
 1396SOL    HW115824   2.981   1.302   7.253  1.4952  2.4324  1.9087
 1396SOL    HW215825   3.051   1.172   7.263 -0.0566  2.5777 -2.7593
 1397SOL     OW15826   0.469   4.496   1.368 -0.1010 -0.4958 -0.2993
 1397SOL    HW115827   0.527   4.445   1.312  0.3830  0.4773 -0.7003
 1397SOL    HW215828   0.482   4.444   1.447 -2.6941  0.7948  0.9805
 1398SOL     OW15829   0.543   3.985  14.624  0.1275 -0.1748  1.1864
 1398SOL    HW115830   0.571   4.065  14.669  1.4362  0.1741 -0.2524
 1398SOL    HW215831   0.485   3.946  14.689 -2.1866 -0.2998 -0.9421
 1399SOL     OW15832   1.860   1.107   7.167  0.0445 -0.1508  0.7223
 1399SOL    HW115833   1.878   1.198   7.189  3.1222 -0.6742  0.4882
 1399SOL    HW215834   1.766   1.114   7.152  0.1658 -1.4600 -0.6597
 1400SOL     OW15835   3.579   1.873   6.270  0.0536  0.4102 -0.4196
 1400SOL    HW115836   3.629   1.941   6.226  0.8149 -0.1892 -0.4702
 1400SOL    HW215837   3.624   1.875   6.354 -0.3290 -1.1739 -0.1721
 1401SOL     OW15838   2.927   0.777   5.163  0.3155  0.0224  0.2107
 1401SOL    HW115839   2.888   0.690   5.170  0.0398  0.1083 -0.2467
 1401SOL    HW215840   3.003   0.756   5.110 -0.9888  0.8695 -1.9743
 1402SOL     OW15841   2.350   2.259   5.378 -0.2872 -0.6691  0.0941
 1402SOL    HW115842   2.393   2.216   5.304 -0.2968  2.3169 -1.6491
 1402SOL    HW215843   2.309   2.337   5.341  0.4067 -1.1214 -1.6660
 1403SOL     OW15844   0.982   4.651  16.320  0.0698 -0.1557  0.8048
 1403SOL    HW115845   1.026   4.702  16.389 -0.0065  0.5771  0.3121
 1403SOL    HW215846   0.965   4.575  16.376 -0.0206  0.4037  1.5350
 1404SOL     OW15847   3.052   3.290   5.816  0.5252  0.5935 -0.5351
 1404SOL    HW115848   3.089   3.236   5.886  1.0654  0.0579 -1.2325
 1404SOL    HW215849   2.966   3.248   5.808 -0.6710  2.4615  2.5264
 1405SOL     OW15850   1.305   1.856   8.059  0.4980  0.1135  0.6645
 1405SOL    HW115851   1.330   1.764   8.061 -0.0352 -0.1165 -2.7905
 1405SOL    HW215852   1.321   1.879   8.151 -2.4039 -2.7732  1.8883
 1406SOL     OW15853   2.058   1.929   3.275  0.4596 -0.4071  0.3559
 1406SOL    HW115854   2.061   1.909   3.369  0.7629 -0.0082  0.4300
 1406SOL    HW215855   2.135   1.877   3.250  2.0610  1.8508  0.6309
 1407SOL     OW15856   2.324   3.362   4.589  0.2433 -0.1944 -0.6352
 1407SOL    HW115857   2.285   3.434   4.539  2.7432  0.4895 -1.5788
 1407SOL    HW215858   2.409   3.347   4.547 -0.1367  0.3941 -1.6342
 1408SOL     OW15859   3.454   1.617   3.581 -0.4052 -0.2422  0.3670
 1408SOL    HW115860   3.494   1.545   3.629 -0.5125  0.0204  0.8436
 1408SOL    HW215861   3.430   1.685   3.645  1.5264  0.3670  0.4405
 1409SOL     OW15862   3.975   2.618   4.290  0.4654 -0.2236 -0.0816
 1409SOL    HW115863   3.977   2.599   4.196 -0.9503  0.4693 -0.2630
 1409SOL    HW215864   3.965   2.529   4.324 -0.0602 -0.3091 -0.4523
 1410SOL     OW15865   3.771   0.483   2.328  0.1563 -0.5682 -0.1234
 1410SOL    HW115866   3.743   0.541   2.258 -1.4890 -0.2540  0.7750
 1410SOL    HW215867   3.841   0.431   2.288  0.7734  1.2466 -1.3546
 1411SOL     OW15868   3.955   0.019  12.719  0.7766 -0.1729 -0.8261
 1411SOL    HW115869   3.899   0.097  12.714 -0.6501 -1.1278  0.2549
 1411SOL    HW215870   3.897   4.689  12.750  0.3782  0.8884  0.8164
 1412SOL     OW15871   3.520   4.331   8.509 -0.4603  0.6152  0.5937
 1412SOL    HW115872   3.551   4.319   8.420 -0.3493 -0.1733  0.7394
 1412SOL    HW215873   3.504   4.242   8.540 -2.4950 -0.1436 -2.6534
 1413SOL     OW15874   0.732   2.270   9.188  0.3813 -0.7441  0.4499
 1413SOL    HW115875   0.720   2.296   9.279  0.3414  0.3561  0.1280
 1413SOL    HW215876   0.819   2.306   9.172 -0.4846  1.4396  0.6862
 1414SOL     OW15877   2.196   3.219   2.834 -0.0689 -0.2441  0.2560
 1414SOL    HW115878   2.213   3.299   2.884 -1.3310 -0.4557  1.0286
 1414SOL    HW215879   2.249   3.157   2.884 -0.3088  0.2840  1.1698
 1415SOL     OW15880   1.646   2.685   5.153  0.3901 -0.3517 -0.3032
 1415SOL    HW115881   1.646   2.600   5.195 -2.4553  0.0471  0.5032
 1415SOL    HW215882   1.596   2.735   5.217  0.5785 -0.3524 -0.1533
 1416SOL     OW15883   1.711   3.415   2.429 -0.4423 -0.0756 -0.6013
 1416SOL    HW115884   1.782   3.357   2.455  0.5237  1.7571  0.9123
 1416SOL    HW215885   1.630   3.366   2.442 -0.7401  0.5316 -0.1404
 1417SOL     OW15886   1.221   2.464   2.237 -0.1684 -0.7158  0.5624
 1417SOL    HW115887   1.152   2.526   2.214  0.7535  0.4364  0.9494
 1417SOL    HW215888   1.238   2.493   2.327  1.1122 -1.0679  0.4389
 1418SOL     OW15889   3.265   3.204  11.300  0.0304  0.0676 -0.8749
 1418SOL    HW115890   3.273   3.207  11.205 -2.4234 -1.6881 -1.1394
 1418SOL    HW215891   3.256   3.110  11.313 -0.4690  0.4248  1.3934
 1419SOL     OW15892   1.597   0.329   7.602  0.1337 -0.0155 -0.1888
 1419SOL    HW115893   1.617   0.422   7.614 -0.5664 -0.1474  1.9799
 1419SOL    HW215894   1.686   0.295   7.589  0.1344 -0.1644  0.2036
 1420SOL     OW15895   0.483   1.936   9.542  0.4928 -0.1320 -0.0837
 1420SOL    HW115896   0.493   1.841   9.538  1.3263 -0.0075 -1.2329
 1420SOL    HW215897   0.553   1.964   9.602 -0.3854 -2.2486  1.8786
 1421SOL     OW15898   1.436   3.265   2.153  0.8108 -0.2811 -0.5339
 1421SOL    HW115899   1.414   3.327   2.222  0.9501 -1.2213  0.3480
 1421SOL    HW215900   1.402   3.311   2.076 -0.7890  0.3038  0.5346
 1422SOL     OW15901   0.268   3.225   5.398 -0.1923 -0.4020  0.1842
 1422SOL    HW115902   0.182   3.244   5.435 -0.1523  0.0889  0.0177
 1422SOL    HW215903   0.291   3.314   5.374 -1.5968  0.0144  0.4234
 1423SOL     OW15904   2.257   0.633   1.107 -0.7506  0.1570  0.5097
 1423SOL    HW115905   2.252   0.701   1.175 -1.4465  1.0314 -0.4089
 1423SOL    HW215906   2.330   0.663   1.054  0.8205 -1.5457  1.7107
 1424SOL     OW15907   3.823   0.249   9.486  0.1045 -0.0964  0.3051
 1424SOL    HW115908   3.734   0.268   9.457 -0.3102 -1.7742  0.4878
 1424SOL    HW215909   3.807   0.186   9.556 -0.1032  1.0285  1.2618
 1425SOL     OW15910   4.041   1.547   4.805  0.0823  0.0428 -0.0099
 1425SOL    HW115911   3.977   1.583   4.744  1.5578  1.7649 -0.5654
 1425SOL    HW215912   4.121   1.599   4.798  0.7349 -0.7625  1.4959
 1426SOL     OW15913   0.181   0.273   5.045 -0.1988 -0.1254  0.1175
 1426SOL    HW115914   0.124   0.240   5.114  0.1942  0.0052  0.5082
 1426SOL    HW215915   0.272   0.261   5.074 -0.1928  1.6982  0.9008
 1427SOL     OW15916   4.029   2.163  11.793  0.4901 -0.0943  0.2103
 1427SOL    HW115917   4.105   2.157  11.735 -0.6956  0.1051 -1.3844
 1427SOL    HW215918   4.064   2.137  11.878  1.4458  0.3982 -0.0219
 1428SOL     OW15919   4.364   0.136   1.962 -0.2039  0.0688  0.0224
 1428SOL    HW115920   4.446   0.087   1.970 -1.5961 -2.3146 -0.0269
 1428SOL    HW215921   4.360   0.170   2.051 -1.2684  0.3203 -0.1236
 1429SOL     OW15922   2.286   1.666   2.696  0.5482  0.1414  0.3245
 1429SOL    HW115923   2.356   1.647   2.759  0.7567  1.5219  0.5132
 1429SOL    HW215924   2.253   1.580   2.674  0.4576 -0.0360  1.1485
 1430SOL     OW15925   1.366   4.370   3.212  0.3963  0.3514 -0.0358
 1430SOL    HW115926   1.393   4.393   3.123  0.2558 -1.5647 -0.5613
 1430SOL    HW215927   1.410   4.285   3.218 -1.1837 -0.4993 -0.6371
 1431SOL     OW15928   4.484   2.363  11.073 -0.8208 -0.1659 -0.1577
 1431SOL    HW115929   4.533   2.286  11.043 -1.1930 -0.1384 -0.8485
 1431SOL    HW215930   4.557   2.424  11.075 -0.2026 -1.0068  2.3929
 1432SOL     OW15931   3.386   4.013   4.991  0.2408  0.3688 -0.5472
 1432SOL    HW115932   3.390   4.013   4.895  2.0105  0.2547 -0.4624
 1432SOL    HW215933   3.417   3.927   5.020  0.1701  0.3209 -0.6094
 1433SOL     OW15934   2.167   2.489  15.717 -0.3346  0.3112 -0.2649
 1433SOL    HW115935   2.185   2.446  15.801  2.6051  0.3744 -0.8947
 1433SOL    HW215936   2.170   2.581  15.743 -3.7047 -0.0452  1.4188
 1434SOL     OW15937   0.233   4.512   0.832 -0.1119 -0.2745  0.4209
 1434SOL    HW115938   0.177   4.559   0.770  0.4649  0.4801  0.4621
 1434SOL    HW215939   0.210   4.423   0.808 -2.0549  1.4964 -4.2830
 1435SOL     OW15940   1.932   1.590   4.355 -0.1801  0.3347  0.1665
 1435SOL    HW115941   1.879   1.663   4.388  0.3445  0.3863  0.8938
 1435SOL    HW215942   1.876   1.522   4.391  1.2722 -0.5152  0.8284
 1436SOL     OW15943   4.674   1.380   5.201  0.3911 -0.3553 -0.5491
 1436SOL    HW115944   4.629   1.314   5.253  1.3734  0.0185  0.7390
 1436SOL    HW215945   4.694   1.331   5.121 -0.7233 -1.3821 -0.2084
 1437SOL     OW15946   3.635   0.907   2.628 -0.0520 -0.5638 -0.1454
 1437SOL    HW115947   3.717   0.952   2.607  0.2722 -1.2308 -0.3328
 1437SOL    HW215948   3.659   0.819   2.600  0.2613 -0.4536 -0.2245
 1438SOL     OW15949   3.862   2.804  17.086 -0.0315 -0.4065  0.0443
 1438SOL    HW115950   3.800   2.845  17.146  0.8127  0.3255  0.4103
 1438SOL    HW215951   3.806   2.767  17.018  0.7456 -2.0524  0.2899
 1439SOL     OW15952   0.638   3.428   1.002  0.1509 -0.4303  0.0895
 1439SOL    HW115953   0.640   3.376   0.922 -1.3335  0.7662 -0.7182
 1439SOL    HW215954   0.733   3.426   1.011  0.1481  2.5663  0.7344
 1440SOL     OW15955   3.005   1.099  11.909 -0.3292  0.5381 -0.2482
 1440SOL    HW115956   2.923   1.135  11.942  0.4287  2.6344 -0.6970
 1440SOL    HW215957   2.979   1.047  11.833 -1.9498  0.4527  0.3723
 1441SOL     OW15958   0.009   2.651   0.872  0.1065  0.5927  0.0905
 1441SOL    HW115959   0.082   2.661   0.933 -0.1310  3.4229 -0.0855
 1441SOL    HW215960   4.670   2.658   0.927  0.4591 -1.0613  0.7920
 1442SOL     OW15961   2.113   2.317   2.229 -0.3565  0.2000  0.6136
 1442SOL    HW115962   2.115   2.353   2.317 -0.3133  0.3793  0.5399
 1442SOL    HW215963   2.064   2.235   2.238 -0.0999  0.0564  0.6995
 1443SOL     OW15964   0.884   1.155   8.333  0.2521 -0.8513  0.0900
 1443SOL    HW115965   0.801   1.107   8.339 -1.4708  2.0872 -0.6976
 1443SOL    HW215966   0.884   1.204   8.416 -1.1882 -0.6008 -0.0657
 1444SOL     OW15967   1.927   3.573   2.638 -0.4047  0.4833 -0.0273
 1444SOL    HW115968   1.981   3.645   2.670  0.0591  0.4379 -0.6905
 1444SOL    HW215969   1.869   3.560   2.712 -1.0373  1.3364 -0.3721
 1445SOL     OW15970   2.418   3.810   0.704  0.2718 -0.0001  0.3374
 1445SOL    HW115971   2.450   3.826   0.615  0.3002 -1.3970  0.0986
 1445SOL    HW215972   2.421   3.897   0.745 -1.9680  1.1904 -1.9766
 1446SOL     OW15973   1.712   3.961  11.999  0.2698 -0.0480 -0.2462
 1446SOL    HW115974   1.756   3.881  12.029  0.3495  1.2504  3.0666
 1446SOL    HW215975   1.622   3.934  11.981  0.7540 -0.5063 -2.0572
 1447SOL     OW15976   2.732   1.568   1.339 -0.2963 -0.3066  0.0752
 1447SOL    HW115977   2.736   1.524   1.254  1.5033 -0.2205  0.1002
 1447SOL    HW215978   2.643   1.547   1.368  0.2344 -0.8899  1.3049
 1448SOL     OW15979   3.757   1.746  12.735 -0.4676  0.2789 -0.4753
 1448SOL    HW115980   3.796   1.814  12.679 -2.3418  1.3793 -0.4616
 1448SOL    HW215981   3.837   1.722  12.781 -0.5701 -1.5570 -1.2682
 1449SOL     OW15982   4.119   4.041   6.706 -0.2335  0.3012 -0.2584
 1449SOL    HW115983   4.063   4.117   6.719  1.1716  1.6326 -2.0945
 1449SOL    HW215984   4.146   4.029   6.798 -2.2187 -4.3607 -0.2421
 1450SOL     OW15985   1.139   0.265   8.962  0.0620  0.1310  0.1543
 1450SOL    HW115986   1.196   0.189   8.953  0.8197  0.9293 -1.7572
 1450SOL    HW215987   1.101   0.239   9.046  0.2147 -0.9633 -0.1227
 1451SOL     OW15988   3.520   2.415   4.827  0.0592 -0.1737  0.6073
 1451SOL    HW115989   3.580   2.341   4.819 -0.2859 -0.7236  3.1584
 1451SOL    HW215990   3.576   2.485   4.861  1.7045 -1.3525  0.3567
 1452SOL     OW15991   2.987   0.010   8.434  0.4532  0.1500 -0.3237
 1452SOL    HW115992   3.013   0.101   8.426  4.1175 -0.7925  0.8676
 1452SOL    HW215993   3.063   4.724   8.487 -0.6006  0.1036  1.1608
 1453SOL     OW15994   2.220   3.378  17.561 -0.6376  0.0823 -0.0277
 1453SOL    HW115995   2.260   3.425  17.487  2.0782 -2.7332 -0.3410
 1453SOL    HW215996   2.224   3.288  17.530  1.1292  0.8231 -1.9971
 1454SOL     OW15997   1.744   0.293   5.377  0.2084  0.1320 -0.4089
 1454SOL    HW115998   1.805   0.359   5.408  2.4273 -1.6225 -1.0120
 1454SOL    HW215999   1.812   0.243   5.331 -0.0792  2.1387 -2.9877
 1455SOL     OW16000   1.482   0.931   7.038  0.4847  0.2217  0.0758
 1455SOL    HW116001   1.564   0.888   7.013  0.1306 -1.5476  2.0015
 1455SOL    HW216002   1.514   0.989   7.106 -1.6165 -0.4898  1.6630
 1456SOL     OW16003   2.453   2.340   5.612  0.6222  0.6993 -0.7252
 1456SOL    HW116004   2.430   2.421   5.568 -1.5616  1.2677  1.4325
 1456SOL    HW216005   2.408   2.276   5.556  2.2394 -0.8762 -0.2530
 1457SOL     OW16006   2.807   4.296   6.377  0.5659  0.1457  0.5711
 1457SOL    HW116007   2.889   4.317   6.422  1.2158 -3.2398  1.0412
 1457SOL    HW216008   2.784   4.213   6.419 -1.1461 -1.2750 -3.1694
 1458SOL     OW16009   1.785   2.163  12.224 -0.5929  0.5306 -0.3997
 1458SOL    HW116010   1.841   2.193  12.152  1.0432  0.1424  0.7000
 1458SOL    HW216011   1.784   2.069  12.210 -2.5157  0.3954  0.7074
 1459SOL     OW16012   3.881   1.407   4.962 -0.0435  0.1735  0.5370
 1459SOL    HW116013   3.932   1.475   4.919 -0.8117 -0.2959 -1.0947
 1459SOL    HW216014   3.950   1.341   4.966  0.9314  1.1781  0.2897
 1460SOL     OW16015   2.923   4.338   2.153 -0.1481  0.2120  0.1134
 1460SOL    HW116016   2.876   4.367   2.231 -0.5865  1.0350 -0.4582
 1460SOL    HW216017   2.955   4.424   2.125 -2.5255  0.6446 -1.2841
 1461SOL     OW16018   4.436   2.049   3.605  0.1940  0.3234  0.5864
 1461SOL    HW116019   4.395   2.097   3.534  1.7651 -0.0688 -0.6008
 1461SOL    HW216020   4.517   2.025   3.560 -0.7283 -0.1581 -0.8215
 1462SOL     OW16021   2.247   4.321  15.729 -0.6558 -0.0843 -0.0718
 1462SOL    HW116022   2.198   4.349  15.806  1.1133 -1.8204  1.6508
 1462SOL    HW216023   2.330   4.358  15.756 -0.4089 -0.1227 -0.7663
 1463SOL     OW16024   2.892   4.469   0.888 -0.0566  0.0980  0.0564
 1463SOL    HW116025   2.959   4.505   0.946 -1.1370  1.5726  0.4007
 1463SOL    HW216026   2.837   4.541   0.857  0.8544  1.5137  1.6929
 1464SOL     OW16027   4.045   0.021   6.420  0.5827 -0.1119  0.2566
 1464SOL    HW116028   3.959   4.720   6.419 -0.1869  1.5565 -0.3921
 1464SOL    HW216029   4.076   4.731   6.335 -0.7799  1.7434 -0.8544
 1465SOL     OW16030   4.671   1.886   6.511 -0.2296 -0.2683  0.0119
 1465SOL    HW116031   4.732   1.935   6.566  0.5949 -0.2564 -0.9077
 1465SOL    HW216032   4.610   1.952   6.479  1.1244  1.7018  1.5165
 1466SOL     OW16033   2.110   0.040   8.857  0.1606  0.3216 -0.3964
 1466SOL    HW116034   2.091   0.067   8.767 -0.4077  1.3583  0.0380
 1466SOL    HW216035   2.035   4.722   8.873  0.5973 -0.3411 -0.7137
 1467SOL     OW16036   2.012   1.168   2.092  0.4373  0.4413 -0.2529
 1467SOL    HW116037   2.006   1.254   2.133 -0.6421  0.0615  0.4052
 1467SOL    HW216038   2.106   1.153   2.100  0.4374  0.6301  0.1013
 1468SOL     OW16039   2.163   3.722  16.226  0.5503  0.4165 -0.3231
 1468SOL    HW116040   2.122   3.641  16.255 -0.4413  0.8732 -0.4460
 1468SOL    HW216041   2.256   3.701  16.222  0.3951 -0.1829 -0.7363
 1469SOL     OW16042   3.417   4.700   1.329  0.8020  0.0440 -0.6503
 1469SOL    HW116043   3.418   4.631   1.394  0.6299  1.4836  0.8832
 1469SOL    HW216044   3.508   4.698   1.299  0.5858  1.4906 -1.4463
 1470SOL     OW16045   2.330   4.185   4.563  0.4171  0.8162  0.7124
 1470SOL    HW116046   2.276   4.216   4.637 -3.3376 -1.3196 -1.1090
 1470SOL    HW216047   2.292   4.099   4.541 -0.1487  1.4762 -0.8501
 1471SOL     OW16048   4.685   1.318   2.948  0.3028 -0.4534 -0.4800
 1471SOL    HW116049   0.033   1.355   2.958 -0.7075  1.2419  1.8255
 1471SOL    HW216050   4.705   1.226   2.966  1.0609 -0.6447 -2.2204
 1472SOL     OW16051   3.275   0.049   4.268  0.6942  0.1260 -0.7461
 1472SOL    HW116052   3.327   4.710   4.248  1.4336  0.3495  0.2745
 1472SOL    HW216053   3.242   0.069   4.181 -0.6159 -0.2079 -0.3251
 1473SOL     OW16054   2.220   2.523  16.272  0.7529 -0.3849 -0.2393
 1473SOL    HW116055   2.299   2.508  16.220 -1.8673  1.4669 -4.8354
 1473SOL    HW216056   2.245   2.590  16.335 -0.6981 -0.2840  0.2412
 1474SOL     OW16057   0.370   2.742   8.466 -0.0077  0.2806  0.1706
 1474SOL    HW116058   0.389   2.688   8.389  1.1168  1.0312 -0.0834
 1474SOL    HW216059   0.409   2.827   8.443 -0.6462  0.7159  0.6862
 1475SOL     OW16060   1.962   3.979   1.843  0.4859 -0.6095  0.3648
 1475SOL    HW116061   2.029   4.031   1.799 -0.7439  1.1759  0.5832
 1475SOL    HW216062   1.890   3.989   1.781  0.3280 -0.2810  0.6019
 1476SOL     OW16063   0.693   0.545   3.360 -0.0825 -0.2568  0.3111
 1476SOL    HW116064   0.780   0.559   3.399 -0.5807 -0.3767  1.4603
 1476SOL    HW216065   0.720   0.556   3.269 -0.7432  1.5252  0.3458
 1477SOL     OW16066   2.259   2.743   3.294 -0.1626 -0.2720  0.1269
 1477SOL    HW116067   2.294   2.744   3.205  2.1644  3.2841  1.0803
 1477SOL    HW216068   2.254   2.648   3.307 -0.3217 -0.6310 -2.5589
 1478SOL     OW16069   4.406   3.160   5.307  0.2584 -0.1646  0.2503
 1478SOL    HW116070   4.347   3.091   5.337  0.5124 -0.1418  0.8111
 1478SOL    HW216071   4.482   3.102   5.316 -0.7861 -1.2825  2.0336
 1479SOL     OW16072   3.574   2.264   5.443  0.6841 -0.1325  0.2292
 1479SOL    HW116073   3.576   2.196   5.511 -0.6680 -0.1615  0.2347
 1479SOL    HW216074   3.628   2.224   5.374  2.1470  1.3447  0.5355
 1480SOL     OW16075   0.843   1.868   9.343 -0.4260 -0.0280  0.0958
 1480SOL    HW116076   0.918   1.927   9.344 -0.1506 -0.3633 -0.5890
 1480SOL    HW216077   0.826   1.858   9.436  0.6483 -2.3343  0.0284
 1481SOL     OW16078   0.544   0.082   2.743 -0.3140  0.0779  0.2098
 1481SOL    HW116079   0.459   0.085   2.786 -0.2196  0.4272  0.3756
 1481SOL    HW216080   0.527   0.163   2.695  0.4834 -0.1787 -0.5153
 1482SOL     OW16081   2.827   3.530   9.844 -0.1132 -0.4942 -0.0828
 1482SOL    HW116082   2.856   3.529   9.753 -1.7096 -0.2730 -0.5924
 1482SOL    HW216083   2.769   3.606   9.839  1.8815  0.9858 -0.8767
 1483SOL     OW16084   4.181   3.530   8.633  0.3587 -0.5586  0.1955
 1483SOL    HW116085   4.195   3.471   8.558  0.7634 -0.5359  0.2564
 1483SOL    HW216086   4.247   3.499   8.695 -1.6529 -2.2772  1.4712
 1484SOL     OW16087   3.488   0.935   2.325 -0.3465 -0.1626  0.2160
 1484SOL    HW116088   3.467   0.886   2.245 -0.0156 -1.0649  0.6839
 1484SOL    HW216089   3.577   0.902   2.327 -0.1868  0.1174 -1.9959
 1485SOL     OW16090   4.383   0.507   7.506  0.1508 -0.4148 -0.1237
 1485SOL    HW116091   4.382   0.472   7.417  0.0549 -1.7187  0.3923
 1485SOL    HW216092   4.403   0.431   7.561 -1.1185 -0.5046  0.2086
 1486SOL     OW16093   2.844   3.891   8.440 -0.2539 -0.1369 -0.1400
 1486SOL    HW116094   2.886   3.977   8.432 -0.1484 -0.2477 -0.7345
 1486SOL    HW216095   2.753   3.922   8.443  0.3778  1.1131  5.3088
 1487SOL     OW16096   0.296   2.393  10.740  0.8165  0.0412 -0.2317
 1487SOL    HW116097   0.226   2.448  10.775  0.5343 -0.2317 -0.3650
 1487SOL    HW216098   0.365   2.393  10.807  1.3036  1.5668 -0.7471
 1488SOL     OW16099   1.604   1.920   2.878  0.1529  0.2725 -0.0945
 1488SOL    HW116100   1.636   1.996   2.927 -0.2167  0.2246  0.2219
 1488SOL    HW216101   1.684   1.867   2.877  1.2978  2.0405 -3.5096
 1489SOL     OW16102   2.878   0.167   3.601  0.2941 -0.0297 -0.1036
 1489SOL    HW116103   2.915   0.232   3.541 -0.9200 -0.8688 -1.7220
 1489SOL    HW216104   2.875   0.091   3.542  0.8272 -0.4103  0.3536
 1490SOL     OW16105   0.480   4.482  15.429 -0.2055  0.4264  0.0720
 1490SOL    HW116106   0.550   4.481  15.364  0.7550  0.3095  1.1019
 1490SOL    HW216107   0.442   4.396  15.413  0.6294  0.2542 -1.0235
 1491SOL     OW16108   0.312   3.118   4.874 -0.1593  0.1854  0.2069
 1491SOL    HW116109   0.247   3.167   4.824 -0.2549 -0.6689 -0.5039
 1491SOL    HW216110   0.257   3.093   4.948 -0.4671 -1.3021 -0.5293
 1492SOL     OW16111   2.396   0.011   4.860  0.0598 -0.0153 -0.0396
 1492SOL    HW116112   2.343   0.077   4.815 -0.0145 -1.0167 -1.4348
 1492SOL    HW216113   2.484   0.024   4.825  0.1146 -2.2180 -0.7124
 1493SOL     OW16114   3.945   1.875  12.246 -0.0902 -0.2448  0.3365
 1493SOL    HW116115   3.906   1.849  12.162 -0.8956  0.7827  0.3930
 1493SOL    HW216116   3.894   1.825  12.310 -0.1513 -1.4296 -0.6413
 1494SOL     OW16117   0.929   1.979   6.540  0.5864  0.1527  0.2414
 1494SOL    HW116118   0.945   2.064   6.581 -0.9104  0.5272  0.0725
 1494SOL    HW216119   0.861   1.999   6.476  0.0268  0.2282  0.8517
 1495SOL     OW16120   2.133   4.160   5.963  0.8284  0.0311  0.0260
 1495SOL    HW116121   2.072   4.202   5.902  1.9487 -0.5176 -1.4322
 1495SOL    HW216122   2.213   4.212   5.955  0.7699  0.1917  0.4497
 1496SOL     OW16123   2.645   0.069   4.696  0.5987 -0.1489  0.3135
 1496SOL    HW116124   2.683   0.157   4.693  1.6677 -0.6743 -1.5920
 1496SOL    HW216125   2.702   0.035   4.766  0.7856  0.1357  0.2997
 1497SOL     OW16126   1.389   1.150   3.745 -0.2498  0.2387  0.1428
 1497SOL    HW116127   1.340   1.127   3.667 -0.9129 -2.2964  1.3276
 1497SOL    HW216128   1.368   1.083   3.810  1.0245  0.0035  0.3235
 1498SOL     OW16129   2.037   4.164  15.913 -0.0088  0.2437  0.2973
 1498SOL    HW116130   2.093   4.234  15.948  0.0198  1.0244 -1.2981
 1498SOL    HW216131   2.050   4.095  15.977  3.7772  0.5484 -0.1509
 1499SOL     OW16132   3.111   0.773   7.241 -0.1651  0.1247  0.3949
 1499SOL    HW116133   3.151   0.691   7.269  0.7112  0.1936 -0.6551
 1499SOL    HW216134   3.020   0.753   7.261 -0.2947  1.7769  1.5438
 1500SOL     OW16135   3.699   4.266   6.225  0.2347 -0.1392 -0.5041
 1500SOL    HW116136   3.761   4.339   6.226  0.4841 -0.3425 -1.0667
 1500SOL    HW216137   3.741   4.207   6.288  2.0171  0.1028 -1.4749
 1501SOL     OW16138   2.110   4.238  14.807 -0.3558 -0.0917 -0.2533
 1501SOL    HW116139   2.047   4.276  14.746  0.2525 -2.4789 -2.3612
 1501SOL    HW216140   2.068   4.153  14.817 -0.0953 -0.4093 -1.7573
 1502SOL     OW16141   2.471   3.864  11.437  0.2430  0.4876  0.3453
 1502SOL    HW116142   2.420   3.886  11.515 -0.4546 -0.5218  0.1675
 1502SOL    HW216143   2.559   3.860  11.475  1.0196  0.6804 -1.4397
 1503SOL     OW16144   1.546   1.330  14.008 -0.0125  0.2907  0.1252
 1503SOL    HW116145   1.488   1.270  13.961  0.6915 -0.7530  0.5745
 1503SOL    HW216146   1.586   1.261  14.062 -0.3288  0.5153  0.6424
 1504SOL     OW16147   2.275   0.583   5.399 -0.2726  0.5173 -0.0306
 1504SOL    HW116148   2.367   0.564   5.415 -0.8652 -1.5548  0.8183
 1504SOL    HW216149   2.245   0.496   5.374  0.1061  0.7518 -1.2985
 1505SOL     OW16150   1.830   3.985   8.986  0.0041 -0.0042  0.0773
 1505SOL    HW116151   1.887   3.988   9.063 -1.0912 -0.2759  0.9088
 1505SOL    HW216152   1.848   3.900   8.946  1.5931  0.4371 -0.1251
 1506SOL     OW16153   0.855   4.123   3.278 -0.7918 -0.2853  0.5973
 1506SOL    HW116154   0.914   4.131   3.353 -0.5775  0.1427  0.3836
 1506SOL    HW216155   0.901   4.048   3.241  1.0369  0.9373  0.3966
 1507SOL     OW16156   0.419   1.388   3.035  0.4774  0.4674  0.0311
 1507SOL    HW116157   0.507   1.426   3.031  0.5780  0.1240 -0.9639
 1507SOL    HW216158   0.431   1.351   3.122  2.2407 -1.3570 -0.9845
 1508SOL     OW16159   3.116   1.080   0.538  0.0469  0.7090  0.2702
 1508SOL    HW116160   3.060   1.064   0.614 -3.6132  0.2239 -2.5062
 1508SOL    HW216161   3.197   1.034   0.560  1.7506  3.2271 -0.8939
 1509SOL     OW16162   2.161   0.655   7.242 -0.1973 -0.2645 -0.0128
 1509SOL    HW116163   2.227   0.603   7.196  0.3874  1.1084 -0.7197
 1509SOL    HW216164   2.083   0.649   7.188 -0.1897 -0.9103  0.0397
 1510SOL     OW16165   0.016   0.381   7.059 -0.3174 -0.3744  0.4528
 1510SOL    HW116166   0.091   0.439   7.076 -1.4520  0.6600  2.0179
 1510SOL    HW216167   0.004   0.333   7.141  0.1127 -2.4799 -0.7412
 1511SOL     OW16168   0.191   3.489   3.956  0.5218 -0.0205  0.4936
 1511SOL    HW116169   0.266   3.488   4.016  1.4589 -2.6356 -0.7342
 1511SOL    HW216170   0.222   3.563   3.905 -0.2148  0.5770  0.9183
 1512SOL     OW16171   2.818   4.384   1.793 -0.0823 -0.4051  0.2559
 1512SOL    HW116172   2.768   4.321   1.846  1.0675 -1.3610  0.1999
 1512SOL    HW216173   2.782   4.470   1.815  1.0853 -0.2050  1.3912
 1513SOL     OW16174   3.009   2.767   7.278 -0.6836  0.2261 -0.3776
 1513SOL    HW116175   3.066   2.694   7.252  0.1857  1.1477 -1.0207
 1513SOL    HW216176   3.076   2.834   7.286  1.9182 -2.2201 -1.7579
 1514SOL     OW16177   3.003   0.527  14.301  0.2158  0.0917  0.0238
 1514SOL    HW116178   2.975   0.435  14.298  1.6684 -0.3004 -1.6616
 1514SOL    HW216179   2.933   0.575  14.257 -0.9253  0.3709  2.1663
 1515SOL     OW16180   2.608   2.688   5.613  0.3159 -0.0885  0.3249
 1515SOL    HW116181   2.554   2.766   5.619 -0.8389 -0.9966  1.8541
 1515SOL    HW216182   2.697   2.716   5.634  1.0432 -1.3442 -1.0632
 1516SOL     OW16183   0.577   4.563   4.048  0.1498  0.0200 -0.3078
 1516SOL    HW116184   0.520   4.633   4.017 -0.7616 -0.2638  0.7425
 1516SOL    HW216185   0.619   4.542   3.964  2.8359  0.4527  0.9332
 1517SOL     OW16186   0.269   3.025   3.371 -0.1261 -0.5229  0.0225
 1517SOL    HW116187   0.233   2.950   3.418 -0.6078  0.2257  0.8498
 1517SOL    HW216188   0.227   3.010   3.286  1.4313  0.6144 -0.9426
 1518SOL     OW16189   0.122   3.913  17.659 -0.1198 -0.2958 -0.2985
 1518SOL    HW116190   0.138   3.822  17.633 -0.4471 -0.6550  0.7505
 1518SOL    HW216191   0.200   3.956  17.625  1.4125 -2.9906 -0.1963
 1519SOL     OW16192   3.831   2.854   5.832 -0.4754  0.2710  1.1100
 1519SOL    HW116193   3.790   2.786   5.779  2.4138  0.3562 -1.2495
 1519SOL    HW216194   3.804   2.940   5.801 -0.6101 -0.9037 -1.9458
 1520SOL     OW16195   3.735   1.912   5.764  0.4035 -0.1274 -0.1158
 1520SOL    HW116196   3.792   1.926   5.688  0.2630  1.4855  0.0833
 1520SOL    HW216197   3.698   1.827   5.740  1.3482 -1.4596  3.1920
 1521SOL     OW16198   1.940   2.316   1.612  0.2407  0.1417 -0.3280
 1521SOL    HW116199   2.010   2.310   1.677  1.0456  1.1917 -1.0902
 1521SOL    HW216200   1.961   2.236   1.565  2.3447  0.9725 -0.8033
 1522SOL     OW16201   1.829   2.914  13.438 -0.5360  0.2003 -0.1054
 1522SOL    HW116202   1.878   2.919  13.356  0.4159 -0.7120  0.4106
 1522SOL    HW216203   1.792   2.827  13.422 -1.1557  0.4712 -0.1566
 1523SOL     OW16204   3.733   0.841   8.047  0.2929 -0.3837  0.3555
 1523SOL    HW116205   3.640   0.859   8.060  0.4486  0.0394  0.8902
 1523SOL    HW216206   3.769   0.925   8.018 -2.0238  0.6782  0.5378
 1524SOL     OW16207   4.058   2.576   3.631  0.2052 -0.4982 -0.0227
 1524SOL    HW116208   4.083   2.665   3.605 -0.3661  0.1040  1.4257
 1524SOL    HW216209   3.968   2.602   3.652  0.4389  0.6237 -0.4206
 1525SOL     OW16210   3.835   0.137   2.096 -0.6848 -0.2495  0.2347
 1525SOL    HW116211   3.761   0.193   2.071  1.0469  1.7129 -0.4807
 1525SOL    HW216212   3.836   0.072   2.026 -0.8523 -1.7613  1.6410
 1526SOL     OW16213   2.388   0.917  10.609  0.1333  0.2125 -0.5746
 1526SOL    HW116214   2.340   0.968  10.544  0.1636 -0.3475 -1.0348
 1526SOL    HW216215   2.454   0.984  10.624  0.1471 -0.2582  1.4873
 1527SOL     OW16216   3.557   4.257   7.075 -0.1909  0.3049 -0.1869
 1527SOL    HW116217   3.512   4.189   7.126  1.2374  0.7695  1.6790
 1527SOL    HW216218   3.528   4.237   6.986  1.4918 -0.5535 -0.5307
 1528SOL     OW16219   1.223   0.842   9.492 -0.2578 -0.4490  0.1766
 1528SOL    HW116220   1.240   0.874   9.403  1.7176  0.5523  0.9080
 1528SOL    HW216221   1.313   0.834   9.523  0.0055 -2.3815 -1.1197
 1529SOL     OW16222   4.568   0.633   0.669 -0.2132  0.0641  0.0154
 1529SOL    HW116223   4.565   0.696   0.741 -0.6696 -0.0333  0.0831
 1529SOL    HW216224   4.652   0.653   0.628  0.0342  0.4605  0.7139
 1530SOL     OW16225   3.018   4.137   3.404 -0.3823  0.1183 -0.2844
 1530SOL    HW116226   2.960   4.154   3.478 -1.9536 -2.1508 -1.0157
 1530SOL    HW216227   2.959   4.094   3.342 -0.2188  0.9643 -1.0247
 1531SOL     OW16228   1.997   0.440   4.890 -0.3794  0.7341  0.7653
 1531SOL    HW116229   1.975   0.529   4.865  0.2717  1.2782  2.1609
 1531SOL    HW216230   1.963   0.436   4.979  0.7307 -4.3342  0.9613
 1532SOL     OW16231   4.197   1.409   4.226  0.1422 -0.1652 -0.4338
 1532SOL    HW116232   4.269   1.421   4.289  0.6683 -1.2939 -0.8145
 1532SOL    HW216233   4.138   1.361   4.284  1.4035  2.2754  2.9303
 1533SOL     OW16234   3.304   4.627  16.458 -0.3519  0.0728 -0.4199
 1533SOL    HW116235   3.351   4.683  16.520 -0.5238  0.8016 -0.9499
 1533SOL    HW216236   3.361   4.551  16.449 -1.8436 -1.1200  0.0403
 1534SOL     OW16237   1.589   0.678   6.587  0.5183 -0.2710  0.3246
 1534SOL    HW116238   1.545   0.709   6.509 -0.7074 -2.0757  0.2967
 1534SOL    HW216239   1.572   0.584   6.586 -0.8271 -0.0032 -0.9849
 1535SOL     OW16240   1.096   0.715   4.188  0.6369  0.4254 -0.1990
 1535SOL    HW116241   1.029   0.696   4.253  0.9165  1.4126  0.3826
 1535SOL    HW216242   1.040   0.708   4.111  0.3336  1.5955 -0.0921
 1536SOL     OW16243   2.459   4.734   6.538  0.0977  0.2986  0.0685
 1536SOL    HW116244   2.509   4.669   6.489 -0.2532  0.3340 -0.3424
 1536SOL    HW216245   2.381   4.683   6.560 -0.0518  0.2991 -0.4669
 1537SOL     OW16246   1.993   4.453   7.747  0.6547  0.3071 -0.1819
 1537SOL    HW116247   1.943   4.371   7.735 -0.0903  0.7212  0.0806
 1537SOL    HW216248   2.017   4.453   7.840 -0.4241 -2.5090  0.1163
 1538SOL     OW16249   1.404   4.528   2.579 -0.3429 -0.2606  0.0288
 1538SOL    HW116250   1.436   4.617   2.595  2.4365 -1.0575 -1.0137
 1538SOL    HW216251   1.392   4.493   2.668  2.7647 -0.2612  0.4430
 1539SOL     OW16252   1.198   3.388  15.366 -0.0057 -0.2947 -0.0876
 1539SOL    HW116253   1.259   3.357  15.299  0.0497 -0.1921 -0.0842
 1539SOL    HW216254   1.197   3.327  15.439 -1.5204 -0.7108 -0.4401
 1540SOL     OW16255   3.935   2.865   4.408 -0.0441 -0.4776  0.2805
 1540SOL    HW116256   3.848   2.890   4.377  0.0819 -0.0051  0.3155
 1540SOL    HW216257   3.940   2.781   4.364  2.1223 -0.0069 -0.3455
 1541SOL     OW16258   1.732   0.116   9.572 -0.3277  0.1058 -0.1600
 1541SOL    HW116259   1.825   0.097   9.566 -0.0978  0.8896  1.0767
 1541SOL    HW216260   1.711   0.074   9.488 -0.7139  2.6489 -1.3233
 1542SOL     OW16261   1.939   2.537  12.678 -0.2180  0.2141  0.4062
 1542SOL    HW116262   1.894   2.619  12.700 -0.1768  0.5444 -0.7429
 1542SOL    HW216263   1.926   2.488  12.759  1.4110  1.8498  1.6907
 1543SOL     OW16264   0.054   2.349   8.293 -0.7652  0.4602 -0.9236
 1543SOL    HW116265   0.056   2.321   8.201  1.0964 -2.7266  0.0636
 1543SOL    HW216266   0.014   2.272   8.332 -1.4591  1.6383  0.6785
 1544SOL     OW16267   1.719   3.331   5.319 -0.1022  0.2241 -0.7715
 1544SOL    HW116268   1.637   3.359   5.360  0.4278 -2.7053  2.2822
 1544SOL    HW216269   1.738   3.251   5.369  2.2034  0.7462 -0.8330
 1545SOL     OW16270   2.656   2.246   0.328 -0.0538  0.3629  0.1089
 1545SOL    HW116271   2.659   2.175   0.265 -1.7387  0.0031  0.4481
 1545SOL    HW216272   2.677   2.202   0.410 -2.8446  1.3820  1.3571
 1546SOL     OW16273   2.189   0.027  16.363 -0.3661  0.3643 -0.3045
 1546SOL    HW116274   2.147   4.732  16.284 -0.6019 -0.6565  0.2675
 1546SOL    HW216275   2.279   0.005  16.337  0.1609  0.7606  1.1894
 1547SOL     OW16276   0.230   4.113   5.261  0.2506  0.9011 -0.1407
 1547SOL    HW116277   0.142   4.075   5.252  0.7863 -0.3733  0.0648
 1547SOL    HW216278   0.207   4.206   5.251 -0.3930  0.7871  0.2138
 1548SOL     OW16279   3.675   0.796  11.469 -0.1492  0.1786  0.2677
 1548SOL    HW116280   3.709   0.852  11.538  1.3808 -1.0004  0.4563
 1548SOL    HW216281   3.668   0.714  11.519  3.1390 -1.1335 -1.4407
 1549SOL     OW16282   3.385   3.754   3.661  0.1192  0.3760 -0.2958
 1549SOL    HW116283   3.336   3.826   3.620 -0.6434 -0.5979 -1.0921
 1549SOL    HW216284   3.473   3.755   3.625 -0.6110 -0.8579 -2.0928
 1550SOL     OW16285   3.155   2.822   8.238  0.5059 -0.1151 -0.4557
 1550SOL    HW116286   3.139   2.843   8.146 -0.2684 -2.1124 -0.7731
 1550SOL    HW216287   3.217   2.884   8.277 -0.0516 -0.1613  0.5115
 1551SOL     OW16288   3.480   3.172  14.688  0.4820 -0.8267  0.4676
 1551SOL    HW116289   3.499   3.105  14.754 -0.5927 -1.5181  0.0604
 1551SOL    HW216290   3.541   3.139  14.621 -0.3533 -2.3962  0.4915
 1552SOL     OW16291   4.118   4.121  10.938 -0.1171 -0.1307  0.2994
 1552SOL    HW116292   4.143   4.045  10.886  2.2516 -0.5506  2.0522
 1552SOL    HW216293   4.106   4.084  11.025 -2.0692  0.8514  0.4570
 1553SOL     OW16294   0.476   1.320   1.691 -1.1299 -0.1350  0.0422
 1553SOL    HW116295   0.421   1.394   1.664  0.3643  0.9671 -0.0066
 1553SOL    HW216296   0.412   1.251   1.705  0.6521 -1.0483  3.7458
 1554SOL     OW16297   1.787   4.194  14.251 -0.1316 -0.2399 -0.8490
 1554SOL    HW116298   1.774   4.235  14.336 -0.5275 -0.6443 -0.7123
 1554SOL    HW216299   1.762   4.265  14.192 -0.1566 -1.2915 -2.1032
 1555SOL     OW16300   1.017   2.119   3.677  0.1834 -0.2057 -0.3112
 1555SOL    HW116301   1.007   2.160   3.591 -0.4374 -1.5435 -0.8587
 1555SOL    HW216302   1.055   2.036   3.649  1.0933 -0.3664  1.4011
 1556SOL     OW16303   0.480   4.256   8.678  0.3687  0.0421 -0.2429
 1556SOL    HW116304   0.576   4.249   8.678  0.6582  3.5542 -3.2459
 1556SOL    HW216305   0.455   4.193   8.610  0.5947  0.3580 -0.6213
 1557SOL     OW16306   0.296   1.932   4.790  0.3404 -0.2799  0.3430
 1557SOL    HW116307   0.235   1.977   4.732  1.1754  0.8188  0.3057
 1557SOL    HW216308   0.347   2.006   4.823 -0.2854  0.4118 -0.2418
 1558SOL     OW16309   2.195   3.725   7.267  0.1103  0.1168 -0.1731
 1558SOL    HW116310   2.114   3.756   7.307  0.2196  1.4530 -0.9914
 1558SOL    HW216311   2.228   3.806   7.228  0.0953 -0.4065 -1.2806
 1559SOL     OW16312   2.792   2.615   2.945 -0.8568  0.0024 -0.0926
 1559SOL    HW116313   2.700   2.631   2.964 -0.9834  0.8647 -1.4237
 1559SOL    HW216314   2.786   2.564   2.864  1.2291 -0.9616  0.3497
 1560SOL     OW16315   2.839   3.058   2.451  0.3974 -0.2669 -0.3649
 1560SOL    HW116316   2.755   3.054   2.406  1.4507  0.0649 -2.3688
 1560SOL    HW216317   2.873   3.143   2.421  0.2416 -0.1231 -0.1333
 1561SOL     OW16318   0.675   0.966   8.613 -0.0900 -0.0310  0.1311
 1561SOL    HW116319   0.695   0.891   8.668 -2.3858 -2.0287 -1.7460
 1561SOL    HW216320   0.749   0.950   8.555 -1.4305  1.3578 -1.9790
 1562SOL     OW16321   2.068   2.675   5.167 -0.2495 -0.0107  0.4131
 1562SOL    HW116322   2.108   2.734   5.104  0.6483  0.0329  1.0252
 1562SOL    HW216323   2.065   2.591   5.121 -1.6714  0.5356 -0.5022
 1563SOL     OW16324   1.765   1.293   4.119  0.2358 -0.4299 -0.0057
 1563SOL    HW116325   1.787   1.201   4.133  1.6131 -0.2013 -0.6957
 1563SOL    HW216326   1.741   1.327   4.206 -0.2740  0.0186 -0.3255
 1564SOL     OW16327   1.148   0.049  14.197  0.0395  0.4392 -0.1832
 1564SOL    HW116328   1.076   0.029  14.257  0.6096 -1.1783 -0.0379
 1564SOL    HW216329   1.156   0.144  14.207 -0.7272  0.4838 -0.0442
 1565SOL     OW16330   2.429   2.838  14.883 -0.2572 -0.4996 -0.3312
 1565SOL    HW116331   2.367   2.766  14.891 -0.0487 -0.9261 -2.5244
 1565SOL    HW216332   2.377   2.895  14.826 -0.7914 -0.3785  0.2782
 1566SOL     OW16333   3.679   1.974  13.432  0.2261  0.0643 -0.0657
 1566SOL    HW116334   3.674   1.889  13.476 -0.5055 -0.1993 -0.6839
 1566SOL    HW216335   3.697   1.939  13.345 -0.0400  0.5032 -0.2912
 1567SOL     OW16336   4.277   1.535  17.190  0.3377 -0.5283  0.6377
 1567SOL    HW116337   4.265   1.515  17.098 -1.0139 -0.7593  0.8562
 1567SOL    HW216338   4.243   1.458  17.235 -0.3863 -0.2717  0.5319
 1568SOL     OW16339   3.522   0.004   3.375  0.0795 -0.1662 -0.0919
 1568SOL    HW116340   3.617   4.731   3.375  0.0926 -0.0761  0.0935
 1568SOL    HW216341   3.498   4.671   3.317 -0.4500 -0.5320  0.5891
 1569SOL     OW16342   0.376   3.930  14.834  1.2768 -0.0400  0.2470
 1569SOL    HW116343   0.304   3.987  14.862  0.5966 -1.3824  1.2236
 1569SOL    HW216344   0.438   3.943  14.906  1.5147 -2.0347  0.3844
 1570SOL     OW16345   1.468   0.330  10.640  0.0950 -0.1109 -0.1051
 1570SOL    HW116346   1.513   0.339  10.555 -0.0072 -0.1420 -0.1620
 1570SOL    HW216347   1.507   0.245  10.657  0.8113  0.2239 -0.0458
 1571SOL     OW16348   3.770   0.733   1.691 -0.1895  0.0250  0.5644
 1571SOL    HW116349   3.681   0.758   1.714  0.0568  2.4042 -1.1023
 1571SOL    HW216350   3.783   0.758   1.599  0.9590  0.8806  0.9601
 1572SOL     OW16351   2.367   3.353   8.565  0.2408 -0.0527 -0.3910
 1572SOL    HW116352   2.298   3.286   8.572 -0.5048  0.8251  0.5866
 1572SOL    HW216353   2.428   3.296   8.519  0.8333 -0.3820  0.8005
 1573SOL     OW16354   0.172   3.348  15.486  0.1103  0.2058  0.2259
 1573SOL    HW116355   0.157   3.343  15.581  0.4114 -0.0355  0.2647
 1573SOL    HW216356   0.193   3.255  15.474  1.7611  0.3510  1.9608
 1574SOL     OW16357   1.462   2.924   3.240  0.0621  0.5759 -0.4752
 1574SOL    HW116358   1.425   2.856   3.296  2.9518 -3.0062 -2.9693
 1574SOL    HW216359   1.515   2.873   3.180 -0.0747 -1.2813  0.9837
 1575SOL     OW16360   2.865   3.775  14.465  0.0548 -0.1364 -0.0940
 1575SOL    HW116361   2.776   3.807  14.479  0.0879 -0.3197  0.5451
 1575SOL    HW216362   2.906   3.843  14.412  1.1039 -0.1765  0.6584
 1576SOL     OW16363   1.394   2.537   0.269 -0.2029  0.0024  0.1595
 1576SOL    HW116364   1.338   2.607   0.234  0.1733 -0.7285 -1.9051
 1576SOL    HW216365   1.367   2.524   0.360  0.4887  0.2260  0.3987
 1577SOL     OW16366   4.713   3.726   7.065  0.3441  0.0233 -0.2658
 1577SOL    HW116367   4.618   3.714   7.072  0.7366 -2.4267  0.7826
 1577SOL    HW216368   0.008   3.704   7.151 -0.6227  1.6475  0.5552
 1578SOL     OW16369   2.151   1.328   1.807 -0.6468  0.7348 -0.2218
 1578SOL    HW116370   2.138   1.356   1.898  1.7547  1.0292  0.0350
 1578SOL    HW216371   2.066   1.286   1.804 -0.6473  0.9349 -2.7415
 1579SOL     OW16372   4.444   1.868   5.687  1.0999 -0.0725  0.3541
 1579SOL    HW116373   4.506   1.921   5.738 -0.0751  1.5241  0.1260
 1579SOL    HW216374   4.494   1.849   5.608 -1.2077 -0.9312 -0.8913
 1580SOL     OW16375   1.427   0.926  15.704  0.1143  0.5502 -0.0239
 1580SOL    HW116376   1.465   0.848  15.664 -0.7895  1.0995 -1.9246
 1580SOL    HW216377   1.466   0.991  15.645  0.5714 -0.5668 -0.9461
 1581SOL     OW16378   1.146   2.814   0.855 -0.0393  0.4072  0.2982
 1581SOL    HW116379   1.074   2.840   0.912  1.6003  1.0520  2.0833
 1581SOL    HW216380   1.107   2.788   0.772  0.3698 -2.0401  0.8876
 1582SOL     OW16381   1.268   3.113   8.749 -0.0125 -0.4226 -0.5350
 1582SOL    HW116382   1.192   3.119   8.692 -0.7113  2.0733  0.6521
 1582SOL    HW216383   1.293   3.205   8.736 -0.3115 -0.4854 -1.5760
 1583SOL     OW16384   2.534   4.122   7.320 -0.1995 -0.2130  0.0323
 1583SOL    HW116385   2.522   4.217   7.319  1.9569  0.0535 -0.1562
 1583SOL    HW216386   2.530   4.094   7.228  0.7802  1.5835 -0.5637
 1584SOL     OW16387   4.447   3.766   8.888 -0.3807  0.0962 -0.5760
 1584SOL    HW116388   4.470   3.813   8.808  1.9633 -3.6981 -2.0773
 1584SOL    HW216389   4.353   3.782   8.899 -0.5452  0.7247 -2.9870
 1585SOL     OW16390   1.480   4.677  16.817  0.0096  0.1972 -0.6822
 1585SOL    HW116391   1.473   4.609  16.749 -1.2782  1.4558 -1.7994
 1585SOL    HW216392   1.413   4.640  16.874  0.9482 -1.2894 -0.5202
 1586SOL     OW16393   2.974   1.481   4.960  0.1597 -0.6599  0.5653
 1586SOL    HW116394   2.957   1.575   4.969  0.1492 -0.7020  0.9986
 1586SOL    HW216395   2.997   1.474   4.867 -0.4294  1.5512  0.2581
 1587SOL     OW16396   3.543   1.141  14.754  0.1638  0.0882 -0.1072
 1587SOL    HW116397   3.451   1.158  14.774  1.1553  3.3562  1.6700
 1587SOL    HW216398   3.541   1.045  14.757 -1.7170  0.0882 -1.2749
 1588SOL     OW16399   0.735   4.047   7.172 -0.0132 -0.2644  0.4283
 1588SOL    HW116400   0.700   3.963   7.142 -0.2792  0.3574 -1.0000
 1588SOL    HW216401   0.666   4.067   7.236  1.1326  0.4600  1.4189
 1589SOL     OW16402   0.214   0.839   3.483  0.0917  0.5073 -0.1404
 1589SOL    HW116403   0.192   0.771   3.548  0.9309 -0.6055 -1.0159
 1589SOL    HW216404   0.307   0.818   3.484 -0.1425 -0.4984  2.0117
 1590SOL     OW16405   2.178   3.106   5.530  0.1887  0.0093  0.3219
 1590SOL    HW116406   2.137   3.092   5.616 -2.4317 -0.2621 -0.9833
 1590SOL    HW216407   2.127   3.174   5.487 -0.6730  0.2271  1.6782
 1591SOL     OW16408   3.903   0.579   8.481  0.6416  0.0287 -0.4165
 1591SOL    HW116409   3.851   0.503   8.507  0.7235 -0.2738 -1.1618
 1591SOL    HW216410   3.873   0.591   8.391 -1.2506 -1.9911 -0.0457
 1592SOL     OW16411   4.273   4.256   4.374 -0.0488  0.3027  0.6539
 1592SOL    HW116412   4.368   4.264   4.385 -0.0962  2.1402 -0.2337
 1592SOL    HW216413   4.258   4.333   4.429  1.5581  2.3380 -1.7469
 1593SOL     OW16414   3.384   1.135   4.432 -0.2710 -0.5788  0.5708
 1593SOL    HW116415   3.402   1.062   4.492  0.2906 -0.2130  0.8346
 1593SOL    HW216416   3.301   1.097   4.401  0.8569 -2.0039 -0.6849
 1594SOL     OW16417   3.072   1.788   3.896 -0.1352 -0.0661 -0.0446
 1594SOL    HW116418   3.000   1.842   3.928 -0.3293 -0.7044  0.6019
 1594SOL    HW216419   3.028   1.726   3.837 -2.8479  1.4220  0.4518
 1595SOL     OW16420   3.347   3.978   8.982 -0.2562  0.0082  0.3573
 1595SOL    HW116421   3.251   3.982   8.984 -0.2582  0.9565 -2.3093
 1595SOL    HW216422   3.357   4.039   9.055 -1.0639  1.3992 -0.7145
 1596SOL     OW16423   3.491   0.251  16.679 -0.1665  0.0828 -0.2618
 1596SOL    HW116424   3.495   0.172  16.625 -0.7545 -0.7263  0.8772
 1596SOL    HW216425   3.571   0.224  16.724  0.9136  2.4680 -0.7426
 1597SOL     OW16426   4.040   0.828  16.033 -0.3633  0.4560  0.3622
 1597SOL    HW116427   4.102   0.883  15.986  0.7445 -1.3058 -0.2350
 1597SOL    HW216428   4.009   0.760  15.974  0.9067  0.7484 -0.6370
 1598SOL     OW16429   3.518   3.837   5.563  0.4451  0.6609 -0.4762
 1598SOL    HW116430   3.491   3.915   5.611 -0.7764  0.3449 -0.6528
 1598SOL    HW216431   3.452   3.830   5.494  0.0946 -1.8660  0.0922
 1599SOL     OW16432   1.503   0.335   1.193 -0.6862 -0.0655  0.1632
 1599SOL    HW116433   1.570   0.385   1.240  0.3957 -2.8033  1.5208
 1599SOL    HW216434   1.439   0.406   1.186 -0.0016  0.4228 -1.4688
 1600SOL     OW16435   0.350   2.024   4.211 -0.1096  0.4968  0.6870
 1600SOL    HW116436   0.327   2.103   4.260 -1.5866  0.9363 -0.7184
 1600SOL    HW216437   0.268   1.975   4.224 -0.8068  1.2120 -1.0271
 1601SOL     OW16438   0.564   2.095   9.064 -0.3467  0.1717  0.3818
 1601SOL    HW116439   0.525   2.055   9.142  1.0159 -3.2765 -0.6907
 1601SOL    HW216440   0.615   2.166   9.102 -0.7047  1.2920 -1.2280
 1602SOL     OW16441   3.864   3.531  15.627  0.4626  0.5011 -0.1560
 1602SOL    HW116442   3.869   3.603  15.690  1.9677 -0.7320  1.1497
 1602SOL    HW216443   3.960   3.524  15.619  0.5095  2.1801 -0.8827
 1603SOL     OW16444   4.287   0.907   8.059  0.0236  0.1688  0.3957
 1603SOL    HW116445   4.212   0.869   8.013  0.7934  0.0772 -0.7880
 1603SOL    HW216446   4.280   0.996   8.024 -1.2952  0.0726  0.4286
 1604SOL     OW16447   2.852   0.555   4.838 -0.7454 -0.1708  0.1431
 1604SOL    HW116448   2.894   0.623   4.785 -1.9497  0.5247  0.0727
 1604SOL    HW216449   2.921   0.512   4.888  0.3142 -1.1515 -2.1726
 1605SOL     OW16450   4.001   4.055   7.989  0.5799 -0.1625 -0.3078
 1605SOL    HW116451   3.993   4.116   8.062 -0.2692  1.5497 -1.8578
 1605SOL    HW216452   3.919   4.074   7.944  0.8422  0.7369 -0.4091
 1606SOL     OW16453   2.420   2.855   6.608  0.1587  0.0770 -0.2387
 1606SOL    HW116454   2.349   2.900   6.653  1.6344  1.0965  1.0569
 1606SOL    HW216455   2.360   2.817   6.544 -0.1472 -0.0250  0.1180
 1607SOL     OW16456   0.278   4.528  16.510  0.4773 -0.1595  0.4459
 1607SOL    HW116457   0.322   4.598  16.463  1.8304 -2.2693 -1.4356
 1607SOL    HW216458   0.276   4.575  16.593 -0.2394 -0.2511  0.4830
 1608SOL     OW16459   1.579   0.695   2.561  0.4029 -0.5649  0.0280
 1608SOL    HW116460   1.653   0.683   2.502  1.1400  0.9513  0.6515
 1608SOL    HW216461   1.627   0.684   2.643 -0.4371 -2.1720  0.3148
 1609SOL     OW16462   4.154   2.564   7.875  0.0415 -0.0679  0.1542
 1609SOL    HW116463   4.060   2.563   7.889  0.1033 -1.2859  0.4774
 1609SOL    HW216464   4.178   2.643   7.923  0.4236  0.1386 -0.3638
 1610SOL     OW16465   2.843   1.274  17.670  0.3381  0.4901  0.4289
 1610SOL    HW116466   2.871   1.311  17.586 -0.5679  1.7690  0.6854
 1610SOL    HW216467   2.778   1.338  17.700  1.1663  2.1546 -1.2803
 1611SOL     OW16468   1.139   1.217  10.597  0.0695  0.4439 -0.0178
 1611SOL    HW116469   1.067   1.221  10.534  1.3115 -0.1500 -1.4939
 1611SOL    HW216470   1.222   1.219  10.548  0.5297  2.8102  0.8758
 1612SOL     OW16471   2.403   2.402   8.477  0.0782 -0.3329 -0.1453
 1612SOL    HW116472   2.311   2.377   8.488 -0.8194  1.6114 -3.3070
 1612SOL    HW216473   2.409   2.457   8.555  2.1909 -0.0595 -0.5266
 1613SOL     OW16474   2.861   3.392   3.107  0.1638 -0.0723 -0.2610
 1613SOL    HW116475   2.891   3.422   3.193  1.7014  2.0146 -1.4907
 1613SOL    HW216476   2.942   3.352   3.076  1.1370  2.1905 -0.6783
 1614SOL     OW16477   2.252   4.516  14.152 -0.2847  0.4243 -0.1003
 1614SOL    HW116478   2.205   4.581  14.100 -3.5037 -2.2122 -0.4851
 1614SOL    HW216479   2.219   4.549  14.235  0.1131 -1.0426  0.6441
 1615SOL     OW16480   3.852   0.891   8.971  0.3262 -0.2495 -0.2186
 1615SOL    HW116481   3.786   0.829   8.941 -0.5487  1.1024 -1.0940
 1615SOL    HW216482   3.942   0.866   8.949  0.8460  1.6042 -0.1979
 1616SOL     OW16483   4.698   1.233  12.309 -0.3592  0.2410  0.1172
 1616SOL    HW116484   0.040   1.186  12.326 -0.3316  0.7292  1.3328
 1616SOL    HW216485   4.719   1.304  12.248  0.1020  0.8836  1.0323
 1617SOL     OW16486   0.227   4.304   9.405  0.3804 -0.1082 -0.1994
 1617SOL    HW116487   0.284   4.249   9.459 -1.7475 -1.5068  0.6104
 1617SOL    HW216488   0.294   4.348   9.353 -1.4969  2.3035 -0.5932
 1618SOL     OW16489   2.072   4.282   7.456  0.4311  1.0676  0.1615
 1618SOL    HW116490   2.018   4.262   7.533  1.2969  1.2732  0.8210
 1618SOL    HW216491   2.120   4.199   7.447 -1.0089  0.2617 -0.2004
 1619SOL     OW16492   1.776   1.674   6.995 -0.6597  0.1226  0.0370
 1619SOL    HW116493   1.775   1.632   6.909  1.0872  2.2099 -0.9906
 1619SOL    HW216494   1.685   1.685   7.021 -0.2416  1.6947  0.8207
 1620SOL     OW16495   2.895   0.732  10.756  0.1110 -0.2646 -0.7069
 1620SOL    HW116496   2.874   0.789  10.682 -1.6689  0.6831  0.5315
 1620SOL    HW216497   2.902   0.786  10.835 -1.7722  0.4404 -1.0291
 1621SOL     OW16498   4.141   2.271   2.805  0.0746  0.0449 -0.2469
 1621SOL    HW116499   4.108   2.185   2.831  2.9991 -0.9228  0.2666
 1621SOL    HW216500   4.108   2.274   2.715  2.0525  2.7993 -0.8691
 1622SOL     OW16501   2.219   0.185   4.691  0.2882 -0.6942 -0.1824
 1622SOL    HW116502   2.222   0.279   4.707 -0.1781 -0.5909 -0.7098
 1622SOL    HW216503   2.167   0.161   4.769  0.0616  0.4629  0.0254
 1623SOL     OW16504   2.176   3.464  13.944  0.2780  0.5807  0.0568
 1623SOL    HW116505   2.261   3.424  13.962 -0.0635 -0.3126 -0.3001
 1623SOL    HW216506   2.123   3.448  14.022  0.6114  1.9281  0.5553
 1624SOL     OW16507   0.601   0.648   6.678  0.3852 -0.2209 -0.3725
 1624SOL    HW116508   0.539   0.648   6.751 -1.2119 -1.6337 -1.7089
 1624SOL    HW216509   0.544   0.691   6.614  0.0194  1.6813  1.2421
 1625SOL     OW16510   4.191   3.856  15.134  0.2132 -0.6303 -0.5647
 1625SOL    HW116511   4.222   3.771  15.166  0.2369 -0.3373  0.1771
 1625SOL    HW216512   4.180   3.832  15.042 -0.0998  0.1177 -0.7177
 1626SOL     OW16513   4.209   4.447   5.781  0.1546  0.1749  0.4434
 1626SOL    HW116514   4.190   4.529   5.826 -0.5550  1.6441 -2.5071
 1626SOL    HW216515   4.304   4.443   5.773  0.0311 -1.8401 -0.0126
 1627SOL     OW16516   2.857   4.628  16.486 -0.0768 -0.5308  0.7869
 1627SOL    HW116517   2.933   4.571  16.493  1.2643  1.0249 -1.1546
 1627SOL    HW216518   2.827   4.592  16.402 -3.5960  0.5371  1.5625
 1628SOL     OW16519   2.220   0.146   6.000  0.5758 -0.1060 -0.4781
 1628SOL    HW116520   2.128   0.164   5.983  0.2543 -0.7426  0.5928
 1628SOL    HW216521   2.226   0.178   6.090 -2.5439  0.5363 -0.4992
 1629SOL     OW16522   3.204   2.461   9.282 -0.1393  0.2451 -0.5407
 1629SOL    HW116523   3.184   2.447   9.190 -0.5771  0.4330 -0.4741
 1629SOL    HW216524   3.279   2.403   9.292  0.3211  1.0135  0.4798
 1630SOL     OW16525   4.318   4.165   6.027  0.2821  0.4027 -0.4729
 1630SOL    HW116526   4.226   4.183   6.044  0.6186  0.4942  1.2224
 1630SOL    HW216527   4.352   4.173   6.116 -1.5771  1.4905  0.1285
 1631SOL     OW16528   0.958   1.727   5.560 -0.0304  0.2897 -0.5067
 1631SOL    HW116529   0.985   1.722   5.468  0.5063 -3.5050 -0.1305
 1631SOL    HW216530   1.027   1.678   5.604 -2.4050 -1.5245  1.1967
 1632SOL     OW16531   0.552   0.399  13.404 -0.0860 -1.2472 -0.6627
 1632SOL    HW116532   0.490   0.470  13.412 -0.8192 -2.0079  0.4054
 1632SOL    HW216533   0.607   0.414  13.481  2.5023 -0.2642 -2.6837
 1633SOL     OW16534   1.453   1.019  11.250 -0.2065 -0.7944 -0.1454
 1633SOL    HW116535   1.450   0.925  11.265 -2.5269 -0.9132 -1.2573
 1633SOL    HW216536   1.544   1.039  11.270 -0.7170 -0.3878  1.8281
 1634SOL     OW16537   3.011   3.127   4.935  0.0773  0.3728  0.3533
 1634SOL    HW116538   2.922   3.094   4.940 -0.0892  0.3562 -2.6639
 1634SOL    HW216539   2.998   3.182   4.857 -0.0330 -2.4307 -1.5896
 1635SOL     OW16540   2.891   2.102   2.955  0.4658  0.1960  0.3433
 1635SOL    HW116541   2.983   2.095   2.978  1.2184  1.6392 -2.2704
 1635SOL    HW216542   2.861   2.144   3.036  3.8327  0.9794  1.1597
 1636SOL     OW16543   2.340   3.098   7.165 -0.0774 -0.0776 -0.1726
 1636SOL    HW116544   2.424   3.121   7.205 -0.5324  2.8028 -0.8703
 1636SOL    HW216545   2.278   3.134   7.228  1.0633 -1.2919  1.6320
 1637SOL     OW16546   3.284   1.553   8.207  0.7205 -0.0968  0.1909
 1637SOL    HW116547   3.302   1.646   8.223  0.6629 -0.2312  1.0255
 1637SOL    HW216548   3.268   1.548   8.113  0.5413 -1.4478  0.2943
 1638SOL     OW16549   1.178   2.173   7.449 -0.1399 -0.9702 -1.0262
 1638SOL    HW116550   1.223   2.175   7.534 -0.7094 -2.1850 -0.6904
 1638SOL    HW216551   1.087   2.160   7.475 -0.3593 -0.9519 -1.7796
 1639SOL     OW16552   4.421   2.127   2.262  0.0973 -0.3384  0.1020
 1639SOL    HW116553   4.502   2.106   2.216 -0.2835 -0.5199 -0.4933
 1639SOL    HW216554   4.356   2.102   2.195  0.6094  2.0510 -1.2881
 1640SOL     OW16555   4.432   1.787  12.488 -0.0215  0.2988 -0.1254
 1640SOL    HW116556   4.348   1.763  12.449  0.6978 -1.0744 -0.8336
 1640SOL    HW216557   4.450   1.705  12.534 -0.1220  0.9338  1.0543
 1641SOL     OW16558   1.039   4.363   4.952  0.0471  0.2655 -0.0725
 1641SOL    HW116559   1.131   4.388   4.957 -0.2573  0.9256  1.9842
 1641SOL    HW216560   1.033   4.267   4.957 -0.1312  0.3461  1.2473
 1642SOL     OW16561   1.744   3.901   4.591  0.0235 -0.1596 -0.6052
 1642SOL    HW116562   1.775   3.858   4.671 -1.1456 -1.0454 -0.6318
 1642SOL    HW216563   1.730   3.821   4.540 -0.9218 -0.1452 -0.3608
 1643SOL     OW16564   3.317   4.679  13.605 -0.3444 -0.2918  0.1693
 1643SOL    HW116565   3.320   0.032  13.631 -0.4507  0.5829 -2.8088
 1643SOL    HW216566   3.255   4.680  13.532 -1.7530  0.5108  1.3991
 1644SOL     OW16567   1.534   4.200   7.210 -0.1495 -0.0086 -0.2302
 1644SOL    HW116568   1.453   4.234   7.247 -0.5448 -1.0784 -0.0880
 1644SOL    HW216569   1.590   4.211   7.287  1.3138  0.0087 -1.3032
 1645SOL     OW16570   3.491   3.884  14.226 -0.0811  0.5658  0.6446
 1645SOL    HW116571   3.528   3.813  14.174  0.2017  1.4357 -0.3307
 1645SOL    HW216572   3.410   3.845  14.257 -1.3861 -0.4859 -4.1773
 1646SOL     OW16573   3.820   1.087   6.178  0.0885  1.2949  0.0045
 1646SOL    HW116574   3.877   1.017   6.146  0.3605  1.0263  1.1106
 1646SOL    HW216575   3.845   1.163   6.125 -1.2701  0.5338 -1.7202
 1647SOL     OW16576   3.757   4.514  13.661 -0.1195  0.3570  0.3150
 1647SOL    HW116577   3.677   4.515  13.713 -0.2415  0.9200  0.1171
 1647SOL    HW216578   3.829   4.505  13.723  0.4554  1.4136 -0.1976
 1648SOL     OW16579   3.221   0.583   4.071  0.5635 -0.0444 -0.3844
 1648SOL    HW116580   3.298   0.548   4.026 -0.1786  3.0051 -4.0635
 1648SOL    HW216581   3.161   0.509   4.065 -0.3876  0.8929 -2.6276
 1649SOL     OW16582   1.515   0.056   8.677 -0.0905  0.2377  0.0733
 1649SOL    HW116583   1.504   0.116   8.751 -1.9705 -1.4124  1.1194
 1649SOL    HW216584   1.585   0.107   8.636 -0.3409 -0.3779 -1.1090
 1650SOL     OW16585   1.235   1.874   6.444 -0.8264 -0.4946  0.4085
 1650SOL    HW116586   1.165   1.815   6.472 -1.9499  1.2244  1.1635
 1650SOL    HW216587   1.314   1.821   6.456 -1.5873 -2.1491 -1.9166
 1651SOL     OW16588   0.180   0.663   3.692 -0.3542  0.3801  0.2681
 1651SOL    HW116589   0.267   0.640   3.726 -1.5863 -1.8358  1.9484
 1651SOL    HW216590   0.125   0.659   3.770  0.2305 -1.3263  0.5942
 1652SOL     OW16591   0.606   3.609   1.201  0.0098 -0.4268  0.1974
 1652SOL    HW116592   0.613   3.565   1.116 -0.0894 -2.9800  1.4863
 1652SOL    HW216593   0.700   3.616   1.218  0.1834 -0.3025 -0.8232
 1653SOL     OW16594   3.032   3.379   5.089  0.2410  0.4167  0.3146
 1653SOL    HW116595   3.111   3.408   5.043  1.1079 -2.3893  0.0443
 1653SOL    HW216596   3.022   3.296   5.044 -1.3693 -0.0634  1.5395
 1654SOL     OW16597   3.674   3.143   5.400 -0.5794 -0.1012  0.4081
 1654SOL    HW116598   3.672   3.047   5.394  1.7665 -0.0769 -0.7654
 1654SOL    HW216599   3.631   3.162   5.316  1.1870 -2.1483 -0.9533
 1655SOL     OW16600   0.561   0.524   5.831 -0.3535 -0.1794 -0.1655
 1655SOL    HW116601   0.521   0.514   5.917  1.7051  0.0326  0.8124
 1655SOL    HW216602   0.573   0.618   5.845 -0.2187 -0.2424  0.1325
 1656SOL     OW16603   2.613   3.242   8.430 -0.0383  0.3627 -0.4898
 1656SOL    HW116604   2.580   3.205   8.348  1.7392 -1.7011 -0.2912
 1656SOL    HW216605   2.704   3.219   8.410  0.6569  2.1100  0.6628
 1657SOL     OW16606   1.258   0.923  13.885 -0.1467 -0.4799  0.6092
 1657SOL    HW116607   1.210   0.876  13.816  0.9095 -2.2582  1.0786
 1657SOL    HW216608   1.188   0.961  13.937  2.1042  1.0385  2.5064
 1658SOL     OW16609   4.347   4.647   0.230 -0.1863 -0.4964  0.3733
 1658SOL    HW116610   4.435   4.615   0.249 -0.3710 -1.3897 -0.2238
 1658SOL    HW216611   4.357   0.002   0.238 -2.0175 -0.0702 -2.1109
 1659SOL     OW16612   1.010   1.706   4.944 -0.9079 -0.1593  0.0101
 1659SOL    HW116613   1.021   1.797   4.916 -0.6646  0.3925  1.8967
 1659SOL    HW216614   0.978   1.668   4.862  1.1257  0.5114 -1.0883
 1660SOL     OW16615   3.343   4.557   5.485  0.0797  0.6260 -0.2079
 1660SOL    HW116616   3.402   4.622   5.521  1.3801  0.0120 -1.2164
 1660SOL    HW216617   3.391   4.535   5.405 -1.5029  0.3452 -1.0892
 1661SOL     OW16618   2.882   1.955   1.121 -0.0480  0.1897  0.3052
 1661SOL    HW116619   2.854   2.026   1.178 -1.4740  1.0158 -1.4192
 1661SOL    HW216620   2.971   1.926   1.142 -0.7358 -1.6250  0.6814
 1662SOL     OW16621   2.559   3.182   4.511 -0.4215 -0.3495 -0.3878
 1662SOL    HW116622   2.493   3.126   4.554  1.3370 -3.2352 -1.4636
 1662SOL    HW216623   2.610   3.106   4.483 -0.0384 -0.0226 -0.5749
 1663SOL     OW16624   4.251   1.993   9.258  1.1096  0.1467 -1.1733
 1663SOL    HW116625   4.303   1.913   9.251  0.8256 -0.1989  0.6032
 1663SOL    HW216626   4.292   2.041   9.186  2.2179 -0.0614 -0.6828
 1664SOL     OW16627   2.952   0.541   5.367 -0.0610  0.2342 -0.2296
 1664SOL    HW116628   3.012   0.608   5.401 -0.5056 -0.4577  1.8670
 1664SOL    HW216629   2.988   0.455   5.387  0.6262  0.2038 -1.5753
 1665SOL     OW16630   4.030   1.647  12.782  0.3196  0.6951  0.0402
 1665SOL    HW116631   4.105   1.606  12.826  0.2162 -0.2866 -0.7100
 1665SOL    HW216632   4.046   1.615  12.694  0.4657  2.4894 -0.5802
 1666SOL     OW16633   4.013   1.210   7.455 -0.2872  0.0326  0.1917
 1666SOL    HW116634   4.043   1.289   7.411 -1.8048  0.5252  0.0422
 1666SOL    HW216635   3.946   1.174   7.397  1.2932 -3.4214  0.4838
 1667SOL     OW16636   0.735   1.561   7.671  0.1174  0.0768 -0.0221
 1667SOL    HW116637   0.803   1.515   7.721 -2.0314  0.3689  3.1342
 1667SOL    HW216638   0.719   1.632   7.733 -1.5696 -0.6359  0.3728
 1668SOL     OW16639   1.747   4.524  15.948  0.6094  0.0806  0.0069
 1668SOL    HW116640   1.655   4.529  15.975  0.3435  1.5466 -1.2075
 1668SOL    HW216641   1.784   4.531  16.036 -1.4444 -0.0926  0.8840
 1669SOL     OW16642   0.747   1.263   6.696  0.4101  0.6035  0.0265
 1669SOL    HW116643   0.735   1.322   6.770 -2.8087  0.3991 -0.3210
 1669SOL    HW216644   0.681   1.300   6.636  0.6098  2.5206  0.9952
 1670SOL     OW16645   4.259   1.261  15.498  0.6364 -0.0939 -0.2709
 1670SOL    HW116646   4.195   1.214  15.445  1.7989 -0.0436 -1.7196
 1670SOL    HW216647   4.285   1.191  15.559  0.0908 -0.6998 -0.7364
 1671SOL     OW16648   0.042   4.590   2.938 -0.3828 -0.2483 -0.6436
 1671SOL    HW116649   0.113   4.559   2.994 -0.9153  0.3630  0.3692
 1671SOL    HW216650   0.006   4.659   2.992  2.0203  0.9824 -0.5996
 1672SOL     OW16651   2.824   1.887   4.449 -0.1996  0.0600 -0.0812
 1672SOL    HW116652   2.892   1.934   4.497 -1.2928 -0.0776  1.5980
 1672SOL    HW216653   2.872   1.888   4.367  1.4245  1.6991  0.9123
 1673SOL     OW16654   4.710   1.636   4.949 -0.0641  0.4091  0.8057
 1673SOL    HW116655   0.065   1.637   4.930  0.1836 -0.7251  1.9433
 1673SOL    HW216656   4.686   1.694   4.877  0.5266 -2.0496 -1.3531
 1674SOL     OW16657   0.344   2.321   1.703 -0.4470 -0.3511  0.4551
 1674SOL    HW116658   0.315   2.338   1.793 -0.0499  1.1969  0.2914
 1674SOL    HW216659   0.297   2.240   1.686 -0.8904 -0.5727  2.6585
 1675SOL     OW16660   2.710   2.008   3.644  0.1980  0.3913  0.1483
 1675SOL    HW116661   2.635   1.957   3.675 -0.9758  1.6730 -0.6041
 1675SOL    HW216662   2.727   1.977   3.555  3.0244  2.0443  0.1045
 1676SOL     OW16663   4.257   2.309   7.813 -0.1041 -0.8131  0.0308
 1676SOL    HW116664   4.228   2.400   7.824 -0.5116 -0.8691 -0.5868
 1676SOL    HW216665   4.203   2.266   7.880 -1.0105  0.7495  0.3174
 1677SOL     OW16666   2.683   1.150   0.952 -0.1125  0.2366  0.3386
 1677SOL    HW116667   2.772   1.187   0.953 -0.8925  2.1491 -0.9921
 1677SOL    HW216668   2.654   1.183   0.867 -2.1924  1.6284  1.5857
 1678SOL     OW16669   0.234   2.090   8.514  0.3054 -0.1687 -0.5159
 1678SOL    HW116670   0.251   2.160   8.578  2.2847 -0.5391 -0.6180
 1678SOL    HW216671   0.148   2.117   8.483  0.3481  1.7373  1.0073
 1679SOL     OW16672   2.292   0.303   6.998  0.3736 -0.3434 -0.4611
 1679SOL    HW116673   2.276   0.233   6.935 -0.9908 -0.2700 -0.1794
 1679SOL    HW216674   2.224   0.293   7.065  1.3547  0.9526  0.7348
 1680SOL     OW16675   0.888   2.040   8.385 -0.0121 -0.0624 -0.3632
 1680SOL    HW116676   0.906   2.121   8.337 -2.5516  0.6064 -0.1902
 1680SOL    HW216677   0.808   2.060   8.433  0.6831 -1.1709  1.2584
 1681SOL     OW16678   4.113   1.549   6.660  0.3475  0.2558 -0.3694
 1681SOL    HW116679   4.089   1.535   6.752  1.7018 -0.2395 -0.0941
 1681SOL    HW216680   4.202   1.513   6.662 -0.0387 -0.6195  1.3809
 1682SOL     OW16681   4.551   1.071   6.808 -0.2552 -0.1439 -0.3557
 1682SOL    HW116682   4.569   1.089   6.716  5.8186 -0.3762  0.8095
 1682SOL    HW216683   4.597   1.140   6.855 -0.5005 -1.3398  1.6362
 1683SOL     OW16684   4.652   2.747   8.419  0.5562 -0.1060  0.1711
 1683SOL    HW116685   4.664   2.785   8.506  3.0275 -1.6453  0.4900
 1683SOL    HW216686   4.699   2.665   8.427  0.2990  0.1734  4.2971
 1684SOL     OW16687   1.036   1.235   3.760  0.3433 -0.1867  0.0348
 1684SOL    HW116688   1.045   1.184   3.840  0.1680 -1.7836 -0.9632
 1684SOL    HW216689   0.942   1.256   3.760  0.3892  0.0239 -1.1471
 1685SOL     OW16690   3.380   4.467   8.730 -0.2746 -0.7710 -0.4191
 1685SOL    HW116691   3.290   4.495   8.712  1.0022  2.1632 -2.0755
 1685SOL    HW216692   3.386   4.403   8.659  3.1823 -0.9010  0.0041
 1686SOL     OW16693   2.503   4.675  14.411 -0.4514 -0.1427  0.1586
 1686SOL    HW116694   2.529   4.584  14.424  2.5027  0.9382  1.7368
 1686SOL    HW216695   2.513   4.683  14.316  0.0781  0.8806  0.2986
 1687SOL     OW16696   0.336   2.252   9.213  0.4456  0.3768 -0.2134
 1687SOL    HW116697   0.290   2.287   9.290 -1.2790  0.6970 -1.4057
 1687SOL    HW216698   0.393   2.329   9.206  3.2220 -1.8322 -2.0008
 1688SOL     OW16699   3.580   2.865   7.518 -0.3315  0.0719  0.1110
 1688SOL    HW116700   3.548   2.820   7.596 -0.4302  1.2871  0.7695
 1688SOL    HW216701   3.584   2.798   7.450 -3.7709 -1.5068  1.4329
 1689SOL     OW16702   1.472   1.389   7.265  0.0944  1.0275  0.8273
 1689SOL    HW116703   1.387   1.371   7.304 -0.5748 -1.9490 -2.0156
 1689SOL    HW216704   1.472   1.483   7.250  1.8487  0.7647 -0.7328
 1690SOL     OW16705   3.627   3.600   4.231 -0.1979 -0.1559  0.2680
 1690SOL    HW116706   3.557   3.560   4.178 -0.3240 -1.0418  1.1007
 1690SOL    HW216707   3.577   3.612   4.312 -0.3583 -1.4420  0.3719
 1691SOL     OW16708   1.831   3.886   9.643  0.1082  0.1216 -0.2782
 1691SOL    HW116709   1.767   3.939   9.594 -1.4354 -0.1028  1.4846
 1691SOL    HW216710   1.778   3.816   9.682 -0.7528  1.0946  0.2843
 1692SOL     OW16711   4.422   0.287   1.213  0.5772 -0.3037  0.5225
 1692SOL    HW116712   4.339   0.284   1.166  0.7354 -2.9143  0.4018
 1692SOL    HW216713   4.399   0.238   1.292 -0.1665  1.0719  1.1437
 1693SOL     OW16714   1.511   0.779  14.309 -0.0871  0.1129  0.6782
 1693SOL    HW116715   1.468   0.776  14.223 -2.6983 -1.5568  2.0408
 1693SOL    HW216716   1.527   0.873  14.314  1.4629  0.0097 -2.3633
 1694SOL     OW16717   0.300   1.844   7.157  0.0565 -0.1937 -0.3807
 1694SOL    HW116718   0.355   1.890   7.220  0.6285 -0.2234 -0.8533
 1694SOL    HW216719   0.360   1.770   7.146 -0.1413 -0.2556 -1.0467
 1695SOL     OW16720   0.377   1.360   0.719  0.2427  0.1266  0.0184
 1695SOL    HW116721   0.332   1.278   0.739  0.7519  0.0554  0.8979
 1695SOL    HW216722   0.418   1.367   0.806  1.0324  0.7433 -0.4065
 1696SOL     OW16723   3.097   3.215   1.529  0.1175 -0.1525  0.3037
 1696SOL    HW116724   3.060   3.275   1.594  0.8584 -0.4519  0.9889
 1696SOL    HW216725   3.096   3.129   1.570  3.2519  0.4346  1.5832
 1697SOL     OW16726   0.131   0.625  16.330 -0.3313  0.5431  0.4440
 1697SOL    HW116727   0.112   0.571  16.406 -0.5966  0.7069  0.4911
 1697SOL    HW216728   0.179   0.565  16.272 -2.8052 -1.2750  0.2747
 1698SOL     OW16729   3.429   3.724  11.459 -0.1458 -0.5786  0.2987
 1698SOL    HW116730   3.415   3.816  11.441  0.1922 -0.5005  0.4344
 1698SOL    HW216731   3.340   3.689  11.466 -1.1264  1.9316  0.1596
 1699SOL     OW16732   0.045   1.088   1.265  0.0093  0.6930  0.4346
 1699SOL    HW116733   0.014   1.115   1.351 -0.5668 -0.2233  0.5113
 1699SOL    HW216734   0.094   1.165   1.235  1.2638 -0.2748 -0.0219
 1700SOL     OW16735   3.031   1.756   2.165 -0.3765 -0.4471 -0.0486
 1700SOL    HW116736   3.092   1.705   2.111 -0.6780  0.8546 -1.6084
 1700SOL    HW216737   2.967   1.786   2.101 -1.8405 -1.8545  0.7721
 1701SOL     OW16738   1.877   4.316  15.724 -0.4577 -0.0754 -0.2855
 1701SOL    HW116739   1.926   4.263  15.787 -0.4992 -0.6829 -0.7634
 1701SOL    HW216740   1.829   4.255  15.668 -1.5794  0.8265 -0.3089
 1702SOL     OW16741   4.544   2.709   4.922  0.1920  0.5217 -0.0570
 1702SOL    HW116742   4.638   2.722   4.937  0.3018 -0.2870 -0.0506
 1702SOL    HW216743   4.548   2.613   4.925  0.9507  0.5137 -1.1764
 1703SOL     OW16744   3.738   2.343   3.409 -0.0661  0.6374 -0.2135
 1703SOL    HW116745   3.791   2.348   3.330  0.8320  0.1962  0.3695
 1703SOL    HW216746   3.765   2.259   3.444  2.0786  1.1054 -0.7852
 1704SOL     OW16747   2.468   1.561   8.101  0.0072  0.2830 -0.1602
 1704SOL    HW116748   2.528   1.636   8.104 -0.6184  0.8372 -1.3683
 1704SOL    HW216749   2.505   1.503   8.168 -0.2454  0.3326  0.0244
 1705SOL     OW16750   1.552   1.326   9.189 -0.8239 -0.2127  0.4471
 1705SOL    HW116751   1.569   1.325   9.283  4.1475 -1.6995 -0.4794
 1705SOL    HW216752   1.515   1.239   9.171  1.8619 -0.9773 -1.3629
 1706SOL     OW16753   1.444   2.405   2.945  0.2054 -0.0714 -0.7556
 1706SOL    HW116754   1.385   2.458   2.892 -2.3607  1.2493  3.3832
 1706SOL    HW216755   1.455   2.451   3.029  1.0295 -2.2725  0.3401
 1707SOL     OW16756   2.929   1.498   7.893  0.6891 -0.2119 -0.6579
 1707SOL    HW116757   2.949   1.405   7.902  0.2430 -0.1920  0.5546
 1707SOL    HW216758   2.947   1.535   7.980 -1.0428 -1.0526  0.0525
 1708SOL     OW16759   0.061   3.396   3.527 -0.1517 -0.4590 -0.0379
 1708SOL    HW116760   0.094   3.353   3.607  1.5494  0.2686 -0.3497
 1708SOL    HW216761   0.058   3.318   3.471 -0.1543  0.1455 -0.8685
 1709SOL     OW16762   0.827   1.126  16.151  0.1065  0.2653 -0.1860
 1709SOL    HW116763   0.832   1.088  16.064 -1.8673 -0.6037  0.0899
 1709SOL    HW216764   0.734   1.119  16.168 -0.2015  0.3533 -1.8384
 1710SOL     OW16765   4.026   0.487   0.908  0.3983  0.4879  0.4972
 1710SOL    HW116766   3.935   0.460   0.924 -0.0093 -0.4177 -3.4837
 1710SOL    HW216767   4.060   0.477   0.997  0.9427  0.2740  0.2644
 1711SOL     OW16768   0.848   2.367   1.960 -0.1184 -0.3822  0.0923
 1711SOL    HW116769   0.758   2.364   1.994  0.0979 -0.6774  0.6235
 1711SOL    HW216770   0.889   2.298   2.011 -0.2305 -1.3499 -1.1313
 1712SOL     OW16771   0.514   2.061   5.374  0.3614 -0.3757  0.0098
 1712SOL    HW116772   0.441   2.065   5.312 -0.5326  0.5591  1.1208
 1712SOL    HW216773   0.475   2.124   5.434 -1.7862 -0.6276 -1.1062
 1713SOL     OW16774   3.185   4.578   6.736 -0.1326 -0.1525 -0.4771
 1713SOL    HW116775   3.125   4.651   6.750 -0.6073 -0.3725 -1.3408
 1713SOL    HW216776   3.177   4.541   6.824 -1.2538  0.6927 -0.2235
 1714SOL     OW16777   0.006   1.838   7.285  0.4812 -0.2719  0.3148
 1714SOL    HW116778   4.737   1.843   7.380  0.3512 -0.5193  0.3170
 1714SOL    HW216779   4.717   1.748   7.273 -0.3573 -0.0997  0.9818
 1715SOL     OW16780   1.498   1.588   9.091 -0.4039  0.2983 -0.3270
 1715SOL    HW116781   1.501   1.494   9.105 -0.4703  0.2140 -0.9100
 1715SOL    HW216782   1.471   1.625   9.176  0.6933  1.3015 -0.4008
 1716SOL     OW16783   4.306   4.337   7.498 -0.0881 -0.7356  0.3143
 1716SOL    HW116784   4.351   4.256   7.520  1.3170  0.1320  0.6324
 1716SOL    HW216785   4.375   4.403   7.491  0.2441 -1.2105 -0.7607
 1717SOL     OW16786   3.334   3.062  16.557 -0.1870  0.2245 -0.0068
 1717SOL    HW116787   3.358   3.005  16.630  0.1853  0.5313  0.1138
 1717SOL    HW216788   3.380   3.025  16.483  0.1442  2.4203 -0.9094
 1718SOL     OW16789   4.556   3.510   2.960  0.0053  0.1090 -0.1310
 1718SOL    HW116790   4.473   3.486   3.001  0.4808  0.5493  1.0949
 1718SOL    HW216791   4.536   3.489   2.868  4.2471  2.0457 -1.5028
 1719SOL     OW16792   2.319   1.462  10.533 -0.2100 -0.2165 -0.8896
 1719SOL    HW116793   2.378   1.503  10.469  0.7822 -0.4011 -0.0789
 1719SOL    HW216794   2.279   1.542  10.567  0.1050 -0.3903 -0.1200
 1720SOL     OW16795   1.150   1.943  12.530  0.1262  0.6104  0.5628
 1720SOL    HW116796   1.152   2.020  12.473  0.3363 -0.7099 -1.2168
 1720SOL    HW216797   1.237   1.910  12.508 -0.2377 -0.4175  0.6629
 1721SOL     OW16798   3.701   0.993   1.015  0.5246  0.1519  0.1270
 1721SOL    HW116799   3.653   0.912   0.998  2.1870 -1.3268  2.4977
 1721SOL    HW216800   3.768   0.958   1.074  0.2080  1.0786  1.0366
 1722SOL     OW16801   0.965   2.267   0.176 -1.1069  0.1284  0.1685
 1722SOL    HW116802   0.929   2.345   0.135 -0.7597  0.3009  0.1946
 1722SOL    HW216803   0.928   2.273   0.264  0.4668 -2.8366  1.0364
 1723SOL     OW16804   3.790   4.548   7.893 -0.2565 -0.2487 -0.2415
 1723SOL    HW116805   3.869   4.584   7.933  0.3367 -1.0944 -0.6493
 1723SOL    HW216806   3.754   4.512   7.974 -0.4883 -0.4949 -0.4541
 1724SOL     OW16807   2.201   4.259   6.882  0.3960  0.1714  0.4451
 1724SOL    HW116808   2.285   4.281   6.842  0.0427  0.7112 -0.0000
 1724SOL    HW216809   2.232   4.251   6.972 -2.9771 -1.2317  1.5049
 1725SOL     OW16810   1.151   0.276   2.098 -0.4730  0.1665 -0.1872
 1725SOL    HW116811   1.170   0.358   2.145 -2.0769  0.3747  0.0745
 1725SOL    HW216812   1.103   0.310   2.023  0.5916 -0.9034 -1.3483
 1726SOL     OW16813   3.306   4.205   2.404  0.1003 -0.3519 -0.9006
 1726SOL    HW116814   3.325   4.284   2.354  0.4554  0.4660  0.5560
 1726SOL    HW216815   3.241   4.173   2.341 -0.7006  1.2236 -0.8679
 1727SOL     OW16816   2.655   2.311   4.229  0.4973  0.1962 -0.3469
 1727SOL    HW116817   2.573   2.340   4.189 -0.2027 -2.1704 -0.6448
 1727SOL    HW216818   2.658   2.220   4.200  1.2652 -0.0182  0.3947
 1728SOL     OW16819   2.855   0.684   8.421  0.9533  0.3681 -0.0986
 1728SOL    HW116820   2.864   0.775   8.390  1.6023  0.1464 -0.5487
 1728SOL    HW216821   2.912   0.679   8.497  0.1392 -1.3075  0.3893
 1729SOL     OW16822   0.153   1.353  13.191 -0.4496  0.2936 -0.2877
 1729SOL    HW116823   0.195   1.308  13.117 -1.2455 -0.9702  0.0318
 1729SOL    HW216824   0.105   1.425  13.151  2.9422  1.6885 -1.8413
 1730SOL     OW16825   2.371   2.856  11.366 -0.1300  0.3761  0.3674
 1730SOL    HW116826   2.323   2.904  11.298 -0.9018 -0.1809  0.5260
 1730SOL    HW216827   2.461   2.887  11.360 -0.2428  0.2531 -2.0271
 1731SOL     OW16828   3.565   0.565   0.567  0.4511 -0.5082  0.4804
 1731SOL    HW116829   3.507   0.641   0.557  0.5827 -0.6760 -1.5964
 1731SOL    HW216830   3.507   0.500   0.606 -1.1332  1.8606  2.0304
 1732SOL     OW16831   0.067   0.471   1.758  0.2156 -0.3517  0.1938
 1732SOL    HW116832   0.050   0.523   1.837  1.2177  2.4636 -1.4718
 1732SOL    HW216833   4.719   0.441   1.731 -0.2476  1.7541 -0.5635
 1733SOL     OW16834   1.368   3.317   6.329  0.2176  0.3562 -0.3932
 1733SOL    HW116835   1.359   3.261   6.252 -0.7702 -2.0819  1.4982
 1733SOL    HW216836   1.300   3.383   6.314  1.5733  1.9489  0.3879
 1734SOL     OW16837   1.807   0.411   8.464  0.8123 -0.0838  0.0466
 1734SOL    HW116838   1.728   0.372   8.501  1.0673 -0.7516 -0.1114
 1734SOL    HW216839   1.784   0.504   8.461  0.5819 -0.1473 -0.1688
 1735SOL     OW16840   2.583   1.259   3.627 -0.0395  0.2751 -0.4221
 1735SOL    HW116841   2.527   1.184   3.606 -0.1523 -0.2371  1.6778
 1735SOL    HW216842   2.558   1.282   3.717  1.3362  0.4345 -0.0864
 1736SOL     OW16843   4.392   4.684   9.638 -0.0719 -0.1824  0.0598
 1736SOL    HW116844   4.379   0.013   9.704  1.3250  0.0405  0.0925
 1736SOL    HW216845   4.304   4.666   9.602  0.5117  2.0462 -2.5457
 1737SOL     OW16846   0.939   3.801   4.833 -0.0752 -0.3570 -0.1153
 1737SOL    HW116847   0.993   3.870   4.871  1.3175 -1.5973  0.1538
 1737SOL    HW216848   0.978   3.721   4.870  1.4922  0.3083 -0.3429
 1738SOL     OW16849   3.267   2.339   1.566  0.3801 -0.3502  0.3363
 1738SOL    HW116850   3.238   2.322   1.656 -0.2417  0.4307  0.2849
 1738SOL    HW216851   3.348   2.288   1.560  0.4641  0.0816 -2.0999
 1739SOL     OW16852   2.962   3.622   6.700  0.6516 -0.6261 -0.3109
 1739SOL    HW116853   3.043   3.618   6.649  0.1890  0.5198 -1.1354
 1739SOL    HW216854   2.887   3.625   6.641  0.9970  1.2388 -0.6502
 1740SOL     OW16855   0.535   1.403  17.598  0.7614  0.5769 -0.3144
 1740SOL    HW116856   0.477   1.339  17.557  1.1621  1.6636 -2.5920
 1740SOL    HW216857   0.482   1.430  17.674 -0.0078 -2.5264  0.2552
 1741SOL     OW16858   0.144   1.879   1.747 -0.2570  0.2383 -0.5003
 1741SOL    HW116859   0.066   1.869   1.692  0.1003  2.6434 -1.4166
 1741SOL    HW216860   0.115   1.817   1.815  0.1289  1.6697  0.9778
 1742SOL     OW16861   3.959   1.007   3.614  0.1180  0.0566 -0.5325
 1742SOL    HW116862   3.906   0.984   3.538  0.2165  3.7876 -1.7106
 1742SOL    HW216863   3.908   0.978   3.690  1.2069 -1.2104 -0.2832
 1743SOL     OW16864   0.868   0.392   9.272 -0.0259  0.3745  0.0433
 1743SOL    HW116865   0.916   0.459   9.320  0.1412  0.4415 -0.2184
 1743SOL    HW216866   0.878   0.439   9.189 -2.4951  0.9139  0.0432
 1744SOL     OW16867   4.680   4.289   2.302  0.0344  0.1308 -0.2561
 1744SOL    HW116868   4.674   4.304   2.397  0.3371 -0.1623 -0.1921
 1744SOL    HW216869   0.022   4.335   2.280  0.3380 -0.3314 -0.1015
 1745SOL     OW16870   1.071   3.068   1.771  0.1567  0.3706  0.4414
 1745SOL    HW116871   1.163   3.085   1.752 -0.4070 -0.0037 -2.7119
 1745SOL    HW216872   1.060   2.974   1.755  0.4066  0.8190 -2.4107
 1746SOL     OW16873   3.707   4.120  11.458 -0.5886  0.0767  0.4542
 1746SOL    HW116874   3.733   4.030  11.477  1.6337  0.7768  0.7105
 1746SOL    HW216875   3.732   4.136  11.368  0.3360 -1.9684  0.3551
 1747SOL     OW16876   1.138   3.630   8.106  0.1974  0.3002  0.2710
 1747SOL    HW116877   1.048   3.653   8.126  0.3927 -1.2361  2.9598
 1747SOL    HW216878   1.138   3.540   8.140  0.0631  0.0779 -0.3257
 1748SOL     OW16879   4.078   3.137   3.511 -0.1559  0.2554  0.0379
 1748SOL    HW116880   4.159   3.155   3.463 -0.4051 -1.1593 -0.9269
 1748SOL    HW216881   4.011   3.130   3.443 -1.5901 -1.4754  1.6622
 1749SOL     OW16882   0.353   1.506   9.340 -0.0172 -0.0980 -0.1411
 1749SOL    HW116883   0.260   1.487   9.348 -0.0673 -0.3213 -1.3247
 1749SOL    HW216884   0.350   1.540   9.250 -0.0453 -0.3423 -0.2307
 1750SOL     OW16885   1.609   1.490   2.842  0.2997 -0.6516 -0.1668
 1750SOL    HW116886   1.578   1.552   2.908  0.1404 -1.1960  0.2738
 1750SOL    HW216887   1.637   1.423   2.905  1.0889 -0.1336  0.0459
 1751SOL     OW16888   1.568   2.620   6.354  0.2765  0.2372  0.1256
 1751SOL    HW116889   1.549   2.526   6.350  1.4476  0.1151 -2.9316
 1751SOL    HW216890   1.585   2.632   6.447 -1.8689 -0.8711  0.6610
 1752SOL     OW16891   1.176   3.348   3.184 -0.6568  0.4726  0.4804
 1752SOL    HW116892   1.242   3.382   3.244 -1.6292  0.7959  1.3781
 1752SOL    HW216893   1.205   3.259   3.163  0.8648  0.5490  2.3272
 1753SOL     OW16894   0.203   4.287  14.011 -0.2657  0.2406 -0.1647
 1753SOL    HW116895   0.271   4.340  14.052  0.5237 -0.3921 -0.6559
 1753SOL    HW216896   0.125   4.324  14.052 -0.8296 -0.6621 -0.4195
 1754SOL     OW16897   0.317   3.332   7.683  0.2439  0.1644 -0.3141
 1754SOL    HW116898   0.395   3.350   7.631  0.3362  2.2513  0.5466
 1754SOL    HW216899   0.357   3.286   7.757  0.8304  1.7281  0.3380
 1755SOL     OW16900   2.448   0.012   2.782 -0.3057  0.6474  0.4138
 1755SOL    HW116901   2.394   0.087   2.756  0.6550  1.2121  0.0731
 1755SOL    HW216902   2.465   4.715   2.695 -0.2387 -1.5054  1.3404
 1756SOL     OW16903   4.549   3.615   7.987  0.0802  0.1654  0.2980
 1756SOL    HW116904   4.541   3.673   7.911 -0.3401  0.2100  0.3742
 1756SOL    HW216905   4.519   3.531   7.951  0.6718 -0.0322  0.2696
 1757SOL     OW16906   0.253   1.696   4.942  0.2284  0.1805 -0.3108
 1757SOL    HW116907   0.252   1.775   4.888  2.7787  0.4220 -0.0311
 1757SOL    HW216908   0.221   1.737   5.023  1.6955  1.4938 -0.3827
 1758SOL     OW16909   2.600   0.104   2.123  0.3004 -0.2675  0.5978
 1758SOL    HW116910   2.626   0.013   2.113  0.7598 -0.0900  0.1606
 1758SOL    HW216911   2.628   0.151   2.044  0.5907  1.1228  1.5319
 1759SOL     OW16912   4.042   4.311  13.159  0.2112  0.2609  0.4960
 1759SOL    HW116913   4.069   4.400  13.135 -0.2202 -0.4232 -2.5309
 1759SOL    HW216914   4.000   4.277  13.080  0.6611 -0.6551  0.6533
 1760SOL     OW16915   3.900   1.832   8.707 -0.0873 -0.1347 -0.4301
 1760SOL    HW116916   3.819   1.832   8.758 -1.7522 -0.5614 -3.0957
 1760SOL    HW216917   3.942   1.907   8.749  3.3212 -2.5173  0.4488
 1761SOL     OW16918   3.613   1.892   6.696  0.4446  0.0734 -0.0670
 1761SOL    HW116919   3.572   1.819   6.650  0.1285  1.1665 -1.5212
 1761SOL    HW216920   3.533   1.944   6.710  0.0053 -0.7600  0.5469
 1762SOL     OW16921   2.013   0.577   2.306 -0.1532  0.1999 -0.2133
 1762SOL    HW116922   2.017   0.483   2.328  2.8458  0.0474 -1.3445
 1762SOL    HW216923   2.070   0.581   2.229  0.0917  1.8532  0.0714
 1763SOL     OW16924   0.670   3.843   0.870  0.0779  0.1526  0.5247
 1763SOL    HW116925   0.693   3.825   0.961 -0.8213 -0.0366  0.7074
 1763SOL    HW216926   0.755   3.835   0.826  0.0257  0.6801  0.3314
 1764SOL     OW16927   2.342   2.069   3.204 -1.2328 -0.0071  0.2407
 1764SOL    HW116928   2.355   1.975   3.188  0.1615  0.3721 -0.8140
 1764SOL    HW216929   2.409   2.096   3.266 -1.6228 -0.6863  0.9541
 1765SOL     OW16930   0.661   3.833  11.282 -0.7753  0.1761 -0.3168
 1765SOL    HW116931   0.574   3.865  11.257 -0.8468  0.0813 -0.1891
 1765SOL    HW216932   0.709   3.914  11.266  1.7164 -1.1513  0.3714
 1766SOL     OW16933   0.660   4.479   2.485 -0.3790  0.8896  0.3832
 1766SOL    HW116934   0.637   4.387   2.475  2.2687  0.0617  2.2349
 1766SOL    HW216935   0.576   4.509   2.522 -1.4661  0.7000 -1.8869
 1767SOL     OW16936   0.617   3.116   3.977 -0.1001 -0.0722 -0.0656
 1767SOL    HW116937   0.556   3.044   3.962  0.4991 -0.6294  0.1951
 1767SOL    HW216938   0.681   3.111   3.906  0.6743 -1.1852  0.7153
 1768SOL     OW16939   0.778   0.165   3.936  0.1285 -0.4430 -0.9144
 1768SOL    HW116940   0.699   0.196   3.892  0.0774  1.5857  0.5928
 1768SOL    HW216941   0.790   0.241   3.993  0.6661 -1.0972 -0.1666
 1769SOL     OW16942   2.526   0.627   0.587  0.2070  0.1381  0.0716
 1769SOL    HW116943   2.463   0.597   0.652 -2.2925  2.8482 -1.1132
 1769SOL    HW216944   2.478   0.703   0.555 -1.2190 -0.6139  0.4373
 1770SOL     OW16945   0.183   3.139   6.161  0.4517 -0.0858 -0.8528
 1770SOL    HW116946   0.267   3.153   6.204 -0.1474 -3.5151  1.3832
 1770SOL    HW216947   0.204   3.073   6.095  1.5582 -0.4800 -0.1172
 1771SOL     OW16948   2.342   3.045   4.658 -0.4704 -0.0094 -0.1100
 1771SOL    HW116949   2.285   3.122   4.659  2.5520  2.2301  0.7359
 1771SOL    HW216950   2.365   3.050   4.751 -1.2748 -0.0571  0.0865
 1772SOL     OW16951   2.593   3.439   7.933 -0.2056  0.0693  0.4555
 1772SOL    HW116952   2.519   3.494   7.906  0.7439  1.0662 -0.1086
 1772SOL    HW216953   2.554   3.352   7.944 -1.6838  0.7838  0.8619
 1773SOL     OW16954   0.668   4.223   8.223  0.0456  0.6763 -0.7220
 1773SOL    HW116955   0.644   4.304   8.177  0.0524  0.9838 -0.1774
 1773SOL    HW216956   0.679   4.166   8.146 -1.1347 -0.8219  0.2046
 1774SOL     OW16957   2.078   3.387   6.492 -0.2136 -0.1320 -0.0762
 1774SOL    HW116958   2.105   3.392   6.584  2.5809 -0.7994 -0.8601
 1774SOL    HW216959   1.984   3.400   6.501 -0.7689 -3.6201 -0.5349
 1775SOL     OW16960   4.209   0.526  15.874  0.4384  0.3100 -0.4163
 1775SOL    HW116961   4.224   0.586  15.947  3.0001 -0.5037 -0.2744
 1775SOL    HW216962   4.270   0.454  15.891  0.2238  0.3511  0.5305
 1776SOL     OW16963   4.065   3.961   6.035 -0.0679 -0.2442  0.1491
 1776SOL    HW116964   4.051   4.054   6.051  1.7509  0.4710 -2.2864
 1776SOL    HW216965   3.971   3.944   6.029 -0.2755  1.2268 -0.9870
 1777SOL     OW16966   2.834   4.723  17.330  0.0751  0.1059  0.6854
 1777SOL    HW116967   2.812   4.691  17.242 -0.1970  2.5200 -0.1282
 1777SOL    HW216968   2.840   4.645  17.385 -0.4570 -1.4024 -1.3946
 1778SOL     OW16969   2.329   3.056   3.026  0.2582 -0.6484  0.3945
 1778SOL    HW116970   2.345   2.962   3.038  1.0591 -0.3757  1.4419
 1778SOL    HW216971   2.420   3.084   3.040  0.2463 -0.0754 -0.6886
 1779SOL     OW16972   2.608   2.708   8.280 -0.2423 -0.0141 -0.5264
 1779SOL    HW116973   2.632   2.676   8.193  0.1089 -0.9191 -0.0895
 1779SOL    HW216974   2.529   2.654   8.285  0.1640 -0.4112  1.5764
 1780SOL     OW16975   2.312   2.364   8.110  0.1298  0.0372  0.4197
 1780SOL    HW116976   2.301   2.321   8.025  1.0122  3.0101 -1.1813
 1780SOL    HW216977   2.406   2.353   8.125  0.2442 -0.8811 -0.9801
 1781SOL     OW16978   2.102   2.684   2.093  0.2359  0.0376  0.2005
 1781SOL    HW116979   2.108   2.704   1.999 -0.3510  2.4036  0.6682
 1781SOL    HW216980   2.195   2.662   2.103 -0.0984 -0.7004  1.6547
 1782SOL     OW16981   4.084   4.323   2.602 -0.1904 -0.1449 -0.5803
 1782SOL    HW116982   4.116   4.254   2.545 -0.6162 -2.3005  1.7774
 1782SOL    HW216983   4.104   4.281   2.685 -0.4515 -2.8409 -1.9064
 1783SOL     OW16984   4.383   4.693   4.322 -0.3219 -0.1525  0.1437
 1783SOL    HW116985   4.394   4.723   4.232  0.9045  0.9439  0.6694
 1783SOL    HW216986   4.292   4.663   4.330 -0.9416  2.3657  2.3857
 1784SOL     OW16987   1.732   2.269   5.088  0.0253  0.0740 -0.3139
 1784SOL    HW116988   1.677   2.213   5.034 -0.5230 -1.0324  1.3991
 1784SOL    HW216989   1.791   2.295   5.017  2.2937 -4.8189 -0.1977
 1785SOL     OW16990   2.185   4.063   2.587  0.4953 -0.6843  0.2356
 1785SOL    HW116991   2.175   3.981   2.635 -0.9973 -0.5003  0.2369
 1785SOL    HW216992   2.180   4.038   2.495 -0.2398 -0.2100  0.1491
 1786SOL     OW16993   1.288   3.422  16.860  0.4987 -0.0741  0.3495
 1786SOL    HW116994   1.250   3.465  16.936 -0.0345 -0.0794  0.0838
 1786SOL    HW216995   1.287   3.497  16.801  1.5451  0.4224  0.9672
 1787SOL     OW16996   4.451   2.517   3.480 -0.6231  0.1475  0.7225
 1787SOL    HW116997   4.418   2.478   3.399 -2.7475 -0.0164  1.6522
 1787SOL    HW216998   4.386   2.475   3.537 -1.3602 -0.3238 -0.4717
 1788SOL     OW16999   3.998   2.391   2.333 -0.2967 -0.1434  0.0083
 1788SOL    HW117000   3.922   2.376   2.278  0.7106  0.6165 -1.5862
 1788SOL    HW217001   3.970   2.334   2.405  0.9199  0.3591  0.8850
 1789SOL     OW17002   1.551   3.885   3.157  0.3938  0.4727 -0.4269
 1789SOL    HW117003   1.575   3.835   3.079  3.6107 -1.4274  1.7792
 1789SOL    HW217004   1.456   3.871   3.159  0.6884 -1.4006  0.5497
 1790SOL     OW17005   0.742   2.163   9.682  0.2683 -0.6323 -0.2024
 1790SOL    HW117006   0.750   2.068   9.677  0.6054 -0.6732  1.0595
 1790SOL    HW217007   0.764   2.182   9.591 -0.3964  0.5793 -0.1200
 1791SOL     OW17008   3.167   3.798   8.571  0.4831 -0.4073 -0.1914
 1791SOL    HW117009   3.082   3.794   8.527 -0.1663 -1.7679  1.2058
 1791SOL    HW217010   3.144   3.808   8.663 -2.9275 -3.9936 -0.7019
 1792SOL     OW17011   3.556   3.313  10.656 -0.2124 -0.3851  0.2846
 1792SOL    HW117012   3.571   3.264  10.736 -1.2225  0.7177  1.1457
 1792SOL    HW217013   3.570   3.404  10.682  1.3232 -0.6755  0.4631
 1793SOL     OW17014   3.360   0.450   0.305 -0.3428 -0.0537 -0.3254
 1793SOL    HW117015   3.444   0.494   0.295 -0.6413  1.0368  1.8211
 1793SOL    HW217016   3.299   0.511   0.263 -0.3963  0.3863  0.3957
 1794SOL     OW17017   0.216   3.886   3.632  0.3583 -0.0604 -0.0818
 1794SOL    HW117018   0.251   3.975   3.639  0.0426 -0.1233  2.3067
 1794SOL    HW217019   0.129   3.913   3.660  0.4207 -2.4697  2.3914
 1795SOL     OW17020   1.188   1.180  16.350  0.3520 -0.2935  0.3119
 1795SOL    HW117021   1.176   1.104  16.407  2.0808 -0.8227 -0.0397
 1795SOL    HW217022   1.232   1.241  16.409 -0.3642 -0.6010  1.1690
 1796SOL     OW17023   3.955   2.890   4.116  0.1518  0.5385  0.1799
 1796SOL    HW117024   4.031   2.846   4.078 -0.4645 -2.1073  2.0190
 1796SOL    HW217025   3.985   2.941   4.192  0.9865 -0.1295  0.2956
 1797SOL     OW17026   4.534   0.047  12.025  0.0231 -0.1908  0.1966
 1797SOL    HW117027   4.513   4.733  11.949  1.4053  0.7699 -0.8615
 1797SOL    HW217028   4.469   0.011  12.085 -1.6837  3.2473  0.4570
 1798SOL     OW17029   1.541   4.462   3.971 -0.0758  0.1770 -0.2170
 1798SOL    HW117030   1.580   4.525   4.031 -2.1451  1.5911 -0.3744
 1798SOL    HW217031   1.468   4.508   3.931 -0.1169 -0.0413 -0.3992
 1799SOL     OW17032   4.500   2.159   5.067 -0.1058 -0.0447  0.4970
 1799SOL    HW117033   4.591   2.188   5.072 -0.6205  1.5182  0.6993
 1799SOL    HW217034   4.503   2.078   5.119  0.0371 -0.8847 -0.8154
 1800SOL     OW17035   4.213   1.467  16.918  0.0202 -0.7985  0.5860
 1800SOL    HW117036   4.267   1.394  16.886 -2.5066 -1.3623 -2.4464
 1800SOL    HW217037   4.186   1.509  16.836  2.9231 -1.9173 -0.9596
 1801SOL     OW17038   0.089   1.972   2.998 -0.2626 -0.0633  0.2117
 1801SOL    HW117039   0.036   1.931   2.929 -2.5787  3.3199 -0.0205
 1801SOL    HW217040   0.162   1.910   3.006  0.7701  1.1152 -0.1324
 1802SOL     OW17041   0.475   1.654   9.543 -0.5875 -0.0550 -0.5036
 1802SOL    HW117042   0.390   1.677   9.579 -0.6807  0.1714 -0.8646
 1802SOL    HW217043   0.445   1.583   9.487  0.4422  0.3688 -1.6047
 1803SOL     OW17044   0.189   3.745  16.782  0.0494 -0.6529  0.1900
 1803SOL    HW117045   0.145   3.828  16.760 -0.2231 -0.4001  1.7328
 1803SOL    HW217046   0.128   3.676  16.758  0.8175 -2.0412  2.1963
 1804SOL     OW17047   1.429   1.646  16.864  0.4046 -0.2130 -0.0153
 1804SOL    HW117048   1.365   1.579  16.840  1.0911 -0.7714 -0.2752
 1804SOL    HW217049   1.397   1.723  16.816  1.9705  0.3422 -0.1590
 1805SOL     OW17050   3.925   4.018  13.686  0.1442  0.5751 -0.1855
 1805SOL    HW117051   3.980   4.073  13.631 -0.2439  1.5025  0.3513
 1805SOL    HW217052   3.987   3.947  13.701  0.9631  1.6903  1.7232
 1806SOL     OW17053   3.844   2.454  10.781 -0.2513 -0.0635  0.6056
 1806SOL    HW117054   3.813   2.377  10.734  0.5840 -0.9246  1.4543
 1806SOL    HW217055   3.931   2.428  10.812  0.0657  1.4445  0.9929
 1807SOL     OW17056   1.297   3.224   4.820 -0.8303  0.5367  0.3125
 1807SOL    HW117057   1.224   3.208   4.761  0.0849 -1.7767 -0.1911
 1807SOL    HW217058   1.334   3.288   4.759  0.2829  1.7154  2.2341
 1808SOL     OW17059   1.637   0.349   4.016 -0.2561  0.2081 -0.4902
 1808SOL    HW117060   1.595   0.270   4.047 -0.9011  0.7106 -0.0824
 1808SOL    HW217061   1.567   0.413   4.000 -0.3086  0.0233 -1.0085
 1809SOL     OW17062   0.515   4.511   4.364  0.8208  0.1471  0.4283
 1809SOL    HW117063   0.549   4.533   4.277  3.0589 -0.8570  1.0525
 1809SOL    HW217064   0.543   4.420   4.376 -0.3620 -0.6066 -2.5410
 1810SOL     OW17065   3.492   4.511   2.279 -0.4870  0.1585  0.1607
 1810SOL    HW117066   3.456   4.440   2.225  1.2803 -0.1694 -0.5907
 1810SOL    HW217067   3.494   4.581   2.214  0.2496 -0.7165 -0.7612
 1811SOL     OW17068   4.513   2.824   5.527  0.5101  0.4049 -0.4723
 1811SOL    HW117069   4.561   2.765   5.585 -1.1866  0.5430  1.0891
 1811SOL    HW217070   4.434   2.848   5.576  1.6194  0.8176  1.1192
 1812SOL     OW17071   3.532   3.243  13.070  0.1704  0.1497 -0.0000
 1812SOL    HW117072   3.445   3.270  13.043  0.6885  1.0749 -0.7297
 1812SOL    HW217073   3.545   3.173  13.006 -0.7596 -0.4526  0.4785
 1813SOL     OW17074   4.382   4.696   1.146 -0.0571 -0.2308  0.6914
 1813SOL    HW117075   4.345   0.044   1.136 -0.6984 -0.3286  2.2205
 1813SOL    HW217076   4.454   4.722   1.203  1.6802 -2.0052 -0.7006
 1814SOL     OW17077   1.521   1.305   6.689 -0.4100  0.1079 -0.0025
 1814SOL    HW117078   1.463   1.257   6.748 -0.6479  1.8738  1.1838
 1814SOL    HW217079   1.556   1.373   6.746  1.1583  1.8899 -3.0492
 1815SOL     OW17080   2.837   4.142   5.023 -0.6315 -0.6092 -0.0155
 1815SOL    HW117081   2.916   4.090   5.011  1.5881  2.7955 -0.1111
 1815SOL    HW217082   2.864   4.199   5.094  1.0670 -0.1205 -1.0543
 1816SOL     OW17083   0.634   2.126   3.561  0.8270 -0.4989 -0.1737
 1816SOL    HW117084   0.669   2.054   3.613  0.2496  0.1695  1.1453
 1816SOL    HW217085   0.569   2.162   3.622  0.0139 -1.7875 -0.2903
 1817SOL     OW17086   3.102   0.465  11.259 -0.2006  0.0810 -0.6641
 1817SOL    HW117087   3.091   0.372  11.280  0.7925 -0.6949 -3.6637
 1817SOL    HW217088   3.017   0.485  11.220 -0.3046  0.0823 -0.4423
 1818SOL     OW17089   4.242   2.849   2.861 -1.2297  0.1714 -0.1818
 1818SOL    HW117090   4.300   2.790   2.813 -2.9465 -1.2233 -0.5569
 1818SOL    HW217091   4.157   2.809   2.844 -1.3062 -0.3660  1.4937
 1819SOL     OW17092   3.869   4.355  11.542  0.4495 -0.0026 -0.5247
 1819SOL    HW117093   3.866   4.366  11.447  0.4861 -0.0840 -0.5346
 1819SOL    HW217094   3.812   4.279  11.551 -0.4027  0.6957 -0.0552
 1820SOL     OW17095   3.062   1.095   7.555  0.3135  0.4224 -0.7464
 1820SOL    HW117096   3.073   1.130   7.467 -3.7483  0.4498 -1.2155
 1820SOL    HW217097   3.133   1.031   7.564  0.0033 -0.1982 -2.6446
 1821SOL     OW17098   2.378   3.972   1.916  0.0371 -0.5226 -0.0681
 1821SOL    HW117099   2.464   3.938   1.891 -0.6229 -1.4105 -1.1611
 1821SOL    HW217100   2.327   3.923   1.851  0.1815  0.0561 -0.6269
 1822SOL     OW17101   3.721   4.548   6.085 -0.0967 -0.3329  0.3607
 1822SOL    HW117102   3.667   4.538   6.164 -0.9024 -0.7905 -0.2473
 1822SOL    HW217103   3.742   4.641   6.090 -0.6108 -0.2571  1.1756
 1823SOL     OW17104   1.046   1.002   1.929  0.0430 -0.1909 -0.4815
 1823SOL    HW117105   1.112   1.072   1.936 -1.2865  1.0462 -0.3827
 1823SOL    HW217106   1.014   1.012   1.840 -3.7675  2.8944  1.2518
 1824SOL     OW17107   0.177   1.486  12.873  0.1916 -0.3366 -0.6852
 1824SOL    HW117108   0.210   1.415  12.818 -0.5857 -1.0851 -0.1862
 1824SOL    HW217109   0.226   1.552  12.823 -0.2557  0.5280  0.0092
 1825SOL     OW17110   3.520   1.026   6.194  0.0483 -0.2087 -0.2289
 1825SOL    HW117111   3.613   1.037   6.172 -0.3083  0.5123 -1.3762
 1825SOL    HW217112   3.521   0.964   6.267  0.0588  0.4679  0.3502
 1826SOL     OW17113   4.017   1.961   8.317 -0.2124  0.5858  0.0557
 1826SOL    HW117114   4.037   1.913   8.237 -0.1836  0.6952 -0.0034
 1826SOL    HW217115   3.943   1.908   8.346  2.8006 -2.3917  2.2483
 1827SOL     OW17116   1.020   1.495  13.751  0.4224 -0.5545  0.0108
 1827SOL    HW117117   1.073   1.529  13.823  1.7583  1.2872 -1.8391
 1827SOL    HW217118   1.025   1.572  13.694  0.7381 -0.1245  0.6114
 1828SOL     OW17119   3.460   3.509  13.337 -0.0156 -0.5263  0.5009
 1828SOL    HW117120   3.396   3.550  13.279  1.4611  0.7327 -0.2092
 1828SOL    HW217121   3.422   3.504  13.425  2.1837  2.0799  1.5631
 1829SOL     OW17122   3.546   1.722   8.039  0.1365 -0.6663 -0.2882
 1829SOL    HW117123   3.562   1.634   8.006 -1.6321 -1.3511  0.6409
 1829SOL    HW217124   3.458   1.747   8.013  0.4921  1.3609  0.4431
 1830SOL     OW17125   4.193   1.373   8.419 -0.3097  0.3690  0.2655
 1830SOL    HW117126   4.184   1.468   8.421 -1.6933  0.2428  0.0827
 1830SOL    HW217127   4.109   1.341   8.450 -0.4374  0.0915 -0.3565
 1831SOL     OW17128   0.333   2.251   0.498 -0.6487  0.1815 -0.3630
 1831SOL    HW117129   0.281   2.329   0.479 -0.6116  1.1076  3.4462
 1831SOL    HW217130   0.417   2.286   0.527 -1.0604 -1.3179  2.6389
 1832SOL     OW17131   1.068   1.531   4.299  1.0518 -0.1788 -0.4455
 1832SOL    HW117132   1.074   1.622   4.268 -1.6162 -0.1457 -0.8890
 1832SOL    HW217133   1.027   1.494   4.220  2.2975  0.8620 -1.5727
 1833SOL     OW17134   3.484   1.138   1.069  0.0625  0.6535 -0.0908
 1833SOL    HW117135   3.514   1.215   1.021 -0.1288  0.0979 -1.1002
 1833SOL    HW217136   3.562   1.082   1.069  0.5877  1.3935 -1.4776
 1834SOL     OW17137   1.043   0.331   4.971  0.2647 -0.2861  0.5826
 1834SOL    HW117138   1.020   0.255   4.917 -0.2933 -0.3445  0.8998
 1834SOL    HW217139   1.061   0.403   4.910 -0.0004  2.0959  3.2951
 1835SOL     OW17140   3.423   3.947   7.988  0.0454  0.8603 -0.0248
 1835SOL    HW117141   3.477   3.880   7.945  2.0273  2.6186 -0.2705
 1835SOL    HW217142   3.345   3.895   8.004  1.1177 -1.2728 -1.5916
 1836SOL     OW17143   4.458   2.283  16.238  0.5371  0.1663 -0.3868
 1836SOL    HW117144   4.414   2.219  16.294  2.3840  0.3392  1.2371
 1836SOL    HW217145   4.395   2.274  16.166  2.4169 -0.9824 -1.8984
 1837SOL     OW17146   3.815   1.126   6.444  0.1078  0.7635 -0.3362
 1837SOL    HW117147   3.747   1.059   6.446 -0.6347  1.5185 -0.5897
 1837SOL    HW217148   3.837   1.119   6.351 -0.4301  3.4696 -0.6455
 1838SOL     OW17149   2.852   1.982   3.872 -0.6100  0.4247  0.4950
 1838SOL    HW117150   2.771   1.940   3.901 -0.5373  0.7374  1.1489
 1838SOL    HW217151   2.837   1.995   3.778 -1.4926  1.6433  0.7933
 1839SOL     OW17152   0.522   1.524   8.432 -0.2012  0.2125  0.0791
 1839SOL    HW117153   0.524   1.575   8.513  0.0141 -0.0790  0.2588
 1839SOL    HW217154   0.499   1.437   8.466  0.4549 -0.9149 -2.3787
 1840SOL     OW17155   1.990   3.534   7.103 -0.2625 -0.3656 -0.8105
 1840SOL    HW117156   1.930   3.460   7.103 -1.9645  1.0197  1.2783
 1840SOL    HW217157   2.074   3.490   7.090 -0.3379 -0.9918  0.7021
 1841SOL     OW17158   2.306   0.538  12.120  0.1915 -0.0734 -0.0360
 1841SOL    HW117159   2.311   0.614  12.062 -1.3799  0.7805  0.9510
 1841SOL    HW217160   2.221   0.497  12.104  0.1696  0.0402 -0.2222
 1842SOL     OW17161   2.278   1.988   5.735 -0.8355  1.0266  0.3812
 1842SOL    HW117162   2.333   2.002   5.811 -1.2599 -0.0546  0.8824
 1842SOL    HW217163   2.333   1.928   5.685 -0.3758  2.5485 -0.9423
 1843SOL     OW17164   1.730   1.843   2.489  0.4760 -0.5783  0.1180
 1843SOL    HW117165   1.740   1.783   2.563  1.2835  0.4928  0.8728
 1843SOL    HW217166   1.809   1.814   2.443  1.4698  2.5695 -0.1776
 1844SOL     OW17167   1.141   0.718  15.060 -0.3172 -0.4303  0.3922
 1844SOL    HW117168   1.162   0.649  15.122  0.4094 -0.6599 -0.1120
 1844SOL    HW217169   1.173   0.683  14.977 -1.8275 -2.3554  0.6422
 1845SOL     OW17170   2.552   0.718   0.932 -0.1446 -0.7207 -0.2165
 1845SOL    HW117171   2.505   0.676   0.860  1.0660 -0.5256 -1.1149
 1845SOL    HW217172   2.606   0.778   0.882  0.7484 -0.9436  0.4818
 1846SOL     OW17173   3.402   1.575   5.746 -0.5933  0.4815  0.1991
 1846SOL    HW117174   3.338   1.565   5.676 -1.3416  2.3945  0.6184
 1846SOL    HW217175   3.401   1.485   5.781 -1.1039  0.6645  0.6530
 1847SOL     OW17176   1.349   3.198  16.056  0.1077 -0.0078  0.2616
 1847SOL    HW117177   1.415   3.261  16.085 -2.2066  2.7267 -0.4101
 1847SOL    HW217178   1.281   3.215  16.122 -0.9490 -1.4371 -0.4469
 1848SOL     OW17179   3.770   1.529   8.117  0.6082 -0.3743 -0.1581
 1848SOL    HW117180   3.779   1.435   8.101  1.4372 -0.3959  0.4082
 1848SOL    HW217181   3.795   1.543   8.209  1.0065 -4.1671  0.3124
 1849SOL     OW17182   2.776   0.009   2.455 -0.9725  0.5673 -0.0279
 1849SOL    HW117183   2.778   0.044   2.366  0.5507  1.0353  0.1895
 1849SOL    HW217184   2.723   0.077   2.498  0.1021  0.8692  0.8102
 1850SOL     OW17185   1.042   0.836   3.437 -0.1116 -0.3726 -0.1815
 1850SOL    HW117186   1.136   0.822   3.431  0.3790  2.9418 -0.4992
 1850SOL    HW217187   1.036   0.931   3.452 -1.5453 -0.3201 -1.0492
 1851SOL     OW17188   4.596   2.396  14.241 -0.3155  0.3311 -0.4657
 1851SOL    HW117189   4.611   2.326  14.177  0.1321  0.3126 -0.3419
 1851SOL    HW217190   4.524   2.447  14.202  1.6329  2.8520 -0.7998
 1852SOL     OW17191   0.721   1.011   3.919 -0.5320 -0.0752 -0.0566
 1852SOL    HW117192   0.642   0.985   3.966  1.3496 -1.0340  2.6198
 1852SOL    HW217193   0.692   1.058   3.841 -1.7456  1.0555  1.0925
 1853SOL     OW17194   4.532   0.724   4.086 -0.2131 -0.2978  0.0257
 1853SOL    HW117195   4.562   0.802   4.132 -0.5375 -0.0823 -0.1305
 1853SOL    HW217196   4.439   0.745   4.078 -0.2006  0.3078  1.4674
 1854SOL     OW17197   0.247   4.303   5.623 -0.3168 -0.3476  0.2864
 1854SOL    HW117198   0.158   4.270   5.628 -0.3483 -0.2426  0.4183
 1854SOL    HW217199   0.251   4.326   5.530  0.2907 -1.0580  0.1339
 1855SOL     OW17200   1.370   1.773   3.916  0.3791  0.2043 -0.1312
 1855SOL    HW117201   1.349   1.857   3.957 -1.6298  0.6847 -2.1597
 1855SOL    HW217202   1.390   1.709   3.984 -0.6371 -0.1638 -0.1770
 1856SOL     OW17203   4.079   1.285   2.849 -0.5120 -0.4718 -0.0897
 1856SOL    HW117204   4.064   1.350   2.917 -1.1241 -0.6736 -0.0332
 1856SOL    HW217205   4.174   1.281   2.844 -0.5258 -1.3696  0.4849
 1857SOL     OW17206   3.431   1.407   7.561 -0.1110 -0.2260 -0.0822
 1857SOL    HW117207   3.379   1.452   7.494 -0.4812  0.7815  0.8823
 1857SOL    HW217208   3.488   1.355   7.505 -1.1726 -3.1847  1.6249
 1858SOL     OW17209   1.871   0.095   1.443  0.3834  0.4908 -0.1642
 1858SOL    HW117210   1.930   0.158   1.483  0.2661  0.6758 -0.2828
 1858SOL    HW217211   1.859   0.128   1.354  1.2330  0.2145 -0.3806
 1859SOL     OW17212   3.485   4.581   4.652  0.1483 -0.4763 -0.2240
 1859SOL    HW117213   3.449   4.602   4.738  0.5324  2.8623 -0.8621
 1859SOL    HW217214   3.578   4.597   4.670  0.0752 -2.0462  1.6261
 1860SOL     OW17215   3.633   0.153  11.438 -0.7284 -0.1110 -0.2652
 1860SOL    HW117216   3.584   0.072  11.452  0.9221 -0.5997  2.6506
 1860SOL    HW217217   3.653   0.138  11.345  1.5446  1.2346 -0.0052
 1861SOL     OW17218   1.647   0.848   7.331 -0.2572 -0.2380 -0.0162
 1861SOL    HW117219   1.686   0.824   7.247  2.4359 -1.2193  1.5351
 1861SOL    HW217220   1.726   0.852   7.384  0.1632  1.4362 -0.7941
 1862SOL     OW17221   3.731   0.417   8.032 -0.1290 -0.0077  0.0584
 1862SOL    HW117222   3.805   0.418   7.972  0.1862 -3.4583  0.3342
 1862SOL    HW217223   3.729   0.322   8.049 -0.2242 -0.0780 -0.3450
 1863SOL     OW17224   2.088   1.858   6.866 -0.2861 -0.1836 -0.3114
 1863SOL    HW117225   2.182   1.876   6.876  0.0226 -1.4399 -0.9310
 1863SOL    HW217226   2.055   1.925   6.925  0.4112  0.2858 -0.4463
 1864SOL     OW17227   4.115   1.577   7.647  0.1222 -0.5221 -0.2639
 1864SOL    HW117228   4.037   1.595   7.594  0.8646 -3.2875 -2.2851
 1864SOL    HW217229   4.114   1.482   7.644 -1.0843 -0.4419 -2.2341
 1865SOL     OW17230   3.253   1.281   2.701 -0.3504  0.1007 -0.7546
 1865SOL    HW117231   3.345   1.305   2.686 -0.3784  0.6191 -0.1045
 1865SOL    HW217232   3.215   1.369   2.695 -1.4793 -0.3980 -0.9343
 1866SOL     OW17233   3.102   2.309  13.219  0.1629 -0.0727 -0.3579
 1866SOL    HW117234   3.008   2.293  13.224  0.3695 -2.0689 -2.8197
 1866SOL    HW217235   3.120   2.216  13.237  1.3900  0.0448 -0.9705
 1867SOL     OW17236   4.247   3.366   7.735  0.0189  0.3421  0.5732
 1867SOL    HW117237   4.193   3.299   7.777  0.2837 -0.8850 -1.0337
 1867SOL    HW217238   4.325   3.368   7.791  1.1006 -0.7475 -0.8872
 1868SOL     OW17239   1.992   3.018   7.876  0.1905  0.0560  0.3343
 1868SOL    HW117240   1.980   2.960   7.951  0.5023 -0.3343  0.0799
 1868SOL    HW217241   2.085   3.007   7.856  0.1164 -0.1698  0.1137
 1869SOL     OW17242   0.154   2.199   4.876  0.0335  0.1492 -0.4193
 1869SOL    HW117243   0.121   2.275   4.829 -0.0992 -0.1714 -0.8493
 1869SOL    HW217244   0.239   2.206   4.831  0.1396  1.8228  0.0453
 1870SOL     OW17245   1.520   0.365   8.050  0.0588 -0.2789  0.1457
 1870SOL    HW117246   1.593   0.357   7.989  0.4430  3.2045  0.1502
 1870SOL    HW217247   1.535   0.446   8.098  0.5932 -1.7647  2.5142
 1871SOL     OW17248   1.970   1.497   0.735 -0.0727  0.0968 -0.4180
 1871SOL    HW117249   1.917   1.423   0.763 -0.7718  0.1825 -1.5366
 1871SOL    HW217250   1.898   1.560   0.724  0.6005  0.7261 -1.2677
 1872SOL     OW17251   3.940   1.397  13.164  0.1564  0.3992 -0.4372
 1872SOL    HW117252   4.003   1.447  13.216  0.7005 -2.3812  1.6009
 1872SOL    HW217253   3.871   1.462  13.151  0.3286  0.7627  0.4249
 1873SOL     OW17254   3.504   1.559  14.137  0.3124  0.2378 -0.4076
 1873SOL    HW117255   3.539   1.596  14.056 -0.0921  2.7379  0.5566
 1873SOL    HW217256   3.476   1.635  14.188 -0.7522 -0.9623  0.7902
 1874SOL     OW17257   3.025   0.690   8.632  0.2967  0.0727  0.3334
 1874SOL    HW117258   3.107   0.641   8.629 -0.7407 -1.6831  0.4248
 1874SOL    HW217259   3.047   0.779   8.659  0.7641  0.2172 -0.5316
 1875SOL     OW17260   3.466   2.457   6.231  0.6364  0.1385 -0.0118
 1875SOL    HW117261   3.456   2.466   6.325 -0.5795 -1.7709  0.0552
 1875SOL    HW217262   3.379   2.428   6.203  0.0750 -1.0380  2.9178
 1876SOL     OW17263   4.351   2.896   5.971  0.3175  0.4051 -0.4642
 1876SOL    HW117264   4.315   2.838   6.037  1.8695 -0.3641 -0.2906
 1876SOL    HW217265   4.441   2.863   5.970  0.6102  1.2570 -2.3418
 1877SOL     OW17266   4.623   2.666   9.933  0.0720  0.2005  0.1207
 1877SOL    HW117267   4.527   2.667   9.929  0.0299 -0.0869  1.1951
 1877SOL    HW217268   4.629   2.667  10.028  0.9314  0.0317  0.0602
 1878SOL     OW17269   0.076   1.195   4.964 -0.5365  0.3303  0.3392
 1878SOL    HW117270   0.157   1.154   4.934  0.6819  2.5706  0.5724
 1878SOL    HW217271   0.044   1.219   4.877 -1.9221 -1.9475  0.2267
 1879SOL     OW17272   2.865   2.483  10.305  0.3656  0.1844  0.3597
 1879SOL    HW117273   2.777   2.496  10.341 -0.9993  0.3872 -3.0358
 1879SOL    HW217274   2.902   2.484  10.393 -1.1399 -2.0333  1.0221
 1880SOL     OW17275   4.597   1.277   3.732 -0.0688  0.2743 -0.0760
 1880SOL    HW117276   4.525   1.258   3.672 -0.2193 -1.4929  0.6631
 1880SOL    HW217277   4.641   1.199   3.697  1.2386  0.8309  0.3304
 1881SOL     OW17278   4.104   2.283   6.491 -0.1066  0.5836 -0.5751
 1881SOL    HW117279   4.049   2.218   6.448  0.5366 -0.4395  0.1749
 1881SOL    HW217280   4.140   2.327   6.414  0.8042  1.1818  0.1943
 1882SOL     OW17281   4.288   3.374   9.234 -0.2557  0.4404  0.7592
 1882SOL    HW117282   4.303   3.282   9.257  0.9042  0.1402 -1.2335
 1882SOL    HW217283   4.375   3.404   9.259 -0.4761  0.6602  1.2705
 1883SOL     OW17284   1.053   3.154   4.344 -0.9226 -0.4016 -1.1147
 1883SOL    HW117285   1.129   3.212   4.331 -0.1858 -1.4639 -1.5739
 1883SOL    HW217286   1.033   3.126   4.255  0.9344 -1.1284 -1.3180
 1884SOL     OW17287   1.879   1.870   1.480 -0.1140 -0.1696 -0.1378
 1884SOL    HW117288   1.800   1.915   1.511  1.0073  1.8364 -0.1520
 1884SOL    HW217289   1.859   1.781   1.509 -0.0165 -0.2529 -0.3249
 1885SOL     OW17290   3.178   4.722   3.443  0.1200 -0.1372 -0.5325
 1885SOL    HW117291   3.157   4.637   3.482 -0.9070 -0.2108 -1.2239
 1885SOL    HW217292   3.263   0.005   3.480  0.0837 -1.7244  0.5072
 1886SOL     OW17293   2.767   4.525   5.940 -0.0142  0.1674 -0.1803
 1886SOL    HW117294   2.764   4.594   6.006 -1.7824  2.2435 -2.4510
 1886SOL    HW217295   2.826   4.459   5.976 -0.1855 -0.5384 -1.1987
 1887SOL     OW17296   0.381   3.097  11.405  0.0886 -0.2623 -0.9145
 1887SOL    HW117297   0.471   3.068  11.418  0.3428  0.9130 -0.0722
 1887SOL    HW217298   0.395   3.189  11.385 -2.0219  0.0937 -0.7714
 1888SOL     OW17299   0.787   3.587   9.820  0.3611 -0.9364 -0.0731
 1888SOL    HW117300   0.729   3.663   9.833 -0.7136 -1.5850 -1.0380
 1888SOL    HW217301   0.838   3.601   9.900 -0.9149  3.3730 -0.0209
 1889SOL     OW17302   3.665   1.239   6.765  0.3879  0.0754 -0.5490
 1889SOL    HW117303   3.636   1.190   6.842  3.0225  0.6477  0.8121
 1889SOL    HW217304   3.576   1.263   6.742  0.2904 -1.1887 -1.5056
 1890SOL     OW17305   0.242   2.645   2.525 -0.4023  0.0178 -0.4194
 1890SOL    HW117306   0.217   2.557   2.553  1.1371  0.0207  0.9812
 1890SOL    HW217307   0.220   2.696   2.603  2.0557  0.2701  0.1098
 1891SOL     OW17308   2.604   0.949   1.905 -0.4538 -0.1371  0.1572
 1891SOL    HW117309   2.572   0.936   1.994 -1.0621  2.1523  0.2844
 1891SOL    HW217310   2.602   0.861   1.868  3.1838  0.5451 -1.6875
 1892SOL     OW17311   1.650   3.696   5.946 -0.2744  0.7375 -0.2464
 1892SOL    HW117312   1.692   3.781   5.955  0.9082 -0.1587  2.7618
 1892SOL    HW217313   1.722   3.634   5.955 -0.5703  0.4472  0.1459
 1893SOL     OW17314   1.797   0.853   7.655  0.0824  0.1447  0.1174
 1893SOL    HW117315   1.728   0.806   7.702 -0.9486  0.7619 -0.7768
 1893SOL    HW217316   1.769   0.945   7.649 -0.4771  0.0318  1.0512
 1894SOL     OW17317   0.439   2.677   1.789  0.2585  0.4210 -0.7252
 1894SOL    HW117318   0.467   2.759   1.830  1.4958  1.1142 -2.9619
 1894SOL    HW217319   0.467   2.608   1.849 -2.8665  1.0686  1.4882
 1895SOL     OW17320   1.565   0.287   6.122  0.2962  0.9192  0.4598
 1895SOL    HW117321   1.575   0.200   6.086 -2.2690  0.0169  1.9462
 1895SOL    HW217322   1.570   0.272   6.217 -1.1581  2.6403  0.8232
 1896SOL     OW17323   3.471   2.583   4.471  0.2147  0.0084  0.0497
 1896SOL    HW117324   3.532   2.653   4.450  1.0332 -1.0542 -1.0808
 1896SOL    HW217325   3.432   2.622   4.549  3.4284 -0.1002  1.6720
 1897SOL     OW17326   2.617   1.970   6.861 -0.0688 -0.5065 -0.6509
 1897SOL    HW117327   2.617   1.960   6.957  0.7600 -3.1354 -0.9166
 1897SOL    HW217328   2.590   1.879   6.851  0.5892 -0.9700  1.7836
 1898SOL     OW17329   3.868   1.814   7.258 -0.0233 -0.6578 -0.4142
 1898SOL    HW117330   3.791   1.781   7.212 -0.4435 -0.9719  0.5074
 1898SOL    HW217331   3.891   1.863   7.179  0.7599 -0.2787  0.0506
 1899SOL     OW17332   0.095   0.885  16.775 -0.2422 -1.2644 -0.3964
 1899SOL    HW117333   0.181   0.847  16.763 -1.0597 -2.1552 -3.2914
 1899SOL    HW217334   0.068   0.834  16.851 -0.2016  0.0028  0.4839
 1900SOL     OW17335   1.873   0.493   6.725  0.0859 -0.4061  0.0227
 1900SOL    HW117336   1.949   0.435   6.733  0.1032 -0.3796  0.0522
 1900SOL    HW217337   1.814   0.439   6.672  2.3417  0.5627 -3.4369
 1901SOL     OW17338   1.525   2.881  12.472 -0.5814  0.0356 -0.4726
 1901SOL    HW117339   1.471   2.813  12.514  1.0711 -1.5771 -0.9779
 1901SOL    HW217340   1.600   2.880  12.531 -0.3607 -0.4263 -0.7690
 1902SOL     OW17341   3.236   2.937  11.365  0.1936 -0.2820  0.5338
 1902SOL    HW117342   3.283   2.937  11.449 -0.6312  0.6481  0.9895
 1902SOL    HW217343   3.213   2.844  11.371  1.5492 -0.5477  1.6486
 1903SOL     OW17344   4.399   3.962   5.154 -0.8023  0.5013  0.4674
 1903SOL    HW117345   4.339   3.896   5.186 -0.8976  0.9437  1.2000
 1903SOL    HW217346   4.429   3.916   5.075  0.2520 -0.0795  1.2011
 1904SOL     OW17347   4.477   4.067   5.506 -0.5280  0.7320 -0.1927
 1904SOL    HW117348   4.423   4.085   5.583  0.2200  0.5359  0.3757
 1904SOL    HW217349   4.403   4.091   5.449 -0.3932  2.5077  0.3784
 1905SOL     OW17350   4.258   3.651  15.278 -0.4859 -0.5467 -0.4711
 1905SOL    HW117351   4.352   3.656  15.264 -0.2438 -2.2056  0.5391
 1905SOL    HW217352   4.252   3.555  15.282  1.1222 -0.6319 -0.3505
 1906SOL     OW17353   0.433   1.697   5.365 -0.0078  0.1320  0.5662
 1906SOL    HW117354   0.438   1.649   5.447  0.7318  0.1718  0.5496
 1906SOL    HW217355   0.525   1.721   5.352 -0.0238 -0.3152 -0.4430
 1907SOL     OW17356   0.965   0.649   3.708  0.2251 -0.9062 -0.0157
 1907SOL    HW117357   0.926   0.612   3.628  1.1911 -0.5418 -0.6533
 1907SOL    HW217358   1.042   0.594   3.721  0.6832 -0.1015  0.6307
 1908SOL     OW17359   1.294   1.204   3.467  0.4100 -0.0712  0.3607
 1908SOL    HW117360   1.367   1.267   3.466  1.4478 -1.2419  1.2669
 1908SOL    HW217361   1.251   1.229   3.386  0.2862 -2.6965 -0.3694
 1909SOL     OW17362   2.247   2.744   6.432 -0.0629  0.4283  0.1144
 1909SOL    HW117363   2.258   2.663   6.382 -1.6857 -0.1260  0.6295
 1909SOL    HW217364   2.200   2.810   6.381  1.5010  1.3523 -0.1295
 1910SOL     OW17365   3.750   2.702  10.900 -0.4888 -0.2221  0.6285
 1910SOL    HW117366   3.665   2.658  10.913 -1.4457  0.9286 -1.6928
 1910SOL    HW217367   3.800   2.626  10.873  2.8923  1.9965  0.7246
 1911SOL     OW17368   0.276   2.541   7.246 -0.0624 -0.2822 -0.0196
 1911SOL    HW117369   0.321   2.623   7.265 -1.3169  0.9269 -2.1994
 1911SOL    HW217370   0.207   2.570   7.186  1.2275 -0.8602 -1.7635
 1912SOL     OW17371   1.889   1.545  17.616 -0.1804 -0.2692  0.0839
 1912SOL    HW117372   1.943   1.497  17.553 -0.3284  0.0259 -0.2708
 1912SOL    HW217373   1.948   1.562  17.689 -0.1587  1.3523 -0.3097
 1913SOL     OW17374   3.576   3.189  10.904  0.4047 -0.3184  0.2921
 1913SOL    HW117375   3.647   3.193  10.969  0.9886 -1.7806 -0.2565
 1913SOL    HW217376   3.514   3.250  10.944 -2.0172 -1.9948 -0.9544
 1914SOL     OW17377   4.078   1.953   7.532 -0.0555 -0.1892  0.1604
 1914SOL    HW117378   4.091   2.043   7.503  0.2910 -0.7250 -1.3330
 1914SOL    HW217379   4.067   1.913   7.446  0.7330  0.0904 -0.0617
 1915SOL     OW17380   2.354   1.474   0.773 -0.4651  0.1983 -0.1367
 1915SOL    HW117381   2.303   1.508   0.700 -2.8650  0.9743  1.9047
 1915SOL    HW217382   2.310   1.392   0.794 -3.7281  1.7702 -0.7821
 1916SOL     OW17383   4.498   1.693   4.037  0.4432 -0.2892 -0.0715
 1916SOL    HW117384   4.499   1.599   4.021  2.1816 -0.2166 -0.3891
 1916SOL    HW217385   4.566   1.724   3.978  0.0882 -0.3912 -0.5294
 1917SOL     OW17386   3.735   2.027   3.941 -0.0039 -0.1499 -0.0868
 1917SOL    HW117387   3.656   1.991   3.981  0.1418 -0.0869  0.2620
 1917SOL    HW217388   3.789   2.014   4.019 -1.0857 -3.3700  0.1272
 1918SOL     OW17389   2.382   2.994   6.168 -0.3168 -0.5081 -0.0648
 1918SOL    HW117390   2.298   3.007   6.124 -0.1708  0.4653 -0.0576
 1918SOL    HW217391   2.432   2.973   6.089 -2.2573 -2.3385 -0.7918
 1919SOL     OW17392   0.292   0.328  16.810 -0.7009  0.5187 -0.4301
 1919SOL    HW117393   0.249   0.414  16.814  0.2390  0.9555  0.2798
 1919SOL    HW217394   0.308   0.302  16.901  1.5968 -3.5984 -2.0299
 1920SOL     OW17395   3.498   4.176   5.152 -0.2766  0.6153 -0.0811
 1920SOL    HW117396   3.458   4.188   5.238  0.7298 -2.1084  0.7461
 1920SOL    HW217397   3.441   4.116   5.106 -0.2968  0.7861 -0.2788
 1921SOL     OW17398   4.304   0.595   9.088 -0.3171  0.5038 -0.2421
 1921SOL    HW117399   4.330   0.567   9.176  2.0695  1.1088 -0.7744
 1921SOL    HW217400   4.227   0.542   9.066 -0.4425  0.2395  0.8304
 1922SOL     OW17401   2.795   0.464   5.167  0.2232  0.0985  0.1706
 1922SOL    HW117402   2.865   0.422   5.116  0.3703  1.3524 -0.6543
 1922SOL    HW217403   2.846   0.491   5.243 -1.1663  0.1305  1.0873
 1923SOL     OW17404   2.587   0.217   2.433 -0.0051 -0.3290  0.4373
 1923SOL    HW117405   2.540   0.288   2.477  0.3120  0.9625 -1.3187
 1923SOL    HW217406   2.594   0.244   2.342 -1.0517  0.9741  0.7420
 1924SOL     OW17407   4.626   2.844   7.910  0.5793  0.5988 -0.3302
 1924SOL    HW117408   4.671   2.884   7.835 -0.1254  2.1698  0.0786
 1924SOL    HW217409   4.699   2.795   7.947 -0.4677  0.4754  1.5954
 1925SOL     OW17410   0.955   0.908   4.513  0.3219 -0.3271  0.4326
 1925SOL    HW117411   1.001   0.875   4.590  0.5312 -2.0973 -0.4741
 1925SOL    HW217412   1.017   0.965   4.467  1.2465 -0.3322  1.6874
 1926SOL     OW17413   3.237   3.202   5.206 -0.0623 -0.3110 -0.8980
 1926SOL    HW117414   3.150   3.165   5.224  1.1740 -2.9805 -0.3538
 1926SOL    HW217415   3.215   3.264   5.137 -2.6086 -0.3547 -0.1172
 1927SOL     OW17416   2.065   4.572  14.925 -0.3078  0.3657 -0.3768
 1927SOL    HW117417   2.011   4.493  14.931 -1.7064  1.4729  1.5444
 1927SOL    HW217418   2.007   4.640  14.959 -2.7870 -0.7349 -2.3550
 1928SOL     OW17419   2.238   4.303  16.850 -0.5498  0.2921  0.6702
 1928SOL    HW117420   2.269   4.225  16.897  0.5965  0.1921 -0.2416
 1928SOL    HW217421   2.145   4.307  16.873 -0.4976  0.6251  0.8186
 1929SOL     OW17422   0.298   1.866  16.867 -0.2420  0.0396  0.4466
 1929SOL    HW117423   0.234   1.878  16.798 -0.1408 -2.5878 -0.1091
 1929SOL    HW217424   0.369   1.819  16.823  0.4619  1.4014  0.1403
 1930SOL     OW17425   0.064   2.666   5.391 -0.2943  0.2429  0.1522
 1930SOL    HW117426   0.083   2.745   5.441 -1.2415  2.3062 -2.7500
 1930SOL    HW217427   4.725   2.695   5.344 -0.0501 -1.0098 -1.0419
 1931SOL     OW17428   0.402   0.980   5.958 -0.2021  0.2060 -0.0407
 1931SOL    HW117429   0.361   0.924   5.891  0.5308 -0.2246 -0.1263
 1931SOL    HW217430   0.347   1.058   5.968  0.3656  0.4439  1.2680
 1932SOL     OW17431   2.681   3.937   3.493  0.8737  0.0614 -0.2590
 1932SOL    HW117432   2.715   4.024   3.515 -2.4482  1.3827 -0.4709
 1932SOL    HW217433   2.691   3.889   3.576 -0.3441  0.8869  0.3583
 1933SOL     OW17434   1.236   0.463  16.826  0.7411 -0.3799  0.0229
 1933SOL    HW117435   1.305   0.397  16.826 -0.3321 -1.4907  0.0420
 1933SOL    HW217436   1.187   0.439  16.904 -0.0698 -0.7315 -0.5855
 1934SOL     OW17437   0.835   0.763   1.797  0.4161 -0.6096 -0.5405
 1934SOL    HW117438   0.792   0.738   1.715 -0.6583 -0.6272  0.0386
 1934SOL    HW217439   0.889   0.684   1.804  2.5942  0.6998 -2.8165
 1935SOL     OW17440   1.841   2.747   1.251  0.2918  0.4444 -0.3172
 1935SOL    HW117441   1.853   2.680   1.184  1.0060 -1.0549  1.3167
 1935SOL    HW217442   1.910   2.811   1.230 -0.2261  1.4365  0.9831
 1936SOL     OW17443   2.386   0.550   7.085  0.2387  0.9445  0.2256
 1936SOL    HW117444   2.365   0.467   7.042  2.2267  0.7691 -0.4206
 1936SOL    HW217445   2.361   0.620   7.025  0.6130  0.5537 -0.3830
 1937SOL     OW17446   2.545   0.967   7.591 -0.4883  1.2161  0.2708
 1937SOL    HW117447   2.639   0.983   7.594  0.0262 -1.4523 -1.8517
 1937SOL    HW217448   2.532   0.986   7.684 -1.0537  2.3620 -0.0366
 1938SOL     OW17449   0.330   0.373   7.692 -0.0617  0.3615 -0.8057
 1938SOL    HW117450   0.407   0.390   7.746  0.0226 -1.8169 -0.2306
 1938SOL    HW217451   0.336   0.453   7.640  2.5402 -0.3498 -1.6286
 1939SOL     OW17452   3.060   1.801   6.784  0.6053  0.3163  0.2239
 1939SOL    HW117453   3.137   1.823   6.837  1.2163 -2.0173  0.3155
 1939SOL    HW217454   3.094   1.852   6.711 -0.5858  0.6373 -0.0973
 1940SOL     OW17455   4.434   0.694   2.041  0.7230  1.1974  0.6508
 1940SOL    HW117456   4.426   0.726   2.131  0.3532  3.7261 -0.2872
 1940SOL    HW217457   4.343   0.714   2.017  1.1862  0.4232 -1.7686
 1941SOL     OW17458   1.537   3.628  12.175  0.7743 -0.0344 -0.0564
 1941SOL    HW117459   1.565   3.705  12.224  0.3373  0.7365 -1.0142
 1941SOL    HW217460   1.592   3.559  12.212  0.6327 -0.6336 -0.9699
 1942SOL     OW17461   4.438   3.167   7.597  0.0654  0.0824  0.1061
 1942SOL    HW117462   4.355   3.196   7.560 -0.8402  0.5881  2.5763
 1942SOL    HW217463   4.491   3.245   7.580 -0.6084  0.1613 -1.6828
 1943SOL     OW17464   2.134   1.609   4.969  0.3751 -0.4879 -0.0237
 1943SOL    HW117465   2.192   1.553   4.919 -0.5093 -1.5373  0.1302
 1943SOL    HW217466   2.160   1.595   5.060  2.3579  1.3280 -0.3281
 1944SOL     OW17467   0.400   3.658   7.700  0.3491  0.3880  0.2742
 1944SOL    HW117468   0.352   3.662   7.618  2.2399 -2.0082 -0.9513
 1944SOL    HW217469   0.474   3.600   7.683  0.9195  0.5751  2.1298
 1945SOL     OW17470   0.576   3.052   6.966  0.3135  0.3215 -0.2856
 1945SOL    HW117471   0.538   3.048   6.878  4.4891 -0.7344 -2.0421
 1945SOL    HW217472   0.575   2.963   7.001  1.8219  0.8772  1.1511
 1946SOL     OW17473   1.253   0.496   7.778 -0.0387  0.5187  0.0485
 1946SOL    HW117474   1.187   0.548   7.822  0.1331 -0.6246  1.6499
 1946SOL    HW217475   1.277   0.547   7.701  2.8592  0.5554  0.9625
 1947SOL     OW17476   3.780   3.247  17.627 -0.2627  0.2642  0.1483
 1947SOL    HW117477   3.859   3.221  17.675 -1.1937 -0.2985  1.3618
 1947SOL    HW217478   3.754   3.323  17.679 -2.5989 -0.8581  0.6226
 1948SOL     OW17479   3.151   2.260   7.583 -0.5599  0.0424 -0.6769
 1948SOL    HW117480   3.089   2.325   7.550  0.8246  1.0557 -1.2757
 1948SOL    HW217481   3.230   2.314   7.580  0.6513 -1.7576 -1.0516
 1949SOL     OW17482   0.789   1.466  16.011 -0.0314 -0.3301  0.5297
 1949SOL    HW117483   0.800   1.488  15.918  1.2149 -0.0481  0.7406
 1949SOL    HW217484   0.714   1.408  15.999  0.4040 -0.5611 -1.2063
 1950SOL     OW17485   3.538   4.651   5.704 -0.2040 -0.3877 -0.4853
 1950SOL    HW117486   3.574   4.738   5.685  2.9355 -1.0557  2.4594
 1950SOL    HW217487   3.454   4.678   5.741  0.4115  0.9627 -0.0710
 1951SOL     OW17488   2.762   4.531  13.209  0.1230 -0.2482 -0.0757
 1951SOL    HW117489   2.702   4.496  13.275 -0.7388  1.3102 -0.0160
 1951SOL    HW217490   2.713   4.613  13.198  0.4307  0.0839  1.0371
 1952SOL     OW17491   3.856   1.072   7.291  0.3494 -0.5108 -0.0663
 1952SOL    HW117492   3.767   1.080   7.327  0.6571 -0.6119  0.7272
 1952SOL    HW217493   3.843   1.045   7.200  1.6013 -0.4606 -0.2665
 1953SOL     OW17494   2.303   1.185   4.677  0.0430 -0.5279 -0.3311
 1953SOL    HW117495   2.348   1.168   4.760 -0.0463 -0.5013 -0.2778
 1953SOL    HW217496   2.300   1.100   4.634 -1.0693 -1.2411  1.1529
 1954SOL     OW17497   2.230   0.811   1.324  0.4159 -0.0574  0.2698
 1954SOL    HW117498   2.281   0.798   1.405  2.3835  0.0540 -0.9442
 1954SOL    HW217499   2.231   0.906   1.312  1.0981 -0.1289 -0.2522
 1955SOL     OW17500   3.432   1.643   6.049  0.0401  0.4218  0.0760
 1955SOL    HW117501   3.432   1.642   5.953  0.1979 -0.0222  0.0811
 1955SOL    HW217502   3.475   1.559   6.065  2.7996  1.7148 -0.5011
 1956SOL     OW17503   3.977   3.538  13.866 -0.2605  0.1482  0.3906
 1956SOL    HW117504   3.969   3.559  13.773 -0.6928 -1.4878  0.0589
 1956SOL    HW217505   3.990   3.625  13.904  0.1334  1.1086 -1.9734
 1957SOL     OW17506   4.355   2.224   3.938 -0.5124 -0.3216 -0.1037
 1957SOL    HW117507   4.395   2.139   3.922  2.3071  1.3792 -2.1906
 1957SOL    HW217508   4.263   2.202   3.949  0.2279 -2.1013  2.3429
 1958SOL     OW17509   3.579   2.155  14.670 -0.1378 -0.2348 -0.4526
 1958SOL    HW117510   3.520   2.092  14.710 -1.8535  0.3636 -2.0122
 1958SOL    HW217511   3.669   2.127  14.685  0.0331  0.3775 -0.3400
 1959SOL     OW17512   3.688   3.468   5.084 -0.7048 -0.3123  0.5567
 1959SOL    HW117513   3.727   3.547   5.119 -0.2896 -0.3651  0.2252
 1959SOL    HW217514   3.666   3.426   5.167  0.2916 -0.6504  0.6589
 1960SOL     OW17515   3.652   1.234   1.586 -0.4105 -0.0227 -0.4333
 1960SOL    HW117516   3.643   1.187   1.668  0.6541 -1.3142 -1.0673
 1960SOL    HW217517   3.727   1.190   1.546  1.0883  1.5556  0.5899
 1961SOL     OW17518   4.495   3.383   2.028 -0.5494 -0.3950 -0.2953
 1961SOL    HW117519   4.481   3.444   2.100 -3.1807  1.0058 -1.9898
 1961SOL    HW217520   4.508   3.299   2.071  2.4078 -0.1009 -0.5611
 1962SOL     OW17521   0.697   3.384   7.911 -0.8534 -0.1114 -0.5443
 1962SOL    HW117522   0.769   3.414   7.967 -0.3372 -0.6112 -0.9434
 1962SOL    HW217523   0.748   3.327   7.854 -1.4524  0.1853 -1.3901
 1963SOL     OW17524   1.110   2.161  17.721 -0.5921 -0.0888  0.0419
 1963SOL    HW117525   1.144   2.075  17.746  0.8128  0.1798 -0.8956
 1963SOL    HW217526   1.061   2.186   0.044 -1.3485 -0.6127 -0.2696
 1964SOL     OW17527   4.603   3.579   9.016 -0.0503 -0.0877 -0.0360
 1964SOL    HW117528   4.542   3.626   8.960 -1.1393  1.5581  2.5025
 1964SOL    HW217529   4.544   3.547   9.085  0.4463 -3.0780 -0.9827
 1965SOL     OW17530   3.418   3.476   8.127 -0.1842  0.1991  0.4474
 1965SOL    HW117531   3.332   3.489   8.167  0.4794  2.4774  1.1667
 1965SOL    HW217532   3.460   3.559   8.150 -1.2255  0.8292  0.0493
 1966SOL     OW17533   1.649   1.030  14.362  0.2603 -0.0325  0.1331
 1966SOL    HW117534   1.678   1.079  14.439  0.2437 -0.1718  0.2265
 1966SOL    HW217535   1.585   1.097  14.337 -0.2521 -0.9023 -0.8733
 1967SOL     OW17536   1.354   1.561   8.091 -0.4837 -0.2387 -0.0258
 1967SOL    HW117537   1.419   1.504   8.051  1.0401  0.9820  0.6845
 1967SOL    HW217538   1.329   1.505   8.164  0.5950  2.8076  2.6709
 1968SOL     OW17539   2.470   3.127   5.528 -0.1080  0.0614 -0.1947
 1968SOL    HW117540   2.399   3.106   5.467  0.4344  0.3928 -0.9364
 1968SOL    HW217541   2.456   3.221   5.539  0.3885  0.1524 -0.3455
 1969SOL     OW17542   4.600   1.075   4.293  0.1696  0.1444 -0.1352
 1969SOL    HW117543   4.647   0.996   4.322  1.0509  0.4258 -0.7909
 1969SOL    HW217544   4.572   1.053   4.204 -0.2532 -1.4173  0.3922
 1970SOL     OW17545   3.324   2.800   2.998 -0.1823  0.1152  0.0719
 1970SOL    HW117546   3.298   2.778   2.909  0.2754 -0.9972  0.2190
 1970SOL    HW217547   3.291   2.725   3.046 -1.0816  0.5334  0.1006
 1971SOL     OW17548   2.926   1.308   5.688 -0.1629 -0.4516  0.0559
 1971SOL    HW117549   2.868   1.232   5.676  1.0686 -1.2526 -0.8722
 1971SOL    HW217550   2.911   1.319   5.782  0.5919  0.1327  0.1072
 1972SOL     OW17551   0.822   0.172   2.715  0.2658 -0.7654  0.1005
 1972SOL    HW117552   0.777   0.140   2.637 -0.6371  0.8972 -0.0677
 1972SOL    HW217553   0.749   0.145   2.772 -0.5727  0.7422 -0.2685
 1973SOL     OW17554   2.872   3.275   6.089 -0.0574  0.1662 -0.0107
 1973SOL    HW117555   2.810   3.347   6.084  0.6016  0.9143  2.5072
 1973SOL    HW217556   2.874   3.269   6.184  4.9814 -3.0810 -0.3301
 1974SOL     OW17557   2.615   3.142  11.622  0.0605 -0.1538  0.2125
 1974SOL    HW117558   2.598   3.085  11.697 -0.4921 -1.1988 -0.7128
 1974SOL    HW217559   2.628   3.227  11.664  1.2245 -0.9083  1.3772
 1975SOL     OW17560   2.998   0.814   0.880  0.1677  0.1044 -0.0590
 1975SOL    HW117561   2.930   0.750   0.860  0.0039 -0.6087  2.6971
 1975SOL    HW217562   3.074   0.766   0.845 -0.1306 -0.9745  0.7668
 1976SOL     OW17563   3.224   3.077  16.044  0.2568  0.8236  0.3069
 1976SOL    HW117564   3.218   3.145  15.977  0.7388  2.6153  2.0902
 1976SOL    HW217565   3.156   3.015  16.016  0.9187  0.2479 -0.0355
 1977SOL     OW17566   3.839   3.157   5.713  0.0214  0.7899  0.5534
 1977SOL    HW117567   3.912   3.213   5.688  1.2901 -1.9708 -1.9787
 1977SOL    HW217568   3.844   3.083   5.653  0.5247  1.4294 -0.1872
 1978SOL     OW17569   1.111   2.594   0.088 -0.3601 -0.2663  0.3667
 1978SOL    HW117570   1.179   2.586   0.021  1.1536  1.6758  1.6992
 1978SOL    HW217571   1.055   2.521   0.060  0.6034  0.1225 -2.5780
 1979SOL     OW17572   2.974   3.179   8.709 -0.0946 -0.4431  0.4448
 1979SOL    HW117573   2.883   3.149   8.715 -0.0076 -0.9791 -0.7598
 1979SOL    HW217574   3.006   3.115   8.645 -0.3084 -0.2293  0.1229
 1980SOL     OW17575   1.254   3.654   6.724 -0.5169  0.0675 -0.0521
 1980SOL    HW117576   1.256   3.608   6.640 -0.2520 -0.3462  0.1815
 1980SOL    HW217577   1.337   3.700   6.710 -1.1519  2.1969  3.0140
 1981SOL     OW17578   4.500   0.392   7.777  0.0837 -0.1976 -0.1403
 1981SOL    HW117579   4.474   0.300   7.774 -1.3234  0.1884  0.2816
 1981SOL    HW217580   4.584   0.391   7.732  0.1855  0.3136  0.0357
 1982SOL     OW17581   3.235   0.055   5.419 -0.3775 -0.2550 -0.2201
 1982SOL    HW117582   3.206   4.704   5.411 -0.0207 -0.4472  0.6034
 1982SOL    HW217583   3.268   0.052   5.509  0.7658  0.2314 -0.6155
 1983SOL     OW17584   3.637   2.138   7.882  0.2345  0.1717 -0.3905
 1983SOL    HW117585   3.570   2.069   7.876 -2.5546  2.9578 -1.4466
 1983SOL    HW217586   3.706   2.089   7.837  0.4343 -0.5751  0.7268
 1984SOL     OW17587   2.260   2.158   4.182 -0.2395 -0.5147 -0.2996
 1984SOL    HW117588   2.293   2.248   4.185  1.1580 -0.9366 -3.0368
 1984SOL    HW217589   2.248   2.149   4.277 -4.5276 -0.4139 -0.8012
 1985SOL     OW17590   0.680   2.553   6.788  0.2322 -0.2708  0.2823
 1985SOL    HW117591   0.587   2.533   6.800 -0.1339 -0.1007 -2.3247
 1985SOL    HW217592   0.718   2.504   6.862  1.3648 -1.7036 -1.2415
 1986SOL     OW17593   4.169   2.722   7.019 -0.4609 -0.5604 -0.2373
 1986SOL    HW117594   4.191   2.700   7.109  1.4776 -1.3873 -0.9017
 1986SOL    HW217595   4.142   2.633   6.994  0.4146 -1.3159  1.5234
 1987SOL     OW17596   2.602   0.651   4.968  0.1165 -0.7363  0.6554
 1987SOL    HW117597   2.672   0.598   4.930  1.1675  0.4426  0.9506
 1987SOL    HW217598   2.535   0.583   4.958 -0.0856 -0.6237  1.2401
 1988SOL     OW17599   2.605   1.240  11.435 -0.3574 -0.1182  0.1910
 1988SOL    HW117600   2.594   1.205  11.523 -0.1703  3.6312  1.6801
 1988SOL    HW217601   2.519   1.273  11.409 -0.8928 -2.3074 -0.8814
 1989SOL     OW17602   2.773   4.612   9.958 -0.6339 -0.1318  0.2250
 1989SOL    HW117603   2.701   4.559   9.924 -0.0647  0.9935 -2.7467
 1989SOL    HW217604   2.739   4.659  10.034  0.3924  2.0450 -0.6884
 1990SOL     OW17605   2.174   1.589   3.606  0.2677 -0.3147 -0.3059
 1990SOL    HW117606   2.252   1.594   3.661 -0.2498  1.9924  0.2384
 1990SOL    HW217607   2.193   1.537   3.528  0.6465  0.6144 -0.8393
 1991SOL     OW17608   2.964   2.258   7.939  0.0764  0.1976  0.2687
 1991SOL    HW117609   2.875   2.259   7.903  0.5863  1.5182 -0.9907
 1991SOL    HW217610   2.964   2.193   8.009  0.4341 -0.6997 -0.5530
 1992SOL     OW17611   4.673   0.306  17.425  0.3715 -0.1029 -0.4685
 1992SOL    HW117612   4.663   0.393  17.388 -0.5129 -0.5661 -1.3170
 1992SOL    HW217613   0.019   0.277  17.392  0.3149 -1.8012  0.8408
 1993SOL     OW17614   1.661   0.805  17.484 -0.2048  0.2848  0.7348
 1993SOL    HW117615   1.754   0.793  17.467 -0.0807 -2.1111  3.1058
 1993SOL    HW217616   1.653   0.759  17.567  0.0102  1.6436  1.5011
 1994SOL     OW17617   0.298   4.152   3.256  0.3142  0.7067 -0.2376
 1994SOL    HW117618   0.352   4.097   3.199  1.7358  0.9088  0.9382
 1994SOL    HW217619   0.366   4.188   3.313  0.5077 -0.2066  0.1151
 1995SOL     OW17620   3.640   4.143  14.769 -0.3101  0.2352  0.0243
 1995SOL    HW117621   3.578   4.115  14.701 -2.3423 -0.6106  2.2559
 1995SOL    HW217622   3.691   4.064  14.785  1.0624  0.8780 -1.1220
 1996SOL     OW17623   3.070   4.643   9.143  0.3863  0.3130 -0.0521
 1996SOL    HW117624   3.104   4.622   9.230 -2.5752 -1.7177  0.6246
 1996SOL    HW217625   3.032   4.557   9.123  0.1813 -0.3523  3.2386
 1997SOL     OW17626   2.476   4.551  13.895 -0.5686  0.1428 -0.1350
 1997SOL    HW117627   2.511   4.501  13.822  1.0062 -0.5278  1.0773
 1997SOL    HW217628   2.413   4.610  13.855  2.4292  2.3056 -1.6875
 1998SOL     OW17629   0.705   4.454   6.997  0.2195  0.0161  0.0192
 1998SOL    HW117630   0.712   4.525   7.060  1.6032  0.0926 -0.2157
 1998SOL    HW217631   0.611   4.436   6.994 -0.2393  2.2125  1.3629
 1999SOL     OW17632   0.950   2.002  15.139  0.3779 -0.4896 -0.6255
 1999SOL    HW117633   0.996   1.996  15.223 -0.0676 -1.9500 -0.4845
 1999SOL    HW217634   1.000   1.942  15.083  0.1141 -1.4831  0.1841
 2000SOL     OW17635   4.435   1.266   9.414  0.6331 -0.2444 -0.3787
 2000SOL    HW117636   4.370   1.205   9.379 -0.0553  0.3542 -0.1211
 2000SOL    HW217637   4.512   1.226   9.374  0.6480  0.6446 -1.2295
 2001SOL     OW17638   1.417   1.391   1.712 -0.1623  0.6119 -0.3697
 2001SOL    HW117639   1.377   1.456   1.655  1.9649  2.6118  0.4209
 2001SOL    HW217640   1.355   1.385   1.784  1.6810  2.1721  1.3593
 2002SOL     OW17641   4.596   0.957  11.012 -0.3599  0.4682 -0.0594
 2002SOL    HW117642   4.620   1.049  11.020 -2.3024  0.8787  0.9704
 2002SOL    HW217643   4.550   0.931  11.092  2.4430  0.8139  1.6628
 2003SOL     OW17644   2.092   2.038   5.188 -1.0440  0.5834 -0.7573
 2003SOL    HW117645   2.081   2.049   5.093 -1.6642 -0.1780 -0.7811
 2003SOL    HW217646   2.143   2.117   5.202 -2.4800  0.9282  2.4017
 2004SOL     OW17647   1.849   0.073   4.194 -0.5545  0.0237 -0.0771
 2004SOL    HW117648   1.937   0.039   4.206 -0.3866  0.4654 -0.0726
 2004SOL    HW217649   1.836   0.128   4.271  1.0063 -0.3180  0.4317
 2005SOL     OW17650   1.904   3.067   4.462  0.0459 -0.6233 -0.1124
 2005SOL    HW117651   1.948   3.092   4.543 -0.0201 -3.4482  0.8225
 2005SOL    HW217652   1.935   3.130   4.398  0.5199 -0.2660  0.4670
 2006SOL     OW17653   3.381   4.073   4.350 -0.0562 -0.2681 -0.1278
 2006SOL    HW117654   3.333   4.033   4.278  1.9692 -3.4677  0.2973
 2006SOL    HW217655   3.398   4.157   4.308 -0.6175  0.0478  0.2663
 2007SOL     OW17656   4.045   4.443   7.496  0.2111 -0.1364  0.0955
 2007SOL    HW117657   4.125   4.393   7.515 -0.7743 -1.0418  1.8095
 2007SOL    HW217658   3.986   4.399   7.556 -0.0710 -1.7407 -1.3680
 2008SOL     OW17659   4.734   0.344   7.314  0.4774 -0.1808  0.4292
 2008SOL    HW117660   4.672   0.416   7.322  1.7887  1.0408 -0.4353
 2008SOL    HW217661   4.685   0.269   7.348  2.4475 -0.5741  2.4463
 2009SOL     OW17662   4.113   1.883   6.762  0.4133 -0.4521 -0.1896
 2009SOL    HW117663   4.115   1.979   6.764  3.2274 -0.5175  0.3817
 2009SOL    HW217664   4.055   1.856   6.833  0.8798 -1.0063 -0.0244
 2010SOL     OW17665   3.351   1.725  15.804  0.1792 -0.4292 -0.0521
 2010SOL    HW117666   3.303   1.765  15.876  0.4903  2.2063 -1.3343
 2010SOL    HW217667   3.304   1.641  15.798 -1.3624  0.5887 -2.2020
 2011SOL     OW17668   3.027   3.082   5.526  0.2153 -0.2195 -0.1239
 2011SOL    HW117669   3.018   3.097   5.620 -1.2382 -0.8203 -0.1570
 2011SOL    HW217670   3.120   3.095   5.511 -0.3059  0.8395 -2.6335
 2012SOL     OW17671   4.192   1.971   5.696  0.1234  0.1739  0.4549
 2012SOL    HW117672   4.258   1.943   5.633 -0.9843  2.1604 -1.5847
 2012SOL    HW217673   4.250   1.961   5.771 -0.3176  0.9575  0.8965
 2013SOL     OW17674   2.664   1.500   7.481  0.2495  0.2569 -0.4503
 2013SOL    HW117675   2.744   1.546   7.457  0.9136 -1.1494 -0.9139
 2013SOL    HW217676   2.706   1.418   7.506  0.0858  1.1779  2.8588
 2014SOL     OW17677   1.097   0.588  13.749  0.0019  0.2225 -0.2018
 2014SOL    HW117678   1.108   0.578  13.654 -1.7046  1.8007 -0.5532
 2014SOL    HW217679   1.017   0.639  13.742 -0.9001 -1.2566 -0.5398
 2015SOL     OW17680   3.262   3.886   8.315  0.3225  0.2855  0.2695
 2015SOL    HW117681   3.324   3.918   8.380 -0.1044  0.6277  0.5116
 2015SOL    HW217682   3.185   3.885   8.372  0.6287 -3.4571  0.6210
 2016SOL     OW17683   0.783   0.641   5.001 -0.0782  0.2083  0.6270
 2016SOL    HW117684   0.821   0.670   4.918 -1.4109  0.7771  0.2235
 2016SOL    HW217685   0.844   0.685   5.060  1.8258 -0.1252 -1.0795
 2017SOL     OW17686   3.353   2.800   4.266  0.0328  0.6148  0.1066
 2017SOL    HW117687   3.384   2.807   4.176  0.1001  0.5253  0.1232
 2017SOL    HW217688   3.348   2.705   4.274 -3.4017  0.9331  2.0522
 2018SOL     OW17689   2.820   4.404  14.768  0.1975  0.0887  0.6387
 2018SOL    HW117690   2.847   4.313  14.779 -2.6160 -0.8311 -0.1044
 2018SOL    HW217691   2.899   4.449  14.797 -0.1580  0.3439  1.2007
 2019SOL     OW17692   3.423   2.090   4.980 -0.1675 -0.0826 -0.0365
 2019SOL    HW117693   3.420   1.994   4.986 -2.5090  0.0621  0.8997
 2019SOL    HW217694   3.384   2.116   5.063 -4.1478 -1.1566 -1.5996
 2020SOL     OW17695   4.103   1.259  10.331  0.2353 -0.1915  0.1192
 2020SOL    HW117696   4.073   1.176  10.370 -2.4249  1.0294  0.7174
 2020SOL    HW217697   4.153   1.211  10.265  0.8784  0.5355  0.0822
 2021SOL     OW17698   4.279   0.737   4.073  0.3675 -0.4057  0.3960
 2021SOL    HW117699   4.256   0.716   3.982  1.0641 -0.4212  0.2266
 2021SOL    HW217700   4.244   0.664   4.125 -1.4059  0.4625  0.4252
 2022SOL     OW17701   1.465   3.898   9.629 -0.1244  0.1426 -0.0261
 2022SOL    HW117702   1.462   3.993   9.633  1.0543  0.1642  0.3223
 2022SOL    HW217703   1.460   3.885   9.724  1.6084  1.8277  0.2851
 2023SOL     OW17704   1.489   1.544   2.599 -0.2399  0.0474  0.4617
 2023SOL    HW117705   1.543   1.485   2.546 -0.6715 -0.3832  0.4997
 2023SOL    HW217706   1.522   1.508   2.682 -0.9881  1.0377  1.1821
 2024SOL     OW17707   1.062   2.753   6.932  0.3378 -0.5601 -0.5154
 2024SOL    HW117708   1.057   2.800   6.849  0.1028  0.3804  0.0347
 2024SOL    HW217709   1.143   2.702   6.926  0.9421  0.1111  1.6796
 2025SOL     OW17710   3.841   1.535   7.577 -0.8890 -0.3526  0.7738
 2025SOL    HW117711   3.814   1.482   7.502  1.5842 -1.5862  0.7783
 2025SOL    HW217712   3.763   1.547   7.632 -1.8359  1.1672 -0.8957
 2026SOL     OW17713   0.492   4.164   5.293  0.4837  0.3556 -0.3126
 2026SOL    HW117714   0.512   4.176   5.200  1.0795  0.9942 -0.1074
 2026SOL    HW217715   0.401   4.137   5.293 -0.6208  4.0583 -2.0720
 2027SOL     OW17716   1.838   3.007   2.922  0.3162 -0.1031  0.7292
 2027SOL    HW117717   1.871   2.954   2.850 -0.5482 -0.2544  0.4408
 2027SOL    HW217718   1.762   2.957   2.954  1.5209 -0.6788  2.7005
 2028SOL     OW17719   0.457   0.163   2.090  0.2447 -0.3039 -0.0820
 2028SOL    HW117720   0.530   0.225   2.097 -0.0484  0.2525 -1.8679
 2028SOL    HW217721   0.444   0.159   1.995  1.3769  0.4361 -0.2741
 2029SOL     OW17722   2.045   4.063   2.117 -0.0347 -0.2988  0.0806
 2029SOL    HW117723   1.965   4.115   2.110  0.6457  0.9426  1.3513
 2029SOL    HW217724   2.038   4.016   2.034  0.5300 -0.0036 -0.1427
 2030SOL     OW17725   2.269   2.094   7.235  0.3388  0.1775  0.1823
 2030SOL    HW117726   2.327   2.105   7.160  1.2649 -1.9492  0.5854
 2030SOL    HW217727   2.187   2.092   7.185 -0.3896  2.0491  1.3106
 2031SOL     OW17728   4.391   3.257  11.551  0.4418 -0.0534  0.5410
 2031SOL    HW117729   4.396   3.185  11.613  1.1450 -1.2593 -0.9335
 2031SOL    HW217730   4.454   3.320  11.588  3.3065 -2.1725 -0.7441
 2032SOL     OW17731   3.623   4.402   4.013 -0.1213 -0.3029 -0.0941
 2032SOL    HW117732   3.596   4.374   3.925 -0.1639  1.1934 -0.5589
 2032SOL    HW217733   3.603   4.326   4.068 -1.0753 -0.5807 -0.8190
 2033SOL     OW17734   1.094   0.467   9.745 -0.1649  0.2649 -0.5977
 2033SOL    HW117735   1.013   0.512   9.720  0.3876  1.0680 -0.9241
 2033SOL    HW217736   1.156   0.537   9.728  0.9876 -0.8098 -0.8211
 2034SOL     OW17737   1.840   2.067   8.154 -0.3152  0.2839  0.6265
 2034SOL    HW117738   1.775   2.102   8.093 -1.4252 -0.4706  1.3696
 2034SOL    HW217739   1.896   2.142   8.176 -0.2295  0.4796 -0.2704
 2035SOL     OW17740   1.601   2.198   3.929 -0.2897  0.3264  0.0283
 2035SOL    HW117741   1.636   2.280   3.963 -0.1632 -0.6184  2.1785
 2035SOL    HW217742   1.613   2.140   4.004  1.8501 -0.1405 -0.6535
 2036SOL     OW17743   3.859   2.985   8.617  0.2859 -0.3489 -0.0668
 2036SOL    HW117744   3.861   3.080   8.607  0.8852 -0.2256  1.2690
 2036SOL    HW217745   3.873   2.954   8.528  0.3583 -2.2981  0.6370
 2037SOL     OW17746   0.086   4.617   3.474 -0.2607 -0.0367 -0.5924
 2037SOL    HW117747   0.173   4.615   3.434 -0.1763  4.0397 -0.6570
 2037SOL    HW217748   0.078   4.526   3.500 -1.4116  1.0884  2.9712
 2038SOL     OW17749   0.114   2.940   9.187 -0.4839 -0.0086  0.1502
 2038SOL    HW117750   0.159   3.025   9.186  2.4144 -1.5528  0.0660
 2038SOL    HW217751   0.183   2.894   9.234  0.3490 -1.8045 -2.8430
 2039SOL     OW17752   3.683   0.605   2.101 -0.1074  0.2348 -0.3214
 2039SOL    HW117753   3.649   0.565   2.021 -0.0093  1.5245 -1.0008
 2039SOL    HW217754   3.613   0.665   2.127  2.3068  2.5258  0.8545
 2040SOL     OW17755   0.231   0.149   3.377 -0.3420  0.0546 -0.0100
 2040SOL    HW117756   0.234   0.244   3.387 -2.1499  0.3693 -2.5621
 2040SOL    HW217757   0.164   0.121   3.440  0.1400 -0.6611  0.1875
 2041SOL     OW17758   3.189   2.691   6.497  0.6199 -0.0995  0.1149
 2041SOL    HW117759   3.100   2.668   6.469  1.3298 -0.1199 -2.1173
 2041SOL    HW217760   3.185   2.662   6.588  0.4358 -0.7522 -0.1020
 2042SOL     OW17761   4.228   1.082   3.604 -0.2817  0.3622  0.4560
 2042SOL    HW117762   4.144   1.038   3.589  1.2061 -1.5724 -2.2727
 2042SOL    HW217763   4.190   1.156   3.651 -1.9448  1.3406 -2.3572
 2043SOL     OW17764   2.623   4.151   3.799 -0.3831  0.1476  0.9190
 2043SOL    HW117765   2.567   4.220   3.764  0.9831  2.4212  3.3037
 2043SOL    HW217766   2.565   4.080   3.826 -0.7014  0.2704  0.5675
 2044SOL     OW17767   2.318   0.657  11.127 -0.1079 -0.0197  0.1999
 2044SOL    HW117768   2.322   0.729  11.064 -0.9054  0.4409  0.6695
 2044SOL    HW217769   2.325   0.587  11.063  0.9676 -0.2102  0.5196
 2045SOL     OW17770   3.261   3.826  16.665  0.2974 -0.4461  0.1855
 2045SOL    HW117771   3.288   3.760  16.601 -0.3671 -1.0172  0.4867
 2045SOL    HW217772   3.261   3.777  16.748 -0.9526  0.5083  0.7424
 2046SOL     OW17773   4.540   3.855   9.192  0.2439  0.4034 -0.0399
 2046SOL    HW117774   4.564   3.833   9.102  1.0236 -0.6518  0.4284
 2046SOL    HW217775   4.565   3.774   9.236  0.9336  1.4433  1.4789
 2047SOL     OW17776   0.773   3.304   2.552  0.5043 -0.0243 -0.3854
 2047SOL    HW117777   0.684   3.335   2.567 -0.4092 -2.6209 -0.5002
 2047SOL    HW217778   0.765   3.246   2.476 -2.0334 -0.0406 -0.1132
 2048SOL     OW17779   1.339   3.599  11.820  0.4710  0.3385  0.2554
 2048SOL    HW117780   1.401   3.552  11.764 -0.5414 -1.7666  0.9160
 2048SOL    HW217781   1.283   3.644  11.757 -0.0461  0.4537  0.8026
 2049SOL     OW17782   2.609   3.897   3.897 -0.1782 -0.1341 -0.3181
 2049SOL    HW117783   2.557   3.894   3.978  0.7942  0.0421  0.3143
 2049SOL    HW217784   2.695   3.892   3.940 -1.8009 -0.9434  2.8629
 2050SOL     OW17785   1.247   1.938   2.073 -0.0739 -0.3865  0.0059
 2050SOL    HW117786   1.323   1.882   2.058  1.6477  1.7468  0.5615
 2050SOL    HW217787   1.290   1.969   2.154 -0.3619 -0.8378  0.3302
 2051SOL     OW17788   2.045   0.421   8.302  0.0011  0.3333 -0.5542
 2051SOL    HW117789   1.962   0.412   8.349  0.8947  0.4002  1.0483
 2051SOL    HW217790   2.096   0.368   8.364 -1.1128 -0.1681 -0.0722
 2052SOL     OW17791   0.988   4.252   1.348 -0.0725  0.2635 -0.0725
 2052SOL    HW117792   0.909   4.202   1.325  0.0216 -0.5681  1.4425
 2052SOL    HW217793   1.052   4.230   1.281 -0.6740 -0.5299 -0.3831
 2053SOL     OW17794   2.650   3.366   6.378 -0.4779 -0.2148 -0.1192
 2053SOL    HW117795   2.628   3.352   6.471 -0.6638  0.6389 -0.0331
 2053SOL    HW217796   2.746   3.371   6.384 -0.5147 -0.1212  0.4353
 2054SOL     OW17797   4.546   1.193   5.326 -0.4756 -0.2453  0.2864
 2054SOL    HW117798   4.495   1.150   5.395  1.0274 -1.4496  0.6448
 2054SOL    HW217799   4.574   1.120   5.270 -2.4991  0.7440 -2.0232
 2055SOL     OW17800   1.792   2.497  17.564 -0.3303  0.0442  0.6583
 2055SOL    HW117801   1.740   2.514  17.643 -0.7430 -2.3558  0.8785
 2055SOL    HW217802   1.781   2.575  17.509 -3.2846  0.6851  2.1787
 2056SOL     OW17803   3.681   2.622   5.683  0.0645 -0.3857 -0.1875
 2056SOL    HW117804   3.703   2.605   5.592 -1.3502  2.2175 -1.0035
 2056SOL    HW217805   3.585   2.618   5.687  0.0870 -1.6835 -0.8701
 2057SOL     OW17806   0.972   0.700  16.984 -0.5650 -0.1282  0.3765
 2057SOL    HW117807   1.023   0.620  16.974 -0.5332 -0.4375  3.0740
 2057SOL    HW217808   0.925   0.699  16.900  0.9244 -1.2439 -0.4412
 2058SOL     OW17809   4.242   0.646  17.300  0.2626  0.0760 -0.2608
 2058SOL    HW117810   4.280   0.649  17.388 -1.5989  0.7159  0.5184
 2058SOL    HW217811   4.259   0.735  17.266  1.7257  0.5146  1.6387
 2059SOL     OW17812   1.066   3.159   3.661 -0.3531  0.2105  0.2803
 2059SOL    HW117813   1.148   3.176   3.707 -2.0923 -1.7181  4.0405
 2059SOL    HW217814   1.051   3.246   3.623 -1.1153  0.0104  0.1119
 2060SOL     OW17815   0.215   4.232   6.475  0.4608  0.0710 -0.3563
 2060SOL    HW117816   0.171   4.147   6.479 -2.1031  1.3961 -0.8470
 2060SOL    HW217817   0.150   4.297   6.449  0.5792  1.5549  3.1380
 2061SOL     OW17818   2.363   0.963  17.208 -0.0214 -0.4798 -0.1024
 2061SOL    HW117819   2.377   0.919  17.124 -0.8484  1.3460 -1.1988
 2061SOL    HW217820   2.448   0.964  17.251  0.0723 -3.2593 -0.2204
 2062SOL     OW17821   1.263   3.824   3.522 -0.1544 -0.0766  0.1965
 2062SOL    HW117822   1.203   3.808   3.594  2.3806  1.6048  2.6953
 2062SOL    HW217823   1.258   3.742   3.472 -2.1822  0.1642  0.0343
 2063SOL     OW17824   0.868   0.389   8.769 -0.0752  0.5990  0.3455
 2063SOL    HW117825   0.787   0.342   8.747  0.6588 -0.4684 -0.0593
 2063SOL    HW217826   0.867   0.389   8.864 -0.1614  1.3032  0.3462
 2064SOL     OW17827   4.008   3.695   5.699 -0.3574 -0.2883  0.7983
 2064SOL    HW117828   3.921   3.734   5.698  1.1065  2.9372  0.4627
 2064SOL    HW217829   4.017   3.675   5.792 -3.1570 -0.3861  1.0318
 2065SOL     OW17830   3.445   3.279  16.196 -0.2917 -0.1317  0.1062
 2065SOL    HW117831   3.518   3.218  16.182 -0.3205 -0.2401  0.4187
 2065SOL    HW217832   3.479   3.368  16.195 -0.1039 -0.2039  0.0612
 2066SOL     OW17833   3.969   4.336  11.251 -0.1536 -0.5324 -0.1946
 2066SOL    HW117834   4.045   4.278  11.253 -0.1672 -0.5956 -1.3857
 2066SOL    HW217835   4.011   4.422  11.240 -1.8629  0.6810  2.9104
 2067SOL     OW17836   0.635   2.823   1.459  0.4036  0.0528 -0.4192
 2067SOL    HW117837   0.626   2.918   1.467 -0.2841  0.1149 -1.8313
 2067SOL    HW217838   0.546   2.791   1.448  0.9129 -1.5110  0.0036
 2068SOL     OW17839   0.236   0.008  17.073  0.4703 -0.0393 -0.7427
 2068SOL    HW117840   0.162   0.041  17.124  0.4631 -0.1583 -0.6768
 2068SOL    HW217841   0.273   0.093  17.047 -0.7705  0.7157 -0.0249
 2069SOL     OW17842   2.845   1.333   3.015  0.5661 -0.4743  0.1358
 2069SOL    HW117843   2.753   1.326   2.988  0.8121 -2.5284 -0.1497
 2069SOL    HW217844   2.885   1.286   2.942 -1.6538  1.8977 -2.6328
 2070SOL     OW17845   1.402   2.103   5.475  0.1878  0.1031 -0.0854
 2070SOL    HW117846   1.491   2.089   5.443  0.5497 -0.6477  1.2563
 2070SOL    HW217847   1.360   2.139   5.396 -1.0377  1.0109  0.9821
 2071SOL     OW17848   4.424   3.569  12.141  0.1010  0.3305 -0.1837
 2071SOL    HW117849   4.347   3.581  12.195 -0.1596 -2.1135  0.0138
 2071SOL    HW217850   4.478   3.647  12.153  0.6493 -0.0162 -0.3700
 2072SOL     OW17851   3.766   3.398   0.105 -0.0209 -0.1528  0.4767
 2072SOL    HW117852   3.817   3.336   0.156  1.2678 -0.0793 -0.7199
 2072SOL    HW217853   3.682   3.362   0.134 -0.0757 -2.0505 -2.0117
 2073SOL     OW17854   1.543   0.176   6.418 -0.0142  0.0550  0.1229
 2073SOL    HW117855   1.478   0.236   6.457  0.1049  1.0673 -1.2150
 2073SOL    HW217856   1.479   0.113   6.385 -1.4604  1.4687  0.2253
 2074SOL     OW17857   2.549   2.097  10.802  0.5513 -0.2697  0.3084
 2074SOL    HW117858   2.607   2.048  10.860 -0.9066 -0.8338  1.2965
 2074SOL    HW217859   2.484   2.124  10.866  0.3581  2.2074 -0.9478
 2075SOL     OW17860   1.747   4.569   8.593 -0.1887  0.2359 -0.2665
 2075SOL    HW117861   1.662   4.533   8.568  0.0348  0.2194 -1.0164
 2075SOL    HW217862   1.726   4.657   8.624  1.3002  0.9015 -1.1240
 2076SOL     OW17863   0.549   1.844  13.095 -0.1506  0.1778  0.3272
 2076SOL    HW117864   0.463   1.858  13.056  0.1244  2.4589  0.5472
 2076SOL    HW217865   0.567   1.750  13.088  2.1151  0.7440 -1.3547
 2077SOL     OW17866   3.222   2.203   0.243 -0.1811 -0.3840  0.2814
 2077SOL    HW117867   3.132   2.222   0.270  0.2634 -0.6064  1.9649
 2077SOL    HW217868   3.204   2.148   0.167 -1.5292  1.3402 -0.6355
 2078SOL     OW17869   2.276   3.129   4.197  0.1659 -0.3056 -0.1327
 2078SOL    HW117870   2.337   3.199   4.173  0.4853 -1.1592 -1.7594
 2078SOL    HW217871   2.309   3.048   4.158  0.4823 -0.9284  1.3981
 2079SOL     OW17872   0.295   3.856   5.797 -0.1184 -0.5893 -0.4157
 2079SOL    HW117873   0.337   3.941   5.808 -0.6692 -0.2250 -1.1658
 2079SOL    HW217874   0.376   3.804   5.794 -0.1192 -0.6457  0.5062
 2080SOL     OW17875   3.709   0.377   1.221  0.3901 -0.1457  0.1778
 2080SOL    HW117876   3.625   0.393   1.265  0.3877  3.1942 -1.0691
 2080SOL    HW217877   3.734   0.288   1.246  0.1727 -0.1355  0.4296
 2081SOL     OW17878   2.905   0.122  10.300 -0.1254 -0.5929  0.0290
 2081SOL    HW117879   2.879   0.211  10.278  0.5848 -0.6286 -0.9524
 2081SOL    HW217880   2.832   0.095  10.357 -0.1428 -0.6280 -0.0104
 2082SOL     OW17881   2.657   2.205  13.783  0.3750 -0.1053 -0.1387
 2082SOL    HW117882   2.745   2.210  13.745  0.3860  3.2595  0.3291
 2082SOL    HW217883   2.638   2.111  13.782 -2.2519  0.4271  0.8395
 2083SOL     OW17884   0.057   1.204   7.680 -0.0976 -0.3017 -0.5041
 2083SOL    HW117885   4.711   1.163   7.690  0.0956 -0.6852 -0.4112
 2083SOL    HW217886   0.109   1.125   7.664 -0.4332 -0.3157 -1.5014
 2084SOL     OW17887   3.071   0.598   0.355 -0.2403  0.0785  0.4407
 2084SOL    HW117888   3.060   0.573   0.447  0.3429  1.9263  1.0325
 2084SOL    HW217889   3.073   0.694   0.356  1.9024  0.0480  1.1817
 2085SOL     OW17890   3.852   4.469   5.091 -0.3999 -0.0294  0.8081
 2085SOL    HW117891   3.809   4.443   5.010 -1.4119  0.8668  1.0641
 2085SOL    HW217892   3.785   4.508   5.146 -2.1210 -2.0392  0.1248
 2086SOL     OW17893   1.807   4.531   3.708 -0.4507  0.1007  0.0370
 2086SOL    HW117894   1.794   4.470   3.635 -1.5840 -0.6207  0.8455
 2086SOL    HW217895   1.735   4.506   3.765 -0.2398  0.0885  0.2993
 2087SOL     OW17896   1.522   3.612   0.510 -0.6028  0.6280  0.3377
 2087SOL    HW117897   1.531   3.527   0.554  0.0956  0.0958 -0.8316
 2087SOL    HW217898   1.556   3.677   0.571  0.9366  0.6568 -0.5545
 2088SOL     OW17899   3.151   4.269  16.462 -0.3342  0.2346 -0.4500
 2088SOL    HW117900   3.123   4.181  16.487 -0.1623 -0.1529 -1.6102
 2088SOL    HW217901   3.198   4.240  16.384 -1.3750 -2.4320 -0.0919
 2089SOL     OW17902   2.861   2.639   7.699 -0.1522 -0.3516 -0.4837
 2089SOL    HW117903   2.812   2.558   7.680 -1.0141 -0.2465  1.2646
 2089SOL    HW217904   2.864   2.635   7.795 -0.1258  0.2483 -0.4625
 2090SOL     OW17905   0.624   1.390  12.148  0.1329 -0.3844  0.3523
 2090SOL    HW117906   0.705   1.434  12.172 -0.3697  0.5787  0.2524
 2090SOL    HW217907   0.580   1.452  12.090  2.7019  1.0597 -0.0159
 2091SOL     OW17908   2.734   1.224   8.600  0.4260  0.4883 -0.5441
 2091SOL    HW117909   2.640   1.233   8.589  0.7431  2.2716 -1.7653
 2091SOL    HW217910   2.734   1.213   8.695  0.1588  1.4450 -0.4409
 2092SOL     OW17911   0.323   3.843   5.295 -0.1200 -0.0659 -0.2080
 2092SOL    HW117912   0.274   3.919   5.326 -0.4619  0.2458 -1.5162
 2092SOL    HW217913   0.275   3.766   5.325 -0.3774  0.5242  0.8895
 2093SOL     OW17914   4.281   1.221   1.901 -0.1877  0.4737 -0.0380
 2093SOL    HW117915   4.310   1.132   1.880 -2.0547 -0.1940  0.2196
 2093SOL    HW217916   4.194   1.209   1.862 -0.7999 -1.8603  2.0596
 2094SOL     OW17917   1.753   0.491  15.543 -0.7282  0.0388  0.6207
 2094SOL    HW117918   1.837   0.527  15.516 -1.2487 -0.1884 -1.3122
 2094SOL    HW217919   1.754   0.514  15.635 -0.0954  1.5691  0.2267
 2095SOL     OW17920   0.673   2.789   5.809  0.1015  0.2395  0.1718
 2095SOL    HW117921   0.671   2.833   5.724 -0.1491  0.5675  0.3451
 2095SOL    HW217922   0.746   2.728   5.803 -0.2275 -0.3853  2.4978
 2096SOL     OW17923   3.015   4.013   6.808 -0.2476  0.0350  0.1187
 2096SOL    HW117924   2.987   3.938   6.861  1.0199  0.5016  1.4744
 2096SOL    HW217925   3.090   3.970   6.768 -0.3340  1.2274 -1.2953
 2097SOL     OW17926   1.263   3.871   8.320  0.4087 -0.1815 -0.1395
 2097SOL    HW117927   1.253   3.790   8.269 -1.9964 -0.7245  1.1813
 2097SOL    HW217928   1.175   3.908   8.327 -0.6981 -2.7075 -0.5242
 2098SOL     OW17929   3.090   3.726   9.350  0.0134 -0.3103 -0.4780
 2098SOL    HW117930   3.179   3.693   9.354 -0.3138 -1.2035 -0.4109
 2098SOL    HW217931   3.064   3.695   9.263  2.9466 -1.5348 -0.8871
 2099SOL     OW17932   2.081   1.835   3.520 -0.1224 -0.6241 -0.0932
 2099SOL    HW117933   2.132   1.756   3.537  0.3043  0.0551  1.7704
 2099SOL    HW217934   2.001   1.819   3.571 -0.0772 -1.2863 -0.2317
 2100SOL     OW17935   2.134   1.461  11.325  0.2361  0.1150  0.3135
 2100SOL    HW117936   2.040   1.460  11.338 -0.0004 -0.1972 -1.4151
 2100SOL    HW217937   2.136   1.511  11.244 -0.2061 -0.2558  0.0768
 2101SOL     OW17938   1.997   2.569   8.262 -0.4193  0.8387  0.2243
 2101SOL    HW117939   2.024   2.592   8.351  0.8986  2.0919 -0.4963
 2101SOL    HW217940   2.071   2.612   8.220  0.2753  0.2079  0.8039
 2102SOL     OW17941   4.252   3.736   6.358 -0.6788 -0.0029 -0.0347
 2102SOL    HW117942   4.199   3.748   6.437  0.3712  0.0400  0.6568
 2102SOL    HW217943   4.177   3.707   6.306  0.2313  0.6913 -1.7385
 2103SOL     OW17944   4.381   4.502   7.947 -0.2951 -0.0519 -0.1514
 2103SOL    HW117945   4.405   4.484   8.038 -0.5258 -0.5761 -0.1977
 2103SOL    HW217946   4.449   4.563   7.916 -0.8156 -0.2899 -1.7882
 2104SOL     OW17947   3.250   0.836   4.726  0.2442 -0.4119  0.2442
 2104SOL    HW117948   3.239   0.864   4.817 -0.9450 -0.7216  0.2046
 2104SOL    HW217949   3.159   0.850   4.699  0.4425  0.2442 -0.0750
 2105SOL     OW17950   3.076   1.622  11.532 -0.2535  0.2356 -0.4389
 2105SOL    HW117951   3.134   1.558  11.491 -1.1293 -0.3733 -0.7046
 2105SOL    HW217952   3.138   1.676  11.582 -0.6482 -1.3147  1.6953
 2106SOL     OW17953   2.842   0.595   0.190  0.5619 -1.1976 -0.1802
 2106SOL    HW117954   2.919   0.576   0.243  0.3192 -0.8386  0.3033
 2106SOL    HW217955   2.817   0.683   0.216  1.1385 -1.8804  2.6808
 2107SOL     OW17956   3.188   1.978   6.582 -0.2751 -0.1389 -0.5668
 2107SOL    HW117957   3.143   2.044   6.528 -1.0027 -1.8541 -2.0554
 2107SOL    HW217958   3.255   1.955   6.518  1.2904 -2.0302  1.7900
 2108SOL     OW17959   3.483   1.078   8.273  0.5124  0.6679 -0.4184
 2108SOL    HW117960   3.500   1.164   8.235 -0.4773  0.7128 -0.7514
 2108SOL    HW217961   3.429   1.103   8.349 -0.3604  0.3835 -0.9415
 2109SOL     OW17962   0.322   1.197   7.875 -0.0960  0.4882  0.0267
 2109SOL    HW117963   0.258   1.149   7.926  0.4481  0.1116  0.3531
 2109SOL    HW217964   0.312   1.282   7.916  1.8736  0.2070  1.0780
 2110SOL     OW17965   1.109   4.255   6.868  0.0212 -0.7642  0.0805
 2110SOL    HW117966   1.083   4.308   6.943  1.4300  0.0434  0.0093
 2110SOL    HW217967   1.203   4.272   6.860  0.2672 -1.2269  2.0879
 2111SOL     OW17968   3.854   2.126  13.599 -0.0340  0.2793  0.6661
 2111SOL    HW117969   3.787   2.169  13.652 -0.3744 -0.4769  0.8498
 2111SOL    HW217970   3.806   2.114  13.516 -2.7326 -0.0715  2.2740
 2112SOL     OW17971   0.350   0.279  16.305  0.6357 -0.6810 -0.2259
 2112SOL    HW117972   0.373   0.316  16.390 -0.2504  3.0224 -1.6013
 2112SOL    HW217973   0.413   0.313  16.242 -0.7603 -1.5098 -2.0443
 2113SOL     OW17974   1.697   2.554   4.292 -0.7043 -0.0857  0.8395
 2113SOL    HW117975   1.650   2.574   4.373 -1.8168 -0.4541  0.2957
 2113SOL    HW217976   1.747   2.634   4.279 -1.0789 -0.1222 -0.7985
 2114SOL     OW17977   1.222   0.709   8.666  0.1399 -0.6434  0.0073
 2114SOL    HW117978   1.171   0.666   8.735  0.4904 -2.1113 -0.6608
 2114SOL    HW217979   1.311   0.712   8.702  0.9746 -0.1787 -2.0948
 2115SOL     OW17980   1.725   3.468   8.365 -0.2576  0.0276 -0.4294
 2115SOL    HW117981   1.775   3.425   8.296  1.1168  0.3928  0.3318
 2115SOL    HW217982   1.662   3.515   8.311 -0.5800  1.0396  0.8271
 2116SOL     OW17983   3.748   4.707   1.904  0.1679  0.4858  0.3935
 2116SOL    HW117984   3.786   4.698   1.817  0.1076  0.1565  0.4024
 2116SOL    HW217985   3.673   4.647   1.907  0.0888  0.6574  1.8184
 2117SOL     OW17986   4.081   2.313   8.883  0.3679 -0.2142 -0.1813
 2117SOL    HW117987   4.030   2.393   8.874 -0.1829 -0.4439  0.7711
 2117SOL    HW217988   4.124   2.329   8.967  1.0532 -0.7373 -0.4314
 2118SOL     OW17989   0.452   2.510   4.639 -0.1292 -0.4094  0.6173
 2118SOL    HW117990   0.429   2.523   4.731  0.1164 -2.0951  0.9272
 2118SOL    HW217991   0.416   2.587   4.597  1.1960 -0.0616  0.1074
 2119SOL     OW17992   4.279   4.518   2.613 -0.3830  0.1027 -0.1380
 2119SOL    HW117993   4.216   4.447   2.603  1.4474 -1.7774  1.7017
 2119SOL    HW217994   4.232   4.593   2.575 -0.2974  0.1325 -0.1860
 2120SOL     OW17995   3.831   2.404   4.505 -0.4078  0.3154 -0.4727
 2120SOL    HW117996   3.743   2.392   4.471  0.3455 -1.5712 -1.7335
 2120SOL    HW217997   3.820   2.484   4.557 -0.4747 -1.5193  2.3308
 2121SOL     OW17998   2.485   1.506   3.412  0.5147  0.1309 -0.4546
 2121SOL    HW117999   2.443   1.428   3.376 -1.8627 -0.0287  2.6661
 2121SOL    HW218000   2.550   1.510   3.342  0.7000  2.6639 -0.1524
 2122SOL     OW18001   1.694   2.885   2.582 -0.2819  0.0447 -0.2751
 2122SOL    HW118002   1.789   2.899   2.580  0.1399 -2.7489 -0.5479
 2122SOL    HW218003   1.684   2.852   2.492  0.2516  1.2058 -0.7608
 2123SOL     OW18004   3.888   4.656   2.372  0.4076 -0.1984 -0.1100
 2123SOL    HW118005   3.965   4.625   2.325  0.8115  0.6069  0.0248
 2123SOL    HW218006   3.859   4.580   2.422  0.7646  0.7972  1.6248
 2124SOL     OW18007   3.193   1.691   7.530  0.0619 -0.1386  0.7911
 2124SOL    HW118008   3.145   1.692   7.614 -2.3693  2.1369 -0.6031
 2124SOL    HW218009   3.211   1.785   7.518 -2.8548  0.5055  1.2268
 2125SOL     OW18010   3.271   1.539   5.493 -0.2094  0.2831 -0.0237
 2125SOL    HW118011   3.325   1.463   5.475  0.5492  0.3807  1.8316
 2125SOL    HW218012   3.184   1.500   5.494  0.4189 -1.0010  3.0695
 2126SOL     OW18013   4.669   0.771  11.360  0.2000 -0.4643  0.0402
 2126SOL    HW118014   4.574   0.778  11.349  0.3295 -1.9439 -2.0029
 2126SOL    HW218015   4.678   0.820  11.442 -1.0317  0.5079 -0.4074
 2127SOL     OW18016   3.908   4.317   5.359 -0.2805 -0.5759 -0.3647
 2127SOL    HW118017   3.929   4.382   5.292 -1.6143 -1.6615 -1.8466
 2127SOL    HW218018   3.985   4.315   5.416 -0.4745 -2.0582 -0.1511
 2128SOL     OW18019   0.226   1.612   3.665  0.5311 -0.2664  0.9746
 2128SOL    HW118020   0.195   1.573   3.747 -0.9764  0.3223  0.6915
 2128SOL    HW218021   0.144   1.620   3.617  1.2030  1.6948  0.1649
 2129SOL     OW18022   1.011   1.255  13.638 -0.2158  0.1717 -0.0954
 2129SOL    HW118023   1.006   1.351  13.641  1.0118  0.2347 -0.0517
 2129SOL    HW218024   1.088   1.256  13.581 -0.8922  1.0111 -0.9945
 2130SOL     OW18025   2.050   1.369  17.498 -0.0764 -0.0846 -0.0347
 2130SOL    HW118026   2.054   1.308  17.571 -0.4919 -1.1558 -0.9058
 2130SOL    HW218027   2.078   1.316  17.423 -0.3905 -0.4585  0.1153
 2131SOL     OW18028   1.700   3.011   7.534  0.3645  0.2630 -0.4731
 2131SOL    HW118029   1.618   3.031   7.489  0.3737  0.5130 -0.3799
 2131SOL    HW218030   1.703   3.077   7.603  2.9292  0.0319 -0.3467
 2132SOL     OW18031   0.879   2.627   5.758  0.4491  0.0120  0.1664
 2132SOL    HW118032   0.883   2.549   5.813 -2.6962  0.6776  1.3222
 2132SOL    HW218033   0.890   2.596   5.668  0.9565  0.8663 -0.0581
 2133SOL     OW18034   0.662   0.231  10.156  0.0021 -0.3878  0.8618
 2133SOL    HW118035   0.573   0.246  10.187 -0.2356 -1.0111  0.4635
 2133SOL    HW218036   0.684   0.142  10.184  2.3979  0.3342  1.3002
 2134SOL     OW18037   3.099   2.640   6.127  0.4452  0.6464  0.6878
 2134SOL    HW118038   3.017   2.680   6.157 -0.5575  0.0996 -1.3066
 2134SOL    HW218039   3.168   2.666   6.187 -1.4411 -0.5305  3.4024
 2135SOL     OW18040   2.274   0.061   3.129 -0.0692  0.4236  0.2576
 2135SOL    HW118041   2.283   4.733   3.061 -1.0737 -0.6539  1.1998
 2135SOL    HW218042   2.263   0.141   3.077 -0.8935  0.4899  0.5272
 2136SOL     OW18043   2.975   0.238   1.445 -0.9109  0.0007  0.5388
 2136SOL    HW118044   2.985   0.143   1.452  3.2105  0.3438 -0.5486
 2136SOL    HW218045   2.978   0.239   1.349  0.5976 -0.9895  0.5775
 2137SOL     OW18046   0.054   0.770  15.814  0.5871 -0.3905  0.3818
 2137SOL    HW118047   4.717   0.714  15.824  0.0353  0.1050 -1.2284
 2137SOL    HW218048   0.048   0.824  15.893 -1.1698  0.9721 -0.7038
 2138SOL     OW18049   1.776   0.598   9.575 -0.3395  0.0509  0.1860
 2138SOL    HW118050   1.780   0.513   9.531  2.2101 -0.4284  1.3215
 2138SOL    HW218051   1.863   0.626   9.546  0.4734 -2.8129 -0.0948
 2139SOL     OW18052   0.613   0.412   2.129 -0.0557 -0.1520 -0.7293
 2139SOL    HW118053   0.622   0.458   2.046 -1.6004 -1.0391 -1.3839
 2139SOL    HW218054   0.700   0.376   2.142  1.0478  2.1752 -1.7783
 2140SOL     OW18055   2.169   2.567   6.917  0.2042  0.3072 -0.6996
 2140SOL    HW118056   2.082   2.560   6.958  0.6767  0.5880  0.3576
 2140SOL    HW218057   2.217   2.589   6.997  1.3821  3.7094 -2.3777
 2141SOL     OW18058   2.081   4.035   8.056 -0.2333  0.0796 -0.1888
 2141SOL    HW118059   2.106   3.943   8.065 -1.1135 -0.2446 -1.0815
 2141SOL    HW218060   2.018   4.048   8.126  1.0264 -2.3363  1.4050
 2142SOL     OW18061   1.298   2.932   1.969 -0.0207  0.6866 -0.0449
 2142SOL    HW118062   1.248   2.861   1.931 -0.1792  0.8914 -0.2165
 2142SOL    HW218063   1.360   2.945   1.897 -1.1383  0.4420 -1.0486
 2143SOL     OW18064   0.913   4.258   8.691 -0.2270 -0.0207 -0.0896
 2143SOL    HW118065   0.845   4.321   8.666 -0.7331 -0.7856 -0.6466
 2143SOL    HW218066   0.874   4.178   8.656 -0.4807  1.5667 -3.4711
 2144SOL     OW18067   1.985   2.807   1.570  0.2519  0.2634 -0.0592
 2144SOL    HW118068   1.921   2.876   1.553 -1.4990 -1.4833 -0.5359
 2144SOL    HW218069   1.935   2.727   1.582 -0.3342  0.7934  1.0770
 2145SOL     OW18070   3.857   4.360   5.920  0.1672 -0.8121  0.3034
 2145SOL    HW118071   3.806   4.413   5.981 -2.3773  0.5101 -2.9578
 2145SOL    HW218072   3.904   4.426   5.870 -1.4917  0.8455  0.9630
 2146SOL     OW18073   2.028   4.448   8.041  0.4569 -0.3225  0.2579
 2146SOL    HW118074   1.976   4.527   8.058 -1.9180 -1.7883 -0.1424
 2146SOL    HW218075   2.000   4.389   8.111 -0.9367  1.0503  0.8539
 2147SOL     OW18076   3.948   4.622   3.627 -0.0731  0.1232  0.0454
 2147SOL    HW118077   4.039   4.591   3.622  0.5643  1.7698  1.7034
 2147SOL    HW218078   3.919   4.615   3.718  1.2099  0.4375  0.4781
 2148SOL     OW18079   0.420   4.577   1.025 -0.2537  0.0863 -0.3056
 2148SOL    HW118080   0.476   4.605   0.953  1.7936 -0.5769  1.0433
 2148SOL    HW218081   0.334   4.569   0.983 -0.7049 -0.6053  0.7324
 2149SOL     OW18082   1.573   2.232   6.584 -0.6528  0.2415  0.0063
 2149SOL    HW118083   1.545   2.318   6.554  1.3896  0.7697 -0.4409
 2149SOL    HW218084   1.489   2.192   6.560 -1.4694  1.8587  0.1786
 2150SOL     OW18085   1.937   0.801   6.114 -0.0453 -0.7953 -0.0988
 2150SOL    HW118086   1.916   0.856   6.188  0.1843 -3.4473  1.9438
 2150SOL    HW218087   1.900   0.718   6.143 -1.2754 -0.1876  0.0476
 2151SOL     OW18088   4.543   3.517   9.265 -0.0157 -0.7072 -0.0068
 2151SOL    HW118089   4.612   3.455   9.240 -1.9897 -2.7605 -0.3594
 2151SOL    HW218090   4.539   3.513   9.361  1.2385 -2.1266 -0.0089
 2152SOL     OW18091   0.799   4.169   9.156 -0.8938  0.3478  0.5795
 2152SOL    HW118092   0.798   4.074   9.164  0.0799  0.2821 -0.1358
 2152SOL    HW218093   0.892   4.181   9.137 -0.6666  0.6381  1.8464
 2153SOL     OW18094   2.431   0.651   9.326  0.4974 -0.0023  0.0300
 2153SOL    HW118095   2.382   0.694   9.396  0.8241  0.2554  0.1022
 2153SOL    HW218096   2.485   0.591   9.378  1.3301 -0.6965 -1.6363
 2154SOL     OW18097   2.600   2.274   6.235 -0.6595  0.2680  0.0937
 2154SOL    HW118098   2.617   2.311   6.322  1.1743 -2.0050  0.6857
 2154SOL    HW218099   2.609   2.182   6.259 -1.9692  1.0401  3.4866
 2155SOL     OW18100   2.533   3.190   1.934 -0.5211 -0.4197 -0.2997
 2155SOL    HW118101   2.519   3.097   1.919  3.4476 -0.5781 -2.8307
 2155SOL    HW218102   2.601   3.190   2.001 -1.1791 -0.2760  0.3652
 2156SOL     OW18103   0.918   2.781   9.883  0.3591 -0.4369 -0.4937
 2156SOL    HW118104   0.932   2.857   9.825 -2.7820  2.2989  2.3041
 2156SOL    HW218105   0.881   2.717   9.823 -0.3563  0.8474 -1.4449
 2157SOL     OW18106   3.360   2.500   5.114  0.0907  0.6860 -0.6663
 2157SOL    HW118107   3.269   2.472   5.103 -0.0258  1.0403 -0.6013
 2157SOL    HW218108   3.371   2.562   5.042  4.5144  0.0484 -0.5501
 2158SOL     OW18109   2.275   1.641   4.503  0.4321 -0.0284 -0.0342
 2158SOL    HW118110   2.275   1.547   4.483  1.8355  0.3481 -1.6918
 2158SOL    HW218111   2.239   1.684   4.426  1.0524 -1.8855 -1.3510
 2159SOL     OW18112   0.194   3.250   7.123 -0.7146 -0.0463  0.1279
 2159SOL    HW118113   0.265   3.234   7.185  0.4372 -0.2479 -1.2361
 2159SOL    HW218114   0.119   3.220   7.174  0.9056 -1.0857  1.8881
 2160SOL     OW18115   2.585   0.459   0.343 -0.1428 -0.1387 -0.1760
 2160SOL    HW118116   2.600   0.503   0.426  0.8332  0.9022 -0.9088
 2160SOL    HW218117   2.656   0.396   0.347 -0.6692 -0.7063  0.1762
 2161SOL     OW18118   4.290   3.412   3.739 -0.1621  0.5800 -0.4041
 2161SOL    HW118119   4.340   3.491   3.720  1.1907  0.3817  2.3272
 2161SOL    HW218120   4.280   3.413   3.835  2.1462 -2.2581 -0.1179
 2162SOL     OW18121   1.520   0.776   8.709 -0.3850  0.2291 -0.2991
 2162SOL    HW118122   1.609   0.811   8.708 -0.8928  1.5206  0.6725
 2162SOL    HW218123   1.510   0.779   8.804  0.7551 -0.3896 -0.1570
 2163SOL     OW18124   1.201   1.398  12.032 -0.2351  0.0452  0.0301
 2163SOL    HW118125   1.268   1.341  11.995 -0.7429  1.2284 -2.7720
 2163SOL    HW218126   1.241   1.395  12.119 -0.6863 -0.4241  0.2272
 2164SOL     OW18127   1.862   3.614   2.346  0.2890  0.4167  0.6442
 2164SOL    HW118128   1.887   3.626   2.438 -0.5080 -3.5373  1.3902
 2164SOL    HW218129   1.801   3.540   2.351 -1.1884  1.6919  1.7058
 2165SOL     OW18130   1.093   0.900   8.252 -0.5312  0.2048 -0.1484
 2165SOL    HW118131   1.117   0.991   8.232 -0.6388  0.0640 -0.9275
 2165SOL    HW218132   1.178   0.859   8.265 -0.3216  1.2636  1.8756
 2166SOL     OW18133   0.192   0.031   3.132  0.5281 -0.7433 -0.3726
 2166SOL    HW118134   0.232   0.054   3.216  3.0560 -1.7133 -1.2812
 2166SOL    HW218135   0.099   0.042   3.148  0.8743  1.3675  0.2005
 2167SOL     OW18136   1.178   0.316   5.892  0.7627 -0.5074 -0.2627
 2167SOL    HW118137   1.128   0.360   5.823 -1.4951 -1.9559  0.4267
 2167SOL    HW218138   1.111   0.313   5.961  0.5226  0.0462 -0.4706
 2168SOL     OW18139   0.016   4.090   0.085  0.0650 -0.3611 -0.1699
 2168SOL    HW118140   0.078   4.161   0.099 -0.7423  0.4917 -0.8989
 2168SOL    HW218141   0.063   4.032   0.025  0.7042 -0.3369  0.3086
 2169SOL     OW18142   2.381   1.843   2.411 -0.2993  0.0567  0.3093
 2169SOL    HW118143   2.406   1.761   2.453 -0.9821  0.1077  0.8149
 2169SOL    HW218144   2.386   1.831   2.316  2.4512 -1.1069  0.6228
 2170SOL     OW18145   1.296   0.215   3.922 -0.4444  0.6166 -0.0321
 2170SOL    HW118146   1.361   0.166   3.973 -1.2312 -1.5270 -1.0735
 2170SOL    HW218147   1.220   0.229   3.978 -0.8806  0.2174 -0.5156
 2171SOL     OW18148   0.577   3.079  16.599 -0.1728 -0.0028  0.2986
 2171SOL    HW118149   0.546   3.135  16.527 -1.1153 -1.9415 -0.8026
 2171SOL    HW218150   0.502   3.024  16.619  1.1918 -1.8674  0.2997
 2172SOL     OW18151   3.862   4.378  11.862 -0.4094 -0.1044  0.0652
 2172SOL    HW118152   3.862   4.319  11.938 -0.8159  0.8354  0.7864
 2172SOL    HW218153   3.954   4.405  11.862  0.4167 -2.9140  0.4149
 2173SOL     OW18154   4.069   1.320   3.447  0.2083  0.5567 -0.2588
 2173SOL    HW118155   3.977   1.346   3.452 -0.0608 -0.8621  2.0612
 2173SOL    HW218156   4.097   1.338   3.537  0.0845 -0.2494 -0.0586
 2174SOL     OW18157   1.960   2.968   6.387 -0.6533 -0.0756 -0.1505
 2174SOL    HW118158   2.031   3.029   6.405 -0.3812 -0.0570 -1.2429
 2174SOL    HW218159   1.905   2.981   6.464 -0.0310  1.1459  0.0862
 2175SOL     OW18160   0.877   1.019   5.475  0.1333  0.6886 -0.4832
 2175SOL    HW118161   0.897   1.064   5.557  0.0120  0.2948 -0.2376
 2175SOL    HW218162   0.790   1.059   5.461 -0.1297  0.5022  0.6799
 2176SOL     OW18163   2.701   2.304   4.656  0.0446 -0.4749 -0.1224
 2176SOL    HW118164   2.705   2.397   4.632  2.1797 -0.2756  0.9684
 2176SOL    HW218165   2.790   2.269   4.659 -0.7038 -2.2327  1.3091
 2177SOL     OW18166   1.415   3.723  12.709  0.1662  0.5485  0.5118
 2177SOL    HW118167   1.394   3.694  12.797  0.2155 -0.8569  0.0512
 2177SOL    HW218168   1.333   3.700  12.665  1.1255 -1.2603 -0.3474
 2178SOL     OW18169   0.251   3.960   3.956  0.3161 -0.8721  0.2988
 2178SOL    HW118170   0.167   3.993   3.924  0.8216 -0.7401 -0.9034
 2178SOL    HW218171   0.261   4.008   4.038  2.4146 -1.2271  0.2512
 2179SOL     OW18172   2.913   4.332   0.601  0.0401  0.2509  0.3541
 2179SOL    HW118173   2.847   4.294   0.543 -1.2031 -1.4002  2.8666
 2179SOL    HW218174   2.949   4.406   0.551 -0.2725  0.7118  0.8116
 2180SOL     OW18175   3.781   3.211  13.268  0.0509 -0.0448  0.0042
 2180SOL    HW118176   3.712   3.166  13.220  0.2063 -1.3399  1.0005
 2180SOL    HW218177   3.774   3.301  13.236  2.2236  0.8803  2.1585
 2181SOL     OW18178   3.618   3.358   6.572 -0.0602  0.6322  0.4886
 2181SOL    HW118179   3.679   3.297   6.531 -0.1487 -0.0888  1.4250
 2181SOL    HW218180   3.548   3.301   6.602 -0.8246 -0.1702 -2.8026
 2182SOL     OW18181   2.862   1.549  15.003 -0.1397 -0.1397 -0.4390
 2182SOL    HW118182   2.848   1.642  14.986 -0.8653 -0.3182 -0.8017
 2182SOL    HW218183   2.812   1.506  14.934 -0.5138  2.3685 -1.7392
 2183SOL     OW18184   4.232   4.702   4.590 -0.3792 -0.0370  0.0434
 2183SOL    HW118185   4.309   4.646   4.581  0.0348  0.7692 -1.6489
 2183SOL    HW218186   4.174   4.654   4.531 -2.4211 -0.5869  2.5018
 2184SOL     OW18187   1.929   3.062  15.692 -0.2707  0.1983  0.1312
 2184SOL    HW118188   1.858   3.084  15.752 -1.2681  0.4094 -1.1095
 2184SOL    HW218189   1.968   3.150  15.692  2.1153 -0.8457 -0.5050
 2185SOL     OW18190   2.613   4.403   2.863 -0.2068  0.1108 -0.4091
 2185SOL    HW118191   2.526   4.419   2.900 -1.4061 -0.2246 -3.0171
 2185SOL    HW218192   2.656   4.393   2.948 -0.6944 -0.6149 -0.2518
 2186SOL     OW18193   1.757   3.441   1.850 -0.2102  0.5374 -0.8077
 2186SOL    HW118194   1.750   3.430   1.945  2.1889  0.3164 -0.6544
 2186SOL    HW218195   1.784   3.532   1.840  0.1810  0.6828  1.4269
 2187SOL     OW18196   1.009   3.451  17.114  0.1121  0.0307  0.3699
 2187SOL    HW118197   0.922   3.427  17.143  0.3079  0.4820  1.3145
 2187SOL    HW218198   0.997   3.498  17.031 -1.9448  0.5493  0.9712
 2188SOL     OW18199   3.067   1.429  14.309  0.4396  0.3439 -0.2949
 2188SOL    HW118200   2.978   1.397  14.318 -0.1510  1.4921 -1.9866
 2188SOL    HW218201   3.046   1.503  14.251 -2.3189 -0.7421 -0.6801
 2189SOL     OW18202   0.632   2.037   3.299  0.1614 -0.5401 -0.1905
 2189SOL    HW118203   0.617   2.048   3.393  0.2040  1.0245 -0.3647
 2189SOL    HW218204   0.674   1.952   3.295  2.8378  0.8037 -0.3759
 2190SOL     OW18205   1.362   0.382   5.487 -0.0324  0.2960 -0.2563
 2190SOL    HW118206   1.386   0.389   5.579 -2.9978  1.7410  0.3785
 2190SOL    HW218207   1.268   0.391   5.500 -0.0544  0.8856 -0.8098
 2191SOL     OW18208   0.904   3.394  13.268 -0.4143 -0.1422  0.0578
 2191SOL    HW118209   0.932   3.463  13.207  3.0765 -1.0922  0.6087
 2191SOL    HW218210   0.831   3.353  13.222  1.0129 -0.9819 -1.4268
 2192SOL     OW18211   3.508   4.160   6.030  0.4209 -0.1493  0.5011
 2192SOL    HW118212   3.570   4.186   6.098  0.5062  1.7162 -0.3009
 2192SOL    HW218213   3.520   4.228   5.964 -1.5958 -1.0330 -0.7725
 2193SOL     OW18214   1.271   0.977  14.742  0.2006 -0.4640  0.0644
 2193SOL    HW118215   1.282   0.935  14.827  1.9716 -0.3072 -0.0835
 2193SOL    HW218216   1.182   1.011  14.754  1.6178  3.6357 -1.2286
 2194SOL     OW18217   1.451   2.109  15.238 -0.0649  0.9083 -0.0491
 2194SOL    HW118218   1.472   2.018  15.217  0.0210  0.8365  0.3545
 2194SOL    HW218219   1.494   2.125  15.322  1.9367 -2.6588 -0.3832
 2195SOL     OW18220   2.929   2.759   4.683  0.0080  0.3368  0.1143
 2195SOL    HW118221   2.994   2.714   4.629 -0.0089  1.3160 -0.7197
 2195SOL    HW218222   2.959   2.849   4.670  0.9112  0.0098 -0.0490
 2196SOL     OW18223   0.588   0.224   1.579 -0.5154  0.0802  0.3834
 2196SOL    HW118224   0.513   0.235   1.520 -0.4665 -1.1987  0.0845
 2196SOL    HW218225   0.650   0.180   1.521  0.2620 -1.8985  2.7085
 2197SOL     OW18226   3.470   2.855  14.759 -0.7301 -0.3114 -0.1206
 2197SOL    HW118227   3.554   2.862  14.713  0.0393 -0.2114  1.2913
 2197SOL    HW218228   3.493   2.852  14.852  0.4424 -1.5023 -0.4517
 2198SOL     OW18229   4.371   2.093   5.887  0.4741  0.0208 -0.1930
 2198SOL    HW118230   4.422   2.141   5.952  0.9850  0.0127 -0.5800
 2198SOL    HW218231   4.291   2.144   5.875 -1.0356 -2.9788 -2.8264
 2199SOL     OW18232   1.162   3.341  16.193  0.1285 -0.1637 -0.5126
 2199SOL    HW118233   1.087   3.389  16.157  1.2060  1.5217 -0.4933
 2199SOL    HW218234   1.141   3.339  16.287 -0.4872  0.9161 -0.6348
 2200SOL     OW18235   2.692   1.271   4.841 -0.4140  0.6630  0.0267
 2200SOL    HW118236   2.603   1.277   4.805 -0.1649  1.1577 -0.5069
 2200SOL    HW218237   2.747   1.279   4.763 -1.7350 -3.1410 -1.2825
 2201SOL     OW18238   4.117   3.767   6.574  0.6123  0.4693 -0.2514
 2201SOL    HW118239   4.069   3.828   6.518  0.1949  1.2165  0.9252
 2201SOL    HW218240   4.120   3.816   6.656 -0.7954  1.2924 -0.6831
 2202SOL     OW18241   2.926   0.492   1.901  0.0703  0.3189  0.1606
 2202SOL    HW118242   2.921   0.568   1.959  1.3419 -1.8503  3.1305
 2202SOL    HW218243   2.915   0.538   1.817  2.6351  0.5579 -0.0600
 2203SOL     OW18244   1.821   0.951   3.461 -0.4214  0.4411  0.0352
 2203SOL    HW118245   1.837   0.911   3.547  0.6544 -0.6604 -0.6789
 2203SOL    HW218246   1.726   0.935   3.468 -0.0917 -0.7857  1.7543
 2204SOL     OW18247   2.839   2.425   4.403  0.3092 -0.6079 -0.1350
 2204SOL    HW118248   2.793   2.504   4.374 -0.6313 -0.8551  0.6839
 2204SOL    HW218249   2.765   2.370   4.377 -1.6231  2.8709 -2.0380
 2205SOL     OW18250   2.710   3.637   4.070 -0.2620  0.0277  0.2406
 2205SOL    HW118251   2.648   3.594   4.012  1.3792  0.5692 -1.9267
 2205SOL    HW218252   2.789   3.617   4.020 -2.2464 -2.0830 -2.0458
 2206SOL     OW18253   2.734   1.233   1.987  0.0563 -0.2504  0.1723
 2206SOL    HW118254   2.763   1.143   1.971  1.4938  0.1895  0.3050
 2206SOL    HW218255   2.729   1.228   2.083  4.7140  1.3333  0.4762
 2207SOL     OW18256   3.126   3.891  11.735 -0.3794  0.4427 -0.3359
 2207SOL    HW118257   3.211   3.935  11.739 -0.5963  0.8859 -0.6273
 2207SOL    HW218258   3.152   3.823  11.672 -1.1611 -0.3819  0.2335
 2208SOL     OW18259   4.484   4.446   5.810  0.0961  0.2768  0.5458
 2208SOL    HW118260   4.493   4.512   5.880 -1.1182  0.6659  0.3406
 2208SOL    HW218261   4.546   4.378   5.834  0.4828  0.6219  0.5272
 2209SOL     OW18262   1.068   1.384  16.509  0.0749  0.2494  0.0863
 2209SOL    HW118263   0.985   1.370  16.554  2.4605 -1.2615  4.0291
 2209SOL    HW218264   1.044   1.404  16.419 -0.7034  1.0805  0.4876
 2210SOL     OW18265   2.060   2.258   8.260 -0.0210 -0.0887  0.1822
 2210SOL    HW118266   2.083   2.328   8.199  1.3280  0.0395  0.8329
 2210SOL    HW218267   2.138   2.202   8.252  0.1239  0.0933  0.3089
 2211SOL     OW18268   4.386   0.056   5.481  0.8054 -0.1242  0.4164
 2211SOL    HW118269   4.457   0.099   5.529  0.5051 -0.3024  1.0186
 2211SOL    HW218270   4.386   4.706   5.515  2.0762  0.2237  1.3226
 2212SOL     OW18271   4.035   1.073   5.342  0.7795 -0.1263 -0.1805
 2212SOL    HW118272   4.071   1.142   5.286  1.6319 -1.2127 -0.9769
 2212SOL    HW218273   4.091   1.090   5.419  2.8357 -0.7529 -1.5191
 2213SOL     OW18274   3.475   3.432   2.865  0.3480  0.2238 -0.0342
 2213SOL    HW118275   3.433   3.396   2.787 -0.6404  0.4343  0.4010
 2213SOL    HW218276   3.498   3.516   2.826 -0.0852  0.8091  0.9779
 2214SOL     OW18277   2.629   0.569   2.702  0.2918 -0.0705 -0.0636
 2214SOL    HW118278   2.688   0.620   2.758  1.1790 -2.8350  1.5102
 2214SOL    HW218279   2.565   0.534   2.763  0.3237 -0.5775 -0.3231
 2215SOL     OW18280   3.138   4.563   7.978  0.2040  0.2584  0.2431
 2215SOL    HW118281   3.094   4.517   7.906 -0.3167 -0.4691  1.0254
 2215SOL    HW218282   3.230   4.541   7.966  0.4244  1.5714 -0.4749
 2216SOL     OW18283   0.001   2.151  10.644  0.4926  0.0690  0.0170
 2216SOL    HW118284   4.679   2.210  10.689  2.3575  1.6841  0.4370
 2216SOL    HW218285   4.666   2.093  10.628 -0.7911  1.5803  0.5072
 2217SOL     OW18286   0.498   4.045  17.174 -0.2760 -0.2721  0.2281
 2217SOL    HW118287   0.580   4.063  17.127  0.0999  1.6677  1.6376
 2217SOL    HW218288   0.488   4.131  17.215  1.2336 -0.7029  1.4912
 2218SOL     OW18289   1.571   2.315  14.998  1.1216 -0.3028 -0.2488
 2218SOL    HW118290   1.521   2.255  15.054 -0.7630  1.1136 -0.4125
 2218SOL    HW218291   1.659   2.305  15.033  1.1896 -0.3687 -0.4405
 2219SOL     OW18292   0.214   4.482   2.755  0.7476 -0.1033  0.1648
 2219SOL    HW118293   0.161   4.486   2.676 -0.4628 -0.7490  0.9290
 2219SOL    HW218294   0.138   4.497   2.811  0.0898 -0.6955 -0.5691
 2220SOL     OW18295   0.664   0.637   8.044  0.0999  0.0918  0.3558
 2220SOL    HW118296   0.683   0.578   7.972  0.6531  1.2044 -0.4231
 2220SOL    HW218297   0.752   0.652   8.079  0.8469 -1.5178 -0.8354
 2221SOL     OW18298   0.915   4.057  14.917 -0.2634 -0.1933  0.6386
 2221SOL    HW118299   0.964   3.979  14.943  0.5701  0.1725  0.1956
 2221SOL    HW218300   0.967   4.123  14.963 -1.0700 -0.1066  1.4218
 2222SOL     OW18301   3.911   2.817   5.290  0.0529 -0.4225  0.4605
 2222SOL    HW118302   3.956   2.766   5.223  4.1618  0.5926  2.4731
 2222SOL    HW218303   3.842   2.863   5.243  0.3623 -0.6063 -0.1755
 2223SOL     OW18304   1.654   0.375  14.394  0.2352 -1.1122 -0.2751
 2223SOL    HW118305   1.632   0.388  14.486  1.0929  1.2995 -0.4351
 2223SOL    HW218306   1.584   0.315  14.367  0.4550 -1.7721  0.6307
 2224SOL     OW18307   3.023   4.233   1.895 -0.6098 -0.3690 -0.5460
 2224SOL    HW118308   3.018   4.157   1.952 -1.6945  1.1382  1.3597
 2224SOL    HW218309   2.979   4.307   1.937 -1.6427 -1.6684  0.6563
 2225SOL     OW18310   0.160   3.684   5.542 -0.4580 -0.5120 -0.3211
 2225SOL    HW118311   0.076   3.702   5.500 -0.0967 -0.5010 -1.0379
 2225SOL    HW218312   0.151   3.725   5.628  1.1882 -0.8218 -0.0088
 2226SOL     OW18313   2.305   0.604   0.740 -0.2541 -0.4385 -0.0676
 2226SOL    HW118314   2.227   0.589   0.687 -1.3542 -1.6658  1.9058
 2226SOL    HW218315   2.277   0.680   0.791 -0.1506  0.5452 -1.5003
 2227SOL     OW18316   2.903   3.014  15.990 -0.9563 -0.0207 -0.3818
 2227SOL    HW118317   2.890   3.107  16.006  3.6064  0.6108 -0.3949
 2227SOL    HW218318   2.929   3.008  15.898 -1.6566  0.0438 -0.5835
 2228SOL     OW18319   1.285   2.474   3.918 -0.0498  0.2625  0.2454
 2228SOL    HW118320   1.302   2.383   3.893 -0.6914  0.2193 -0.0400
 2228SOL    HW218321   1.281   2.475   4.014  1.5304  2.9659  0.2758
 2229SOL     OW18322   1.621   1.215   1.756  0.5373  0.1836  0.5544
 2229SOL    HW118323   1.581   1.184   1.837 -0.6963 -1.3200 -0.6076
 2229SOL    HW218324   1.548   1.257   1.710 -0.8640 -1.2913  1.4077
 2230SOL     OW18325   1.302   1.296   4.072  0.2637 -0.5465 -0.0349
 2230SOL    HW118326   1.228   1.245   4.107  1.5850 -2.2903  0.1994
 2230SOL    HW218327   1.369   1.230   4.055  0.8097  0.0869 -0.3105
 2231SOL     OW18328   0.753   2.556   5.130 -0.1676 -0.3291 -0.3710
 2231SOL    HW118329   0.831   2.597   5.166  0.3783 -2.1431  0.5005
 2231SOL    HW218330   0.771   2.563   5.036 -0.4583  0.0163 -0.4000
 2232SOL     OW18331   0.201   3.723   4.172  0.0085 -0.4974  0.4558
 2232SOL    HW118332   0.192   3.815   4.198 -0.2662 -0.7765  1.3536
 2232SOL    HW218333   0.139   3.716   4.099 -0.5915 -3.2974  1.2081
 2233SOL     OW18334   2.099   3.367   0.240 -0.7763 -0.3572  0.5747
 2233SOL    HW118335   2.122   3.447   0.288  1.2514 -1.4478  1.4099
 2233SOL    HW218336   2.053   3.402   0.164  1.0660 -1.3203 -0.9655
 2234SOL     OW18337   1.297   1.548   3.480 -0.5044  0.1814  0.8453
 2234SOL    HW118338   1.224   1.611   3.476  1.1260  2.0687  0.7993
 2234SOL    HW218339   1.269   1.496   3.555 -1.1813  1.8828  1.7825
 2235SOL     OW18340   2.055   2.074   1.430  0.7009  0.0949 -0.4681
 2235SOL    HW118341   2.047   2.106   1.340  0.2398 -0.1550 -0.5167
 2235SOL    HW218342   1.975   2.025   1.451  1.8136 -2.1485 -1.4611
 2236SOL     OW18343   4.111   2.485   5.169  0.0525  0.6849  0.9132
 2236SOL    HW118344   4.099   2.479   5.074  1.2928  2.0076  0.6624
 2236SOL    HW218345   4.177   2.416   5.179  2.5150  3.0273  1.0071
 2237SOL     OW18346   3.362   3.318   2.643 -0.2928 -0.1342 -0.2829
 2237SOL    HW118347   3.284   3.267   2.623  0.7320 -0.6997 -2.8503
 2237SOL    HW218348   3.356   3.387   2.577  0.6884  1.3175  1.1485
 2238SOL     OW18349   0.518   4.005   7.352  0.2413 -0.9163  0.4886
 2238SOL    HW118350   0.522   3.928   7.409 -1.1478 -3.0865 -2.3785
 2238SOL    HW218351   0.459   3.979   7.281 -1.6527  1.1764  1.3193
 2239SOL     OW18352   3.918   4.572   3.201  0.6474 -0.3014  0.0251
 2239SOL    HW118353   3.920   4.500   3.138  0.4071 -0.7861  0.5722
 2239SOL    HW218354   3.862   4.637   3.159  1.3504  1.4065  1.7161
 2240SOL     OW18355   1.799   0.735  14.050  0.2207 -0.1637 -0.2104
 2240SOL    HW118356   1.894   0.741  14.041 -0.1964  1.2614 -3.4941
 2240SOL    HW218357   1.781   0.661  14.109 -1.5929 -0.3539 -0.9968
 2241SOL     OW18358   1.220   1.386   2.225  0.0245  0.0629  0.8135
 2241SOL    HW118359   1.302   1.337   2.224  0.6488  1.1148  0.2008
 2241SOL    HW218360   1.254   1.471   2.252  1.1681  0.5836 -2.2066
 2242SOL     OW18361   2.989   0.982   5.578 -0.1279 -0.3728  0.0858
 2242SOL    HW118362   3.038   0.989   5.660 -1.0567 -1.5684  0.7306
 2242SOL    HW218363   2.902   1.004   5.610  0.3980  0.4047  0.9910
 2243SOL     OW18364   2.316   3.724  15.408 -0.2829 -0.0779 -0.0299
 2243SOL    HW118365   2.400   3.719  15.362 -2.1165  0.3759 -3.3808
 2243SOL    HW218366   2.349   3.731  15.498 -0.4327  0.0138  0.0175
 2244SOL     OW18367   1.338   1.168   6.903 -0.4840 -0.2269  0.5210
 2244SOL    HW118368   1.251   1.207   6.907 -0.5596 -0.3617  0.1894
 2244SOL    HW218369   1.311   1.084   6.865 -0.2817  1.4244 -3.2487
 2245SOL     OW18370   1.867   2.142   0.722 -0.9608  0.3152 -0.2960
 2245SOL    HW118371   1.852   2.146   0.628 -2.5887  0.8680 -0.0209
 2245SOL    HW218372   1.918   2.062   0.736  0.2508  0.7962 -1.9315
 2246SOL     OW18373   2.041   2.133  16.534  0.3608  1.0693 -0.3798
 2246SOL    HW118374   2.007   2.141  16.623 -0.4304  1.3442 -0.7148
 2246SOL    HW218375   2.019   2.044  16.508  0.1593  0.9026  0.3588
 2247SOL     OW18376   4.171   3.816   2.579  0.5367 -0.3515  0.3572
 2247SOL    HW118377   4.260   3.783   2.590  1.4520  1.0559 -2.9639
 2247SOL    HW218378   4.170   3.826   2.484 -3.1369 -1.5783  0.2565
 2248SOL     OW18379   0.848   3.761   5.204  0.0931 -0.5132  0.1708
 2248SOL    HW118380   0.816   3.671   5.207  0.6820 -0.7759 -1.3015
 2248SOL    HW218381   0.801   3.802   5.130  0.3240  0.8137  0.7499
 2249SOL     OW18382   2.822   0.308  14.307 -0.1356 -0.2648 -0.5429
 2249SOL    HW118383   2.732   0.301  14.276 -0.4362  1.1787  0.0027
 2249SOL    HW218384   2.828   0.236  14.369 -1.8105  1.5301  1.7086
 2250SOL     OW18385   3.387   0.122   1.845  0.2479  0.0106 -0.1077
 2250SOL    HW118386   3.354   0.168   1.922 -1.5282  0.3678 -1.0683
 2250SOL    HW218387   3.313   0.131   1.784  0.6995 -1.9386 -0.9446
 2251SOL     OW18388   4.567   4.396   7.391 -0.4916  0.2847  0.3442
 2251SOL    HW118389   4.606   4.443   7.316  0.4038 -0.3342  0.4173
 2251SOL    HW218390   4.623   4.416   7.466  0.4323  1.7162 -0.7366
 2252SOL     OW18391   1.866   1.086   6.843 -0.2536 -0.3382 -0.4388
 2252SOL    HW118392   1.899   1.061   6.929 -0.8759 -0.1562 -0.1502
 2252SOL    HW218393   1.890   1.012   6.787 -0.5852  0.1590 -1.2513
 2253SOL     OW18394   4.687   1.447  10.987 -0.4534 -0.3796 -0.3316
 2253SOL    HW118395   4.648   1.489  11.063  0.0107  2.1584 -1.4848
 2253SOL    HW218396   4.633   1.480  10.914 -1.1925 -1.0016 -0.0691
 2254SOL     OW18397   1.627   4.651   4.166  0.3342 -0.0683 -0.1968
 2254SOL    HW118398   1.709   4.699   4.155  0.6457 -0.0585  2.3118
 2254SOL    HW218399   1.624   4.640   4.261  0.2279  3.3978  0.2041
 2255SOL     OW18400   2.794   4.413   2.667  0.1808  0.8988  0.8241
 2255SOL    HW118401   2.721   4.417   2.729 -0.2896  0.2959  0.3069
 2255SOL    HW218402   2.742   4.448   2.594  0.5901  0.8872  0.5242
 2256SOL     OW18403   1.482   4.720   5.237  0.8921 -1.0711  0.2378
 2256SOL    HW118404   1.390   4.694   5.234  0.4691  0.5129 -0.7318
 2256SOL    HW218405   1.527   4.643   5.269  1.8815 -0.7850 -0.4636
 2257SOL     OW18406   1.820   0.152   2.529  0.0262 -0.2300  0.3830
 2257SOL    HW118407   1.778   0.111   2.454  0.3253 -3.1598  1.7909
 2257SOL    HW218408   1.764   0.126   2.602  0.5048 -0.6378  0.6038
 2258SOL     OW18409   1.342   4.708   6.403 -0.5307 -0.0278  0.1260
 2258SOL    HW118410   1.273   4.725   6.339  1.5778  2.7765 -1.4351
 2258SOL    HW218411   1.300   4.629   6.435 -1.5072  0.7523  0.7576
 2259SOL     OW18412   4.559   3.989   1.079  0.1389  0.0827  0.4737
 2259SOL    HW118413   4.540   4.081   1.061 -2.1785 -0.8438 -1.7166
 2259SOL    HW218414   4.654   3.990   1.068 -0.1005 -1.0141 -1.6141
 2260SOL     OW18415   3.593   1.294   2.252  0.1082 -0.3076  0.3256
 2260SOL    HW118416   3.602   1.278   2.346  0.7889 -1.0010  0.1428
 2260SOL    HW218417   3.652   1.369   2.245 -0.6111  0.3171  1.0036
 2261SOL     OW18418   1.780   0.331   6.380  0.1974  0.7355  0.5469
 2261SOL    HW118419   1.711   0.265   6.376  1.2031 -0.2288 -0.8912
 2261SOL    HW218420   1.798   0.323   6.474  1.3193  2.0404  0.4465
 2262SOL     OW18421   3.799   1.385   2.722  0.1997 -0.1467 -0.3675
 2262SOL    HW118422   3.773   1.343   2.804  0.4816  1.1792  0.4052
 2262SOL    HW218423   3.893   1.365   2.721  0.5692  1.3047  3.6725
 2263SOL     OW18424   3.643   2.723   2.808  0.0966  0.3029  0.1988
 2263SOL    HW118425   3.589   2.658   2.853 -2.2027  1.7944 -0.3925
 2263SOL    HW218426   3.600   2.731   2.722  0.4639  1.3326  0.1222
 2264SOL     OW18427   3.011   3.463   7.298  0.0752 -0.0090 -0.1795
 2264SOL    HW118428   2.918   3.488   7.295 -0.1741 -0.7777  1.4547
 2264SOL    HW218429   3.007   3.477   7.392 -0.1465  1.5548 -0.4120
 2265SOL     OW18430   2.872   3.455   8.226 -0.2964 -0.1235  0.0466
 2265SOL    HW118431   2.811   3.502   8.170  0.0495 -1.5427 -1.5364
 2265SOL    HW218432   2.846   3.485   8.313 -0.0390  0.8007 -0.1933
 2266SOL     OW18433   1.523   0.897   7.770 -0.1098 -0.4139 -0.9435
 2266SOL    HW118434   1.489   0.834   7.834 -2.7057  0.4142 -1.4958
 2266SOL    HW218435   1.537   0.972   7.828 -0.3720 -0.9735 -0.1633
 2267SOL     OW18436   2.263   4.214   1.929 -0.4389 -0.1652  0.2057
 2267SOL    HW118437   2.317   4.135   1.928  2.0288  1.5223  0.5470
 2267SOL    HW218438   2.216   4.199   2.011 -2.0285  0.5606 -0.5734
 2268SOL     OW18439   1.825   0.165   6.861  0.2989 -0.4169  0.1537
 2268SOL    HW118440   1.807   0.238   6.921  0.3542 -1.1410  1.0503
 2268SOL    HW218441   1.864   0.105   6.925  3.1813 -0.2965 -1.4862
 2269SOL     OW18442   4.662   0.105  12.290 -0.5352  0.4867  0.4969
 2269SOL    HW118443   4.650   0.027  12.344  2.6376 -0.8481 -0.7463
 2269SOL    HW218444   4.605   0.091  12.215 -0.7648 -1.8169  1.1078
 2270SOL     OW18445   2.534   4.022   7.053  0.3053  0.6511 -0.7844
 2270SOL    HW118446   2.607   4.063   7.006  2.0426 -2.3267 -0.6797
 2270SOL    HW218447   2.524   3.932   7.024 -2.1763  0.5259  0.4237
 2271SOL     OW18448   2.394   1.437   9.053  1.2822  0.0715 -0.1757
 2271SOL    HW118449   2.304   1.420   9.025  0.7445 -0.8523  2.0455
 2271SOL    HW218450   2.413   1.353   9.095  1.1557 -0.0227 -0.3082
 2272SOL     OW18451   0.463   1.626   9.128  0.5018  0.2665 -0.4259
 2272SOL    HW118452   0.541   1.648   9.179  1.2953  1.4910 -2.1366
 2272SOL    HW218453   0.457   1.706   9.074  1.3467 -0.8719 -2.2076
 2273SOL     OW18454   0.513   1.474   3.685  0.0006 -0.4468  0.4590
 2273SOL    HW118455   0.584   1.455   3.623 -0.4912 -2.2514  0.4551
 2273SOL    HW218456   0.432   1.488   3.634  1.0992 -0.9818 -1.4410
 2274SOL     OW18457   4.493   1.018   4.060  0.0244  0.3754 -0.4773
 2274SOL    HW118458   4.457   1.013   3.971 -0.2683 -0.4890 -0.3157
 2274SOL    HW218459   4.426   1.071   4.103  0.6193 -0.1270  1.0549
 2275SOL     OW18460   1.284   1.380  12.299  0.1669  0.2242 -0.3368
 2275SOL    HW118461   1.264   1.472  12.314  2.4174  0.2818  2.5320
 2275SOL    HW218462   1.318   1.365  12.388  0.6926  1.3030 -0.3497
 2276SOL     OW18463   1.685   2.866  10.524  0.4737 -0.7472 -0.1623
 2276SOL    HW118464   1.652   2.924  10.593 -0.5721  0.0163 -1.3084
 2276SOL    HW218465   1.773   2.900  10.506 -0.0397 -0.0258 -1.2937
 2277SOL     OW18466   1.395   0.840   5.763 -0.1117 -0.3487  0.6613
 2277SOL    HW118467   1.360   0.929   5.758  1.5739  0.4046  2.3230
 2277SOL    HW218468   1.319   0.797   5.802  0.0992 -2.9951 -1.8407
 2278SOL     OW18469   2.148   1.170   0.741  0.3356 -0.6089  0.9155
 2278SOL    HW118470   2.197   1.206   0.815  2.2270 -1.0333 -0.1248
 2278SOL    HW218471   2.063   1.183   0.782  0.3536  1.6405  0.2286
 2279SOL     OW18472   2.448   4.504   2.334 -0.1319 -0.7793 -0.3309
 2279SOL    HW118473   2.358   4.476   2.314 -0.8586  1.1865  0.1358
 2279SOL    HW218474   2.437   4.572   2.400  0.7435 -1.0407  0.0851
 2280SOL     OW18475   2.882   1.926   8.260 -0.1665 -0.4709 -0.4359
 2280SOL    HW118476   2.851   1.923   8.351 -2.2443 -0.2701 -1.1404
 2280SOL    HW218477   2.919   2.014   8.255 -0.5315 -0.3188 -0.4444
 2281SOL     OW18478   1.626   2.576   8.781 -0.6363  0.4099  0.0126
 2281SOL    HW118479   1.594   2.605   8.695  0.3808  0.9602 -0.1896
 2281SOL    HW218480   1.558   2.619   8.833  1.0018 -0.0651  2.5394
 2282SOL     OW18481   1.195   2.088   7.723  0.2245 -0.1851 -0.4615
 2282SOL    HW118482   1.124   2.037   7.684 -0.8011  0.7133  0.2235
 2282SOL    HW218483   1.187   2.073   7.817 -0.7645 -0.2021 -0.5488
 2283SOL     OW18484   3.471   1.088   4.797  0.1034 -0.7646 -0.1758
 2283SOL    HW118485   3.412   1.162   4.782  2.0748  0.6308 -1.1271
 2283SOL    HW218486   3.552   1.138   4.805  0.4514 -1.1344 -1.3348
 2284SOL     OW18487   1.845   0.503   3.118 -0.4493  0.9966  0.9323
 2284SOL    HW118488   1.815   0.431   3.062  0.1688  0.9111  0.7050
 2284SOL    HW218489   1.847   0.458   3.202  1.1386 -0.5475  0.0774
 2285SOL     OW18490   3.602   1.564  15.442  0.2742 -0.2632  0.6338
 2285SOL    HW118491   3.544   1.626  15.397 -1.6964 -1.9939  0.7785
 2285SOL    HW218492   3.585   1.578  15.535  4.3333  0.3692  1.2670
 2286SOL     OW18493   3.599   0.233   1.641 -0.2925 -0.0699  0.1734
 2286SOL    HW118494   3.591   0.162   1.704 -0.1404 -1.9451 -1.9157
 2286SOL    HW218495   3.509   0.224   1.608 -0.4729  1.9386  0.1178
 2287SOL     OW18496   1.166   3.619   1.317  0.3548  0.2083 -0.2499
 2287SOL    HW118497   1.177   3.710   1.289  2.8582 -0.1583 -0.4990
 2287SOL    HW218498   1.195   3.626   1.408 -0.2347 -2.4687  0.1205
 2288SOL     OW18499   3.837   1.031   1.511 -0.3096 -0.1648 -0.3236
 2288SOL    HW118500   3.914   0.990   1.551 -1.2825  0.5650  2.2730
 2288SOL    HW218501   3.786   0.956   1.482  0.3735 -0.7395 -0.0535
 2289SOL     OW18502   2.592   1.224   0.707  0.5565 -0.3889  0.0883
 2289SOL    HW118503   2.527   1.204   0.640  2.3008 -0.9165 -1.4258
 2289SOL    HW218504   2.618   1.316   0.700  4.0297 -1.4301 -0.7964
 2290SOL     OW18505   1.488   1.414   0.642 -0.0029 -0.1018  0.4362
 2290SOL    HW118506   1.478   1.402   0.547  0.4452  0.2095  0.3546
 2290SOL    HW218507   1.470   1.508   0.646  1.7449  0.2251  0.5483
 2291SOL     OW18508   2.865   2.032  11.580 -0.2930  0.5182  0.1159
 2291SOL    HW118509   2.878   1.965  11.514  0.3097  1.2468 -0.4984
 2291SOL    HW218510   2.806   1.987  11.641  0.3301 -1.0153 -0.4352
 2292SOL     OW18511   1.994   3.273  17.079 -0.5194 -0.2269 -0.1218
 2292SOL    HW118512   2.068   3.254  17.021 -1.9677  3.0321 -3.0906
 2292SOL    HW218513   1.938   3.336  17.033 -0.8166 -0.4843 -0.1042
 2293SOL     OW18514   0.460   1.527   5.596  0.0234  0.3227  0.5293
 2293SOL    HW118515   0.424   1.510   5.683  1.9094 -0.7069  1.0976
 2293SOL    HW218516   0.552   1.534   5.619 -0.1484 -1.1084  1.6106
 2294SOL     OW18517   3.310   1.163  12.754  0.0148 -0.1477 -0.1564
 2294SOL    HW118518   3.258   1.115  12.690 -0.2514 -0.3453  0.2075
 2294SOL    HW218519   3.325   1.094  12.818 -1.8698 -1.1944 -0.8507
 2295SOL     OW18520   2.110   0.916  17.534  0.3600 -0.0312 -0.2178
 2295SOL    HW118521   2.185   0.872  17.494  0.4043  1.4003 -1.7294
 2295SOL    HW218522   2.039   0.869  17.490  1.1264 -1.7944  0.4228
 2296SOL     OW18523   0.732   1.061   3.528  0.0781 -0.9071 -0.7141
 2296SOL    HW118524   0.798   1.104   3.582 -0.3619  0.2705 -1.1175
 2296SOL    HW218525   0.782   1.019   3.458  1.1221 -2.1989  0.8165
 2297SOL     OW18526   2.795   3.537  12.360  0.0152  0.2362  0.4330
 2297SOL    HW118527   2.827   3.478  12.291 -0.8155  0.5979 -0.2523
 2297SOL    HW218528   2.819   3.486  12.437  1.7607  0.9235  0.3335
 2298SOL     OW18529   0.425   0.170   5.732 -0.2360 -0.4235 -0.5288
 2298SOL    HW118530   0.347   0.116   5.727  0.5115 -1.4857 -0.6731
 2298SOL    HW218531   0.474   0.132   5.804  0.6258  0.6514 -0.5398
 2299SOL     OW18532   2.587   2.012   6.314 -0.0041 -0.0312 -0.5925
 2299SOL    HW118533   2.566   1.937   6.370 -2.8743  0.1597 -1.3669
 2299SOL    HW218534   2.616   1.955   6.243 -0.3876 -0.2528 -0.5726
 2300SOL     OW18535   0.319   3.068   2.941 -0.1362 -0.1900  0.1310
 2300SOL    HW118536   0.239   3.112   2.913 -1.2792 -2.0294  0.4882
 2300SOL    HW218537   0.290   3.018   3.018 -0.4189 -2.8545 -1.6725
 2301SOL     OW18538   3.800   0.682  12.408 -0.2597 -0.0495  0.0953
 2301SOL    HW118539   3.821   0.735  12.484 -0.1922  0.8751 -0.5715
 2301SOL    HW218540   3.720   0.730  12.386 -1.1260 -1.6915 -0.3021
 2302SOL     OW18541   3.101   3.984  16.480 -1.1184 -0.4730  0.0611
 2302SOL    HW118542   3.135   3.915  16.537 -0.8621 -0.2570  0.1717
 2302SOL    HW218543   3.154   3.954  16.406 -0.7664 -0.7770  0.4343
 2303SOL     OW18544   0.708   0.838   5.255  0.3086  0.3990  0.7503
 2303SOL    HW118545   0.741   0.918   5.214 -1.1578  0.2167 -0.7712
 2303SOL    HW218546   0.788   0.786   5.267  0.0279  0.3229  2.3706
 2304SOL     OW18547   1.706   2.251   5.992  0.1140  0.0734  0.0415
 2304SOL    HW118548   1.713   2.332   6.042 -1.2574 -1.5848  2.8985
 2304SOL    HW218549   1.771   2.198   6.037 -0.0561 -0.0273  0.1665
 2305SOL     OW18550   4.425   3.346   8.897  0.1769 -0.3008 -0.2963
 2305SOL    HW118551   4.434   3.258   8.933 -1.8972 -0.6376 -0.5923
 2305SOL    HW218552   4.501   3.353   8.840 -0.3423  1.9189 -0.7422
 2306SOL     OW18553   0.716   2.666   4.549  0.0730  0.4632 -0.3814
 2306SOL    HW118554   0.661   2.683   4.625 -1.7379 -0.8887 -1.3832
 2306SOL    HW218555   0.665   2.593   4.511  0.3437 -0.1795  0.4996
 2307SOL     OW18556   1.740   4.126   9.503 -0.8059  0.3304 -0.1077
 2307SOL    HW118557   1.821   4.171   9.477  0.5333 -1.6362  0.6534
 2307SOL    HW218558   1.690   4.140   9.423 -0.5815 -1.3229 -0.5370
 2308SOL     OW18559   3.730   3.115  11.850  0.5321 -0.1257  0.0712
 2308SOL    HW118560   3.651   3.128  11.798 -0.6470 -0.2136  1.8512
 2308SOL    HW218561   3.788   3.176  11.804 -0.4027  1.2327  0.7114
 2309SOL     OW18562   1.726   2.704   5.877  0.0334  0.0441 -0.6619
 2309SOL    HW118563   1.664   2.753   5.931 -1.5823 -2.0393 -0.6082
 2309SOL    HW218564   1.662   2.640   5.845  0.9621 -0.6276 -1.1801
 2310SOL     OW18565   1.713   4.325   2.442  0.4422  0.0663 -0.2781
 2310SOL    HW118566   1.761   4.379   2.505  1.5762 -0.1321 -0.9628
 2310SOL    HW218567   1.664   4.395   2.397  0.0063 -1.0514 -1.5422
 2311SOL     OW18568   0.673   1.471  11.206  0.2711  0.2019 -0.3255
 2311SOL    HW118569   0.740   1.420  11.251  1.1468  1.0222 -0.7063
 2311SOL    HW218570   0.670   1.551  11.259 -1.1556  0.1753 -0.3581
 2312SOL     OW18571   2.758   0.009   5.003 -0.3543 -0.3060 -0.0245
 2312SOL    HW118572   2.764   4.652   5.009 -0.4423 -0.3698 -1.0351
 2312SOL    HW218573   2.755   0.036   5.095 -0.2628 -0.0638 -0.0955
 2313SOL     OW18574   4.201   0.136   6.681 -0.3641  0.3594 -0.1040
 2313SOL    HW118575   4.259   0.172   6.749  0.7049 -1.5535 -0.0062
 2313SOL    HW218576   4.119   0.134   6.730 -0.1259  0.1188  0.2964
 2314SOL     OW18577   2.612   3.749   5.270  0.0413 -0.4700  0.5483
 2314SOL    HW118578   2.656   3.707   5.344  1.2611 -0.2238 -0.0453
 2314SOL    HW218579   2.684   3.747   5.207  0.3428  0.9120  0.8601
 2315SOL     OW18580   3.906   0.597   4.276 -1.1761 -0.7428  0.1720
 2315SOL    HW118581   3.893   0.578   4.369  0.2721  1.9043  0.9037
 2315SOL    HW218582   3.999   0.572   4.275 -1.3151 -1.1642 -1.6422
 2316SOL     OW18583   0.717   0.777   3.041  0.7339 -0.0416 -0.0238
 2316SOL    HW118584   0.808   0.806   3.039  0.6505  0.1707 -0.6893
 2316SOL    HW218585   0.688   0.814   3.125 -0.2081  0.5012 -0.5898
 2317SOL     OW18586   2.283   3.609   0.797 -0.4435  0.6037  0.9094
 2317SOL    HW118587   2.345   3.674   0.763 -0.1454  1.4262  3.0321
 2317SOL    HW218588   2.335   3.572   0.868 -1.0627  0.4461  1.2849
 2318SOL     OW18589   3.942   1.980   4.671 -0.0261  0.2154 -0.1068
 2318SOL    HW118590   3.932   1.885   4.663  2.0562 -0.2600  3.2435
 2318SOL    HW218591   4.020   2.007   4.622  0.8569  0.7997  1.6409
 2319SOL     OW18592   0.465   4.124   6.512  0.4580  0.2335  0.5846
 2319SOL    HW118593   0.508   4.177   6.579 -2.0322 -0.0502  2.3925
 2319SOL    HW218594   0.380   4.167   6.498  0.9050  1.3114  1.2215
 2320SOL     OW18595   0.189   1.720  16.441  0.6099 -0.1203 -0.2709
 2320SOL    HW118596   0.280   1.719  16.410  1.4800 -0.9871  2.3872
 2320SOL    HW218597   0.156   1.636  16.409 -0.2234  0.4116 -0.8069
 2321SOL     OW18598   2.430   0.430   2.525 -0.4101 -0.2979 -0.2960
 2321SOL    HW118599   2.371   0.498   2.559 -0.5501 -1.3076  1.4746
 2321SOL    HW218600   2.514   0.472   2.549  0.2794 -1.7383 -0.2042
 2322SOL     OW18601   2.904   2.232   2.527 -0.0619  0.1560  0.1217
 2322SOL    HW118602   2.950   2.181   2.461  0.3050 -0.3446  0.7617
 2322SOL    HW218603   2.871   2.299   2.468 -0.0141 -0.8454 -1.0242
 2323SOL     OW18604   3.040   1.540   3.053 -0.5820  0.8558 -0.4555
 2323SOL    HW118605   2.998   1.455   3.065  0.6343  0.2736 -0.2850
 2323SOL    HW218606   2.982   1.582   2.989 -0.0723 -0.0877 -1.5535
 2324SOL     OW18607   0.963   4.568   7.867  0.5931 -0.1662  0.1188
 2324SOL    HW118608   0.942   4.618   7.787  1.1908 -0.0948  0.0050
 2324SOL    HW218609   1.057   4.574   7.886  1.0701 -1.0949 -1.9460
 2325SOL     OW18610   4.718   3.492   8.392  0.1424  0.0335  0.3277
 2325SOL    HW118611   0.048   3.473   8.328 -1.0625 -1.4541 -0.5275
 2325SOL    HW218612   4.679   3.569   8.350  1.4188  0.1450 -0.6709
 2326SOL     OW18613   3.497   1.400   7.225 -0.5438 -0.3716  0.2411
 2326SOL    HW118614   3.404   1.409   7.246 -0.4453  0.0728  0.4750
 2326SOL    HW218615   3.505   1.453   7.146 -0.6009  1.2750  1.3465
 2327SOL     OW18616   0.588   2.781   4.878  0.1997 -0.2410  0.5556
 2327SOL    HW118617   0.631   2.827   4.951 -0.3867  2.0461 -0.5521
 2327SOL    HW218618   0.551   2.700   4.914 -0.2033 -1.0033 -1.6302
 2328SOL     OW18619   3.179   0.083   4.029  0.2537  0.5025  0.1251
 2328SOL    HW118620   3.113   0.122   3.971  0.1787 -1.4910 -1.1494
 2328SOL    HW218621   3.258   0.108   3.981  0.6773 -2.5176 -0.7596
 2329SOL     OW18622   1.888   0.782   4.290 -0.3717  0.5286 -0.0805
 2329SOL    HW118623   1.865   0.872   4.266 -1.2869  0.4923  0.6539
 2329SOL    HW218624   1.810   0.759   4.340  0.6716  0.6085  1.6098
 2330SOL     OW18625   2.607   1.458   9.753  1.0727  0.4963  0.2162
 2330SOL    HW118626   2.518   1.443   9.721  1.0222 -3.6970  2.2873
 2330SOL    HW218627   2.647   1.484   9.670  0.6924 -0.3321 -0.2264
 2331SOL     OW18628   0.545   0.292  15.951  0.4458  0.3364  0.3092
 2331SOL    HW118629   0.554   0.343  16.031  0.0104  0.2539  0.4098
 2331SOL    HW218630   0.463   0.242  15.956  0.4096  0.5482  1.7583
 2332SOL     OW18631   3.761   1.224   3.791 -0.2381 -0.2281 -0.3433
 2332SOL    HW118632   3.759   1.129   3.798  1.9256 -0.2010  0.6352
 2332SOL    HW218633   3.708   1.250   3.866 -1.3802  1.0893 -1.6016
 2333SOL     OW18634   3.915   0.030  14.272 -0.4153 -0.7021 -0.0014
 2333SOL    HW118635   3.911   0.037  14.368 -1.4237  1.7308 -0.2108
 2333SOL    HW218636   3.891   4.678  14.260 -1.8337 -0.4695  1.0844
 2334SOL     OW18637   0.954   3.957   8.052 -0.0454  0.4767  0.4221
 2334SOL    HW118638   0.985   3.983   7.965 -0.6939  0.3885  0.1679
 2334SOL    HW218639   1.016   4.002   8.110 -2.6944  1.5294  2.4642
 2335SOL     OW18640   3.557   4.480   3.178 -0.3420  0.8245 -0.8333
 2335SOL    HW118641   3.509   4.518   3.105  0.9993  0.5829 -1.8441
 2335SOL    HW218642   3.645   4.494   3.142  0.0928 -0.0717 -0.1213
 2336SOL     OW18643   0.552   0.900  11.957  0.2750 -0.9233 -0.4285
 2336SOL    HW118644   0.620   0.961  11.985 -2.0978  0.6514  1.9124
 2336SOL    HW218645   0.585   0.862  11.876 -2.0614  0.9895 -2.3077
 2337SOL     OW18646   4.216   1.447   3.225  0.0176  0.4089  0.1481
 2337SOL    HW118647   4.267   1.407   3.296 -0.1786 -0.2900 -0.0983
 2337SOL    HW218648   4.159   1.375   3.196 -1.2558  2.0737 -1.5079
 2338SOL     OW18649   2.259   0.466   3.952 -0.0459 -0.4068 -0.2870
 2338SOL    HW118650   2.327   0.414   3.909 -0.0693 -1.0544  0.4680
 2338SOL    HW218651   2.181   0.434   3.907  0.4407 -0.5417 -1.0227
 2339SOL     OW18652   2.963   0.233  11.172 -0.0754  0.1499 -0.5021
 2339SOL    HW118653   2.902   0.159  11.169  0.2919 -0.2287  1.5240
 2339SOL    HW218654   2.935   0.295  11.105 -0.8402 -2.0862 -2.2626
 2340SOL     OW18655   0.256   3.114   1.332 -0.1403 -0.4564 -0.2517
 2340SOL    HW118656   0.228   3.205   1.344  1.7066 -0.1304  1.6842
 2340SOL    HW218657   0.180   3.062   1.357  1.2963 -1.1764  2.6521
 2341SOL     OW18658   1.118   0.568   9.475  0.1193  0.0240 -0.0946
 2341SOL    HW118659   1.152   0.657   9.462 -2.5690  0.9659 -0.5633
 2341SOL    HW218660   1.027   0.593   9.464  0.5877  1.6768 -0.2459
 2342SOL     OW18661   0.008   0.320   4.302 -0.0927 -0.2514  0.5406
 2342SOL    HW118662   4.692   0.243   4.317  0.2181 -0.1298  2.2625
 2342SOL    HW218663   4.696   0.377   4.245 -1.5141  0.5154  2.5941
 2343SOL     OW18664   2.669   4.224   8.037 -0.9134  0.2357 -0.2080
 2343SOL    HW118665   2.723   4.151   8.067 -0.9145  1.3172  2.4491
 2343SOL    HW218666   2.587   4.179   8.014 -0.9850  0.2806 -0.0395
 2344SOL     OW18667   4.696   2.733   6.747  0.1009  0.0198  0.2103
 2344SOL    HW118668   4.658   2.820   6.756  1.3772  0.6004  0.0509
 2344SOL    HW218669   4.677   2.689   6.830 -2.0357  0.0764 -0.2528
 2345SOL     OW18670   4.380   2.688  13.701  0.2641  0.8213  0.1344
 2345SOL    HW118671   4.319   2.761  13.697 -0.0609  0.4582 -1.3741
 2345SOL    HW218672   4.459   2.708  13.651  0.8400 -2.0107 -0.1150
 2346SOL     OW18673   4.403   1.626  11.498  0.3848  0.1897  0.1552
 2346SOL    HW118674   4.386   1.682  11.422  3.1109  2.0515  0.9131
 2346SOL    HW218675   4.498   1.635  11.499  0.5726 -2.2709  3.7899
 2347SOL     OW18676   0.759   1.272   7.373  0.0598  0.2367 -0.0937
 2347SOL    HW118677   0.832   1.216   7.348  0.1273  1.3860 -2.4611
 2347SOL    HW218678   0.731   1.234   7.456  0.2383 -0.6397 -0.4251
 2348SOL     OW18679   4.583   3.159   5.939 -0.5069  0.5229 -0.2873
 2348SOL    HW118680   4.571   3.128   5.849  1.3967 -0.3232 -0.2398
 2348SOL    HW218681   4.613   3.249   5.926 -0.6423  0.7687  1.1087
 2349SOL     OW18682   0.161   3.330   2.672 -0.3151  0.0979  0.6850
 2349SOL    HW118683   0.171   3.416   2.713 -1.2103 -0.3140  1.7726
 2349SOL    HW218684   0.151   3.265   2.741  0.3732 -2.4136 -1.5786
 2350SOL     OW18685   3.053   2.674   3.726 -0.5723 -0.2804  0.6637
 2350SOL    HW118686   3.105   2.645   3.651  0.1404  2.4311  0.0878
 2350SOL    HW218687   3.116   2.661   3.797 -0.0661 -3.8699 -0.4573
 2351SOL     OW18688   2.129   1.249   0.004 -0.6136 -0.5208 -0.3168
 2351SOL    HW118689   2.113   1.157   0.023 -2.2720 -0.5127 -1.6116
 2351SOL    HW218690   2.146   1.294   0.087 -0.1633 -0.3343 -0.5101
 2352SOL     OW18691   3.298   2.201   4.150  0.3596  0.5316 -0.3707
 2352SOL    HW118692   3.229   2.173   4.211  1.8210  1.5487  1.7554
 2352SOL    HW218693   3.246   2.198   4.069 -0.2042  1.0624 -0.0310
 2353SOL     OW18694   3.130   3.638   3.843  0.3283 -0.4755 -0.1423
 2353SOL    HW118695   3.197   3.671   3.783  0.7928  0.8064  1.0827
 2353SOL    HW218696   3.088   3.580   3.779  0.0459  0.0038 -0.3903
 2354SOL     OW18697   1.691   0.078  14.091  0.0261  0.2733 -0.3108
 2354SOL    HW118698   1.695   0.081  13.996  0.9657 -1.3980 -0.3193
 2354SOL    HW218699   1.598   0.060  14.107  1.0640 -1.8013  3.5140
 2355SOL     OW18700   3.790   0.052   9.909  0.7497  0.3716 -0.0576
 2355SOL    HW118701   3.725   0.120   9.924  0.0770 -0.4817  0.9186
 2355SOL    HW218702   3.851   0.063   9.982  1.6026 -0.3673 -0.6735
 2356SOL     OW18703   4.695   1.317   9.964  0.7050 -1.0114 -0.5424
 2356SOL    HW118704   0.023   1.320   9.897  0.5185  0.9543 -0.6268
 2356SOL    HW218705   4.731   1.366  10.038 -0.0860 -0.9531 -0.1915
 2357SOL     OW18706   2.448   1.714   5.365  0.1097 -0.1672 -0.1408
 2357SOL    HW118707   2.385   1.737   5.297  1.8388 -2.2949 -2.4733
 2357SOL    HW218708   2.528   1.759   5.340 -2.1416  4.7773  1.6175
 2358SOL     OW18709   4.001   2.737   2.792 -0.7277  0.4115 -0.3140
 2358SOL    HW118710   3.959   2.654   2.770  0.4469 -0.8460  2.1906
 2358SOL    HW218711   3.999   2.775   2.704 -1.5784  0.0773 -0.4325
 2359SOL     OW18712   2.951   4.128   0.377  0.2359  0.0771 -0.4102
 2359SOL    HW118713   3.045   4.124   0.363  0.2208 -1.4111 -0.1449
 2359SOL    HW218714   2.913   4.121   0.289 -0.0588  0.4057 -0.3125
 2360SOL     OW18715   2.813   3.691   7.826  0.2493  0.3673  0.4545
 2360SOL    HW118716   2.811   3.685   7.731 -0.9214  0.6242  0.4627
 2360SOL    HW218717   2.907   3.711   7.825  0.4798 -0.6909  0.9348
 2361SOL     OW18718   3.027   2.619   5.841  0.1727 -0.0143  0.2068
 2361SOL    HW118719   3.086   2.562   5.791 -1.4293  1.1465 -3.0108
 2361SOL    HW218720   3.080   2.638   5.918 -0.3676 -0.5056  0.6991
 2362SOL     OW18721   3.347   2.952   1.804 -0.0743 -0.0475  0.4700
 2362SOL    HW118722   3.415   3.019   1.796 -0.2274  0.5024  3.5274
 2362SOL    HW218723   3.376   2.895   1.876  0.1729  0.6107  0.8931
 2363SOL     OW18724   1.029   3.766   6.461 -0.3122  0.3915 -0.2232
 2363SOL    HW118725   1.016   3.805   6.548 -2.2625 -0.7076 -0.0277
 2363SOL    HW218726   0.997   3.677   6.476  2.5980 -0.5509  0.4337
 2364SOL     OW18727   4.259   4.269  11.270 -0.7744  0.4767  0.5632
 2364SOL    HW118728   4.299   4.211  11.205  0.4190  3.8852 -1.7229
 2364SOL    HW218729   4.293   4.227  11.349 -1.1543  1.0105  1.0088
 2365SOL     OW18730   4.296   1.637   4.755  0.4959 -0.1576 -0.1366
 2365SOL    HW118731   4.367   1.620   4.693 -1.3061 -0.4894 -2.1084
 2365SOL    HW218732   4.344   1.658   4.835 -0.8093 -1.6289  1.0166
 2366SOL     OW18733   4.650   2.969   8.268  0.1366 -0.0282 -0.0820
 2366SOL    HW118734   4.578   2.953   8.207 -1.4559  1.0829  1.5438
 2366SOL    HW218735   4.648   2.895   8.328 -0.8065 -0.4538 -0.6369
 2367SOL     OW18736   2.411   0.293   4.446 -0.1535 -0.1774 -0.0480
 2367SOL    HW118737   2.338   0.289   4.385  0.3947 -0.7383 -0.6560
 2367SOL    HW218738   2.388   0.234   4.519 -0.1280 -0.5152 -0.3143
 2368SOL     OW18739   2.217   3.352   3.783  0.3407 -0.1472 -0.0270
 2368SOL    HW118740   2.243   3.374   3.693  1.0492 -1.7785 -0.2172
 2368SOL    HW218741   2.296   3.309   3.815 -0.0707  0.2942  1.5816
 2369SOL     OW18742   3.958   2.961   8.074  0.6496 -0.5938 -0.2853
 2369SOL    HW118743   3.966   2.898   8.003  1.6480 -0.8949  0.0917
 2369SOL    HW218744   3.890   3.021   8.044 -0.7296 -1.0494  1.9306
 2370SOL     OW18745   3.673   0.171   6.513 -0.4942 -0.5274  0.1878
 2370SOL    HW118746   3.715   0.161   6.598 -0.8971 -0.3646  0.4084
 2370SOL    HW218747   3.631   0.257   6.521  0.0347 -0.2222 -0.3466
 2371SOL     OW18748   1.579   3.737   2.589  0.4155  0.0289 -0.1393
 2371SOL    HW118749   1.656   3.792   2.604 -0.3853  1.0032  0.3892
 2371SOL    HW218750   1.624   3.653   2.581 -2.0446 -1.5702  3.1713
 2372SOL     OW18751   4.356   0.731   6.277 -0.1243 -0.3314 -0.5307
 2372SOL    HW118752   4.276   0.726   6.329 -0.1680 -1.3422 -0.6951
 2372SOL    HW218753   4.405   0.759   6.354 -2.6405  0.6656  0.7056
 2373SOL     OW18754   0.731   4.358   8.504  0.0620 -0.0993  0.7031
 2373SOL    HW118755   0.682   4.323   8.430  0.9089 -0.8055  0.4880
 2373SOL    HW218756   0.803   4.411   8.471  2.0128 -2.5006  1.1146
 2374SOL     OW18757   1.044   2.946   5.057 -0.0246 -0.4092 -0.0592
 2374SOL    HW118758   1.093   2.891   4.996 -1.1001 -0.7627 -0.6025
 2374SOL    HW218759   1.058   3.034   5.023 -2.1849  1.0066  2.6527
 2375SOL     OW18760   1.157   4.712   4.048 -0.6342 -0.0350  0.0803
 2375SOL    HW118761   1.069   4.700   4.012 -1.5209 -0.3934  2.3761
 2375SOL    HW218762   1.156   4.717   4.143  0.2533 -0.4718  0.1089
 2376SOL     OW18763   3.279   1.977   7.535  0.0604 -0.1500 -1.1096
 2376SOL    HW118764   3.350   2.004   7.477 -0.7341 -0.2729 -2.1444
 2376SOL    HW218765   3.239   2.060   7.559 -0.7387 -0.4343 -1.4419
 2377SOL     OW18766   3.462   1.346   0.819 -0.1637  0.1424  0.0411
 2377SOL    HW118767   3.526   1.353   0.749 -0.0969  2.3831  0.3512
 2377SOL    HW218768   3.444   1.252   0.810  1.4001  0.0541 -2.0113
 2378SOL     OW18769   3.359   4.667   2.063  0.0198 -0.0970  0.3052
 2378SOL    HW118770   3.290   4.730   2.041 -1.2930 -1.3814  0.7141
 2378SOL    HW218771   3.422   4.703   2.001 -1.9638  1.2033 -0.9655
 2379SOL     OW18772   1.432   2.280   5.985 -0.4580 -0.5016  0.0538
 2379SOL    HW118773   1.522   2.253   5.966 -0.0386  2.5278 -2.2397
 2379SOL    HW218774   1.434   2.317   6.074 -1.4837  0.0309 -0.1526
 2380SOL     OW18775   3.248   3.047   2.379  0.2674  0.1600  0.2527
 2380SOL    HW118776   3.220   3.108   2.448 -1.5669 -1.4139  0.9025
 2380SOL    HW218777   3.301   3.100   2.320  1.7370  1.4855  2.7259
 2381SOL     OW18778   3.002   3.844   4.890  0.4560  0.7259  0.2712
 2381SOL    HW118779   3.049   3.918   4.929  1.1223 -0.9472  2.6840
 2381SOL    HW218780   2.981   3.890   4.808  0.0477 -0.4258 -0.2685
 2382SOL     OW18781   0.145   1.368   5.378  0.1488  0.0904  0.5089
 2382SOL    HW118782   0.169   1.457   5.405  0.7268 -0.6812  2.5392
 2382SOL    HW218783   0.095   1.389   5.299  2.2584 -1.4946 -1.2489
 2383SOL     OW18784   3.015   2.854  15.046  0.1286  0.0616  0.0025
 2383SOL    HW118785   2.946   2.914  15.016 -0.9723 -0.8872  0.6397
 2383SOL    HW218786   2.967   2.793  15.101 -0.5289  0.7220  0.1632
 2384SOL     OW18787   0.354   3.376  13.842 -0.1196  0.0710  0.2492
 2384SOL    HW118788   0.302   3.445  13.883 -0.9368 -1.1629  1.2630
 2384SOL    HW218789   0.427   3.432  13.814  0.5274  0.0254  1.8731
 2385SOL     OW18790   3.507   1.067  15.692  0.4522  0.7412 -0.2698
 2385SOL    HW118791   3.453   1.096  15.618  0.8528  0.6322 -0.6079
 2385SOL    HW218792   3.570   1.139  15.698 -0.8690  1.8114  0.9818
 2386SOL     OW18793   0.516   4.467  12.459  0.0712  0.2960 -0.4907
 2386SOL    HW118794   0.530   4.559  12.434 -1.6921  0.3315 -1.3482
 2386SOL    HW218795   0.500   4.469  12.554  2.0132  0.7848 -0.1785
 2387SOL     OW18796   2.907   0.915  12.166  0.1735 -0.0124 -0.2509
 2387SOL    HW118797   2.943   0.847  12.108 -0.5658 -2.0583  1.6832
 2387SOL    HW218798   2.839   0.949  12.109  1.0615  1.7850 -0.2216
 2388SOL     OW18799   1.683   0.477   3.396 -0.1674  0.2141  0.0969
 2388SOL    HW118800   1.666   0.384   3.384  2.1277 -0.3612  1.2315
 2388SOL    HW218801   1.609   0.494   3.454  0.5539 -0.0778  1.0951
 2389SOL     OW18802   1.224   4.328   3.450  0.7412 -0.1312 -0.4503
 2389SOL    HW118803   1.276   4.359   3.376  1.1366  1.4333  0.4761
 2389SOL    HW218804   1.267   4.244   3.468 -0.8344 -0.3948  2.0587
 2390SOL     OW18805   2.850   0.416   5.701 -0.2069  0.1559  0.4632
 2390SOL    HW118806   2.785   0.415   5.631  0.8126 -0.1742 -0.4882
 2390SOL    HW218807   2.916   0.478   5.670  0.1505  0.1364  1.1824
 2391SOL     OW18808   0.700   4.562   2.098 -0.2914 -0.7011  0.2781
 2391SOL    HW118809   0.644   4.510   2.155  1.0771 -1.1459  1.2037
 2391SOL    HW218810   0.758   4.493   2.064 -0.5688 -0.7683 -0.0526
 2392SOL     OW18811   1.405   0.084  14.662 -0.0984 -0.1438 -0.1446
 2392SOL    HW118812   1.323   0.120  14.629 -0.0485 -1.8737 -2.2049
 2392SOL    HW218813   1.410   0.140  14.739  0.4642  3.3618 -2.7111
 2393SOL     OW18814   0.243   3.195  13.050  0.0931 -0.8740  0.0728
 2393SOL    HW118815   0.202   3.235  13.126  1.9947  0.7026  0.2626
 2393SOL    HW218816   0.243   3.265  12.985  2.5749 -1.8392 -0.9807
 2394SOL     OW18817   2.770   3.603   8.499  0.2937  0.3614 -0.2742
 2394SOL    HW118818   2.785   3.697   8.491  0.7231  0.0866 -2.7421
 2394SOL    HW218819   2.675   3.607   8.496  0.2218 -0.3899  0.9911
 2395SOL     OW18820   3.582   3.761  12.633 -0.1789 -0.3498  0.0639
 2395SOL    HW118821   3.572   3.846  12.676  1.8897 -0.0340 -0.0498
 2395SOL    HW218822   3.561   3.703  12.706 -3.7760  2.3293  1.1534
 2396SOL     OW18823   4.389   0.882   8.894 -0.6973  0.4224  0.1882
 2396SOL    HW118824   4.481   0.854   8.890  0.0606  2.7318  1.4842
 2396SOL    HW218825   4.395   0.975   8.913 -2.6327  0.5291  0.2521
 2397SOL     OW18826   4.064   3.910   8.391  0.4539  0.0645 -0.5015
 2397SOL    HW118827   4.088   3.857   8.315  0.0482  0.2529 -0.7568
 2397SOL    HW218828   4.033   3.854   8.461 -0.7645  0.0780 -1.0421
 2398SOL     OW18829   1.749   3.488  12.241  0.0744  0.1237 -0.3784
 2398SOL    HW118830   1.753   3.405  12.193 -2.1070 -0.6882  0.8123
 2398SOL    HW218831   1.788   3.479  12.327  0.9133  3.2763 -0.4294
 2399SOL     OW18832   2.190   1.463   3.368  0.1236  0.4375 -0.3654
 2399SOL    HW118833   2.205   1.374   3.335 -1.9287 -0.4821  1.1591
 2399SOL    HW218834   2.097   1.471   3.345  0.1503 -0.0720 -0.6504
 2400SOL     OW18835   4.542   2.979   1.271 -0.4700  0.1731  0.1538
 2400SOL    HW118836   4.468   2.919   1.263 -0.2365 -0.0210 -0.4933
 2400SOL    HW218837   4.539   3.030   1.190 -0.2825  1.4250  0.9239
 2401SOL     OW18838   4.292   1.028   7.675 -0.1870  0.0494 -0.4811
 2401SOL    HW118839   4.385   1.024   7.652  0.1623  1.4480  0.7408
 2401SOL    HW218840   4.308   1.079   7.754 -0.5914 -0.3486 -0.1463
 2402SOL     OW18841   1.898   2.488  16.135 -0.1546 -0.7666 -0.3528
 2402SOL    HW118842   1.866   2.563  16.085  0.5714  1.3426  2.3243
 2402SOL    HW218843   1.992   2.498  16.126  0.1737 -1.8012  1.8008
 2403SOL     OW18844   1.211   1.163  13.469 -0.5057 -0.1809  0.2254
 2403SOL    HW118845   1.256   1.079  13.482  3.7309  1.5455 -3.2880
 2403SOL    HW218846   1.160   1.147  13.390 -1.4271 -0.6872  0.9134
 2404SOL     OW18847   2.027   4.291   1.840  0.2316  0.5790 -0.0595
 2404SOL    HW118848   2.118   4.260   1.846  0.1451  0.2416 -0.5312
 2404SOL    HW218849   2.006   4.290   1.747 -1.3756 -1.0322  0.3313
 2405SOL     OW18850   1.400   4.037   8.778 -0.4377 -0.3725  0.7874
 2405SOL    HW118851   1.487   4.016   8.745 -0.7226 -0.9657  0.4064
 2405SOL    HW218852   1.395   4.125   8.742 -1.2094  0.0229  1.8692
 2406SOL     OW18853   1.225   3.123   7.090  0.4770  0.6380  0.0826
 2406SOL    HW118854   1.171   3.054   7.127 -0.3098  0.7908 -0.7635
 2406SOL    HW218855   1.157   3.185   7.061 -0.0396  0.1930  0.3544
 2407SOL     OW18856   4.520   3.201   7.113  0.0770  0.0716 -0.2028
 2407SOL    HW118857   4.570   3.148   7.051 -3.5948 -2.5651 -0.9290
 2407SOL    HW218858   4.448   3.224   7.054 -1.9492 -2.7017  1.2080
 2408SOL     OW18859   0.114   0.621   4.455 -0.3137 -0.0414 -0.7575
 2408SOL    HW118860   0.158   0.553   4.404 -0.3499 -0.2526 -0.5083
 2408SOL    HW218861   0.028   0.579   4.455  0.0389 -0.7582  0.7751
 2409SOL     OW18862   0.176   1.733   6.190 -0.2337 -0.8604  0.0669
 2409SOL    HW118863   0.157   1.810   6.244  1.5424 -1.5464  1.6871
 2409SOL    HW218864   0.089   1.695   6.179 -0.4520 -0.8691  1.7641
 2410SOL     OW18865   0.079   1.685   9.955  0.2238  0.2094  0.1062
 2410SOL    HW118866   0.009   1.688  10.020  0.5856 -2.4425  0.6486
 2410SOL    HW218867   0.036   1.645   9.879  1.0863 -0.5113 -0.0115
 2411SOL     OW18868   2.943   3.493   8.677 -0.0807 -0.0044  0.0567
 2411SOL    HW118869   2.863   3.539   8.649  0.4017  1.6180  1.3387
 2411SOL    HW218870   2.975   3.478   8.588 -0.7241 -3.2826  0.3729
 2412SOL     OW18871   3.207   4.707  13.348  0.2995 -0.0334  0.2140
 2412SOL    HW118872   3.222   4.616  13.325  1.2305 -0.1007  1.1234
 2412SOL    HW218873   3.289   0.007  13.320 -0.2845 -0.6287 -2.2799
 2413SOL     OW18874   4.416   1.198  17.471  0.2230  0.3356  0.1474
 2413SOL    HW118875   4.341   1.251  17.446  0.6105  0.7576 -0.1247
 2413SOL    HW218876   4.458   1.193  17.385 -0.4845  0.5322 -0.2001
 2414SOL     OW18877   0.720   2.501   1.467 -0.2240 -0.2706 -0.7375
 2414SOL    HW118878   0.734   2.426   1.525 -0.1717  0.0042 -0.3948
 2414SOL    HW218879   0.630   2.527   1.486  0.0820  0.5044 -0.3322
 2415SOL     OW18880   0.721   3.567  16.799 -0.4311  0.2798 -0.3586
 2415SOL    HW118881   0.648   3.627  16.812  0.2950  0.8953  0.8912
 2415SOL    HW218882   0.688   3.510  16.730  0.6675 -1.9593  0.9558
 2416SOL     OW18883   1.231   3.080   0.804 -0.8427  0.5474  0.3659
 2416SOL    HW118884   1.245   3.061   0.897 -0.3331  1.1387  0.4057
 2416SOL    HW218885   1.161   3.018   0.782  0.5708 -0.2403 -1.8118
 2417SOL     OW18886   0.934   0.853   0.581  0.5953 -0.1611  0.5521
 2417SOL    HW118887   0.845   0.821   0.593  1.3436 -1.8051  1.7774
 2417SOL    HW218888   0.989   0.788   0.626 -0.6019 -0.4874  1.5322
 2418SOL     OW18889   1.887   3.497   0.531  0.6771  0.2098  0.0345
 2418SOL    HW118890   1.850   3.467   0.448  0.6557  2.0610 -0.6211
 2418SOL    HW218891   1.876   3.592   0.519 -1.6488 -0.1779 -0.8737
 2419SOL     OW18892   2.181   2.998   9.884 -0.6823  0.2517 -0.3118
 2419SOL    HW118893   2.092   2.979   9.913  0.3315 -2.1378  1.2784
 2419SOL    HW218894   2.203   2.905   9.880  2.2124  0.9817 -1.7160
 2420SOL     OW18895   3.792   0.750  13.978  0.7383  0.3433  0.3617
 2420SOL    HW118896   3.756   0.834  13.951 -1.9858 -0.8893  0.1059
 2420SOL    HW218897   3.785   0.694  13.901  1.0118 -0.1600  0.7019
 2421SOL     OW18898   1.799   3.070   8.462 -0.0970 -0.4030 -0.5188
 2421SOL    HW118899   1.779   3.147   8.408  3.1529 -0.9385 -2.4636
 2421SOL    HW218900   1.851   3.012   8.406 -0.6155 -0.6441 -0.7503
 2422SOL     OW18901   2.433   3.350   4.137  0.0927  0.3876 -0.0116
 2422SOL    HW118902   2.451   3.422   4.197 -1.4591  0.9574 -0.2127
 2422SOL    HW218903   2.516   3.312   4.110 -0.7074 -0.4186 -1.3369
 2423SOL     OW18904   2.680   0.731   8.681 -0.3846  0.0322  0.2599
 2423SOL    HW118905   2.598   0.778   8.667 -0.4287  0.6256  2.6460
 2423SOL    HW218906   2.676   0.672   8.605 -0.5902 -1.9064  1.7875
 2424SOL     OW18907   4.601   1.312   6.385 -0.6564  0.5366 -0.1915
 2424SOL    HW118908   4.594   1.389   6.440 -0.8537  0.0143  0.5163
 2424SOL    HW218909   4.546   1.333   6.309 -0.0867 -0.9922 -1.0459
 2425SOL     OW18910   1.519   1.068   1.985 -0.5384  0.2570 -0.2225
 2425SOL    HW118911   1.506   0.974   1.973  2.7974  0.1297 -2.7331
 2425SOL    HW218912   1.537   1.075   2.079 -1.3792 -2.2308  0.1458
 2426SOL     OW18913   4.693   2.641   3.209 -0.2660  0.9216 -0.6621
 2426SOL    HW118914   0.008   2.640   3.130  1.1854  0.6298  0.3418
 2426SOL    HW218915   4.612   2.682   3.178 -0.8672 -0.4485 -0.8904
 2427SOL     OW18916   4.392   0.143  14.650  0.4819 -0.3579  0.3741
 2427SOL    HW118917   4.396   0.194  14.731 -0.5696 -0.7924  0.7023
 2427SOL    HW218918   4.300   0.119  14.664  1.1479 -3.2951 -0.3124
 2428SOL     OW18919   3.481   2.536   3.870  0.2578 -0.2919 -0.2064
 2428SOL    HW118920   3.556   2.488   3.905 -0.5804 -0.6671  1.0802
 2428SOL    HW218921   3.484   2.499   3.782 -1.3959 -1.7732  0.3529
 2429SOL     OW18922   4.150   2.366   0.463  0.2358 -0.0629 -0.1607
 2429SOL    HW118923   4.125   2.451   0.425  1.0319 -0.6241 -1.9571
 2429SOL    HW218924   4.175   2.393   0.551 -0.9741 -1.4123  0.5933
 2430SOL     OW18925   0.913   3.787   3.401 -0.2101  0.1123  0.1516
 2430SOL    HW118926   0.881   3.731   3.331  1.5523 -0.6273 -0.0800
 2430SOL    HW218927   0.865   3.772   3.482  0.8030  2.8579  1.2742
 2431SOL     OW18928   4.236   0.539   3.340 -0.4623  0.1919  0.0102
 2431SOL    HW118929   4.144   0.532   3.368  0.2454 -0.8860  2.1028
 2431SOL    HW218930   4.254   0.450   3.370  2.4496  0.3968 -1.1909
 2432SOL     OW18931   4.432   0.240   6.826 -0.2439 -0.2097  0.3237
 2432SOL    HW118932   4.501   0.199   6.773  1.3224 -1.5166  3.3422
 2432SOL    HW218933   4.418   0.315   6.769 -1.8522 -2.2941 -2.0059
 2433SOL     OW18934   2.144   1.230  15.181 -0.2025 -0.0120 -0.0940
 2433SOL    HW118935   2.098   1.237  15.097 -1.8830  0.8793  0.8883
 2433SOL    HW218936   2.111   1.149  15.219  0.4593  0.8167  2.2220
 2434SOL     OW18937   3.677   0.894   6.393  0.1057  1.0051 -0.1648
 2434SOL    HW118938   3.763   0.857   6.374 -0.7756 -0.3307 -1.4979
 2434SOL    HW218939   3.625   0.815   6.386  2.4480 -0.3949 -1.6319
 2435SOL     OW18940   1.603   0.559   1.336 -0.0130 -0.6808 -0.5575
 2435SOL    HW118941   1.639   0.571   1.249 -3.0582  1.8941 -1.4406
 2435SOL    HW218942   1.530   0.621   1.337  1.5753  1.2192 -0.1113
 2436SOL     OW18943   1.034   1.258   7.576  0.1604  0.3862 -0.1855
 2436SOL    HW118944   1.020   1.339   7.626  1.2960  0.8177 -0.5762
 2436SOL    HW218945   1.086   1.275   7.498  2.1783 -1.0696  0.8514
 2437SOL     OW18946   0.024   0.781   6.944 -0.0134  0.7692 -0.3069
 2437SOL    HW118947   4.674   0.808   6.964 -0.2876  0.0242 -0.5370
 2437SOL    HW218948   0.059   0.858   6.900  2.1299 -1.4538 -2.4980
 2438SOL     OW18949   0.742   2.528   3.110  0.2607  0.5074  0.7857
 2438SOL    HW118950   0.800   2.542   3.035  0.1826  0.7723  0.7763
 2438SOL    HW218951   0.774   2.446   3.147 -0.0411 -0.4961 -1.1811
 2439SOL     OW18952   2.393   2.314  15.844 -0.1874  0.0508 -0.6888
 2439SOL    HW118953   2.429   2.226  15.857  1.1935  0.5584 -1.0287
 2439SOL    HW218954   2.300   2.303  15.862  0.3588  1.1321  2.7584
 2440SOL     OW18955   4.214   0.055  10.215  0.0640 -0.2187 -0.0360
 2440SOL    HW118956   4.174   0.040  10.300  1.2038  0.8419  0.7006
 2440SOL    HW218957   4.238   4.707  10.185 -1.3935 -0.0882 -1.5446
 2441SOL     OW18958   0.352   4.427   6.073 -0.1732 -0.0969  0.6412
 2441SOL    HW118959   0.308   4.346   6.045 -0.6945 -1.0305  4.1426
 2441SOL    HW218960   0.414   4.441   6.002  0.7659  0.9169  1.6727
 2442SOL     OW18961   3.019   2.470  16.590  0.0352  0.0516  0.5774
 2442SOL    HW118962   3.029   2.482  16.496  0.5714  0.6751  0.7129
 2442SOL    HW218963   2.938   2.419  16.595 -0.1300  0.1072 -1.6344
 2443SOL     OW18964   3.641   1.626   9.784 -0.0655 -0.1283 -0.2448
 2443SOL    HW118965   3.733   1.651   9.797 -0.6030  1.6504  0.0418
 2443SOL    HW218966   3.620   1.670   9.702 -2.5773  2.4990  1.8284
 2444SOL     OW18967   3.313   1.885   6.365 -0.0494 -0.1600 -0.0340
 2444SOL    HW118968   3.258   1.827   6.312  0.0441  1.5743 -1.9974
 2444SOL    HW218969   3.404   1.863   6.345 -0.1955 -1.2126  0.4263
 2445SOL     OW18970   4.699   0.153   1.092  0.0155 -0.3570  0.1068
 2445SOL    HW118971   4.628   0.180   1.149  0.0804 -0.9258  0.4603
 2445SOL    HW218972   0.015   0.231   1.092 -0.6778  0.1342 -3.9627
 2446SOL     OW18973   1.067   3.620   3.074  0.3097 -0.5946 -0.5936
 2446SOL    HW118974   0.981   3.609   3.033 -0.2701  1.7657 -0.0239
 2446SOL    HW218975   1.081   3.536   3.118 -0.0111 -0.5065 -0.3266
 2447SOL     OW18976   4.119   2.671   4.731  0.0792 -0.1305 -0.1126
 2447SOL    HW118977   4.109   2.592   4.677 -0.2922  0.2779 -0.6470
 2447SOL    HW218978   4.210   2.683   4.704  0.5283 -1.0337  0.9884
 2448SOL     OW18979   0.434   2.332   5.400 -0.6763 -0.6059  0.4784
 2448SOL    HW118980   0.353   2.382   5.393 -0.3811  0.1311  2.4711
 2448SOL    HW218981   0.479   2.369   5.476 -0.9642  0.2613  0.2273
 2449SOL     OW18982   3.843   0.352   4.982  0.1890  0.2847  0.1047
 2449SOL    HW118983   3.868   0.423   5.041 -1.7282  0.5683  0.5824
 2449SOL    HW218984   3.859   0.278   5.041 -1.5150  0.5122  0.8512
 2450SOL     OW18985   0.994   0.162   9.214  0.3983  0.9722 -0.4757
 2450SOL    HW118986   0.940   0.237   9.240  0.3738  0.6983  0.2572
 2450SOL    HW218987   0.938   0.084   9.211  1.7416  0.0456 -1.8517
 2451SOL     OW18988   1.831   4.576   1.477  0.4040 -0.2856 -0.1127
 2451SOL    HW118989   1.817   4.671   1.479  1.0352 -0.1991  0.3981
 2451SOL    HW218990   1.918   4.581   1.436 -0.0109  0.3281 -0.9080
 2452SOL     OW18991   4.672   1.620   9.738 -0.0570 -0.0390  0.4151
 2452SOL    HW118992   4.652   1.538   9.693  0.0089  1.1828 -1.8340
 2452SOL    HW218993   4.581   1.651   9.741 -0.0710  0.0368 -0.7415
 2453SOL     OW18994   2.901   3.911   0.536 -0.3397 -0.3585 -0.5745
 2453SOL    HW118995   2.930   3.987   0.486  2.8774 -0.9788  0.3565
 2453SOL    HW218996   2.842   3.859   0.481 -0.0093  1.7354 -2.8813
 2454SOL     OW18997   3.929   2.309   1.801  0.2538  0.0329 -0.0225
 2454SOL    HW118998   4.015   2.349   1.790  0.2809 -0.1602 -0.5217
 2454SOL    HW218999   3.947   2.279   1.890 -1.3825 -1.1488 -0.0893
 2455SOL     OW19000   4.125   3.876   2.239 -0.2971 -0.1203 -0.1200
 2455SOL    HW119001   4.105   3.955   2.288 -0.1022 -0.4003  0.4126
 2455SOL    HW219002   4.043   3.854   2.196  0.7112  0.8084 -2.5022
 2456SOL     OW19003   1.372   3.533   3.807 -0.1056 -0.2450  0.4091
 2456SOL    HW119004   1.357   3.610   3.861 -0.1542 -0.0071  0.0540
 2456SOL    HW219005   1.338   3.556   3.721  2.3677  0.7891 -0.2940
 2457SOL     OW19006   0.684   3.309  13.159 -0.0893 -0.6372  0.1705
 2457SOL    HW119007   0.618   3.334  13.224 -1.0057 -1.4572 -0.4386
 2457SOL    HW219008   0.661   3.224  13.121  2.5988  0.1617 -3.1607
 2458SOL     OW19009   1.704   1.348   7.445  0.7264  0.6952 -0.4316
 2458SOL    HW119010   1.618   1.369   7.407 -0.0334 -1.8080 -0.1277
 2458SOL    HW219011   1.701   1.417   7.511 -0.7801 -0.1692  0.3990
 2459SOL     OW19012   2.921   0.164  11.688 -0.4833  0.5227  0.3128
 2459SOL    HW119013   2.992   0.116  11.644 -0.1725 -1.4041  2.9214
 2459SOL    HW219014   2.867   0.168  11.609 -0.0101  2.5669  0.0851
 2460SOL     OW19015   4.730   4.424  11.944  0.2465 -0.3109 -0.9191
 2460SOL    HW119016   4.649   4.417  11.995 -0.5957  1.6872 -1.9498
 2460SOL    HW219017   0.037   4.345  11.970 -0.2780 -0.1496  0.4828
 2461SOL     OW19018   3.082   3.239   3.039  0.2753 -0.6054 -0.0264
 2461SOL    HW119019   3.097   3.163   3.095 -0.1019 -0.6241  0.0549
 2461SOL    HW219020   3.169   3.278   3.035  0.6949 -1.4807  0.4881
 2462SOL     OW19021   2.555   3.767   6.349  0.4097 -0.5095  0.2000
 2462SOL    HW119022   2.528   3.832   6.284 -0.2398 -0.7288  0.2452
 2462SOL    HW219023   2.507   3.800   6.425  0.2247  0.6440 -0.4165
 2463SOL     OW19024   2.733   3.697   2.326  0.0652  0.4821 -0.7693
 2463SOL    HW119025   2.728   3.763   2.395 -1.3244 -0.2236 -0.2113
 2463SOL    HW219026   2.655   3.644   2.340 -0.6229  1.7786  0.3252
 2464SOL     OW19027   2.597   2.937   7.823  0.4930 -0.6524 -0.1741
 2464SOL    HW119028   2.557   2.871   7.765 -1.2430  2.4931 -2.5332
 2464SOL    HW219029   2.543   2.915   7.899  0.8665  1.9901  0.8514
 2465SOL     OW19030   3.055   0.520   6.048 -0.3691 -0.0608  0.2387
 2465SOL    HW119031   2.974   0.570   6.050 -0.9562 -0.9531 -1.4598
 2465SOL    HW219032   3.104   0.578   5.988  2.3601 -0.8367  1.7159
 2466SOL     OW19033   4.380   1.058   7.129 -0.2055 -0.0575 -0.0543
 2466SOL    HW119034   4.413   1.147   7.118  1.7418 -0.4656  2.4901
 2466SOL    HW219035   4.375   1.053   7.224  2.2733 -3.0458 -0.0858
 2467SOL     OW19036   3.337   1.136   8.513 -0.0540  0.0536 -0.1977
 2467SOL    HW119037   3.254   1.090   8.499 -1.4157  2.6695 -0.6413
 2467SOL    HW219038   3.357   1.109   8.603 -2.4873 -1.7272 -0.1836
 2468SOL     OW19039   4.534   3.533   3.514  0.5072  0.1830  0.1908
 2468SOL    HW119040   4.619   3.492   3.497  0.1238  0.2304 -1.8288
 2468SOL    HW219041   4.532   3.547   3.608  1.1165 -1.4745  0.4493
 2469SOL     OW19042   0.554   2.360   2.549  0.3073 -0.0284  0.2101
 2469SOL    HW119043   0.629   2.394   2.597  0.6659 -2.1156  1.1648
 2469SOL    HW219044   0.486   2.376   2.614 -0.4057 -0.1479 -0.5069
 2470SOL     OW19045   4.008   1.397   4.015 -0.5616 -0.0724 -0.3589
 2470SOL    HW119046   3.951   1.334   4.059 -1.7208  0.8390 -0.5639
 2470SOL    HW219047   4.084   1.408   4.072 -0.6071 -1.8036  0.0362
 2471SOL     OW19048   4.688   0.999  17.410  0.8955  0.4947 -0.2205
 2471SOL    HW119049   4.695   1.055  17.487  1.2897 -0.3532  0.3661
 2471SOL    HW219050   0.004   1.041  17.344  0.4798  1.0330 -0.2190
 2472SOL     OW19051   1.813   0.820   6.643  0.2919 -0.0804  0.2385
 2472SOL    HW119052   1.780   0.774   6.720 -0.1932  0.1470  0.1660
 2472SOL    HW219053   1.738   0.805   6.585  0.2741 -0.6150  0.3961
 2473SOL     OW19054   2.573   0.994  15.609 -0.0477 -0.0487 -0.2842
 2473SOL    HW119055   2.515   1.063  15.578 -0.2881  0.3378  1.0170
 2473SOL    HW219056   2.626   0.976  15.531  2.1903  2.2552  0.6876
 2474SOL     OW19057   3.534   1.262   8.886  0.0721  0.4986 -0.1798
 2474SOL    HW119058   3.512   1.249   8.978  1.8315 -0.3665  0.1008
 2474SOL    HW219059   3.506   1.353   8.894  2.0058  1.1403 -0.8106
 2475SOL     OW19060   4.207   0.258   9.295  0.5854 -0.6704 -0.6013
 2475SOL    HW119061   4.258   0.333   9.324 -1.4018  1.0236 -1.4791
 2475SOL    HW219062   4.176   0.220   9.377 -1.3515  1.0489 -0.5174
 2476SOL     OW19063   0.211   3.571   5.955 -0.1114  0.4769 -0.2070
 2476SOL    HW119064   0.300   3.585   5.922 -0.0516  0.4405 -0.0633
 2476SOL    HW219065   0.164   3.599   5.877 -0.9756 -0.9983 -0.2209
 2477SOL     OW19066   0.023   0.356   3.953 -0.3280  0.0873  0.2130
 2477SOL    HW119067   0.046   0.334   3.862  2.5235 -0.1575  0.9867
 2477SOL    HW219068   0.022   0.451   3.943 -0.1784  0.2202  1.5237
 2478SOL     OW19069   4.099   2.455   7.008  0.5349  0.3230  0.0828
 2478SOL    HW119070   4.074   2.466   7.099  2.6267  1.3302  0.5534
 2478SOL    HW219071   4.027   2.395   6.989 -0.6216  2.1734 -1.3951
 2479SOL     OW19072   1.212   3.995   7.361  0.4483  0.3224 -0.5144
 2479SOL    HW119073   1.150   4.043   7.416  1.1687 -0.0640  0.6353
 2479SOL    HW219074   1.156   3.953   7.295  0.5220  0.2438 -0.5276
 2480SOL     OW19075   1.069   3.148   5.521  0.1011  0.1763  0.9410
 2480SOL    HW119076   1.078   3.187   5.434  0.9689 -2.5082 -0.1874
 2480SOL    HW219077   0.979   3.160   5.551 -0.3305  0.4754 -0.4588
 2481SOL     OW19078   1.382   4.478   5.783  0.2859 -0.1338 -0.1770
 2481SOL    HW119079   1.417   4.567   5.792  2.6829 -0.9806 -1.0824
 2481SOL    HW219080   1.337   4.464   5.866 -0.5045  2.3770 -0.1721
 2482SOL     OW19081   2.550   0.372   6.350 -0.2955 -0.2277 -0.3410
 2482SOL    HW119082   2.486   0.444   6.344  0.6537  0.3797 -3.0250
 2482SOL    HW219083   2.617   0.397   6.286  0.9920 -2.3902  0.1876
 2483SOL     OW19084   3.423   4.527  10.029  0.4605  0.2321  0.8102
 2483SOL    HW119085   3.398   4.589   9.961 -0.4535 -2.0449 -0.9370
 2483SOL    HW219086   3.429   4.445   9.980  3.3201  0.5736  0.5755
 2484SOL     OW19087   4.372   2.845   8.909 -0.1613 -0.3998  0.3110
 2484SOL    HW119088   4.284   2.811   8.892  0.4128 -0.1172 -3.2488
 2484SOL    HW219089   4.411   2.820   8.826 -0.4571 -0.7491  0.2771
 2485SOL     OW19090   2.843   2.101  13.464 -0.2886 -0.5192 -0.3700
 2485SOL    HW119091   2.857   2.163  13.536  0.4803 -0.8860 -0.2061
 2485SOL    HW219092   2.921   2.046  13.465 -0.0201 -0.1368 -0.1577
 2486SOL     OW19093   1.561   4.456   9.465  0.1199  0.4570  0.3006
 2486SOL    HW119094   1.612   4.390   9.419 -0.2971  0.1406  0.2902
 2486SOL    HW219095   1.476   4.412   9.462  0.0250  0.6744 -0.2327
 2487SOL     OW19096   3.196   3.188   8.053  0.0376 -0.3424 -0.2349
 2487SOL    HW119097   3.113   3.234   8.039 -0.6205 -1.7535 -0.9771
 2487SOL    HW219098   3.250   3.235   7.989  2.3614  0.2161  2.1724
 2488SOL     OW19099   2.370   2.781   3.041  0.2249  0.2494 -0.7934
 2488SOL    HW119100   2.305   2.745   2.981  0.4926  0.3619 -1.1562
 2488SOL    HW219101   2.448   2.731   3.015  0.6570  0.7301 -0.4484
 2489SOL     OW19102   3.947   0.835   7.403  0.0111  0.2531  0.4742
 2489SOL    HW119103   3.920   0.918   7.363 -0.4989 -0.3013 -0.3303
 2489SOL    HW219104   3.918   0.785   7.326 -0.3240  0.3414  0.5426
 2490SOL     OW19105   0.768   4.140   6.913  0.2556  0.1068  0.2675
 2490SOL    HW119106   0.747   4.097   6.996  0.2794 -0.7254 -0.1578
 2490SOL    HW219107   0.864   4.138   6.921  0.2603 -1.4209 -0.2558
 2491SOL     OW19108   3.765   3.762   0.578  0.1981 -0.3253 -0.5125
 2491SOL    HW119109   3.750   3.698   0.509 -1.2016  0.1230 -0.6217
 2491SOL    HW219110   3.679   3.803   0.582  1.6955  2.8504 -0.4330
 2492SOL     OW19111   3.550   2.829   6.127  0.3967 -0.0598  0.2669
 2492SOL    HW119112   3.616   2.819   6.195  2.5810 -0.9288 -2.0106
 2492SOL    HW219113   3.578   2.912   6.089 -0.2109 -0.0961 -0.2774
 2493SOL     OW19114   1.844   0.609   7.479  0.0294 -0.5653 -0.2101
 2493SOL    HW119115   1.938   0.593   7.488 -0.3594 -1.9588  1.4008
 2493SOL    HW219116   1.818   0.665   7.552 -1.7227 -0.6017 -0.8037
 2494SOL     OW19117   2.726   4.461   5.057 -0.4565 -1.0680  0.7633
 2494SOL    HW119118   2.797   4.424   5.109 -0.1774 -2.9135 -0.9239
 2494SOL    HW219119   2.652   4.439   5.113 -0.6247  0.9142  1.3205
 2495SOL     OW19120   0.543   3.447   6.571  0.2998 -0.0530  0.0721
 2495SOL    HW119121   0.471   3.507   6.554  1.4734  1.2425 -0.3937
 2495SOL    HW219122   0.578   3.447   6.482 -2.3793  0.5871 -0.9822
 2496SOL     OW19123   0.096   1.405  16.697  0.2689 -0.2377 -0.0915
 2496SOL    HW119124   0.035   1.467  16.737 -2.1799 -1.9431 -1.2495
 2496SOL    HW219125   0.167   1.464  16.671  0.9659 -1.2910 -0.5644
 2497SOL     OW19126   3.414   0.025   6.125 -0.4692 -0.0878 -0.4487
 2497SOL    HW119127   3.395   4.670   6.118 -0.1430 -0.1796 -0.0569
 2497SOL    HW219128   3.328   0.046   6.161 -0.3130 -1.1042  0.5313
 2498SOL     OW19129   0.998   0.396   2.458  0.0289  0.0405 -0.4125
 2498SOL    HW119130   1.055   0.472   2.443  1.7055 -0.8993  1.1698
 2498SOL    HW219131   1.001   0.359   2.370  2.2768  0.6807 -0.6257
 2499SOL     OW19132   2.513   0.418  13.606 -0.3840  0.2267  0.4897
 2499SOL    HW119133   2.584   0.397  13.545 -2.3115  0.0963 -1.7293
 2499SOL    HW219134   2.446   0.404  13.540 -0.2619 -1.5553  0.7251
 2500SOL     OW19135   4.232   4.702   2.939 -0.2837 -0.1265  0.2529
 2500SOL    HW119136   4.162   0.016   2.977 -0.7684  0.5892 -1.6358
 2500SOL    HW219137   4.221   4.623   2.992 -0.4488 -0.9420 -0.9870
 2501SOL     OW19138   0.454   4.733   7.038 -0.2419  0.7741 -0.1838
 2501SOL    HW119139   0.498   0.041   7.108  0.3706 -0.3041  0.1621
 2501SOL    HW219140   0.520   4.734   6.969 -2.0508 -0.1215 -1.9157
 2502SOL     OW19141   4.475   0.507   8.633 -0.3607  0.0586  1.1340
 2502SOL    HW119142   4.487   0.424   8.587  0.0733  0.8079 -0.1316
 2502SOL    HW219143   4.400   0.490   8.690 -0.6911 -1.8525  0.1371
 2503SOL     OW19144   2.010   4.561   9.088 -0.9556 -0.2442  0.5954
 2503SOL    HW119145   1.957   4.629   9.046 -1.6896 -1.5551 -0.5799
 2503SOL    HW219146   2.056   4.516   9.017 -1.0194 -0.2930  0.5852
 2504SOL     OW19147   2.292   2.311   7.831  0.1643  0.0092  0.3425
 2504SOL    HW119148   2.225   2.352   7.776  1.0118  2.1931  0.9042
 2504SOL    HW219149   2.278   2.221   7.802 -0.3619 -0.0898  0.9136
 2505SOL     OW19150   0.110   1.466  16.327 -0.4836  0.3778  0.2119
 2505SOL    HW119151   0.030   1.501  16.288 -1.0680  0.4028  1.4127
 2505SOL    HW219152   0.076   1.377  16.330 -0.5194  0.4041  0.5890
 2506SOL     OW19153   4.588   4.118   8.635  0.4043  0.5093 -0.3880
 2506SOL    HW119154   4.655   4.059   8.670 -0.1562  0.4703  0.6226
 2506SOL    HW219155   4.647   4.193   8.627  0.7782  0.5444  2.9546
 2507SOL     OW19156   3.167   1.451   6.178 -0.0292  0.3367  0.2418
 2507SOL    HW119157   3.244   1.395   6.185  0.7323  1.3471 -0.1697
 2507SOL    HW219158   3.096   1.387   6.178  0.0309  0.2669 -0.2214
 2508SOL     OW19159   1.588   1.787   3.258 -0.6764  0.1475  0.2776
 2508SOL    HW119160   1.558   1.733   3.185  0.1175 -0.4558  0.3985
 2508SOL    HW219161   1.662   1.824   3.209 -0.6588 -0.9839 -0.5498
 2509SOL     OW19162   0.154   1.040  12.625 -0.1686 -0.1454 -1.0053
 2509SOL    HW119163   0.080   0.987  12.653  2.1099 -2.3474  0.8887
 2509SOL    HW219164   0.114   1.071  12.544 -0.8196  1.9116  0.1098
 2510SOL     OW19165   0.219   3.576  13.932  0.0745 -0.7423 -0.1386
 2510SOL    HW119166   0.201   3.615  13.846 -0.4072  1.1476  0.8136
 2510SOL    HW219167   0.203   3.647  13.995  0.7051 -0.1478 -0.6567
 2511SOL     OW19168   0.874   3.572   3.755  0.5968 -0.7668 -0.3161
 2511SOL    HW119169   0.785   3.599   3.778  0.5667 -2.3461  1.4733
 2511SOL    HW219170   0.870   3.519   3.676  2.9834 -0.8955 -0.3572
 2512SOL     OW19171   0.398   2.637   7.843  0.0779 -0.0442 -0.5429
 2512SOL    HW119172   0.387   2.693   7.766 -2.3812  1.4131  0.8673
 2512SOL    HW219173   0.474   2.668   7.892  0.8138 -3.7053  0.6687
 2513SOL     OW19174   0.555   2.808   7.026 -0.1972 -0.0612 -0.4047
 2513SOL    HW119175   0.561   2.719   7.058  1.5749  0.1533 -0.1559
 2513SOL    HW219176   0.492   2.792   6.955 -1.6074  1.8675  0.4191
 2514SOL     OW19177   3.097   2.006  14.206  0.4699  0.0644  0.3512
 2514SOL    HW119178   3.024   2.019  14.146  1.6470  0.0612 -1.0878
 2514SOL    HW219179   3.171   2.011  14.145  1.7616 -0.8965  1.8449
 2515SOL     OW19180   1.038   3.462   0.556 -0.3379 -0.1826 -0.1773
 2515SOL    HW119181   1.061   3.428   0.642 -1.2080 -0.2173  0.0431
 2515SOL    HW219182   1.073   3.551   0.563  0.7093 -0.6778  0.9821
 2516SOL     OW19183   0.120   0.654   7.409  0.0796 -0.5392 -0.2460
 2516SOL    HW119184   0.090   0.743   7.426  0.8779 -0.3157 -0.0326
 2516SOL    HW219185   0.034   0.611   7.415  0.4029 -0.7949  2.6895
 2517SOL     OW19186   0.364   1.496  11.788 -0.7506 -0.4607  0.1501
 2517SOL    HW119187   0.277   1.462  11.811 -1.2734 -0.3145 -1.6437
 2517SOL    HW219188   0.388   1.537  11.871  0.8932 -1.7793  0.3394
 2518SOL     OW19189   3.766   4.414   4.838  0.6219 -0.0418  0.4368
 2518SOL    HW119190   3.859   4.436   4.826  1.1895 -2.5788  0.2937
 2518SOL    HW219191   3.740   4.445   4.751 -1.0836 -1.0985  0.5811
 2519SOL     OW19192   2.857   0.998   4.958  0.5877 -0.6037  0.0130
 2519SOL    HW119193   2.811   1.038   5.032  0.6538 -0.5100  0.0030
 2519SOL    HW219194   2.911   0.935   5.007  1.1089 -0.4808 -0.4025
 2520SOL     OW19195   0.009   4.270  16.964 -0.1173 -0.3213 -0.3466
 2520SOL    HW119196   0.066   4.304  17.033  0.5811 -0.4133 -0.8674
 2520SOL    HW219197   4.662   4.284  17.002 -0.4739  1.7422 -1.9420
 2521SOL     OW19198   0.069   3.144   2.828 -0.3861 -0.2760  0.4429
 2521SOL    HW119199   0.026   3.063   2.800 -1.9995  1.0908 -1.0543
 2521SOL    HW219200   4.732   3.198   2.850 -0.8814 -0.2810 -1.2554
 2522SOL     OW19201   2.806   0.491   9.178 -0.3832 -0.2637 -0.4339
 2522SOL    HW119202   2.710   0.485   9.176 -0.3386 -1.4202  1.0701
 2522SOL    HW219203   2.837   0.470   9.089 -0.8842  0.1758 -0.7135
 2523SOL     OW19204   2.851   4.163  14.325  0.0188 -0.3065  0.0234
 2523SOL    HW119205   2.840   4.070  14.302  2.6507 -0.5478 -0.3311
 2523SOL    HW219206   2.880   4.147  14.415 -0.5622 -0.6993  0.1378
 2524SOL     OW19207   2.520   2.304   1.512 -0.4180  0.3803 -0.2954
 2524SOL    HW119208   2.477   2.220   1.529 -2.8746  1.5401 -0.8530
 2524SOL    HW219209   2.443   2.360   1.511 -0.4495  0.3484  0.5295
 2525SOL     OW19210   0.890   4.623   3.663  0.5359  0.0347 -0.1665
 2525SOL    HW119211   0.852   4.638   3.577  1.1584 -3.6170 -1.0719
 2525SOL    HW219212   0.981   4.606   3.638  0.1020  0.0197 -1.7098
 2526SOL     OW19213   0.313   1.578  16.666  0.1159  0.6496  0.4214
 2526SOL    HW119214   0.355   1.558  16.583 -2.3081  0.4879 -0.7699
 2526SOL    HW219215   0.260   1.654  16.640  1.6696  1.5131 -0.2031
 2527SOL     OW19216   1.063   4.399  12.139 -0.5386 -0.1571  0.4032
 2527SOL    HW119217   1.038   4.310  12.163  1.2689 -0.6482  0.5017
 2527SOL    HW219218   1.008   4.415  12.062  2.2548 -0.6154 -1.6874
 2528SOL     OW19219   0.952   3.139   4.109  0.2666 -0.3615  0.5161
 2528SOL    HW119220   0.858   3.143   4.127  0.2198 -0.6120  0.3342
 2528SOL    HW219221   0.962   3.221   4.060  0.2191  0.0655  1.2197
 2529SOL     OW19222   4.100   1.077  15.894  0.7623 -0.3649 -0.5599
 2529SOL    HW119223   4.162   1.137  15.935 -1.4279  1.7016 -0.2422
 2529SOL    HW219224   4.153   1.054  15.818 -0.5249 -0.3585 -1.4702
 2530SOL     OW19225   2.085   4.051   3.493  0.3913 -0.1041  0.0775
 2530SOL    HW119226   2.142   3.978   3.471 -0.0795 -0.9689  1.7282
 2530SOL    HW219227   2.033   3.996   3.551 -1.7907 -0.0991 -1.8550
 2531SOL     OW19228   3.521   0.494   0.867  0.2640  0.0981 -0.1040
 2531SOL    HW119229   3.451   0.490   0.801  0.7005  0.6952 -0.6065
 2531SOL    HW219230   3.501   0.419   0.923  0.0029  1.0303  1.0474
 2532SOL     OW19231   0.903   2.957   2.392  0.2631  0.0295  0.5761
 2532SOL    HW119232   0.914   2.913   2.476  1.2737  0.4230  0.6513
 2532SOL    HW219233   0.973   3.022   2.400  0.2520  0.0835  0.2426
 2533SOL     OW19234   0.576   4.674   9.037 -0.3417  0.1031 -0.3714
 2533SOL    HW119235   0.622   0.005   8.992 -0.1345  0.3060  0.1596
 2533SOL    HW219236   0.641   4.640   9.099 -0.2294  1.9858  0.5257
 2534SOL     OW19237   1.802   1.697   4.706 -0.1202  0.2205 -0.4122
 2534SOL    HW119238   1.869   1.654   4.758 -1.7790 -2.3475 -0.4022
 2534SOL    HW219239   1.743   1.707   4.780 -0.3533  1.0262 -0.7040
 2535SOL     OW19240   3.856   3.061   7.732  0.3198  0.2621  0.5789
 2535SOL    HW119241   3.796   3.083   7.661  1.7082  0.8594 -0.4222
 2535SOL    HW219242   3.921   3.003   7.691 -1.4275  1.2302 -3.5775
 2536SOL     OW19243   0.226   0.330  13.130  0.1924 -0.0598 -0.4367
 2536SOL    HW119244   0.175   0.248  13.135 -0.9291  0.7376  1.0299
 2536SOL    HW219245   0.187   0.356  13.213 -2.3959 -1.1590 -1.2936
 2537SOL     OW19246   0.255   1.801   9.306  0.5310  0.4648  0.0304
 2537SOL    HW119247   0.205   1.762   9.378 -0.0908 -0.1220 -0.7108
 2537SOL    HW219248   0.341   1.805   9.349 -0.5291 -0.7940  2.2508
 2538SOL     OW19249   4.364   3.112   4.215  0.6000 -0.1621  0.1359
 2538SOL    HW119250   4.454   3.115   4.181  0.5253  1.2299  0.0854
 2538SOL    HW219251   4.362   3.139   4.307  0.3310  0.6316 -0.1117
 2539SOL     OW19252   0.473   0.761   5.402  0.5897 -0.2548  0.4427
 2539SOL    HW119253   0.558   0.781   5.361  1.5837 -0.4797  2.3587
 2539SOL    HW219254   0.495   0.678   5.444  2.0467 -2.1005 -3.9984
 2540SOL     OW19255   0.090   3.320   8.041 -0.3762 -0.7825  0.1401
 2540SOL    HW119256   0.020   3.257   8.027 -1.1974  0.7428 -2.7182
 2540SOL    HW219257   0.069   3.381   7.970  1.1073  1.5657  1.7101
 2541SOL     OW19258   3.365   0.967   7.690 -0.3173 -0.0423  0.1915
 2541SOL    HW119259   3.314   0.919   7.755 -1.7781 -0.5767 -1.3569
 2541SOL    HW219260   3.381   0.891   7.634  0.3577 -1.3086  2.0867
 2542SOL     OW19261   3.168   0.653   6.438 -0.5240 -0.0952  0.3120
 2542SOL    HW119262   3.223   0.637   6.515 -0.0433  2.3551  0.4769
 2542SOL    HW219263   3.140   0.742   6.458  0.4207 -0.0141  1.2737
 2543SOL     OW19264   1.817   3.118   8.782 -0.3060  0.2276 -0.8141
 2543SOL    HW119265   1.723   3.117   8.801 -0.0414  0.3728  0.5196
 2543SOL    HW219266   1.810   3.078   8.696 -2.5526 -1.4280  0.1327
 2544SOL     OW19267   1.553   3.291  15.042  0.5560 -0.5099 -0.2302
 2544SOL    HW119268   1.593   3.320  14.960  2.5518 -0.1282  0.9079
 2544SOL    HW219269   1.462   3.322  15.043  0.9908  0.7170  0.1685
 2545SOL     OW19270   2.761   0.321   0.946  0.6050  0.3881 -0.4093
 2545SOL    HW119271   2.714   0.244   0.978 -1.1072  1.6987  0.2661
 2545SOL    HW219272   2.710   0.389   0.991  1.1652  1.3757 -1.2411
 2546SOL     OW19273   1.835   3.654  10.994  0.2991 -0.5011  0.4018
 2546SOL    HW119274   1.832   3.747  11.019 -0.0141 -0.3596 -0.1681
 2546SOL    HW219275   1.792   3.624  11.075 -1.7767  2.2265  0.3323
 2547SOL     OW19276   1.791   2.613   7.706 -0.0398 -0.6989 -0.5294
 2547SOL    HW119277   1.835   2.595   7.623 -0.5471  3.9250 -1.8311
 2547SOL    HW219278   1.850   2.580   7.775  0.8003  0.6335 -0.6118
 2548SOL     OW19279   2.151   3.524   8.309  0.1201 -0.3102  0.5675
 2548SOL    HW119280   2.127   3.603   8.357 -2.0793 -0.1366 -0.8364
 2548SOL    HW219281   2.209   3.488   8.376  1.7672  1.5536  0.1247
 2549SOL     OW19282   2.464   1.245  10.551 -0.1329 -0.0493 -0.1599
 2549SOL    HW119283   2.422   1.205  10.475 -1.9071  1.5910 -0.0350
 2549SOL    HW219284   2.404   1.320  10.558 -0.3412 -0.2727  0.5180
 2550SOL     OW19285   3.797   0.001   3.440 -0.7889 -0.1054 -0.1874
 2550SOL    HW119286   3.845   4.732   3.357  1.9118  2.4982  1.1082
 2550SOL    HW219287   3.859   4.705   3.504  1.3287  2.1657 -0.9757
 2551SOL     OW19288   0.487   4.414   3.168  0.2767  0.2073  0.4263
 2551SOL    HW119289   0.534   4.331   3.169  0.3286  0.2060 -1.4585
 2551SOL    HW219290   0.559   4.478   3.165  0.6389 -0.2673 -1.0916
 2552SOL     OW19291   1.499   2.082   2.648  0.1222 -0.2025 -0.2560
 2552SOL    HW119292   1.404   2.080   2.636 -0.0654 -1.8909  1.5003
 2552SOL    HW219293   1.505   2.019   2.719 -0.7382 -0.0292 -0.0314
 2553SOL     OW19294   4.165   0.755   6.476 -0.1812  0.2156  0.0541
 2553SOL    HW119295   4.212   0.728   6.555  0.8038  1.3672 -0.1202
 2553SOL    HW219296   4.158   0.850   6.485 -1.0991  0.3664 -2.1939
 2554SOL     OW19297   3.882   0.402  13.045  0.0211 -0.1287 -0.1194
 2554SOL    HW119298   3.865   0.481  12.993 -0.2839  1.0328  1.7426
 2554SOL    HW219299   3.827   0.416  13.122 -0.2162  0.4511 -0.3905
 2555SOL     OW19300   0.371   3.279   0.274 -0.6431  0.8258  0.7251
 2555SOL    HW119301   0.314   3.324   0.212 -2.5408 -2.3990  0.1152
 2555SOL    HW219302   0.301   3.265   0.338  0.3583 -0.0547  1.6026
 2556SOL     OW19303   1.908   4.676   7.590 -0.1419  0.0760 -0.7008
 2556SOL    HW119304   1.987   4.644   7.635 -0.1429 -2.3325 -2.4253
 2556SOL    HW219305   1.914   0.032   7.599  0.3920 -0.0045 -0.1306
 2557SOL     OW19306   1.749   0.968   3.978 -0.1400  0.0582  0.4705
 2557SOL    HW119307   1.825   0.953   3.922 -0.8398  1.7379 -0.9492
 2557SOL    HW219308   1.788   0.990   4.062  0.1579  1.7840 -0.1176
 2558SOL     OW19309   1.084   2.464   1.869 -0.4409 -0.6262 -0.4523
 2558SOL    HW119310   1.017   2.443   1.934 -0.9339  2.0942 -0.0973
 2558SOL    HW219311   1.024   2.455   1.795 -1.7175  1.6217  0.3196
 2559SOL     OW19312   0.881   2.714   0.267 -0.5279  0.1298 -0.2355
 2559SOL    HW119313   0.949   2.666   0.220 -0.0750  1.2811 -0.7544
 2559SOL    HW219314   0.887   2.797   0.219  0.7210 -1.0860 -2.2005
 2560SOL     OW19315   4.341   0.646  14.141  0.9716 -0.5658  0.2757
 2560SOL    HW119316   4.380   0.638  14.228  1.7905 -0.9693 -0.1247
 2560SOL    HW219317   4.286   0.724  14.147 -2.1192 -2.6580 -0.9303
 2561SOL     OW19318   1.463   1.548   4.100 -0.5950  0.1463  0.4550
 2561SOL    HW119319   1.474   1.556   4.195  0.3768 -4.3445  0.6915
 2561SOL    HW219320   1.395   1.482   4.085  0.0496 -0.3842 -0.1333
 2562SOL     OW19321   3.929   1.057  10.523  0.0508  0.5176 -0.1392
 2562SOL    HW119322   3.943   1.039  10.616  0.6148  2.4907  0.1574
 2562SOL    HW219323   3.882   1.139  10.539 -0.0419  0.1195  1.5993
 2563SOL     OW19324   3.454   0.969   9.296  0.6174  0.4319  0.6724
 2563SOL    HW119325   3.527   0.913   9.269 -2.7494 -2.7579 -1.8396
 2563SOL    HW219326   3.470   0.976   9.390  0.2885  3.0095  0.5400
 2564SOL     OW19327   1.927   0.944   6.341  0.4923  0.0767  0.0081
 2564SOL    HW119328   1.964   0.944   6.429  1.7116  0.0517 -0.5051
 2564SOL    HW219329   1.862   1.012   6.354 -0.9155 -1.7577  2.5992
 2565SOL     OW19330   1.268   0.876   5.501 -0.8886  0.2579 -0.4195
 2565SOL    HW119331   1.267   0.972   5.498 -2.0021  0.2499 -0.1367
 2565SOL    HW219332   1.359   0.848   5.497 -0.0436  2.7749  1.1030
 2566SOL     OW19333   4.164   1.983  15.032 -0.2246 -0.3838  0.2969
 2566SOL    HW119334   4.080   2.010  15.069 -0.1054  2.4020 -1.5227
 2566SOL    HW219335   4.184   1.906  15.086  0.7075 -2.1273 -2.5638
 2567SOL     OW19336   0.876   1.708   2.327  0.1375  0.2351  0.2933
 2567SOL    HW119337   0.839   1.641   2.269  0.3185  0.6389 -0.2908
 2567SOL    HW219338   0.796   1.758   2.344  0.6575  0.9200  0.7348
 2568SOL     OW19339   3.130   1.267   6.819  0.5213  0.0712  0.3482
 2568SOL    HW119340   3.067   1.270   6.891  0.5650  0.6468  0.3605
 2568SOL    HW219341   3.104   1.340   6.764 -1.9851 -0.5477  0.6733
 2569SOL     OW19342   2.232   2.488   6.339  0.4991  0.3002  0.1193
 2569SOL    HW119343   2.239   2.467   6.246  2.8332 -2.2353  0.8813
 2569SOL    HW219344   2.186   2.407   6.362  3.1034 -1.0211  0.5599
 2570SOL     OW19345   2.360   3.581   1.610 -0.1708 -0.6715  0.9135
 2570SOL    HW119346   2.384   3.557   1.520 -1.3407  0.2768  0.3346
 2570SOL    HW219347   2.268   3.599   1.589  0.6160  0.2865 -1.7505
 2571SOL     OW19348   2.720   0.503   6.164 -0.1362 -0.2124  0.1542
 2571SOL    HW119349   2.791   0.505   6.227 -1.2091 -0.4269  1.3834
 2571SOL    HW219350   2.754   0.564   6.098  1.1429  0.7783  1.7419
 2572SOL     OW19351   0.008   2.918   4.276 -0.0398 -0.2814 -0.6006
 2572SOL    HW119352   4.713   2.988   4.221  0.0133 -1.4304 -2.0992
 2572SOL    HW219353   4.668   2.904   4.329 -1.7354  2.2834 -2.4619
 2573SOL     OW19354   3.595   1.148   2.020 -0.2514 -0.0729  0.2903
 2573SOL    HW119355   3.637   1.072   2.061  1.2972  0.7173  0.1743
 2573SOL    HW219356   3.608   1.221   2.081  1.0049  1.5047 -1.8498
 2574SOL     OW19357   4.193   3.201   4.481  0.3177 -0.2452 -0.1422
 2574SOL    HW119358   4.287   3.192   4.466  1.3055  3.3541  3.7432
 2574SOL    HW219359   4.160   3.272   4.425  0.8112  0.6637  0.7085
 2575SOL     OW19360   1.550   4.278  14.426 -0.2453  0.2036 -0.2986
 2575SOL    HW119361   1.553   4.182  14.430  0.8763  0.2008 -1.3136
 2575SOL    HW219362   1.476   4.290  14.365  0.5081  1.2113 -1.0127
 2576SOL     OW19363   2.171   4.208   5.454  0.1741 -0.0464 -0.0423
 2576SOL    HW119364   2.157   4.292   5.410  0.2467  1.3196  2.5541
 2576SOL    HW219365   2.230   4.161   5.396 -1.1702  0.5116 -1.8820
 2577SOL     OW19366   0.424   2.384   4.256  0.5522 -0.2198  0.8282
 2577SOL    HW119367   0.356   2.349   4.198  2.5628 -1.1552 -0.9584
 2577SOL    HW219368   0.399   2.474   4.274 -0.1299 -0.5675  1.6188
 2578SOL     OW19369   4.341   0.357  14.818  0.0041  0.1055  0.0662
 2578SOL    HW119370   4.367   0.436  14.771  2.4991 -0.3533  0.6797
 2578SOL    HW219371   4.266   0.324  14.768  0.4324  0.2102 -0.6514
 2579SOL     OW19372   4.697   3.690  17.705  0.4149 -0.1270  0.1179
 2579SOL    HW119373   4.691   3.782  17.681 -0.3659 -0.0897  0.4661
 2579SOL    HW219374   4.725   3.700   0.041 -0.5657  2.4282  0.1190
 2580SOL     OW19375   3.587   2.208  17.564 -0.8009 -0.1487  0.1621
 2580SOL    HW119376   3.505   2.186  17.607 -1.2149 -0.6922 -0.8968
 2580SOL    HW219377   3.607   2.270  17.634 -1.1462  0.3840 -0.2073
 2581SOL     OW19378   1.085   3.210  15.751  0.2811  0.3576  0.3794
 2581SOL    HW119379   1.001   3.248  15.778  1.4000  0.1588  4.1410
 2581SOL    HW219380   1.061   3.119  15.731  1.0363  0.0250  0.9614
 2582SOL     OW19381   0.988   2.294  17.318  0.1836  0.2709  0.5774
 2582SOL    HW119382   1.055   2.293  17.386  0.2851  1.1509  0.4838
 2582SOL    HW219383   0.983   2.386  17.292  0.1833  0.9480  2.9828
 2583SOL     OW19384   3.744   0.802   1.401  0.1835 -0.0485 -0.4804
 2583SOL    HW119385   3.784   0.731   1.350  3.0162  0.2763  1.3070
 2583SOL    HW219386   3.667   0.813   1.344 -1.0694  1.9472  1.6074
 2584SOL     OW19387   2.872   3.116   8.420 -0.0116 -0.0747 -0.1104
 2584SOL    HW119388   2.966   3.103   8.436  0.3395  2.4320 -0.1739
 2584SOL    HW219389   2.847   3.039   8.370  0.7297  0.2382 -0.9602
 2585SOL     OW19390   0.644   1.227   0.627  0.1915  0.2620  0.3661
 2585SOL    HW119391   0.617   1.185   0.708  0.3596  0.6166  0.6039
 2585SOL    HW219392   0.728   1.186   0.605  0.8115  1.7056  0.0309
 2586SOL     OW19393   1.247   0.381   8.055 -0.1245  0.9001  0.1111
 2586SOL    HW119394   1.244   0.405   7.962 -0.7674 -0.7231 -0.2878
 2586SOL    HW219395   1.341   0.382   8.068  0.3424  0.0735 -3.0819
 2587SOL     OW19396   0.187   2.275   1.928 -0.8002 -0.2043  0.3020
 2587SOL    HW119397   0.096   2.259   1.902 -0.1838  2.4554 -3.5512
 2587SOL    HW219398   0.183   2.364   1.963 -0.9680 -0.6312  1.3716
 2588SOL     OW19399   2.407   1.685  12.126 -0.4258  0.0006  0.7824
 2588SOL    HW119400   2.500   1.664  12.112 -0.8186  0.3162 -2.4714
 2588SOL    HW219401   2.416   1.780  12.126 -1.4088  0.0984 -1.1865
 2589SOL     OW19402   0.055   2.298   7.731 -0.1338  0.1782  0.2246
 2589SOL    HW119403   4.720   2.343   7.770 -0.9968 -0.0898 -1.0944
 2589SOL    HW219404   0.030   2.205   7.731  1.1394 -0.1635  2.9035
 2590SOL     OW19405   3.215   2.376   6.176 -0.3787  0.1137  0.7949
 2590SOL    HW119406   3.191   2.310   6.111  2.1656 -0.7484  0.7350
 2590SOL    HW219407   3.165   2.448   6.137 -0.3814 -0.3770 -0.0947
 2591SOL     OW19408   4.177   2.902   7.292  0.1772 -0.4867  0.1634
 2591SOL    HW119409   4.230   2.964   7.342 -1.3009  0.3550  0.6713
 2591SOL    HW219410   4.248   2.853   7.249 -0.3595 -0.4676 -0.7263
 2592SOL     OW19411   1.705   1.039  11.329 -0.4917  0.7129  0.4110
 2592SOL    HW119412   1.732   0.968  11.388  1.2033  2.6947  2.0301
 2592SOL    HW219413   1.721   1.111  11.390  0.6753  1.7202 -1.0931
 2593SOL     OW19414   3.884   3.273   8.636  0.0231 -0.7528  0.2972
 2593SOL    HW119415   3.937   3.322   8.573  1.5959 -1.1664  1.2880
 2593SOL    HW219416   3.887   3.324   8.716 -0.5656  1.0473 -0.8369
 2594SOL     OW19417   1.957   0.007  15.909 -0.1149  0.4218 -0.3689
 2594SOL    HW119418   1.934   0.057  15.830 -2.6682 -1.5481 -0.8396
 2594SOL    HW219419   1.907   4.666  15.894 -0.2214  0.0692  1.8433
 2595SOL     OW19420   2.626   1.219  11.050  0.3552 -0.3090  0.5736
 2595SOL    HW119421   2.681   1.247  11.123  1.5817 -0.5937 -0.2357
 2595SOL    HW219422   2.623   1.301  11.001  1.4381 -0.3813  0.3755
 2596SOL     OW19423   1.834   4.468   6.132 -0.3491 -0.3558 -0.0256
 2596SOL    HW119424   1.774   4.536   6.163 -0.0421 -0.0969  0.0010
 2596SOL    HW219425   1.830   4.401   6.200 -1.3229  1.5552  1.8063
 2597SOL     OW19426   1.250   0.884  15.460 -0.0334  0.2689 -0.0051
 2597SOL    HW119427   1.309   0.808  15.451 -0.8072 -0.3670  0.2923
 2597SOL    HW219428   1.317   0.944  15.493  1.9191 -2.3813  0.8350
 2598SOL     OW19429   1.227   3.218   6.124 -0.5151  0.0619 -0.7278
 2598SOL    HW119430   1.188   3.192   6.040 -0.0593 -1.5528 -0.4493
 2598SOL    HW219431   1.157   3.207   6.188 -0.6027 -0.4239 -0.9034
 2599SOL     OW19432   3.440   2.940  10.968  0.2837 -0.1190 -0.4249
 2599SOL    HW119433   3.474   2.932  10.878  1.2636 -2.4838  0.1462
 2599SOL    HW219434   3.428   3.034  10.975  2.2665  0.0652  0.3721
 2600SOL     OW19435   1.767   4.551   6.775 -0.7693 -0.2543 -0.6764
 2600SOL    HW119436   1.802   4.531   6.689 -2.6333 -2.6204 -0.8900
 2600SOL    HW219437   1.820   4.498   6.834  0.9265  2.4836  0.2416
 2601SOL     OW19438   0.855   0.101   8.527 -0.2963 -0.0063 -0.2748
 2601SOL    HW119439   0.769   0.059   8.522  0.1176 -0.6927 -1.5057
 2601SOL    HW219440   0.899   0.064   8.450 -0.8878  1.5139 -1.3474
 2602SOL     OW19441   1.670   2.217   4.311  0.2236  0.2239  0.1167
 2602SOL    HW119442   1.669   2.154   4.240  1.6477 -0.8215  1.0117
 2602SOL    HW219443   1.635   2.291   4.262  1.6737  0.1666 -1.0141
 2603SOL     OW19444   0.521   1.517   5.171 -0.0211 -0.0327 -0.0435
 2603SOL    HW119445   0.470   1.569   5.233 -1.9523 -0.5896 -1.1829
 2603SOL    HW219446   0.612   1.530   5.197  0.0221  1.5309 -1.0260
 2604SOL     OW19447   3.965   1.640   6.227 -0.4117  0.1594  0.1047
 2604SOL    HW119448   3.954   1.553   6.265 -0.5887  0.5867  1.0354
 2604SOL    HW219449   4.001   1.678   6.308 -0.4212  0.4126 -0.0085
 2605SOL     OW19450   3.834   4.004   2.602  0.6163 -0.0497 -0.2961
 2605SOL    HW119451   3.843   4.040   2.690  0.3315 -0.1347 -0.2317
 2605SOL    HW219452   3.768   3.934   2.609 -0.7663  1.2118 -0.7287
 2606SOL     OW19453   0.062   1.836   8.280  0.1107 -0.5211 -0.2309
 2606SOL    HW119454   4.711   1.823   8.249 -0.1509  0.6723  0.0235
 2606SOL    HW219455   0.058   1.791   8.365  1.0197 -1.4539 -0.6785
 2607SOL     OW19456   0.298   2.780   0.903  0.0517  0.1491 -0.5222
 2607SOL    HW119457   0.298   2.698   0.954  1.5176 -0.2649 -1.1896
 2607SOL    HW219458   0.290   2.843   0.974  0.8052  0.6678 -0.9004
 2608SOL     OW19459   0.193   1.432   8.430  0.1051  0.7066  0.1606
 2608SOL    HW119460   0.098   1.428   8.423  0.3486 -0.9186 -2.1640
 2608SOL    HW219461   0.203   1.349   8.479  0.4491  1.3690  1.2146
 2609SOL     OW19462   1.224   2.901   6.710  0.1422 -0.2380 -0.1742
 2609SOL    HW119463   1.286   2.965   6.675  1.9005 -3.2380 -2.5770
 2609SOL    HW219464   1.151   2.957   6.735  0.4845 -0.0933  0.5088
 2610SOL     OW19465   2.642   3.737   9.367 -0.2605  0.6669  0.7367
 2610SOL    HW119466   2.613   3.649   9.388  2.7155 -1.0986 -2.5360
 2610SOL    HW219467   2.708   3.746   9.436 -1.4483 -0.8325  2.0652
 2611SOL     OW19468   4.588   1.749   7.523 -0.1673  0.2886 -0.5641
 2611SOL    HW119469   4.587   1.681   7.456 -1.7498 -0.7303  0.4909
 2611SOL    HW219470   4.519   1.711   7.578  0.9002 -1.6112 -0.5363
 2612SOL     OW19471   1.062   3.644   2.349  0.3958 -0.3919  0.4583
 2612SOL    HW119472   1.075   3.608   2.437  1.3474 -1.9079 -0.3066
 2612SOL    HW219473   1.023   3.730   2.364 -1.1039 -0.8607 -0.7709
 2613SOL     OW19474   4.620   3.681  13.655 -0.1377 -0.5858  0.2583
 2613SOL    HW119475   4.575   3.643  13.579  1.7189  2.2086 -2.2643
 2613SOL    HW219476   4.559   3.749  13.683 -1.2490 -0.9102 -1.3387
 2614SOL     OW19477   1.704   0.994   2.553  0.6730  0.0734 -0.2522
 2614SOL    HW119478   1.614   0.965   2.544  0.5633 -0.2340  1.6655
 2614SOL    HW219479   1.697   1.028   2.642 -0.3443 -0.4980 -0.1128
 2615SOL     OW19480   1.131   2.608   4.859 -0.1376 -0.9077 -0.4386
 2615SOL    HW119481   1.198   2.671   4.832 -0.3723  0.2767  1.7372
 2615SOL    HW219482   1.186   2.534   4.836  2.5734  0.8221  0.4954
 2616SOL     OW19483   3.058   3.716   0.614  0.1390  0.4036 -0.2119
 2616SOL    HW119484   3.007   3.790   0.580 -0.0559  0.1512 -0.4621
 2616SOL    HW219485   3.012   3.633   0.606  1.0195 -0.1965  0.9254
 2617SOL     OW19486   3.205   2.446   5.678  0.0301  0.1137 -0.5730
 2617SOL    HW119487   3.227   2.354   5.683 -2.1986 -0.4361 -0.9051
 2617SOL    HW219488   3.289   2.491   5.671  1.6294 -3.0436 -1.5927
 2618SOL     OW19489   0.926   0.060   6.856  0.3778 -0.3611  0.1051
 2618SOL    HW119490   1.013   0.100   6.850 -0.1000  0.8425  1.2727
 2618SOL    HW219491   0.939   4.722   6.801  0.2800  0.2664 -0.7888
 2619SOL     OW19492   3.080   1.495   8.374 -0.0099 -0.2668 -0.0125
 2619SOL    HW119493   3.016   1.500   8.303  2.1197  0.1337 -1.8935
 2619SOL    HW219494   3.163   1.504   8.329 -0.3722 -0.4375 -0.7089
 2620SOL     OW19495   4.044   1.599   7.191  0.4915 -0.4291  0.2538
 2620SOL    HW119496   3.997   1.676   7.224  1.3853  0.6189 -0.8913
 2620SOL    HW219497   3.970   1.541   7.177  0.3111 -0.4300  1.2145
 2621SOL     OW19498   4.508   3.268  13.410 -0.0225  0.0259  0.1950
 2621SOL    HW119499   4.439   3.272  13.476  0.7249 -0.3625  1.0013
 2621SOL    HW219500   4.516   3.173  13.403  1.6032  0.4286 -2.9394
 2622SOL     OW19501   1.305   3.314   1.710  0.1137 -0.1079  0.2886
 2622SOL    HW119502   1.374   3.297   1.773  2.1396 -0.8926 -2.1289
 2622SOL    HW219503   1.363   3.353   1.645  0.1121  0.9701  0.9439
 2623SOL     OW19504   1.487   2.001   1.657  0.2442  0.3579 -0.0375
 2623SOL    HW119505   1.442   1.934   1.709  1.5792  0.8956  1.8118
 2623SOL    HW219506   1.427   2.073   1.638  0.4751  0.2432 -1.2040
 2624SOL     OW19507   1.749   2.751   2.060  0.0581  0.7077 -0.2924
 2624SOL    HW119508   1.812   2.820   2.078  1.4610 -0.2227 -1.6517
 2624SOL    HW219509   1.691   2.754   2.136  2.5797 -0.0287  1.6474
 2625SOL     OW19510   2.363   2.376   2.406 -0.1471  0.2582  0.4035
 2625SOL    HW119511   2.289   2.420   2.448  0.1979 -1.0321  2.3227
 2625SOL    HW219512   2.355   2.291   2.448  0.2894  0.1385  0.2434
 2626SOL     OW19513   1.642   1.306   0.842 -0.7793 -0.0997  0.3346
 2626SOL    HW119514   1.581   1.333   0.911  1.2752  1.3330  1.5834
 2626SOL    HW219515   1.598   1.330   0.761 -1.4484 -1.7659  0.1971
 2627SOL     OW19516   3.658   1.299   4.819 -0.1138  0.0514  0.0271
 2627SOL    HW119517   3.645   1.378   4.767 -0.6616  0.0255  0.1289
 2627SOL    HW219518   3.747   1.317   4.850 -0.1456 -1.0472  0.7610
 2628SOL     OW19519   2.382   3.587   4.002 -0.0385 -0.0624  0.0066
 2628SOL    HW119520   2.389   3.493   4.022  1.7262  0.1459  0.4328
 2628SOL    HW219521   2.418   3.580   3.913  0.8956  0.2919  0.3508
 2629SOL     OW19522   1.802   3.380  15.981 -0.5090 -0.2731 -0.3585
 2629SOL    HW119523   1.866   3.362  15.912 -0.4883 -1.7332  0.0523
 2629SOL    HW219524   1.837   3.466  16.006 -0.8529  0.1537 -1.3206
 2630SOL     OW19525   0.649   2.083  13.200 -0.0264 -0.4882 -0.3777
 2630SOL    HW119526   0.606   2.005  13.166 -0.6379  0.4106 -1.6597
 2630SOL    HW219527   0.682   2.052  13.284 -1.3799  1.9254  1.0387
 2631SOL     OW19528   1.824   2.213   6.264 -0.0771 -0.2845  0.6835
 2631SOL    HW119529   1.803   2.296   6.222  0.4254 -0.7165 -0.4164
 2631SOL    HW219530   1.908   2.245   6.295  0.0567  0.3114 -0.2957
 2632SOL     OW19531   3.529   1.509   4.660 -0.0587 -0.1151 -0.2642
 2632SOL    HW119532   3.613   1.545   4.630 -0.8539  0.8963 -1.2312
 2632SOL    HW219533   3.498   1.575   4.722 -0.0870 -0.7988  0.4555
 2633SOL     OW19534   1.003   3.562  16.893 -0.4192 -0.0112  0.4707
 2633SOL    HW119535   0.991   3.504  16.818 -1.5410 -3.1108  3.0630
 2633SOL    HW219536   0.978   3.642  16.846  1.4244  0.2170 -0.1227
 2634SOL     OW19537   2.265   4.396  15.010 -0.1649  0.2286 -0.1164
 2634SOL    HW119538   2.235   4.339  14.940 -1.4299  2.0229 -1.0404
 2634SOL    HW219539   2.212   4.472  14.987 -1.7404 -0.3991  1.4646
 2635SOL     OW19540   1.071   1.196   4.186 -0.0078  0.5644  0.3367
 2635SOL    HW119541   0.985   1.185   4.226  0.4328  0.0406  1.1315
 2635SOL    HW219542   1.050   1.156   4.102  0.7236  1.2840 -0.1880
 2636SOL     OW19543   3.423   3.533   6.430 -0.1964 -0.0070 -0.1040
 2636SOL    HW119544   3.480   3.483   6.489 -1.6269 -2.2926 -0.6501
 2636SOL    HW219545   3.480   3.543   6.353 -1.4148 -1.9058 -1.2539
 2637SOL     OW19546   4.401   0.775   7.576 -0.0105  0.1263 -0.3867
 2637SOL    HW119547   4.389   0.680   7.575 -4.4096  0.7135 -0.8474
 2637SOL    HW219548   4.350   0.808   7.649 -2.2055 -1.4036 -1.2380
 2638SOL     OW19549   0.991   1.166   6.317  0.3867  0.0365  0.1460
 2638SOL    HW119550   1.011   1.073   6.312  2.1853  0.4983 -1.3010
 2638SOL    HW219551   0.908   1.155   6.364  0.2351 -1.1479 -0.4082
 2639SOL     OW19552   0.202   4.654   9.155  0.7260  0.5156  0.1760
 2639SOL    HW119553   0.152   4.589   9.205  0.8396 -1.0352 -1.7633
 2639SOL    HW219554   0.148   4.730   9.178 -2.0076 -1.4607  0.3688
 2640SOL     OW19555   0.560   0.354   4.191  0.1551 -0.3191 -0.2264
 2640SOL    HW119556   0.485   0.410   4.171  0.1531 -0.0301  0.6064
 2640SOL    HW219557   0.642   0.378   4.147  1.2973 -2.3116  0.7872
 2641SOL     OW19558   4.334   1.634   5.849 -0.3951 -0.1150  0.7654
 2641SOL    HW119559   4.327   1.663   5.758  1.7799 -1.9766 -0.0002
 2641SOL    HW219560   4.393   1.698   5.888  1.8685 -0.8540 -1.4723
 2642SOL     OW19561   1.751   4.479  11.981 -0.6768 -0.4023 -0.1758
 2642SOL    HW119562   1.816   4.476  11.910 -0.2819 -0.7501  0.1994
 2642SOL    HW219563   1.801   4.476  12.062 -0.5070  0.0025 -0.2632
 2643SOL     OW19564   1.869   4.221   7.100  0.2028  0.7303  0.0520
 2643SOL    HW119565   1.885   4.146   7.156 -0.6699  0.0255 -0.6374
 2643SOL    HW219566   1.885   4.292   7.162  2.3172  1.1118 -0.9513
 2644SOL     OW19567   3.851   0.341   1.579 -0.1384  0.7635  0.3092
 2644SOL    HW119568   3.767   0.311   1.613 -0.4362  0.3046 -0.8267
 2644SOL    HW219569   3.850   0.280   1.505 -0.6824  2.2831 -0.9204
 2645SOL     OW19570   0.096   2.907   5.749 -0.6229 -0.5958  0.0968
 2645SOL    HW119571   0.182   2.879   5.719  0.2701  1.8691  0.4216
 2645SOL    HW219572   0.123   2.985   5.796  0.3591  0.1457 -1.7432
 2646SOL     OW19573   4.710   4.380   6.777 -0.2914 -0.1580  0.2809
 2646SOL    HW119574   4.703   4.352   6.686  0.5114  1.4872 -0.2931
 2646SOL    HW219575   4.642   4.329   6.821 -1.5526 -1.4379 -3.1702
 2647SOL     OW19576   2.643   1.246   8.886 -0.0639 -0.0841  0.3960
 2647SOL    HW119577   2.564   1.202   8.917  0.9572 -1.7947  0.5613
 2647SOL    HW219578   2.680   1.286   8.965 -0.5593  0.4941  0.3312
 2648SOL     OW19579   1.041   3.873   1.498 -0.1393  0.2675 -0.8463
 2648SOL    HW119580   1.094   3.798   1.525 -3.3044 -0.2352  3.9033
 2648SOL    HW219581   1.058   3.919   1.581  0.5142 -1.5953  0.0559
 2649SOL     OW19582   0.610   0.264   6.389  0.4736  0.1344  0.0641
 2649SOL    HW119583   0.566   0.188   6.428 -0.5681 -0.7576 -2.9040
 2649SOL    HW219584   0.655   0.209   6.324  0.6967 -0.5943  0.8290
 2650SOL     OW19585   1.893   1.881   2.921  0.4134  0.4775  0.5555
 2650SOL    HW119586   1.876   1.835   2.838 -1.6887 -0.3081  1.4333
 2650SOL    HW219587   1.982   1.913   2.905 -0.3447  2.0256 -0.5995
 2651SOL     OW19588   0.438   1.625   7.151 -0.0036  0.0607  0.1325
 2651SOL    HW119589   0.363   1.575   7.185 -0.4809  2.0040  1.9502
 2651SOL    HW219590   0.511   1.566   7.167  0.1037  0.4975  1.3011
 2652SOL     OW19591   2.404   1.178   0.532  0.0874  0.1890 -0.4080
 2652SOL    HW119592   2.344   1.126   0.585 -0.3382  0.1848 -0.8996
 2652SOL    HW219593   2.337   1.205   0.469 -0.2308  3.0047  1.1153
 2653SOL     OW19594   3.526   2.339   2.146 -0.5649 -0.7382 -0.1916
 2653SOL    HW119595   3.501   2.280   2.217 -0.7052 -1.6859 -1.0133
 2653SOL    HW219596   3.532   2.271   2.078  1.6122  1.3139 -2.0444
 2654SOL     OW19597   3.992   0.104   3.007  0.1533 -0.0951 -0.4677
 2654SOL    HW119598   3.917   0.157   3.032  0.1916  0.2984 -1.1939
 2654SOL    HW219599   3.976   0.105   2.913  1.4516 -0.0078 -0.6990
 2655SOL     OW19600   2.471   2.549   6.417 -0.6326  0.8429 -0.2348
 2655SOL    HW119601   2.468   2.572   6.510  1.3181 -3.0257  0.7828
 2655SOL    HW219602   2.380   2.525   6.401 -1.0465  0.4347  2.6178
 2656SOL     OW19603   1.140   3.339   0.780 -0.7647 -0.2324 -0.1794
 2656SOL    HW119604   1.133   3.246   0.802  0.2146 -0.7132 -1.8973
 2656SOL    HW219605   1.228   3.363   0.806  0.2514 -1.9098 -2.0926
 2657SOL     OW19606   1.520   3.186   3.139  0.0114 -0.5158  1.1067
 2657SOL    HW119607   1.500   3.173   3.046 -1.8543  2.1177  1.1267
 2657SOL    HW219608   1.509   3.096   3.169  1.3166 -0.7369  0.9145
 2658SOL     OW19609   0.898   1.795   8.504  0.2592 -0.1200  0.2256
 2658SOL    HW119610   0.906   1.838   8.589  0.7344 -0.0858  0.1645
 2658SOL    HW219611   0.876   1.871   8.449  0.1035  0.3704  0.9709
 2659SOL     OW19612   3.901   2.661  12.607 -0.3298 -0.1831  0.0603
 2659SOL    HW119613   3.809   2.683  12.623 -0.1727  1.5038 -1.4031
 2659SOL    HW219614   3.920   2.606  12.684 -2.1574 -0.1139  0.5579
 2660SOL     OW19615   3.741   3.937   6.877 -0.0995  0.6382  0.4319
 2660SOL    HW119616   3.647   3.923   6.890 -0.6980  0.3201 -4.2192
 2660SOL    HW219617   3.785   3.865   6.922  0.8126  0.2343 -1.1011
 2661SOL     OW19618   0.432   3.017   2.616 -0.0875  0.2274 -0.5006
 2661SOL    HW119619   0.446   3.061   2.700  0.1579 -0.5299 -0.1518
 2661SOL    HW219620   0.466   3.090   2.563  2.2344 -2.8072 -3.1430
 2662SOL     OW19621   2.928   2.299   1.535  0.1866  0.0637  0.2377
 2662SOL    HW119622   2.907   2.280   1.626  0.5444  0.6249  0.4321
 2662SOL    HW219623   2.913   2.392   1.551  0.1230 -0.5836  3.7953
 2663SOL     OW19624   2.708   2.130   0.922  0.0538 -0.1299  0.2865
 2663SOL    HW119625   2.764   2.184   0.977 -2.0865  0.9036  1.4409
 2663SOL    HW219626   2.662   2.071   0.981 -0.6268  1.4527  1.3264
 2664SOL     OW19627   3.360   3.644   8.459 -0.4681  0.3184 -0.2421
 2664SOL    HW119628   3.307   3.615   8.385 -1.7596  0.7863  0.5131
 2664SOL    HW219629   3.290   3.677   8.515  1.1282  0.8624  1.4380
 2665SOL     OW19630   4.182   0.693   3.833  0.1364  0.1558  0.5898
 2665SOL    HW119631   4.091   0.717   3.816  0.2577  0.5970  0.5499
 2665SOL    HW219632   4.214   0.678   3.744 -2.1042  0.9107 -0.3367
 2666SOL     OW19633   4.608   3.956   7.447 -0.1907  0.4991 -0.4067
 2666SOL    HW119634   4.696   3.941   7.482 -0.6842 -0.8545  0.2509
 2666SOL    HW219635   4.585   3.870   7.412  1.5074 -0.8063  1.6658
 2667SOL     OW19636   1.526   0.092   8.091  0.1211  0.4872  0.7830
 2667SOL    HW119637   1.537   0.069   7.999 -0.4205 -1.8594  1.3260
 2667SOL    HW219638   1.526   0.188   8.100 -1.5145  0.5834 -0.3367
 2668SOL     OW19639   1.139   2.926   5.992 -0.3062 -0.0155 -0.2365
 2668SOL    HW119640   1.142   2.981   5.913 -1.0096 -1.5103 -1.3054
 2668SOL    HW219641   1.137   2.850   5.934 -0.4152 -0.2344  0.0555
 2669SOL     OW19642   1.019   0.547   0.241 -0.3544  0.4291 -0.0514
 2669SOL    HW119643   1.054   0.611   0.302 -1.3429  0.4104  0.5183
 2669SOL    HW219644   0.970   0.595   0.174 -1.7253 -1.1879 -0.2074
 2670SOL     OW19645   1.005   1.138   7.289 -0.0629 -0.1463 -0.1652
 2670SOL    HW119646   1.060   1.093   7.352 -0.0194  1.8095  1.2044
 2670SOL    HW219647   0.961   1.057   7.264 -0.3008 -0.0862  0.0556
 2671SOL     OW19648   0.095   2.740   4.552  0.4476  0.4296 -0.6027
 2671SOL    HW119649   0.008   2.701   4.548  1.2852 -1.3421 -1.3747
 2671SOL    HW219650   0.057   2.828   4.551  0.0238  0.2347 -1.2696
 2672SOL     OW19651   1.174   3.951   2.195 -0.6566  0.2298 -0.8577
 2672SOL    HW119652   1.151   3.865   2.159  0.5042 -0.0584 -0.9254
 2672SOL    HW219653   1.103   3.967   2.257  0.0617 -0.9028  0.2706
 2673SOL     OW19654   0.662   1.791   5.085  0.0966  0.0508  0.3138
 2673SOL    HW119655   0.582   1.753   5.048 -0.0630  1.9709 -1.3343
 2673SOL    HW219656   0.677   1.850   5.011  2.9264 -1.0855 -0.0168
 2674SOL     OW19657   4.620   3.006   1.688  0.1371 -0.5107 -0.2961
 2674SOL    HW119658   4.605   2.912   1.699 -0.1697 -0.4342 -0.0210
 2674SOL    HW219659   4.584   3.035   1.772 -1.1892  2.4880 -1.8707
 2675SOL     OW19660   0.398   4.030  15.942  0.3450 -0.1507 -0.5396
 2675SOL    HW119661   0.484   3.998  15.918  0.4595 -1.1399  1.1909
 2675SOL    HW219662   0.411   4.036  16.036  0.0620  1.8998 -0.6151
 2676SOL     OW19663   0.532   3.083   8.823  0.3121  0.9911 -0.0788
 2676SOL    HW119664   0.456   3.024   8.830  1.4578 -0.4195  0.4194
 2676SOL    HW219665   0.483   3.163   8.808 -1.2124 -0.0137 -0.4871
 2677SOL     OW19666   2.321   1.290   5.131 -0.2594  0.5752  0.1164
 2677SOL    HW119667   2.326   1.232   5.055  1.2044 -1.5899  1.8963
 2677SOL    HW219668   2.407   1.331   5.138 -0.0883  0.3247 -0.5201
 2678SOL     OW19669   3.839   2.086   3.519  0.2587 -0.6928 -0.0741
 2678SOL    HW119670   3.906   2.108   3.583 -0.9361 -0.7125  1.2009
 2678SOL    HW219671   3.802   2.008   3.561  0.0535  0.1467  1.3358
 2679SOL     OW19672   3.532   2.140   3.598 -0.3319 -0.9752  0.3535
 2679SOL    HW119673   3.461   2.082   3.627 -1.0186  0.6029  1.8377
 2679SOL    HW219674   3.519   2.145   3.503  0.9208  2.1639  0.3329
 2680SOL     OW19675   2.841   4.250   7.166 -0.8185 -0.1519  0.2307
 2680SOL    HW119676   2.921   4.217   7.207  0.6298  1.9274 -0.9523
 2680SOL    HW219677   2.802   4.312   7.228  0.0684  0.5517  0.0803
 2681SOL     OW19678   4.635   3.125   4.135  0.0845 -0.7543  0.3974
 2681SOL    HW119679   4.654   3.103   4.044  0.1929  1.6287 -0.1441
 2681SOL    HW219680   4.688   3.205   4.139 -0.2465 -0.5861  1.4402
 2682SOL     OW19681   1.583   1.464   6.884  0.5898 -0.5086 -0.1914
 2682SOL    HW119682   1.630   1.534   6.838  1.1151  1.2252  3.0159
 2682SOL    HW219683   1.542   1.496   6.964  1.5083 -1.0268  0.4868
 2683SOL     OW19684   4.666   3.894   4.790 -0.0490 -0.4033 -0.2559
 2683SOL    HW119685   4.726   3.925   4.721 -1.6488  1.4271 -0.8222
 2683SOL    HW219686   4.724   3.922   4.861 -1.3744  0.5384  0.4559
 2684SOL     OW19687   0.067   3.084  14.380  0.5679  0.3235  0.0015
 2684SOL    HW119688   0.096   3.108  14.468  1.1505  0.2199 -0.1604
 2684SOL    HW219689   0.094   2.992  14.370  4.8191  1.5330  0.4842
 2685SOL     OW19690   3.965   4.422   6.271 -0.1687  0.1830  0.1694
 2685SOL    HW119691   3.935   4.500   6.317 -0.4416 -1.0806  2.1527
 2685SOL    HW219692   4.009   4.454   6.193  2.7489 -0.2272  1.6458
 2686SOL     OW19693   4.577   4.446   8.983 -0.1339 -0.4513 -0.3379
 2686SOL    HW119694   4.518   4.373   8.963  1.5477 -1.5615 -1.2664
 2686SOL    HW219695   4.662   4.404   8.991 -0.3180 -0.7269  0.1618
 2687SOL     OW19696   4.074   3.135  16.505 -0.2407 -0.1269  0.3273
 2687SOL    HW119697   4.155   3.178  16.533 -0.7523  0.4633  0.8895
 2687SOL    HW219698   4.005   3.200  16.518 -0.2952 -0.5468  2.1145
 2688SOL     OW19699   2.847   4.542  16.885 -0.2311 -0.3408 -0.3266
 2688SOL    HW119700   2.850   4.455  16.844 -1.0884 -1.6447  2.2966
 2688SOL    HW219701   2.811   4.602  16.820 -2.1842 -2.2773 -1.0688
 2689SOL     OW19702   1.700   3.093   2.338  0.3333  0.0817 -0.5693
 2689SOL    HW119703   1.645   3.018   2.318 -0.7009  0.8692 -0.6540
 2689SOL    HW219704   1.773   3.075   2.279 -0.3321 -1.7510 -0.8092
 2690SOL     OW19705   0.488   1.901  17.545  0.0888 -0.0400  0.5057
 2690SOL    HW119706   0.521   1.811  17.548 -0.0714 -0.1213 -0.2936
 2690SOL    HW219707   0.509   1.925  17.455  0.8283 -1.6635  0.2321
 2691SOL     OW19708   4.212   0.728  17.003 -0.1429  0.2685 -0.6328
 2691SOL    HW119709   4.173   0.698  16.921  0.0691 -1.8588  0.0410
 2691SOL    HW219710   4.130   0.751  17.047  0.4625  0.4104  0.4101
 2692SOL     OW19711   0.132   0.753   8.205  0.2325  0.0558  0.3249
 2692SOL    HW119712   0.095   0.841   8.214 -1.8592 -0.8068 -0.1129
 2692SOL    HW219713   0.117   0.717   8.293 -1.9649 -2.1054 -0.9451
 2693SOL     OW19714   4.351   1.790   5.028 -0.2103  0.1116  0.0702
 2693SOL    HW119715   4.272   1.756   5.069  0.4723 -0.8398  0.5769
 2693SOL    HW219716   4.387   1.852   5.092  2.2847  0.2655 -1.4425
 2694SOL     OW19717   1.322   0.106   4.351  0.2479  0.2725  0.6494
 2694SOL    HW119718   1.289   0.126   4.438 -2.6081  1.0672 -0.6043
 2694SOL    HW219719   1.305   0.012   4.352 -0.1667  0.3247 -0.6432
 2695SOL     OW19720   3.741   1.454   6.062 -0.1138 -0.6633  0.1695
 2695SOL    HW119721   3.834   1.459   6.084 -0.3483  1.3679  0.6934
 2695SOL    HW219722   3.731   1.386   5.995  0.6749 -0.8292  0.2231
 2696SOL     OW19723   1.064   4.026   5.156 -0.0730 -0.1270  0.2192
 2696SOL    HW119724   1.125   4.099   5.156 -0.5007  0.2401  2.8055
 2696SOL    HW219725   1.081   3.986   5.071  1.1625  0.7142  0.0786
 2697SOL     OW19726   1.636   2.049   8.578  0.4822 -0.0383  0.1961
 2697SOL    HW119727   1.599   2.098   8.651 -2.3519 -0.3270 -1.0855
 2697SOL    HW219728   1.624   2.109   8.505  3.0598 -1.5045 -1.4486
 2698SOL     OW19729   0.174   4.070   6.725  0.8874 -0.1066 -0.4898
 2698SOL    HW119730   0.128   4.059   6.643 -1.3039 -1.6184  0.9584
 2698SOL    HW219731   0.163   4.165   6.729 -0.3841 -0.3646  2.1212
 2699SOL     OW19732   4.102   0.142  14.114  0.2789  0.1708 -0.2054
 2699SOL    HW119733   4.048   0.084  14.060 -0.0568  2.0514 -1.8808
 2699SOL    HW219734   4.047   0.120  14.188 -1.7362  0.2929 -1.6734
 2700SOL     OW19735   3.451   2.652   5.377  0.3714  0.1140 -0.2662
 2700SOL    HW119736   3.419   2.574   5.332  2.5267 -0.4253 -0.8760
 2700SOL    HW219737   3.372   2.701   5.401 -0.0591 -0.0882 -1.2639
 2701SOL     OW19738   3.315   1.171   6.460  0.3558 -0.3396 -0.6042
 2701SOL    HW119739   3.400   1.206   6.486  1.2761 -0.7681 -3.1370
 2701SOL    HW219740   3.323   1.084   6.497 -2.6840 -0.8101 -1.0236
 2702SOL     OW19741   0.102   4.662  10.524 -0.0712  0.0629 -0.2581
 2702SOL    HW119742   0.059   0.005  10.551  1.2773  0.3642  1.0385
 2702SOL    HW219743   0.123   4.681  10.433 -0.9192  2.1231 -0.0271
 2703SOL     OW19744   1.933   1.548   3.719  0.5297 -0.0968  0.4140
 2703SOL    HW119745   2.026   1.552   3.697  0.0505  1.6972 -1.2966
 2703SOL    HW219746   1.941   1.526   3.811 -0.9562 -0.6252  0.4132
 2704SOL     OW19747   4.610   2.852   5.929  0.1184  0.4226 -0.4479
 2704SOL    HW119748   4.617   2.917   5.999  2.1564 -0.2093 -0.0620
 2704SOL    HW219749   4.700   2.858   5.896  1.6123 -0.4150  3.4646
 2705SOL     OW19750   0.322   0.004  16.295  0.4826 -0.8455  0.0120
 2705SOL    HW119751   0.405   0.004  16.246  1.6857 -0.6120  2.0602
 2705SOL    HW219752   0.313   0.098  16.311 -1.0999 -1.0095  0.0157
 2706SOL     OW19753   1.201   3.729  11.626 -0.3189  0.3713  0.4074
 2706SOL    HW119754   1.145   3.658  11.595  0.6188 -0.3207  0.2809
 2706SOL    HW219755   1.158   3.807  11.592 -1.5916 -1.2925 -1.7496
 2707SOL     OW19756   2.543   2.247   2.228  0.6895  0.0413 -0.0617
 2707SOL    HW119757   2.585   2.178   2.280  1.1243  0.5086  0.2140
 2707SOL    HW219758   2.471   2.282   2.281 -0.9815 -2.0122 -0.9931
 2708SOL     OW19759   1.088   1.470   3.092  0.3437  0.5509  0.5832
 2708SOL    HW119760   1.128   1.550   3.059 -0.5822  1.2317  1.0887
 2708SOL    HW219761   1.158   1.407   3.073 -0.3082 -0.5952  1.9645
 2709SOL     OW19762   0.261   4.430  17.591  0.4082 -0.7953  0.3550
 2709SOL    HW119763   0.299   4.511  17.557 -2.2364 -0.0860 -0.9273
 2709SOL    HW219764   0.220   4.390  17.514  2.9201 -1.7760 -0.4739
 2710SOL     OW19765   3.737   2.580   1.925  0.3607 -0.5090  0.1337
 2710SOL    HW119766   3.695   2.642   1.865  0.9990 -0.1776  0.0185
 2710SOL    HW219767   3.717   2.494   1.888 -2.2182 -0.9841  2.6555
 2711SOL     OW19768   3.400   2.056   6.717  0.4639 -0.4659 -0.3298
 2711SOL    HW119769   3.320   2.044   6.665  0.7574  1.5521 -1.2467
 2711SOL    HW219770   3.403   2.152   6.724  1.0771 -0.6522  2.1565
 2712SOL     OW19771   3.409   4.347   5.656  0.0174  0.0502  0.1186
 2712SOL    HW119772   3.435   4.389   5.738 -1.9261 -0.1124  0.8375
 2712SOL    HW219773   3.389   4.420   5.597 -1.8853 -1.4979 -1.1740
 2713SOL     OW19774   3.725   3.882   8.125 -0.4248 -0.0457  0.2951
 2713SOL    HW119775   3.746   3.931   8.046  0.7573 -1.5834 -0.3570
 2713SOL    HW219776   3.793   3.814   8.116 -1.0606 -0.5641 -0.6202
 2714SOL     OW19777   1.646   3.914   8.615 -0.2364  0.0519  0.0680
 2714SOL    HW119778   1.601   3.905   8.531  2.5125  2.0138 -1.5842
 2714SOL    HW219779   1.710   3.843   8.609  0.5902  0.7956  0.1163
 2715SOL     OW19780   0.529   4.333   1.588  0.2875  0.4292  0.5790
 2715SOL    HW119781   0.478   4.318   1.668  0.2134  1.7057  0.7777
 2715SOL    HW219782   0.515   4.251   1.542 -3.3853  0.8172  1.0087
 2716SOL     OW19783   1.264   1.191  15.698 -0.1461  0.1460  0.8982
 2716SOL    HW119784   1.231   1.140  15.625  0.0009  1.1719  0.1148
 2716SOL    HW219785   1.189   1.243  15.726  0.2496  2.9055 -3.0617
 2717SOL     OW19786   3.320   3.379   3.066 -0.2594 -0.6324  0.0484
 2717SOL    HW119787   3.366   3.400   2.985  0.1542  2.7542  1.1840
 2717SOL    HW219788   3.383   3.322   3.111 -0.1789 -1.0699 -0.6224
 2718SOL     OW19789   1.032   4.692   2.198 -0.2172 -0.3278  0.1494
 2718SOL    HW119790   1.105   4.713   2.257 -2.6778  3.3375  1.9085
 2718SOL    HW219791   0.967   4.657   2.259 -1.9500 -1.4276 -2.3282
 2719SOL     OW19792   1.954   1.267   9.846 -0.2207 -0.4770 -0.0155
 2719SOL    HW119793   1.872   1.314   9.860  0.4291  0.2152  1.4442
 2719SOL    HW219794   1.964   1.226   9.932 -0.7203 -1.5946 -0.4996
 2720SOL     OW19795   1.349   0.175   0.192  0.3495  0.3131 -0.0553
 2720SOL    HW119796   1.360   0.260   0.233  0.4324 -0.8153  2.3002
 2720SOL    HW219797   1.258   0.160   0.217  0.4566 -0.3597 -0.0523
 2721SOL     OW19798   4.554   1.307   9.069 -0.3860  0.0310 -0.6744
 2721SOL    HW119799   4.596   1.335   8.987  1.6170  3.3922  1.5085
 2721SOL    HW219800   4.627   1.305   9.131  0.2996  0.5725 -1.4624
 2722SOL     OW19801   2.056   2.648   6.623 -0.1299  0.1092 -0.4980
 2722SOL    HW119802   2.018   2.732   6.649  0.6788 -0.0626  1.2532
 2722SOL    HW219803   2.101   2.665   6.540  0.2992  1.3256 -0.0207
 2723SOL     OW19804   4.616   0.738  14.991  0.2643  0.1671  0.4826
 2723SOL    HW119805   4.531   0.727  15.036  0.5126  0.5708  1.0611
 2723SOL    HW219806   4.588   0.813  14.938  1.1800  1.0155  1.1900
 2724SOL     OW19807   0.759   3.957   2.984 -0.0110 -0.3064 -0.4121
 2724SOL    HW119808   0.802   4.036   2.953 -1.0320  1.0662  1.6780
 2724SOL    HW219809   0.832   3.912   3.026  0.0455 -0.5921 -0.8167
 2725SOL     OW19810   4.260   0.241   3.709 -0.4219  0.0486 -0.0095
 2725SOL    HW119811   4.243   0.170   3.770  0.7447  0.0482  0.3031
 2725SOL    HW219812   4.183   0.295   3.726 -0.0653  0.6748 -0.3409
 2726SOL     OW19813   4.355   4.485   3.522 -0.0742 -0.4207  0.2248
 2726SOL    HW119814   4.321   4.455   3.607  0.7517  1.5375  1.2421
 2726SOL    HW219815   4.309   4.569   3.519  0.0821 -0.3378  0.1649
 2727SOL     OW19816   2.504   0.194   8.005 -0.3135  0.2388 -0.3406
 2727SOL    HW119817   2.593   0.223   7.982  0.6416 -1.4397  1.2540
 2727SOL    HW219818   2.534   0.110   8.039  1.9927  0.3961 -1.9425
 2728SOL     OW19819   2.688   3.271   6.667  0.4177  0.2710 -0.3345
 2728SOL    HW119820   2.744   3.254   6.592 -1.1527  1.8162 -1.8559
 2728SOL    HW219821   2.650   3.185   6.685  0.1285  1.3348  4.1527
 2729SOL     OW19822   1.947   4.520  17.327 -0.2341  0.5315  1.3838
 2729SOL    HW119823   1.894   4.523  17.406 -0.6177  0.0080  1.1461
 2729SOL    HW219824   2.030   4.482  17.356  0.8248  0.4887 -1.7454
 2730SOL     OW19825   1.215   2.069   2.701  0.1137  0.1256  0.2289
 2730SOL    HW119826   1.200   2.130   2.629 -0.7969 -0.6983 -0.2764
 2730SOL    HW219827   1.178   2.122   2.772 -2.7627 -1.3967 -0.1131
 2731SOL     OW19828   2.361   2.000   8.297 -0.0853 -0.3087  0.7624
 2731SOL    HW119829   2.298   1.956   8.240 -1.1974 -0.2517  1.9663
 2731SOL    HW219830   2.328   1.975   8.383  3.0109 -1.5418  1.5795
 2732SOL     OW19831   2.872   3.521  17.117  0.0374 -0.2245  0.2447
 2732SOL    HW119832   2.886   3.479  17.032  1.1593 -1.1807  0.9184
 2732SOL    HW219833   2.957   3.565  17.113  0.2540 -0.6594  0.1272
 2733SOL     OW19834   1.112   1.587  17.541  0.2740 -0.1065  0.7250
 2733SOL    HW119835   1.109   1.537  17.460 -0.5629  1.3977 -0.1634
 2733SOL    HW219836   1.023   1.621  17.556  0.3403  0.1194  0.6055
 2734SOL     OW19837   4.275   4.341   3.315 -0.7467  0.1437 -0.4717
 2734SOL    HW119838   4.295   4.380   3.400  1.1361 -1.7182 -0.0328
 2734SOL    HW219839   4.229   4.262   3.345 -0.8774 -0.1050 -1.3282
 2735SOL     OW19840   0.334   2.996   4.612  0.0373 -0.3060  0.3742
 2735SOL    HW119841   0.406   2.935   4.628 -0.1894 -0.7093 -0.1359
 2735SOL    HW219842   0.329   3.035   4.699 -1.7918  0.0882  0.0913
 2736SOL     OW19843   1.886   3.262   7.887  0.1719  0.0442  0.4875
 2736SOL    HW119844   1.943   3.185   7.879 -0.3187 -0.1357 -1.2338
 2736SOL    HW219845   1.808   3.212   7.861  0.5581  1.4043 -3.1935
 2737SOL     OW19846   4.426   3.106  15.134 -0.5524  0.0511  0.4057
 2737SOL    HW119847   4.454   3.068  15.217 -2.6734  1.1538  1.6262
 2737SOL    HW219848   4.371   3.034  15.103 -0.9551  0.2191  0.7338
 2738SOL     OW19849   4.148   2.716   8.896  0.0250 -0.3607 -0.0825
 2738SOL    HW119850   4.061   2.750   8.917 -0.7074 -1.5357 -1.2669
 2738SOL    HW219851   4.130   2.659   8.821  0.4548 -2.7710  1.6689
 2739SOL     OW19852   1.445   2.905   6.437  0.0202  0.2122 -0.3370
 2739SOL    HW119853   1.471   2.814   6.449  1.9933  0.9390  0.9105
 2739SOL    HW219854   1.534   2.939   6.433 -0.3190  1.0772 -0.6395
 2740SOL     OW19855   0.137   2.981  13.603 -0.9721 -0.0563  0.2898
 2740SOL    HW119856   0.166   2.980  13.511  0.5428 -0.1064  0.7728
 2740SOL    HW219857   0.186   3.060  13.629  0.7510 -0.8454 -0.5579
 2741SOL     OW19858   0.714   2.582  15.176  0.0446  1.0481  0.1610
 2741SOL    HW119859   0.753   2.669  15.183 -0.0237  1.2401 -1.7241
 2741SOL    HW219860   0.790   2.526  15.190 -1.4641 -0.9952  0.2708
 2742SOL     OW19861   4.073   0.362   3.991  0.0919  0.0376 -0.0269
 2742SOL    HW119862   4.059   0.268   3.982 -0.2833  0.2465 -1.6729
 2742SOL    HW219863   4.092   0.377   3.898  1.4537 -1.4416  0.0028
 2743SOL     OW19864   2.258   1.772  12.900 -0.0450 -0.1086 -0.5232
 2743SOL    HW119865   2.221   1.691  12.866 -0.0974 -0.5666  0.6331
 2743SOL    HW219866   2.215   1.776  12.985  0.0838 -1.0863 -0.4159
 2744SOL     OW19867   2.049   1.793   1.250 -0.6688 -0.4100  0.0660
 2744SOL    HW119868   1.996   1.824   1.324 -1.0915  0.3381 -0.5471
 2744SOL    HW219869   2.040   1.698   1.254  0.5399 -0.5654 -1.2381
 2745SOL     OW19870   3.286   1.134  15.395  0.0934  0.4716 -0.3321
 2745SOL    HW119871   3.372   1.178  15.396  0.8663 -1.0987  0.9831
 2745SOL    HW219872   3.219   1.202  15.404  0.7146  1.1090 -0.4861
 2746SOL     OW19873   0.603   4.460   4.871  0.4453 -0.9929 -0.4388
 2746SOL    HW119874   0.615   4.456   4.776  0.7505 -1.0543 -0.3990
 2746SOL    HW219875   0.535   4.526   4.885  3.2085  2.1758 -1.9633
 2747SOL     OW19876   1.375   3.055  14.536  0.5303  0.3024  0.1076
 2747SOL    HW119877   1.288   3.014  14.536  0.1796  1.0507 -2.1990
 2747SOL    HW219878   1.423   2.990  14.588 -0.2876  0.5938  1.2290
 2748SOL     OW19879   3.053   0.037  14.506  0.0042 -0.2857  0.0043
 2748SOL    HW119880   2.964   0.029  14.472 -0.4848 -1.7940  1.6568
 2748SOL    HW219881   3.059   4.710  14.575 -1.5622  1.5284  1.8487
 2749SOL     OW19882   0.905   3.149   9.551  0.2651 -0.6086 -0.6171
 2749SOL    HW119883   0.903   3.090   9.627  1.3749 -1.1865 -1.0321
 2749SOL    HW219884   0.967   3.217   9.578 -0.1970 -0.1603 -0.6747
 2750SOL     OW19885   0.449   0.007  15.322  0.6223  0.1290  0.2718
 2750SOL    HW119886   0.509   4.673  15.306 -0.2849 -0.1262 -2.0955
 2750SOL    HW219887   0.397   0.017  15.242  0.9548 -2.1402 -0.2272
 2751SOL     OW19888   3.115   3.482  12.470  0.6818 -0.3925  0.0601
 2751SOL    HW119889   3.166   3.501  12.549 -0.7436  0.9321  0.6591
 2751SOL    HW219890   3.026   3.482  12.506  0.8285 -0.8493  0.4338
 2752SOL     OW19891   4.581   1.716   0.275 -0.2081 -0.0817 -0.1757
 2752SOL    HW119892   4.606   1.767   0.352  1.8017  0.5534 -1.2555
 2752SOL    HW219893   4.589   1.627   0.309 -0.2168  0.7894  2.1182
 2753SOL     OW19894   0.657   1.490  16.721  0.0718 -0.2595 -0.1607
 2753SOL    HW119895   0.663   1.497  16.626  0.0925  2.0812 -0.0045
 2753SOL    HW219896   0.698   1.404  16.727 -0.1927 -0.3728  0.0368
 2754SOL     OW19897   0.417   0.509   6.073 -0.2700 -0.1377  0.1147
 2754SOL    HW119898   0.325   0.533   6.086  0.2374  2.4009 -0.9912
 2754SOL    HW219899   0.444   0.492   6.163 -2.8339 -1.1984  0.7082
 2755SOL     OW19900   1.846   4.279   4.658 -0.5000 -0.0251  0.2463
 2755SOL    HW119901   1.826   4.327   4.577  1.9874 -0.0187 -0.3794
 2755SOL    HW219902   1.758   4.244   4.673 -0.1951 -1.0415 -0.3827
 2756SOL     OW19903   1.111   0.052  13.912  0.0758  0.1843 -0.2786
 2756SOL    HW119904   1.139   0.023  13.998 -1.2783  1.4213  0.5786
 2756SOL    HW219905   1.029   0.100  13.927  0.7941  0.8286  1.5303
 2757SOL     OW19906   1.706   4.216   8.059  0.2839  0.7573 -0.3508
 2757SOL    HW119907   1.785   4.226   8.112  1.1125 -0.0136 -1.4578
 2757SOL    HW219908   1.692   4.309   8.040  0.8810  0.9281  0.0224
 2758SOL     OW19909   2.942   0.119   7.004 -0.3537 -0.3293 -0.1219
 2758SOL    HW119910   3.003   0.056   7.044 -0.4544  0.7533  1.7469
 2758SOL    HW219911   2.862   0.068   7.003 -1.5225  1.5027 -0.0758
 2759SOL     OW19912   3.263   2.210  16.183 -0.0790  0.1838  0.0282
 2759SOL    HW119913   3.196   2.197  16.117  1.0389 -3.7579 -0.3295
 2759SOL    HW219914   3.343   2.218  16.131 -0.9441 -0.5726 -1.4012
 2760SOL     OW19915   2.344   4.128   3.605 -0.7084  0.0387 -0.2164
 2760SOL    HW119916   2.351   4.035   3.624 -0.9608 -0.5787 -3.0674
 2760SOL    HW219917   2.251   4.139   3.587 -1.8501 -2.6391  4.1326
 2761SOL     OW19918   0.055   3.645   7.319  0.7853 -0.0855  0.3039
 2761SOL    HW119919   4.712   3.683   7.348  0.6218 -0.8240  0.8214
 2761SOL    HW219920   0.033   3.552   7.311  0.1914  0.0178  0.6786
 2762SOL     OW19921   2.640   1.035  10.648 -0.0561  0.4537 -0.3926
 2762SOL    HW119922   2.716   0.994  10.605 -0.8778 -0.6218 -0.8222
 2762SOL    HW219923   2.637   1.116  10.597 -0.4648  1.0241  0.5398
 2763SOL     OW19924   1.497   2.247   8.708  0.4258 -0.2088 -0.6332
 2763SOL    HW119925   1.454   2.305   8.645 -0.4885 -0.5640 -0.3476
 2763SOL    HW219926   1.509   2.302   8.785 -3.1741  2.3614 -1.8753
 2764SOL     OW19927   1.533   2.545  16.295 -0.4979  0.0081  0.3691
 2764SOL    HW119928   1.603   2.574  16.353  0.0234 -1.7496  0.6193
 2764SOL    HW219929   1.559   2.457  16.268 -4.1044 -1.3328  1.2077
 2765SOL     OW19930   0.014   4.278   9.754  0.0170 -0.1673  0.1415
 2765SOL    HW119931   4.714   4.349   9.703  0.2690  0.3071  0.6153
 2765SOL    HW219932   0.008   4.205   9.692  0.2340  0.9639 -1.2151
 2766SOL     OW19933   2.770   4.391   7.375 -0.3664  0.2473 -0.3692
 2766SOL    HW119934   2.856   4.419   7.408  0.4975 -1.3306 -1.2979
 2766SOL    HW219935   2.715   4.415   7.449 -1.9884 -1.4966 -1.0258
 2767SOL     OW19936   3.630   4.233  12.580 -0.1080  0.2182 -0.5768
 2767SOL    HW119937   3.554   4.216  12.637 -0.7760 -1.8979 -2.1038
 2767SOL    HW219938   3.599   4.207  12.494  0.3442  3.3711 -1.6758
 2768SOL     OW19939   3.827   3.504   7.192 -0.2138  0.7399  0.3439
 2768SOL    HW119940   3.847   3.499   7.099 -0.8725 -1.1262  0.3065
 2768SOL    HW219941   3.733   3.494   7.206 -0.0090 -0.9319  0.5944
 2769SOL     OW19942   0.247   0.138   4.330 -0.1476  0.1531  0.0038
 2769SOL    HW119943   0.231   0.047   4.304  0.3182  0.6883 -2.1440
 2769SOL    HW219944   0.337   0.132   4.360  0.5251  0.2455 -2.0244
 2770SOL     OW19945   1.895   4.713   7.980  0.0621 -0.2051 -0.0307
 2770SOL    HW119946   1.924   0.014   8.062  0.0508  3.0275 -1.5973
 2770SOL    HW219947   1.908   0.047   7.920 -0.9615  1.0291  1.2341
 2771SOL     OW19948   3.091   0.036  15.028 -0.4183 -0.2493 -0.1953
 2771SOL    HW119949   3.008   0.081  15.010 -0.7521 -0.8483 -0.1542
 2771SOL    HW219950   3.155   0.107  15.022 -0.7887 -0.0298 -1.4640
 2772SOL     OW19951   3.680   2.054   4.291  0.4223  0.0398 -0.3996
 2772SOL    HW119952   3.630   2.130   4.320  0.7515  0.9384 -2.1822
 2772SOL    HW219953   3.646   1.983   4.346  2.4402 -1.6688 -1.3499
 2773SOL     OW19954   1.745   2.540   1.860 -0.7370 -0.3995  0.6456
 2773SOL    HW119955   1.769   2.611   1.920 -1.4891  0.3599  0.0512
 2773SOL    HW219956   1.752   2.460   1.910  0.9165 -1.1769 -0.8112
 2774SOL     OW19957   0.080   3.168  16.460 -0.0449  0.1515  0.2849
 2774SOL    HW119958   0.111   3.096  16.405  0.7392 -0.6814  1.8153
 2774SOL    HW219959   0.100   3.128  16.545  2.0507 -1.8673 -1.1594
 2775SOL     OW19960   2.198   4.646   6.307 -0.1183 -0.3496 -0.1992
 2775SOL    HW119961   2.198   4.626   6.400 -1.0916 -1.1941 -0.3776
 2775SOL    HW219962   2.137   4.720   6.309  0.4370  0.1238 -0.6674
 2776SOL     OW19963   1.003   1.993  17.350 -0.3809  0.0540  0.1432
 2776SOL    HW119964   0.974   1.944  17.427 -2.1880  1.2722  0.2249
 2776SOL    HW219965   1.008   2.083  17.383 -0.4945  0.6515 -1.5082
 2777SOL     OW19966   4.204   0.829  12.589 -0.1240  0.4176  0.1409
 2777SOL    HW119967   4.272   0.851  12.527 -0.6602 -0.4779 -0.7745
 2777SOL    HW219968   4.245   0.785  12.664  0.8881  1.8628  0.4325
 2778SOL     OW19969   2.782   4.545   7.624  0.1999  0.1921 -0.0922
 2778SOL    HW119970   2.857   4.603   7.637 -1.1845  1.8994  0.2792
 2778SOL    HW219971   2.772   4.544   7.719  0.3577 -0.0100 -0.0774
 2779SOL     OW19972   3.096   3.900  10.136  0.2205  0.0623 -0.5614
 2779SOL    HW119973   3.024   3.901  10.199  0.9699  2.9251  0.2739
 2779SOL    HW219974   3.151   3.831  10.174 -0.8423 -2.1269 -3.0371
 2780SOL     OW19975   1.091   3.723   0.552 -0.4415  0.4332  0.8529
 2780SOL    HW119976   1.167   3.737   0.496 -1.4472  1.4608 -0.2307
 2780SOL    HW219977   1.076   3.815   0.575 -3.6585  0.3622 -0.9243
 2781SOL     OW19978   0.158   2.399   5.402 -0.8062 -0.0652  0.1088
 2781SOL    HW119979   0.122   2.487   5.390 -0.2768  0.3586  1.6162
 2781SOL    HW219980   0.090   2.363   5.459 -0.5144 -0.2484  0.3423
 2782SOL     OW19981   4.340   1.288  13.794 -0.4715 -0.4079  0.7952
 2782SOL    HW119982   4.327   1.377  13.828  2.0528  0.6678 -1.0932
 2782SOL    HW219983   4.422   1.301  13.747 -0.7539 -1.5448  0.0013
 2783SOL     OW19984   0.606   0.810   5.838 -0.4769  0.3706  0.1957
 2783SOL    HW119985   0.536   0.809   5.904 -1.9522  1.2058 -1.3705
 2783SOL    HW219986   0.621   0.903   5.822  0.0972  0.4317  1.0652
 2784SOL     OW19987   4.302   4.473   9.431 -0.3568  0.3025 -0.2035
 2784SOL    HW119988   4.347   4.390   9.445 -0.9600 -0.0438 -0.2990
 2784SOL    HW219989   4.361   4.514   9.367  0.4339  0.7717  0.8355
 2785SOL     OW19990   1.047   2.913   7.192  0.1006 -0.4625 -0.7172
 2785SOL    HW119991   1.053   2.891   7.099  0.1171  0.5720 -0.9608
 2785SOL    HW219992   1.103   2.845   7.232 -0.7296 -0.2934  0.7425
 2786SOL     OW19993   2.108   4.661  13.981 -0.1410  0.0059  0.3310
 2786SOL    HW119994   2.132   0.013  13.992  0.9632 -0.2728  0.1898
 2786SOL    HW219995   2.147   4.638  13.897 -1.0697  2.9814 -0.8756
 2787SOL     OW19996   2.738   2.016   6.033 -0.1822 -0.4030 -0.2617
 2787SOL    HW119997   2.820   2.062   6.052 -0.4131  1.0911 -2.8303
 2787SOL    HW219998   2.770   1.926   6.032  1.4611  0.1840 -1.2254
 2788SOL     OW19999   2.767   2.981  11.966  0.4788  0.5085 -0.7246
 2788SOL    HW120000   2.711   2.950  11.895 -1.0860 -3.1018  2.0281
 2788SOL    HW220001   2.755   2.909  12.028  0.9077  0.7545 -0.3619
 2789SOL     OW20002   3.769   4.486   2.158  0.3848 -0.1387  0.5548
 2789SOL    HW120003   3.814   4.570   2.153 -0.1654  0.0341 -1.5317
 2789SOL    HW220004   3.677   4.496   2.181 -0.1804  1.6946 -2.4513
 2790SOL     OW20005   0.142   1.632   5.478  0.1080  0.2668  0.0735
 2790SOL    HW120006   0.192   1.696   5.528  1.5504 -2.1165  1.6653
 2790SOL    HW220007   0.057   1.627   5.523 -0.5862 -0.6999 -1.3430
 2791SOL     OW20008   3.798   4.619   6.416  0.6012  0.0794  0.4068
 2791SOL    HW120009   3.709   4.636   6.387  1.0879  1.8657 -0.0406
 2791SOL    HW220010   3.777   4.599   6.507 -0.4171 -0.7556 -0.0230
 2792SOL     OW20011   0.585   2.734   2.763 -0.0312  0.1001  0.5452
 2792SOL    HW120012   0.529   2.763   2.691 -0.4605 -0.0767  0.8038
 2792SOL    HW220013   0.655   2.798   2.747  1.0525 -0.5927  2.4513
 2793SOL     OW20014   3.783   0.601   8.234  0.4039 -0.4393 -0.0703
 2793SOL    HW120015   3.782   0.524   8.178  0.3704  1.1684 -2.2693
 2793SOL    HW220016   3.779   0.670   8.168 -0.7157  0.4977  0.9693
 2794SOL     OW20017   4.083   2.786  10.873 -0.2627  0.0187 -0.1756
 2794SOL    HW120018   4.089   2.826  10.959  2.1946 -1.2655  0.2598
 2794SOL    HW220019   4.056   2.866  10.827  1.2873 -1.9794 -4.6215
 2795SOL     OW20020   1.399   0.653  15.549  0.8940  0.2637 -0.1654
 2795SOL    HW120021   1.352   0.635  15.630 -1.0995  2.1044 -0.9055
 2795SOL    HW220022   1.411   0.559  15.534  1.2983  0.4577 -1.1017
 2796SOL     OW20023   1.957   0.413   5.175 -0.0703  0.9958 -0.2897
 2796SOL    HW120024   1.914   0.483   5.224 -2.8763 -1.2613  0.4639
 2796SOL    HW220025   2.038   0.400   5.225  0.5819 -0.7771 -1.8347
 2797SOL     OW20026   4.530   3.792   9.510 -0.2556  0.7654 -0.2392
 2797SOL    HW120027   4.485   3.866   9.468 -2.0843  0.9815  2.1258
 2797SOL    HW220028   4.619   3.790   9.475  0.2900  1.4029  1.1177
 2798SOL     OW20029   1.796   0.710   2.399  0.1201 -0.4879  0.0562
 2798SOL    HW120030   1.885   0.687   2.373  0.2157 -0.6025  0.4847
 2798SOL    HW220031   1.798   0.804   2.416  3.2373 -0.4227 -0.7521
 2799SOL     OW20032   3.364   2.274   3.289 -0.2114  0.3631 -0.2304
 2799SOL    HW120033   3.372   2.185   3.325  0.7053  0.2626 -0.6767
 2799SOL    HW220034   3.444   2.286   3.238 -0.1585  1.4939  0.1193
 2800SOL     OW20035   0.179   1.087  12.340 -0.4288  0.2171  0.0637
 2800SOL    HW120036   0.262   1.130  12.318  0.7532 -3.1965 -1.9571
 2800SOL    HW220037   0.206   1.004  12.378  1.4751  1.0967  0.6155
 2801SOL     OW20038   2.486   1.209   1.169  0.4676 -0.2568  0.3138
 2801SOL    HW120039   2.554   1.226   1.235  1.9125  2.9246 -2.0042
 2801SOL    HW220040   2.534   1.183   1.091 -0.5198 -1.5350  0.1248
 2802SOL     OW20041   1.343   0.717   3.702 -0.5773 -0.1925 -0.0769
 2802SOL    HW120042   1.307   0.715   3.791 -0.0426 -1.1985  0.1079
 2802SOL    HW220043   1.306   0.803   3.682  2.2284  1.1508  0.5027
 2803SOL     OW20044   1.765   4.265   3.585  0.0537  0.2139 -0.1108
 2803SOL    HW120045   1.851   4.242   3.621 -0.3240 -0.8422  0.1391
 2803SOL    HW220046   1.761   4.199   3.516 -0.8901 -0.2911  0.4176
 2804SOL     OW20047   2.083   4.549   5.057 -0.3186  0.3798 -0.1630
 2804SOL    HW120048   2.033   4.579   4.981  1.6055  1.0681 -1.1774
 2804SOL    HW220049   2.166   4.597   5.054 -0.2571  0.2570 -0.4293
 2805SOL     OW20050   1.777   3.201   6.089 -0.3342  0.4327  0.0420
 2805SOL    HW120051   1.820   3.255   6.023  1.5545 -2.7300 -1.3172
 2805SOL    HW220052   1.818   3.115   6.075 -1.6437 -0.4686  1.7388
 2806SOL     OW20053   3.412   1.334   6.746 -0.1261 -0.0638 -0.3116
 2806SOL    HW120054   3.405   1.429   6.732  2.1416  0.2234  0.4011
 2806SOL    HW220055   3.322   1.305   6.762 -0.3739  0.5247 -0.6288
 2807SOL     OW20056   2.310   0.123  14.147  0.2397 -0.2995 -0.2471
 2807SOL    HW120057   2.277   0.131  14.058 -2.4905  0.6561  0.8636
 2807SOL    HW220058   2.362   0.043  14.141  0.9973  0.1276  0.5545
 2808SOL     OW20059   3.274   0.625   9.148 -0.3788 -0.0155 -0.0272
 2808SOL    HW120060   3.224   0.551   9.113  0.3422  0.5881 -2.3048
 2808SOL    HW220061   3.234   0.613   9.234 -0.6535  0.2398 -0.1205
 2809SOL     OW20062   3.046   0.083   6.771  0.1445 -0.0417  0.2697
 2809SOL    HW120063   3.028   0.164   6.723  3.6295  0.1027 -0.7928
 2809SOL    HW220064   2.994   0.106   6.848 -2.0860 -1.2757 -0.8741
 2810SOL     OW20065   3.307   2.571  15.319  0.5103 -0.0262 -0.3256
 2810SOL    HW120066   3.352   2.494  15.285  0.8051 -0.5310  1.2426
 2810SOL    HW220067   3.301   2.629  15.243 -1.5190 -1.2581 -1.1382
 2811SOL     OW20068   0.789   3.758  12.098 -0.1695  0.1733  0.0125
 2811SOL    HW120069   0.754   3.709  12.024 -0.6064  0.7630 -0.1743
 2811SOL    HW220070   0.875   3.755  12.056 -1.1264 -1.2064 -1.8548
 2812SOL     OW20071   1.374   1.926   4.192  0.1602  0.8836 -0.8530
 2812SOL    HW120072   1.313   1.987   4.233  0.5431 -0.1857  1.2852
 2812SOL    HW220073   1.352   1.843   4.234 -1.2591  1.0020 -1.3514
 2813SOL     OW20074   1.653   3.512   3.794 -0.2087 -0.1463 -0.0074
 2813SOL    HW120075   1.568   3.530   3.754 -0.0397  1.0970  0.1795
 2813SOL    HW220076   1.696   3.447   3.738  0.9189  0.4038  0.2114
 2814SOL     OW20077   1.965   4.431   2.218  0.2664 -0.0516  0.1192
 2814SOL    HW120078   2.050   4.385   2.220  0.0691 -0.3773  1.4686
 2814SOL    HW220079   1.957   4.459   2.127  0.1645  1.5187  0.6204
 2815SOL     OW20080   0.016   3.676   5.313  0.2045 -0.1906  0.2255
 2815SOL    HW120081   4.697   3.752   5.315  0.6614  0.1431  1.0754
 2815SOL    HW220082   4.692   3.609   5.339  0.3692 -1.0256 -1.5546
 2816SOL     OW20083   2.354   4.681   5.133 -0.7455 -0.0882  0.4105
 2816SOL    HW120084   2.337   0.036   5.138  2.0317  0.2783  3.0484
 2816SOL    HW220085   2.380   4.666   5.042  0.4179 -1.3093  0.9555
 2817SOL     OW20086   3.956   0.886   6.797  0.2633 -0.2389  0.1572
 2817SOL    HW120087   3.962   0.965   6.743 -0.1148  0.9213  1.8506
 2817SOL    HW220088   4.018   0.906   6.866 -1.2661  0.5877  1.2714
 2818SOL     OW20089   0.547   0.221   0.966 -0.2910 -0.3229  0.3624
 2818SOL    HW120090   0.621   0.201   1.024 -0.2925  1.8224  1.0911
 2818SOL    HW220091   0.588   0.300   0.930  1.2332 -0.4308  1.8349
 2819SOL     OW20092   4.187   3.073   3.094 -0.4583 -0.3504 -0.4611
 2819SOL    HW120093   4.201   2.984   3.063  1.1914 -0.2379 -0.0267
 2819SOL    HW220094   4.097   3.097   3.071 -0.5213 -1.3915 -1.2991
 2820SOL     OW20095   3.084   4.439   6.482  0.7100  0.1249 -0.7907
 2820SOL    HW120096   3.114   4.525   6.453 -1.3541  0.4475 -2.0104
 2820SOL    HW220097   3.142   4.428   6.557 -0.4364  2.4171  0.4360
 2821SOL     OW20098   0.178   3.734  13.707 -0.5545  0.3093 -0.4195
 2821SOL    HW120099   0.210   3.730  13.616 -0.8531  0.4788 -0.5321
 2821SOL    HW220100   0.086   3.754  13.692 -0.4085  1.4056  0.2123
 2822SOL     OW20101   2.837   3.468   9.521 -0.6632 -0.0749  0.2862
 2822SOL    HW120102   2.750   3.445   9.488 -0.6067 -2.6636  2.0174
 2822SOL    HW220103   2.873   3.381   9.536  1.0441  1.0470  2.6471
 2823SOL     OW20104   3.656   1.719  13.540 -0.5234 -0.0962 -0.0747
 2823SOL    HW120105   3.649   1.639  13.488  1.2113  1.7734 -3.1364
 2823SOL    HW220106   3.723   1.701  13.606  0.9423  1.9644 -1.0222
 2824SOL     OW20107   3.795   4.496  14.192  0.3170 -0.3347  0.1836
 2824SOL    HW120108   3.718   4.493  14.135  0.2033  4.0432  0.1194
 2824SOL    HW220109   3.787   4.408  14.229 -1.2984  0.3900  1.5837
 2825SOL     OW20110   0.322   2.916   7.202 -0.1436 -0.2373 -0.2500
 2825SOL    HW120111   0.343   2.867   7.281  0.5093  0.3308 -0.0742
 2825SOL    HW220112   0.375   2.995   7.214 -1.4372  0.3273  1.6605
 2826SOL     OW20113   2.698   3.275   4.761  0.2503 -0.0997  0.0707
 2826SOL    HW120114   2.674   3.320   4.842 -0.6506  1.8446 -1.2851
 2826SOL    HW220115   2.639   3.325   4.706 -0.4190 -0.6342  0.3079
 2827SOL     OW20116   3.828   2.153  12.084  0.3320 -0.0968  0.0421
 2827SOL    HW120117   3.862   2.077  12.131  2.3012 -0.0905 -1.3524
 2827SOL    HW220118   3.806   2.112  12.000 -2.3269  0.2495  0.5688
 2828SOL     OW20119   3.159   0.147   6.107  0.4444 -0.2293  0.1524
 2828SOL    HW120120   3.075   0.147   6.061  0.0582 -1.3282  0.8551
 2828SOL    HW220121   3.142   0.227   6.158  1.9123 -0.0156  0.3174
 2829SOL     OW20122   1.751   0.096  17.558 -0.7898 -0.0156  0.3551
 2829SOL    HW120123   1.782   0.186  17.552 -1.6741  0.2440 -0.3914
 2829SOL    HW220124   1.673   0.109  17.611 -1.1974 -0.6047 -0.1024
 2830SOL     OW20125   0.250   3.065   7.877  0.6768 -0.4309  0.0378
 2830SOL    HW120126   0.256   3.159   7.889  0.7318 -0.4737  0.3387
 2830SOL    HW220127   0.188   3.035   7.944  2.1509  0.3774  1.7520
 2831SOL     OW20128   4.054   2.573   6.339  0.1816 -0.1108  0.4906
 2831SOL    HW120129   3.971   2.528   6.323  1.4068 -2.6986  1.4129
 2831SOL    HW220130   4.115   2.500   6.327  1.0708  0.9123 -1.2854
 2832SOL     OW20131   3.864   0.619   6.756  0.4726 -0.5993  0.1844
 2832SOL    HW120132   3.885   0.711   6.771 -0.3793 -0.8380  2.7104
 2832SOL    HW220133   3.831   0.621   6.666 -0.8274 -0.3856  0.6682
 2833SOL     OW20134   3.380   0.210   8.596  0.7473 -0.3007  0.6162
 2833SOL    HW120135   3.383   0.232   8.503  3.2843 -1.4408  0.4266
 2833SOL    HW220136   3.306   0.266   8.619 -1.2592 -2.5100 -0.3644
 2834SOL     OW20137   4.491   0.056   3.585  0.1544 -0.2974  0.1471
 2834SOL    HW120138   4.411   0.007   3.567 -0.0234  0.3647 -0.9030
 2834SOL    HW220139   4.475   0.072   3.678  1.1576  0.7804  0.1474
 2835SOL     OW20140   1.689   4.280   0.426 -0.3193 -0.0271  0.2448
 2835SOL    HW120141   1.726   4.304   0.341  1.2298 -2.2281  0.2988
 2835SOL    HW220142   1.763   4.300   0.483  0.3100 -1.2261 -0.1626
 2836SOL     OW20143   4.288   1.145   3.335  0.6078 -0.1854  0.0497
 2836SOL    HW120144   4.202   1.176   3.364  0.6951  1.3836 -1.3463
 2836SOL    HW220145   4.317   1.105   3.417 -0.1516  0.1221  0.4682
 2837SOL     OW20146   0.290   1.768   1.372  0.0501 -0.1795  0.0822
 2837SOL    HW120147   0.359   1.702   1.363  0.6025  0.7528 -2.3130
 2837SOL    HW220148   0.320   1.815   1.295 -4.0778  0.0660 -1.3500
 2838SOL     OW20149   2.794   0.684   0.608  0.1329  0.3619 -0.0310
 2838SOL    HW120150   2.800   0.769   0.564 -0.5795  0.3981 -0.0555
 2838SOL    HW220151   2.704   0.654   0.593  0.3246 -0.1853 -0.0787
 2839SOL     OW20152   2.406   4.223   6.520 -0.3571  0.2826 -0.5818
 2839SOL    HW120153   2.482   4.218   6.461 -0.0472 -0.5934 -0.0998
 2839SOL    HW220154   2.339   4.254   6.459  0.4599  3.2694 -0.0111
 2840SOL     OW20155   3.377   2.991  10.644 -0.1585  0.2820 -0.4665
 2840SOL    HW120156   3.380   2.998  10.548  2.1345 -1.8144 -0.5675
 2840SOL    HW220157   3.352   3.076  10.681 -0.7798  0.5182 -1.4457
 2841SOL     OW20158   3.762   4.211   1.926  0.1862  0.6150  0.6870
 2841SOL    HW120159   3.677   4.168   1.922 -0.0055  0.8546  1.9386
 2841SOL    HW220160   3.826   4.141   1.914 -1.7636 -1.0900  0.1532
 2842SOL     OW20161   0.059   2.264   8.024 -0.3261 -0.3369 -0.4406
 2842SOL    HW120162   0.133   2.315   7.991 -2.0561  1.4519 -1.5985
 2842SOL    HW220163   0.077   2.191   7.965  0.6226  1.0864 -1.9046
 2843SOL     OW20164   2.308   2.600  14.766 -0.0208 -0.5018 -0.4157
 2843SOL    HW120165   2.350   2.517  14.747 -1.5222 -0.7939 -2.4832
 2843SOL    HW220166   2.330   2.662  14.696  1.4834 -1.9903 -1.2453
 2844SOL     OW20167   3.814   2.478   5.900 -0.5085 -0.1128 -0.5709
 2844SOL    HW120168   3.734   2.509   5.943 -0.9649 -2.3539  0.2012
 2844SOL    HW220169   3.783   2.491   5.810 -1.2366  1.6849 -0.0508
 2845SOL     OW20170   2.334   1.286   1.588  0.0563 -0.3665 -0.2995
 2845SOL    HW120171   2.405   1.290   1.652 -0.2619 -0.1239  0.0377
 2845SOL    HW220172   2.261   1.285   1.650  0.2108  1.1395 -0.0837
 2846SOL     OW20173   3.382   2.516  17.613  0.1521 -0.0502  0.2689
 2846SOL    HW120174   3.298   2.498  17.570 -0.2907 -1.8923  1.9279
 2846SOL    HW220175   3.369   2.457  17.687  1.0749  0.6571  0.9968
 2847SOL     OW20176   3.610   0.422  12.850  0.4858 -0.2165  0.1747
 2847SOL    HW120177   3.533   0.391  12.897 -1.1258 -0.7597 -2.8529
 2847SOL    HW220178   3.622   0.362  12.776 -1.3404 -0.2912 -0.0383
 2848SOL     OW20179   2.782   0.820   3.390  0.0287 -0.3350  0.6949
 2848SOL    HW120180   2.688   0.832   3.406 -0.2716  1.0381 -2.0765
 2848SOL    HW220181   2.791   0.863   3.305 -0.3034 -0.0366  0.8114
 2849SOL     OW20182   3.834   4.512  10.897  0.1026  0.1262 -0.3060
 2849SOL    HW120183   3.882   4.430  10.889 -1.3539 -0.7504 -0.0325
 2849SOL    HW220184   3.845   4.557  10.813 -0.3015 -0.7979 -0.8566
 2850SOL     OW20185   0.659   3.758   8.120  0.9124 -0.5069 -0.5032
 2850SOL    HW120186   0.576   3.733   8.079  0.7467 -0.7764  0.0001
 2850SOL    HW220187   0.651   3.853   8.131 -1.0139 -0.7290  0.0518
 2851SOL     OW20188   3.383   4.590   9.110  0.7384  0.3182 -0.1902
 2851SOL    HW120189   3.294   4.591   9.145  0.0949 -1.0097 -1.7937
 2851SOL    HW220190   3.400   4.684   9.120 -1.0661  0.8131 -1.8307
 2852SOL     OW20191   1.470   4.440   1.562 -0.7807 -0.0910 -0.2176
 2852SOL    HW120192   1.536   4.429   1.493 -0.6678 -0.0978 -0.1084
 2852SOL    HW220193   1.525   4.427   1.639 -1.3599 -3.8053 -0.4268
 2853SOL     OW20194   4.201   4.541   3.151 -0.8275  0.3381 -0.5613
 2853SOL    HW120195   4.204   4.462   3.205 -4.6418  0.9359  0.4375
 2853SOL    HW220196   4.115   4.576   3.170 -1.5372 -0.3210 -2.5206
 2854SOL     OW20197   3.605   1.614  15.722 -0.2348 -0.3761  0.0834
 2854SOL    HW120198   3.518   1.650  15.741 -0.2958 -1.0089  1.0064
 2854SOL    HW220199   3.613   1.533  15.773 -0.0965  0.9748  2.2507
 2855SOL     OW20200   0.498   2.489   7.047  0.3467  0.2570 -0.1046
 2855SOL    HW120201   0.444   2.426   7.094  1.8778 -0.1790  1.0564
 2855SOL    HW220202   0.479   2.460   6.958 -1.4451 -2.2716  1.1066
 2856SOL     OW20203   3.143   1.754   0.537 -0.5941 -0.2222 -0.1913
 2856SOL    HW120204   3.206   1.684   0.552 -0.2859  0.9429  3.8635
 2856SOL    HW220205   3.090   1.737   0.615 -1.3005  0.4653 -0.5170
 2857SOL     OW20206   3.960   2.989   3.854 -0.1578 -0.8261 -0.1453
 2857SOL    HW120207   4.049   3.015   3.876 -0.4408 -1.2191  1.4497
 2857SOL    HW220208   3.933   2.980   3.945 -1.0386  0.8782 -0.2374
 2858SOL     OW20209   2.670   4.030   2.999 -0.3328 -0.5312  0.1495
 2858SOL    HW120210   2.678   3.994   2.910 -1.0234  0.0259 -0.1411
 2858SOL    HW220211   2.582   4.067   2.996 -0.0814  0.0223 -0.4858
 2859SOL     OW20212   2.589   3.429   8.970  0.6441 -0.8920 -0.0046
 2859SOL    HW120213   2.590   3.508   9.024  0.9861  0.2665 -1.7204
 2859SOL    HW220214   2.682   3.409   8.963  0.7852 -0.0225 -0.5796
 2860SOL     OW20215   2.663   3.969  17.073 -0.2632 -0.1697 -0.3124
 2860SOL    HW120216   2.636   4.023  16.999 -0.6961 -1.0203 -0.7634
 2860SOL    HW220217   2.676   4.033  17.143  1.7353 -1.7104  0.7414
 2861SOL     OW20218   4.455   2.597  17.201 -0.1204  0.5717  0.2352
 2861SOL    HW120219   4.447   2.523  17.140  2.6017 -0.2045  0.8304
 2861SOL    HW220220   4.362   2.610  17.220 -0.7838  0.3467 -2.7862
 2862SOL     OW20221   1.337   2.312   3.283 -0.5016  0.1824 -0.2210
 2862SOL    HW120222   1.311   2.281   3.370  1.5329  0.5779  0.5445
 2862SOL    HW220223   1.408   2.252   3.261  1.2271  0.9676  3.1254
 2863SOL     OW20224   1.931   0.952   2.262  0.5615 -0.1027 -0.2959
 2863SOL    HW120225   1.963   1.032   2.219 -0.4741  0.4038 -0.1156
 2863SOL    HW220226   1.882   0.903   2.197 -1.8119  1.1638  0.5416
 2864SOL     OW20227   4.689   2.666   7.676  0.1776 -0.0542  0.3407
 2864SOL    HW120228   0.035   2.624   7.671 -0.8552 -2.0733  0.0176
 2864SOL    HW220229   4.710   2.759   7.685  1.6560 -0.3882  0.3044
 2865SOL     OW20230   2.590   3.813   8.694 -0.4793  0.1049  0.2745
 2865SOL    HW120231   2.598   3.823   8.789 -0.1106 -2.0337  0.4564
 2865SOL    HW220232   2.535   3.735   8.689 -0.3519  0.2075 -2.3876
 2866SOL     OW20233   1.086   0.801  15.920  0.0130  0.0692 -0.0755
 2866SOL    HW120234   1.140   0.879  15.917  1.4259 -0.7934  2.5587
 2866SOL    HW220235   1.136   0.746  15.981 -0.5621 -0.6090 -0.2116
 2867SOL     OW20236   0.179   2.944   8.609  0.0582 -0.0485  0.4231
 2867SOL    HW120237   0.197   2.945   8.703  1.6642  0.0238  0.1275
 2867SOL    HW220238   0.229   2.872   8.569 -0.3119  0.1244 -0.3590
 2868SOL     OW20239   0.485   1.625   7.820  0.0018 -0.2279  0.0202
 2868SOL    HW120240   0.396   1.642   7.788  0.1523 -0.0922 -0.3359
 2868SOL    HW220241   0.507   1.704   7.869 -0.3605 -0.6200  0.8066
 2869SOL     OW20242   2.314   0.586   4.423  0.1490 -0.2861  0.3562
 2869SOL    HW120243   2.361   0.503   4.434  0.0150 -0.7552 -2.7320
 2869SOL    HW220244   2.241   0.572   4.363 -0.0611  2.5620 -0.0284
 2870SOL     OW20245   3.406   2.264   6.966  0.7820  0.7011  0.0210
 2870SOL    HW120246   3.362   2.335   6.919 -1.3904 -1.1053 -0.6516
 2870SOL    HW220247   3.325   2.216   6.981  0.6092  1.2810  0.9752
 2871SOL     OW20248   0.284   0.322   2.919 -0.9163  0.2013 -0.0642
 2871SOL    HW120249   0.190   0.312   2.935 -0.2543 -3.1211  1.8486
 2871SOL    HW220250   0.325   0.238   2.900 -2.3310 -0.5996  0.4642
 2872SOL     OW20251   4.254   0.918   7.400  0.3208 -0.0922  0.5908
 2872SOL    HW120252   4.325   0.875   7.447  0.1812  0.3884  1.2515
 2872SOL    HW220253   4.182   0.861   7.426 -0.0043  1.4045  2.9630
 2873SOL     OW20254   4.181   3.627   1.618 -0.5545 -0.1319  0.7616
 2873SOL    HW120255   4.174   3.565   1.544 -1.4269  2.1126 -1.0346
 2873SOL    HW220256   4.231   3.697   1.576  0.5760  0.0481  2.4625
 2874SOL     OW20257   1.434   2.905   8.803  0.2647  0.5364 -0.8905
 2874SOL    HW120258   1.374   2.971   8.768 -0.9075  0.2714  0.5849
 2874SOL    HW220259   1.443   2.844   8.731  0.5953 -1.1636  0.5938
 2875SOL     OW20260   4.540   3.908   0.131  0.4642  0.2298  0.0581
 2875SOL    HW120261   4.578   3.980   0.080  0.7795  0.2012  0.2554
 2875SOL    HW220262   4.499   3.964   0.197 -2.0874 -1.9062  0.2937
 2876SOL     OW20263   1.622   3.021   4.671 -0.6747 -0.2021 -0.7055
 2876SOL    HW120264   1.548   3.048   4.726  1.2267  1.8226  0.8537
 2876SOL    HW220265   1.616   3.097   4.614 -1.3074  0.2017 -0.1018
 2877SOL     OW20266   3.647   4.623  10.231 -0.0069  0.1690 -0.1802
 2877SOL    HW120267   3.569   4.669  10.262  0.1911 -1.4107  2.7028
 2877SOL    HW220268   3.622   4.602  10.141 -0.6235 -3.0128  0.7341
 2878SOL     OW20269   4.026   2.396  17.080  0.3443  0.0215  0.2494
 2878SOL    HW120270   4.064   2.482  17.062 -2.5582  1.0439 -1.0014
 2878SOL    HW220271   3.934   2.403  17.052  0.3717 -1.1003 -0.1492
 2879SOL     OW20272   2.607   2.477   3.777  0.0889  0.2397 -0.1561
 2879SOL    HW120273   2.607   2.390   3.737  1.9342  0.0096  0.3340
 2879SOL    HW220274   2.599   2.536   3.702 -1.8709  0.7453  0.4527
 2880SOL     OW20275   0.746   0.379  10.451  0.1520 -0.1877  0.1429
 2880SOL    HW120276   0.733   0.286  10.469 -0.4374  0.1605  1.5678
 2880SOL    HW220277   0.697   0.389  10.370  0.4247  0.4042  0.0543
 2881SOL     OW20278   4.425   0.734   8.452 -0.1365 -0.1335 -0.8380
 2881SOL    HW120279   4.465   0.684   8.380  2.9585  1.9444 -0.5624
 2881SOL    HW220280   4.378   0.664   8.498 -0.2781  0.2050 -0.4697
 2882SOL     OW20281   0.992   2.284   8.301  0.0927  0.4304 -0.1108
 2882SOL    HW120282   1.074   2.234   8.308 -0.2670  0.0085  1.0095
 2882SOL    HW220283   1.008   2.355   8.363  0.6186 -0.5921  0.9276
 2883SOL     OW20284   1.648   2.118   5.368  0.1351 -0.3215 -0.2856
 2883SOL    HW120285   1.740   2.122   5.392  0.6135  2.2660 -2.5685
 2883SOL    HW220286   1.651   2.152   5.279  0.7453 -0.3651 -0.2775
 2884SOL     OW20287   2.188   0.614   9.141 -0.4358  0.0309 -0.3278
 2884SOL    HW120288   2.266   0.613   9.197  0.3651  0.3074 -1.4421
 2884SOL    HW220289   2.203   0.529   9.100  0.6257  0.8241 -1.5754
 2885SOL     OW20290   2.868   2.218   5.647 -0.0681 -0.3992  0.3093
 2885SOL    HW120291   2.890   2.300   5.602 -0.7397 -1.3161 -1.7105
 2885SOL    HW220292   2.946   2.163   5.656 -0.3693 -0.4995  2.4018
 2886SOL     OW20293   0.201   4.201   8.368 -0.0830 -0.1323 -0.1227
 2886SOL    HW120294   0.149   4.126   8.396 -0.6684  0.6095  0.7847
 2886SOL    HW220295   0.202   4.178   8.275 -0.4946  1.1854 -0.4544
 2887SOL     OW20296   2.096   3.573  17.735  0.2573  0.0133  0.1326
 2887SOL    HW120297   2.007   3.579   0.014  0.3618  1.3199  0.2002
 2887SOL    HW220298   2.097   3.505  17.668  0.7510  0.6506 -0.5192
 2888SOL     OW20299   3.643   2.766   4.393  0.2154  0.5053 -0.1761
 2888SOL    HW120300   3.678   2.761   4.304 -0.3326  1.8538 -0.4611
 2888SOL    HW220301   3.627   2.859   4.405  0.8404  0.6218 -0.2380
 2889SOL     OW20302   4.588   2.317   2.487  0.0707  0.3391 -0.0106
 2889SOL    HW120303   4.622   2.311   2.577 -0.5638  1.0142  0.2743
 2889SOL    HW220304   4.509   2.263   2.488 -1.1334  2.0805 -1.0975
 2890SOL     OW20305   1.185   2.373   8.823 -0.0395  0.2211  0.3191
 2890SOL    HW120306   1.208   2.425   8.746 -0.7675  0.0958  0.0133
 2890SOL    HW220307   1.247   2.404   8.889 -0.0943 -1.4507  1.1697
 2891SOL     OW20308   3.468   0.509   6.815 -0.2789 -0.3267 -0.0565
 2891SOL    HW120309   3.539   0.548   6.866  0.7690  0.0321 -1.7544
 2891SOL    HW220310   3.424   0.484   6.896  0.1626  0.9704  0.5782
 2892SOL     OW20311   3.637   0.187   8.703  0.3070 -0.0313 -0.2849
 2892SOL    HW120312   3.643   0.101   8.746  1.1518  1.9408  3.5273
 2892SOL    HW220313   3.543   0.189   8.686  0.3150  0.7678 -0.2130
 2893SOL     OW20314   2.533   3.080   8.231 -0.3016 -0.0481  0.2320
 2893SOL    HW120315   2.623   3.054   8.215  0.0548  2.6675 -2.2584
 2893SOL    HW220316   2.505   3.027   8.306 -0.3238  0.9602  0.9380
 2894SOL     OW20317   0.614   3.812   1.747  0.0238  0.2290  0.1193
 2894SOL    HW120318   0.556   3.846   1.679  0.1933 -0.2011 -0.2436
 2894SOL    HW220319   0.554   3.759   1.801 -2.0043  2.1961 -0.2031
 2895SOL     OW20320   1.634   0.446   2.376 -0.1857  0.2370  0.6466
 2895SOL    HW120321   1.694   0.519   2.394 -0.7973  0.4394  1.8370
 2895SOL    HW220322   1.625   0.466   2.283  0.6834  0.0233  0.5169
 2896SOL     OW20323   3.678   3.529  13.170  0.1507 -0.4827  0.0389
 2896SOL    HW120324   3.622   3.514  13.247 -1.2296  1.6448 -0.5569
 2896SOL    HW220325   3.637   3.461  13.116  3.0412 -1.4779 -0.8690
 2897SOL     OW20326   2.296   0.743   6.924 -0.0045  1.1170  0.3370
 2897SOL    HW120327   2.222   0.800   6.900  0.9739  3.1591  2.1644
 2897SOL    HW220328   2.354   0.769   6.852 -0.3380 -0.4266 -0.4821
 2898SOL     OW20329   2.454   4.148   2.402 -0.0146  0.3732  0.1345
 2898SOL    HW120330   2.367   4.122   2.374  0.5179  0.3566 -1.5161
 2898SOL    HW220331   2.494   4.118   2.320 -1.8794  0.5313 -0.8121
 2899SOL     OW20332   0.788   3.865  12.336  0.5742  0.0601  0.8978
 2899SOL    HW120333   0.791   3.810  12.258  0.1497 -0.3109  1.1423
 2899SOL    HW220334   0.711   3.917  12.314  1.3794  1.3858  1.1823
 2900SOL     OW20335   0.151   1.478   7.740  0.1006 -0.0967 -0.4472
 2900SOL    HW120336   0.189   1.444   7.821 -0.2877 -0.2752 -0.3393
 2900SOL    HW220337   0.092   1.406   7.720  1.6581 -2.2300  2.6749
 2901SOL     OW20338   0.611   1.011  17.598  0.5646  0.4010 -0.0078
 2901SOL    HW120339   0.660   1.008  17.681  0.1382  0.1792  0.2370
 2901SOL    HW220340   0.654   1.077  17.544 -0.2861 -0.2892 -1.5220
 2902SOL     OW20341   0.670   3.817   9.898  0.2790 -0.1695 -0.1091
 2902SOL    HW120342   0.672   3.805   9.993  0.1922 -1.9823 -0.3396
 2902SOL    HW220343   0.754   3.863   9.894  0.1883 -0.0875 -1.0885
 2903SOL     OW20344   1.801   2.747  12.786  0.2934 -0.3420  0.1470
 2903SOL    HW120345   1.762   2.768  12.871  0.8456  1.6620 -0.1103
 2903SOL    HW220346   1.750   2.808  12.733 -1.3985 -0.7909  1.2476
 2904SOL     OW20347   3.908   4.040  14.986  0.3735  0.3918  0.2686
 2904SOL    HW120348   3.841   4.017  15.051 -0.9288  0.6171 -0.9966
 2904SOL    HW220349   3.869   4.005  14.907 -0.2092  0.4403  0.5360
 2905SOL     OW20350   1.747   1.758   4.455 -0.2290 -0.1415  0.3637
 2905SOL    HW120351   1.692   1.835   4.466 -0.1433  0.1677 -1.3371
 2905SOL    HW220352   1.772   1.728   4.542  1.2761 -0.9674 -0.3417
 2906SOL     OW20353   3.722   1.279   4.347 -0.1799 -0.3641  0.2322
 2906SOL    HW120354   3.786   1.321   4.404  2.7181 -3.3658 -0.8126
 2906SOL    HW220355   3.714   1.358   4.295 -0.9953 -0.8041 -0.3040
 2907SOL     OW20356   0.376   0.224  12.943  0.2403  0.5679 -0.0020
 2907SOL    HW120357   0.430   0.266  13.010 -0.2289 -2.1115  2.0783
 2907SOL    HW220358   0.296   0.251  12.987  0.1332  0.2812 -0.0169
 2908SOL     OW20359   1.154   0.162  11.290 -0.5654  0.2362 -0.1222
 2908SOL    HW120360   1.191   0.164  11.379  1.1272 -0.1223 -0.8156
 2908SOL    HW220361   1.066   0.135  11.317 -0.1825 -1.8111 -0.8814
 2909SOL     OW20362   4.739   0.707   5.196 -0.2364  0.4336 -0.1450
 2909SOL    HW120363   0.018   0.665   5.112 -0.3123 -1.6372  0.8597
 2909SOL    HW220364   0.087   0.740   5.214  0.3548 -0.9777 -0.4220
 2910SOL     OW20365   0.146   0.237   6.815  0.2486  0.6516  0.3612
 2910SOL    HW120366   0.097   0.293   6.875 -2.9101 -2.2225  0.4789
 2910SOL    HW220367   0.202   0.199   6.883  0.1809  0.1494  0.1425
 2911SOL     OW20368   2.530   2.950  11.801  0.2428 -0.0859 -0.1920
 2911SOL    HW120369   2.477   2.921  11.875 -0.3619 -0.3752 -0.7378
 2911SOL    HW220370   2.474   2.903  11.739  1.2082 -1.5383  0.0157
 2912SOL     OW20371   3.050   1.502  17.098  0.5265 -0.0621  0.3151
 2912SOL    HW120372   2.962   1.480  17.068  0.4126  1.3507 -0.3948
 2912SOL    HW220373   3.061   1.573  17.034  1.0455  1.1060  1.7204
 2913SOL     OW20374   0.937   2.332   2.488 -0.0326  0.1362 -0.4934
 2913SOL    HW120375   1.000   2.273   2.448  0.3215  1.1966 -1.5139
 2913SOL    HW220376   0.893   2.368   2.411 -0.1035  0.1702 -0.4372
 2914SOL     OW20377   1.353   4.696   5.534  0.1032  0.3226  0.0250
 2914SOL    HW120378   1.260   4.684   5.512 -0.1526 -2.0825  2.4739
 2914SOL    HW220379   1.396   4.696   5.448  0.6187  0.4166  0.2819
 2915SOL     OW20380   3.493   0.565   7.955 -0.1081  0.3747 -0.0667
 2915SOL    HW120381   3.466   0.572   8.047 -0.2727 -0.6791 -0.0329
 2915SOL    HW220382   3.587   0.580   7.964  0.4359 -3.6160  1.1106
 2916SOL     OW20383   0.100   0.952   1.666 -0.5367 -0.0151  0.4480
 2916SOL    HW120384   0.149   0.879   1.628 -0.0380 -0.4913  2.0023
 2916SOL    HW220385   0.166   1.021   1.676 -1.0279  0.3273  1.2853
 2917SOL     OW20386   2.397   3.474   9.210 -0.4236  0.4037  0.1031
 2917SOL    HW120387   2.435   3.486   9.298  2.9635  1.0900 -1.4316
 2917SOL    HW220388   2.403   3.379   9.200  0.4295  0.4055  0.5862
 2918SOL     OW20389   0.185   3.765   6.167  0.2734  0.3206 -0.6146
 2918SOL    HW120390   0.185   3.716   6.085  0.2688 -0.2286 -0.2909
 2918SOL    HW220391   0.275   3.747   6.192 -0.9058 -0.5276  3.0714
 2919SOL     OW20392   0.780   1.088  13.959 -0.3285  0.3962 -0.2169
 2919SOL    HW120393   0.789   1.180  13.983  1.0198  0.2122 -0.0210
 2919SOL    HW220394   0.693   1.075  13.995  0.5710 -1.5006  1.2208
 2920SOL     OW20395   2.652   1.977   0.256 -0.2919 -0.2660 -0.3312
 2920SOL    HW120396   2.674   1.901   0.309  1.2425 -0.2194 -0.8928
 2920SOL    HW220397   2.558   1.984   0.273 -0.2088  1.5497 -0.5997
 2921SOL     OW20398   1.536   2.743   7.550  0.5498 -0.2196 -0.3574
 2921SOL    HW120399   1.496   2.674   7.603  0.3487 -0.6789 -1.1181
 2921SOL    HW220400   1.581   2.686   7.488  1.9681 -1.7415  2.0819
 2922SOL     OW20401   3.026   1.010   1.362 -0.5467  0.6405 -0.0993
 2922SOL    HW120402   3.009   1.006   1.267  2.0608 -0.2173 -0.5278
 2922SOL    HW220403   2.938   0.993   1.394 -0.9178  2.8707  0.0912
 2923SOL     OW20404   2.038   1.233   4.760  0.5246 -0.2723 -0.0308
 2923SOL    HW120405   2.127   1.237   4.724  0.1270 -0.0844 -0.9994
 2923SOL    HW220406   2.054   1.235   4.854  0.7490 -0.6523 -0.0627
 2924SOL     OW20407   0.041   1.109   8.487 -0.8546  0.1269  0.5966
 2924SOL    HW120408   4.710   1.103   8.551 -1.9102  2.5570 -0.3537
 2924SOL    HW220409   4.734   1.143   8.410  0.6025  0.8747  0.0512
 2925SOL     OW20410   0.864   3.793  16.759 -0.2710  0.2273  0.0022
 2925SOL    HW120411   0.834   3.837  16.839  3.5466  0.7477  1.1604
 2925SOL    HW220412   0.811   3.713  16.763  0.7288 -0.3304  1.8311
 2926SOL     OW20413   2.262   1.537   5.784  0.4062 -0.0283 -0.3601
 2926SOL    HW120414   2.245   1.566   5.873 -2.3777 -0.7329 -0.6371
 2926SOL    HW220415   2.295   1.621   5.754  0.2614 -0.1846 -0.9557
 2927SOL     OW20416   1.940   4.618  16.963 -0.0300 -0.4503 -0.1252
 2927SOL    HW120417   1.930   4.669  17.043  1.2920 -0.3823 -0.0017
 2927SOL    HW220418   2.017   4.660  16.923 -0.1415  0.4179  0.5728
 2928SOL     OW20419   1.783   4.146   8.730  0.0851 -0.5718 -0.5724
 2928SOL    HW120420   1.731   4.074   8.695  1.7771 -2.5463  1.0300
 2928SOL    HW220421   1.769   4.122   8.821  0.4677 -2.2673 -0.9602
 2929SOL     OW20422   1.604   0.025  11.871  0.7851  0.2326 -0.2132
 2929SOL    HW120423   1.638   4.680  11.901  2.8980  0.9634 -0.5941
 2929SOL    HW220424   1.626   0.014  11.779 -2.7339 -1.4158 -0.8752
 2930SOL     OW20425   0.824   0.271   5.170  0.2512  0.7056  0.5312
 2930SOL    HW120426   0.768   0.292   5.095  0.1372 -1.2422  0.0586
 2930SOL    HW220427   0.904   0.303   5.128 -0.3921  1.1510 -0.3653
 2931SOL     OW20428   1.880   0.804  14.377  0.0451  0.1131  0.3352
 2931SOL    HW120429   1.786   0.816  14.360  0.1523 -0.5557 -0.7293
 2931SOL    HW220430   1.886   0.875  14.441  0.4435 -0.9116  1.4403
 2932SOL     OW20431   0.833   1.057   8.869  0.2025 -0.3709  0.2381
 2932SOL    HW120432   0.773   1.021   8.804  1.5396 -1.0939 -0.5867
 2932SOL    HW220433   0.773   1.109   8.924  0.1152  0.3615 -0.5450
 2933SOL     OW20434   3.379   4.216  14.368 -0.0130 -0.2527 -0.6356
 2933SOL    HW120435   3.454   4.157  14.377  1.6912  1.9955  0.0465
 2933SOL    HW220436   3.388   4.244  14.277 -0.2251  0.2858 -0.4882
 2934SOL     OW20437   4.106   4.484  11.856  0.0864 -0.0439 -0.2884
 2934SOL    HW120438   4.132   4.472  11.764  0.0035  1.2423 -0.4779
 2934SOL    HW220439   4.100   4.579  11.863  0.2720 -0.0759  0.2879
 2935SOL     OW20440   1.287   0.321   8.643  0.2445  0.3940 -0.1298
 2935SOL    HW120441   1.234   0.249   8.678 -0.3352  0.9322  0.1035
 2935SOL    HW220442   1.222   0.392   8.639 -0.2458  0.0421  1.6208
 2936SOL     OW20443   3.760   2.015   6.060  0.2154 -0.3018 -0.6279
 2936SOL    HW120444   3.850   2.035   6.032 -0.1269  5.8711  2.6724
 2936SOL    HW220445   3.735   1.969   5.980  0.8948 -0.0936 -0.9566
 2937SOL     OW20446   2.412   0.012   4.312 -0.0656 -0.1434  0.3989
 2937SOL    HW120447   2.439   4.705   4.392 -0.3791  2.7965  2.1846
 2937SOL    HW220448   2.443   0.103   4.315 -1.7038  0.4434 -0.7351
 2938SOL     OW20449   2.041   3.720   6.663  0.3018 -0.1962 -0.2338
 2938SOL    HW120450   1.972   3.698   6.601  1.2468 -0.9339 -1.0176
 2938SOL    HW220451   1.997   3.750   6.743  1.0272 -0.0709  0.1256
 2939SOL     OW20452   2.036   1.786  12.429  0.7082 -0.0398 -0.3531
 2939SOL    HW120453   2.128   1.764  12.416  0.7294  0.7910 -1.6236
 2939SOL    HW220454   2.050   1.864  12.483  1.3642 -0.6558  0.3603
 2940SOL     OW20455   0.811   1.864  12.075 -0.6385  0.4708  0.1090
 2940SOL    HW120456   0.838   1.949  12.041 -1.1597  0.3392 -0.6421
 2940SOL    HW220457   0.836   1.812  11.998 -0.6383 -1.3429  1.3271
 2941SOL     OW20458   4.473   1.086  13.021 -0.5059  0.2418 -0.2703
 2941SOL    HW120459   4.431   1.057  12.941 -1.3990  0.9449 -0.0618
 2941SOL    HW220460   4.428   1.035  13.088  0.6829 -1.1749 -0.5406
 2942SOL     OW20461   4.210   3.120  10.176  0.3722 -0.1472 -0.3069
 2942SOL    HW120462   4.171   3.149  10.258  1.7725  0.9657 -0.0302
 2942SOL    HW220463   4.140   3.062  10.147 -0.7106  1.4790 -0.9039
 2943SOL     OW20464   1.739   1.158  14.128 -0.2468 -0.1176  0.5255
 2943SOL    HW120465   1.718   1.132  14.217  0.6652  1.6253  1.2669
 2943SOL    HW220466   1.686   1.095  14.080 -0.3387 -1.2548  2.1167
 2944SOL     OW20467   3.894   3.060  15.025  0.1715 -0.0492 -0.2992
 2944SOL    HW120468   3.988   3.050  15.009  0.0219 -0.9831 -0.5568
 2944SOL    HW220469   3.884   2.986  15.085 -0.8241  1.7279  1.7378
 2945SOL     OW20470   4.708   3.673  17.423  0.1493  1.0848  0.8038
 2945SOL    HW120471   4.694   3.593  17.373  1.4675  0.4942  1.3784
 2945SOL    HW220472   4.737   3.636  17.507  1.3341  1.8336  0.7267
 2946SOL     OW20473   3.398   0.834   2.749 -0.4338  0.5940 -0.1090
 2946SOL    HW120474   3.481   0.863   2.711 -0.6266  0.1669 -0.8505
 2946SOL    HW220475   3.341   0.828   2.672  1.4048 -1.8331 -1.2847
 2947SOL     OW20476   3.228   4.509   7.379  0.1023 -0.2652  0.3047
 2947SOL    HW120477   3.261   4.468   7.299 -0.6030  1.1614 -0.7318
 2947SOL    HW220478   3.311   4.556   7.388  0.8279 -1.1050 -2.0025
 2948SOL     OW20479   1.239   3.919   6.355  0.8345  0.5857 -0.1853
 2948SOL    HW120480   1.227   3.918   6.260  3.8058  3.2683 -0.5719
 2948SOL    HW220481   1.168   3.861   6.383  0.3771  0.9084 -0.6934
 2949SOL     OW20482   2.386   4.239   5.953 -0.1433 -0.2729 -0.3057
 2949SOL    HW120483   2.424   4.327   5.959  1.5355 -0.9229 -1.2879
 2949SOL    HW220484   2.456   4.181   5.923  0.1012 -0.5258  0.7421
 2950SOL     OW20485   2.599   4.518   3.879  0.3384 -0.0935 -0.2066
 2950SOL    HW120486   2.534   4.478   3.936 -0.4082  0.6268 -0.5505
 2950SOL    HW220487   2.668   4.542   3.941  1.4963  0.0336 -1.5355
 2951SOL     OW20488   0.103   4.571   2.519  0.5751  0.3197  0.1351
 2951SOL    HW120489   0.010   4.556   2.505 -0.0993  2.1087  2.7641
 2951SOL    HW220490   0.112   4.666   2.526  3.7193  0.0770 -0.6745
 2952SOL     OW20491   0.760   3.081   1.567 -0.0522 -0.6999  0.0852
 2952SOL    HW120492   0.758   3.128   1.651 -0.5903 -0.3809 -0.1071
 2952SOL    HW220493   0.674   3.101   1.532 -0.9532  0.1344  2.7436
 2953SOL     OW20494   0.351   4.265   8.925  0.4381 -0.0932  0.0252
 2953SOL    HW120495   0.363   4.241   8.833 -0.8452 -0.9194  0.0794
 2953SOL    HW220496   0.442   4.284   8.949 -0.4280 -0.0922  3.3083
 2954SOL     OW20497   2.727   3.138   9.349  0.1260 -0.0902 -0.3697
 2954SOL    HW120498   2.771   3.123   9.433 -1.0296 -0.3573  0.1884
 2954SOL    HW220499   2.801   3.138   9.288 -0.1044 -0.7123 -0.6527
 2955SOL     OW20500   4.600   0.740  17.537  0.1949  0.1891 -0.3654
 2955SOL    HW120501   4.512   0.773  17.516  0.3546  1.1551  0.4905
 2955SOL    HW220502   4.656   0.801  17.489  1.9421 -0.1957  1.1850
 2956SOL     OW20503   1.806   1.615  11.429 -0.2078  0.0478  0.6927
 2956SOL    HW120504   1.722   1.658  11.413 -1.4672 -1.9768  1.8759
 2956SOL    HW220505   1.813   1.540  11.370  1.2826  1.8163 -1.3690
 2957SOL     OW20506   3.168   3.354   9.107 -0.1498  0.1523  0.0495
 2957SOL    HW120507   3.227   3.368   9.182  0.0285 -2.7313  0.4283
 2957SOL    HW220508   3.090   3.316   9.146 -0.2000  0.8680  0.6558
 2958SOL     OW20509   3.833   2.646   4.635 -0.1841  0.4449  0.5650
 2958SOL    HW120510   3.910   2.698   4.658  1.5658 -0.7682 -2.6401
 2958SOL    HW220511   3.819   2.680   4.546  1.1672  0.6614  0.4456
 2959SOL     OW20512   3.351   0.789   6.708  0.5463 -0.4001  0.1684
 2959SOL    HW120513   3.309   0.742   6.781 -1.4285  0.5945 -0.3178
 2959SOL    HW220514   3.340   0.882   6.731 -4.4671 -1.0877  0.5223
 2960SOL     OW20515   4.326   1.345   6.999 -0.2273 -0.3480  0.3339
 2960SOL    HW120516   4.266   1.417   6.976 -2.8783 -2.4620  0.6363
 2960SOL    HW220517   4.332   1.303   6.913  0.4740 -1.7735  1.0914
 2961SOL     OW20518   3.362   2.811   5.923  0.3274 -0.8796 -0.0095
 2961SOL    HW120519   3.417   2.818   6.001 -2.2535  1.7234  1.5749
 2961SOL    HW220520   3.289   2.867   5.949  0.2046 -0.7131 -0.7183
 2962SOL     OW20521   1.359   1.166  13.889  0.1933  0.1223 -0.2352
 2962SOL    HW120522   1.267   1.183  13.871  0.1111  0.1851  0.2355
 2962SOL    HW220523   1.345   1.072  13.881 -1.6335  0.1936  2.2390
 2963SOL     OW20524   1.327   0.222   3.621  0.4332  0.0788  0.2562
 2963SOL    HW120525   1.330   0.127   3.606  1.4403  0.5262 -2.3536
 2963SOL    HW220526   1.331   0.224   3.716 -2.5021  2.1597  0.3230
 2964SOL     OW20527   0.774   0.634  16.694  0.0696 -0.2269  0.5936
 2964SOL    HW120528   0.728   0.552  16.712 -4.4284  2.0742 -0.3410
 2964SOL    HW220529   0.827   0.602  16.621 -0.3220  0.4855 -0.0044
 2965SOL     OW20530   2.383   2.905   8.037  0.0418 -0.6225 -0.0137
 2965SOL    HW120531   2.414   2.979   8.090 -0.6454 -0.7550  0.5684
 2965SOL    HW220532   2.410   2.834   8.095 -0.3739 -1.7785 -1.2492
 2966SOL     OW20533   1.992   1.535   1.333 -0.3154  0.1440 -0.2406
 2966SOL    HW120534   2.041   1.455   1.350 -0.3348  0.2032  0.0824
 2966SOL    HW220535   1.910   1.505   1.295 -0.9663  0.8367  0.6002
 2967SOL     OW20536   2.200   4.702   7.167  0.5948 -0.5282  0.0325
 2967SOL    HW120537   2.156   4.633   7.216  1.8440 -0.2543  1.5115
 2967SOL    HW220538   2.156   0.037   7.209 -1.6998 -1.7242 -0.2600
 2968SOL     OW20539   2.357   3.590   0.004 -0.2174  0.4812  0.3859
 2968SOL    HW120540   2.263   3.598   0.019 -0.4500  0.1508 -0.8847
 2968SOL    HW220541   2.349   3.533  17.682 -0.2939 -0.8892  1.4120
 2969SOL     OW20542   2.578   3.643   3.384  0.0106 -0.6975  0.2472
 2969SOL    HW120543   2.513   3.650   3.315  1.6246  1.1096 -1.0795
 2969SOL    HW220544   2.625   3.726   3.379 -1.5464  0.1683  0.1318
 2970SOL     OW20545   2.799   4.488  16.254 -0.2433  0.4532 -0.1867
 2970SOL    HW120546   2.856   4.529  16.188  4.5604 -2.1604  2.3807
 2970SOL    HW220547   2.717   4.534  16.236  0.8407  1.2974 -2.9536
 2971SOL     OW20548   3.516   1.883   4.681 -0.5697 -0.1820  0.1136
 2971SOL    HW120549   3.479   1.958   4.635  0.4669  0.1903 -0.1190
 2971SOL    HW220550   3.554   1.834   4.608 -0.3139 -0.2353  0.2806
 2972SOL     OW20551   4.068   3.906   4.832 -0.0174 -0.3152  0.8820
 2972SOL    HW120552   3.995   3.949   4.788  2.5775  2.1445 -0.9872
 2972SOL    HW220553   4.032   3.901   4.921  1.2170 -3.1197  1.2400
 2973SOL     OW20554   3.007   3.293   3.928  0.1395  0.6843  0.2512
 2973SOL    HW120555   3.072   3.266   3.863  0.4353  0.3849  0.6690
 2973SOL    HW220556   3.010   3.229   3.999 -2.2487  0.7654  0.3968
 2974SOL     OW20557   1.560   4.280   4.289 -0.1144  0.3532  0.3638
 2974SOL    HW120558   1.557   4.191   4.325  0.1797  0.1460 -0.1268
 2974SOL    HW220559   1.653   4.302   4.282 -0.1430  0.2585 -0.3405
 2975SOL     OW20560   1.553   2.165   3.394 -0.2099 -0.0849  0.1880
 2975SOL    HW120561   1.558   2.170   3.490 -1.3544 -0.0124  0.2383
 2975SOL    HW220562   1.648   2.151   3.384 -0.0930 -0.8569  2.3594
 2976SOL     OW20563   2.021   2.613   6.127 -0.0929 -0.1956 -0.5888
 2976SOL    HW120564   1.974   2.611   6.043 -0.7078 -1.0652 -0.2224
 2976SOL    HW220565   2.111   2.627   6.100 -0.1419  0.2479 -0.5352
 2977SOL     OW20566   1.886   3.581   6.026 -0.7644  0.0446  0.4071
 2977SOL    HW120567   1.947   3.601   6.097 -1.4514  1.2672  0.6554
 2977SOL    HW220568   1.940   3.518   5.978  0.4853  0.2420  1.5528
 2978SOL     OW20569   1.899   2.695   6.383 -0.2207 -0.2663  0.9089
 2978SOL    HW120570   1.913   2.779   6.426  0.5757 -0.1698  0.4657
 2978SOL    HW220571   1.943   2.701   6.298  0.8392  0.6963  1.5295
 2979SOL     OW20572   2.965   3.511   4.508  0.5638  0.4458  0.2400
 2979SOL    HW120573   2.937   3.572   4.440  0.5725 -0.6587 -0.7562
 2979SOL    HW220574   2.993   3.575   4.573  3.8753  0.4305 -1.1466
 2980SOL     OW20575   3.188   1.732  16.066 -0.2459 -0.5920  0.3647
 2980SOL    HW120576   3.109   1.783  16.046 -0.7875 -0.8232  1.9313
 2980SOL    HW220577   3.161   1.681  16.143 -0.5879  1.2282  1.4425
 2981SOL     OW20578   2.011   4.102  17.033  0.4675  0.3143  0.3027
 2981SOL    HW120579   2.097   4.086  16.994 -0.0966  0.0711 -0.8292
 2981SOL    HW220580   1.962   4.135  16.958  0.1413 -2.1518 -0.5834
 2982SOL     OW20581   0.390   0.396   3.622  0.1992 -0.1071 -0.3520
 2982SOL    HW120582   0.345   0.409   3.538 -1.6244 -0.8842  0.5080
 2982SOL    HW220583   0.462   0.458   3.608 -0.0408  0.3992  0.6663
 2983SOL     OW20584   1.587   4.459   7.104 -0.1303  0.1556  0.4172
 2983SOL    HW120585   1.540   4.375   7.103  1.0579 -0.4805 -1.3704
 2983SOL    HW220586   1.585   4.478   7.197  0.1338 -2.2927  0.9033
 2984SOL     OW20587   2.805   0.707   2.072 -0.0756  0.0829 -0.5297
 2984SOL    HW120588   2.879   0.709   2.133 -1.8946 -2.6227  1.7885
 2984SOL    HW220589   2.737   0.717   2.138  0.4751  0.0034  0.0584
 2985SOL     OW20590   0.742   2.289  16.601 -0.4268  0.3445 -0.7177
 2985SOL    HW120591   0.720   2.365  16.655  1.7965 -0.1924  0.9501
 2985SOL    HW220592   0.698   2.300  16.517 -1.5550 -0.2987 -0.2114
 2986SOL     OW20593   0.680   1.410   2.733  0.4402 -0.1485  0.8162
 2986SOL    HW120594   0.707   1.360   2.656  1.5063  1.2062  0.3183
 2986SOL    HW220595   0.696   1.351   2.806 -2.8914  1.3908  2.8053
 2987SOL     OW20596   2.039   1.174  11.400 -0.0473 -0.2204  0.1376
 2987SOL    HW120597   2.014   1.121  11.325  0.5864 -0.2958 -0.0208
 2987SOL    HW220598   2.092   1.242  11.359  1.6197  0.0005  2.6609
 2988SOL     OW20599   4.160   4.581  17.474  0.6790 -0.3915  0.3483
 2988SOL    HW120600   4.124   4.655  17.426  0.2659  0.2560  1.6491
 2988SOL    HW220601   4.093   4.581  17.543  0.6230 -0.3924  0.2933
 2989SOL     OW20602   1.415   1.561  14.077  0.7995 -0.6161  0.1643
 2989SOL    HW120603   1.447   1.588  14.163 -1.1049  0.0990  0.6639
 2989SOL    HW220604   1.453   1.473  14.068 -0.3923 -0.8281 -2.9534
 2990SOL     OW20605   3.417   1.671   4.839 -0.2433  0.2160 -0.7082
 2990SOL    HW120606   3.424   1.668   4.934 -0.8370  1.2721 -0.6335
 2990SOL    HW220607   3.458   1.755   4.820 -1.2938  1.1013  0.9810
 2991SOL     OW20608   3.337   3.200   4.041  0.3416  0.4274 -0.4540
 2991SOL    HW120609   3.398   3.174   3.972 -1.0171 -2.9488 -0.3907
 2991SOL    HW220610   3.299   3.115   4.065  1.5500  0.5367  1.8759
 2992SOL     OW20611   1.740   2.441   3.547  0.2298  0.1783  0.3825
 2992SOL    HW120612   1.677   2.512   3.556 -1.2343 -1.6621  4.6644
 2992SOL    HW220613   1.694   2.372   3.595 -1.2494  0.8958 -0.0109
 2993SOL     OW20614   0.909   3.168   5.928 -1.2154 -0.2927  0.4507
 2993SOL    HW120615   0.985   3.138   5.879 -0.2281  1.4008  0.9571
 2993SOL    HW220616   0.916   3.107   6.002  0.0946 -0.8894 -0.1622
 2994SOL     OW20617   3.476   4.373  11.465 -0.2123  0.3004  0.2739
 2994SOL    HW120618   3.448   4.300  11.411  0.1577 -0.7600  1.5126
 2994SOL    HW220619   3.500   4.327  11.546 -1.3290 -3.0696 -1.3171
 2995SOL     OW20620   1.515   4.523   2.325  0.2572  0.0450 -0.1687
 2995SOL    HW120621   1.458   4.562   2.391 -1.8081 -1.8037 -0.8568
 2995SOL    HW220622   1.462   4.487   2.253 -0.6508  0.6353  0.2031
 2996SOL     OW20623   2.057   0.710   9.571  0.3096 -0.1599 -0.1038
 2996SOL    HW120624   2.059   0.682   9.662  0.2744 -0.2155 -0.1205
 2996SOL    HW220625   2.152   0.717   9.558  0.2195  0.3161 -0.5124
 2997SOL     OW20626   3.938   4.041  14.584  0.0286  0.0035 -0.0959
 2997SOL    HW120627   3.983   4.124  14.570 -3.6105  2.0877  0.5104
 2997SOL    HW220628   3.968   3.991  14.507  0.1521  1.9157 -1.2818
 2998SOL     OW20629   4.350   1.205   7.432  0.0371 -0.2512 -0.2039
 2998SOL    HW120630   4.375   1.114   7.444  1.8612  0.0429 -1.6404
 2998SOL    HW220631   4.257   1.196   7.451  0.4203 -1.6879  0.9364
 2999SOL     OW20632   0.748   0.028   1.458 -0.4180  0.3581  0.0985
 2999SOL    HW120633   0.699   4.691   1.489  1.0890 -0.3593  0.7301
 2999SOL    HW220634   0.745   0.014   1.363 -0.0191  0.7352  0.0318
 3000SOL     OW20635   3.932   2.904   8.351 -0.1334  0.2002  0.1241
 3000SOL    HW120636   3.945   2.933   8.261  1.3680 -0.2258  0.2027
 3000SOL    HW220637   4.016   2.861   8.368  0.4500  1.5581  0.6927
 3001SOL     OW20638   1.020   4.268   5.838  0.7815  0.5002  0.2202
 3001SOL    HW120639   0.927   4.281   5.817  1.2668  1.7581 -1.1524
 3001SOL    HW220640   1.034   4.174   5.840 -0.4121  0.2924 -0.7871
 3002SOL     OW20641   0.093   0.988   3.940  0.0730 -0.2151 -0.8281
 3002SOL    HW120642   0.016   0.947   3.899 -0.3646  0.7229 -0.9552
 3002SOL    HW220643   0.152   0.917   3.963 -1.0987 -1.7939 -2.7886
 3003SOL     OW20644   0.830   3.340   1.416 -0.1214  0.2022 -0.3930
 3003SOL    HW120645   0.774   3.264   1.402 -0.2149  0.1779  0.1264
 3003SOL    HW220646   0.901   3.303   1.469 -0.8002 -1.1575 -0.4417
 3004SOL     OW20647   1.010   3.459   8.566 -0.0774  0.3397 -0.4648
 3004SOL    HW120648   0.932   3.473   8.513 -0.9492 -1.9037  0.2223
 3004SOL    HW220649   0.978   3.499   8.647 -0.0811 -1.5124  0.4441
 3005SOL     OW20650   3.502   0.813   1.706  1.4479  0.5268 -0.1904
 3005SOL    HW120651   3.514   0.906   1.725  1.5165  0.0981  1.8105
 3005SOL    HW220652   3.427   0.797   1.763  1.0469  0.0248 -0.8538
 3006SOL     OW20653   3.796   2.702   6.685 -0.2390  0.1030  0.3910
 3006SOL    HW120654   3.849   2.769   6.726 -0.5071  1.2794 -1.1951
 3006SOL    HW220655   3.734   2.742   6.624  1.2182  2.1298  0.2736
 3007SOL     OW20656   0.972   0.972  15.474 -0.4510 -0.1861  0.8145
 3007SOL    HW120657   0.926   0.890  15.495 -0.9599  0.6648  3.1159
 3007SOL    HW220658   1.062   0.942  15.465 -0.7001 -0.7811  0.2626
 3008SOL     OW20659   0.952   3.906   5.562  0.0216 -0.1465  0.2081
 3008SOL    HW120660   0.903   3.974   5.609  0.7178 -0.7773  1.8757
 3008SOL    HW220661   1.034   3.917   5.611 -0.1361  0.0189  0.4399
 3009SOL     OW20662   4.364   4.024   9.467  0.0885 -0.8882 -0.6415
 3009SOL    HW120663   4.313   4.017   9.387  0.9776 -1.1171 -1.1799
 3009SOL    HW220664   4.403   4.111   9.463  1.8432 -1.4107  4.6849
 3010SOL     OW20665   2.744   0.010   8.090 -0.1531 -0.0083 -0.1986
 3010SOL    HW120666   2.787   0.021   8.005  0.2642 -0.6299 -0.0682
 3010SOL    HW220667   2.767   4.657   8.106 -0.9042  0.4832  3.6897
 3011SOL     OW20668   3.726   4.217   2.472  0.1026  0.1122  0.1139
 3011SOL    HW120669   3.784   4.151   2.510  2.2137  1.4364 -0.8214
 3011SOL    HW220670   3.755   4.214   2.381 -0.3101 -0.2751 -0.0034
 3012SOL     OW20671   1.041   1.818  13.605 -0.2262 -0.3488  0.6599
 3012SOL    HW120672   1.132   1.842  13.622 -0.5515  2.3724 -1.3379
 3012SOL    HW220673   1.011   1.868  13.529  0.6212 -4.2741 -2.2626
 3013SOL     OW20674   4.481   2.713   7.538 -0.2042  0.8531  0.1833
 3013SOL    HW120675   4.441   2.627   7.552  2.4610 -0.1020  1.8757
 3013SOL    HW220676   4.549   2.701   7.604  0.3356  1.0362 -0.3339
 3014SOL     OW20677   0.473   1.579   1.345  0.3725  0.2846  0.0215
 3014SOL    HW120678   0.558   1.607   1.377  0.7645 -0.9838  0.1219
 3014SOL    HW220679   0.475   1.485   1.365 -2.6018  0.3830  0.8822
 3015SOL     OW20680   4.340   1.991  16.124  0.3116 -0.0195 -0.6672
 3015SOL    HW120681   4.417   1.959  16.077  0.2139  0.9962 -1.5415
 3015SOL    HW220682   4.306   2.060  16.066 -2.6703 -0.7815  0.1886
 3016SOL     OW20683   0.476   0.096   6.095  0.1010 -0.2959 -0.3717
 3016SOL    HW120684   0.383   0.113   6.114  0.0390  0.9230 -1.7228
 3016SOL    HW220685   0.472   0.087   5.999  2.8260 -0.8231 -0.4275
 3017SOL     OW20686   3.395   3.220   6.077  0.2841  0.1258 -0.9423
 3017SOL    HW120687   3.464   3.192   6.137 -1.2819 -1.1986  0.2672
 3017SOL    HW220688   3.437   3.229   5.992  0.5648 -0.0215 -0.8206
 3018SOL     OW20689   1.920   1.836   3.746  0.0684 -0.2497  0.7445
 3018SOL    HW120690   1.937   1.850   3.839  1.1981 -0.6290  0.5951
 3018SOL    HW220691   1.932   1.741   3.745  2.1270 -0.0017  0.4954
 3019SOL     OW20692   1.073   4.316   7.885 -0.0654  0.0782  0.0915
 3019SOL    HW120693   1.037   4.403   7.903 -2.0502 -1.0381  1.5789
 3019SOL    HW220694   1.124   4.338   7.807  0.1358  0.2312  0.2685
 3020SOL     OW20695   2.506   3.373  13.833  0.3505  0.0181  0.6989
 3020SOL    HW120696   2.532   3.281  13.827  0.5567  0.0111  1.8493
 3020SOL    HW220697   2.501   3.415  13.746  0.5081  1.7085  1.5034
 3021SOL     OW20698   2.137   0.264   3.597  0.0107 -0.5123  0.3548
 3021SOL    HW120699   2.075   0.337   3.594  1.2306  0.4988 -0.1600
 3021SOL    HW220700   2.177   0.266   3.684  0.3226  1.4949  0.1839
 3022SOL     OW20701   4.300   2.447  13.565 -0.9346 -0.2542  0.2108
 3022SOL    HW120702   4.353   2.510  13.613 -1.3250 -1.1689  1.8563
 3022SOL    HW220703   4.210   2.478  13.571  0.0913  2.7938 -0.3893
 3023SOL     OW20704   2.973   3.283   4.716  0.0066  0.0182 -0.2224
 3023SOL    HW120705   2.877   3.282   4.725 -0.2573  0.2764 -3.1939
 3023SOL    HW220706   2.985   3.361   4.663  0.4176 -0.6175 -1.0688
 3024SOL     OW20707   2.393   1.228  17.681 -0.2278 -0.6037 -0.5085
 3024SOL    HW120708   2.421   1.162  17.744 -0.0879  1.8289  1.9826
 3024SOL    HW220709   2.298   1.215  17.682 -0.2383 -0.1789  2.6064
 3025SOL     OW20710   4.456   3.930  10.457  0.2339 -0.4098 -0.0416
 3025SOL    HW120711   4.427   3.937  10.548  0.8074 -1.3963  0.2169
 3025SOL    HW220712   4.551   3.943  10.458 -0.1498  2.3272  0.6378
 3026SOL     OW20713   0.252   2.013  17.323  0.0178  0.2013  0.9516
 3026SOL    HW120714   0.216   2.033  17.237  0.7971 -0.8093  0.3863
 3026SOL    HW220715   0.275   1.920  17.319 -0.2833  0.1642 -0.1119
 3027SOL     OW20716   1.612   0.104   3.501 -0.7600  0.1390  0.5200
 3027SOL    HW120717   1.569   0.047   3.565  0.0056 -1.2449 -0.1942
 3027SOL    HW220718   1.642   0.173   3.560  1.1573 -0.6989  0.5422
 3028SOL     OW20719   0.331   1.431  10.500  0.0546 -0.4558 -0.1049
 3028SOL    HW120720   0.369   1.513  10.531 -2.1928  0.7024 -0.4316
 3028SOL    HW220721   0.278   1.403  10.574 -0.6722 -0.5662 -0.6709
 3029SOL     OW20722   1.481   0.993   7.495  0.6098  0.7463  0.3447
 3029SOL    HW120723   1.542   0.949   7.435  0.5893  0.4058  0.5761
 3029SOL    HW220724   1.524   0.981   7.579 -1.0044 -1.3377  0.8819
 3030SOL     OW20725   3.876   3.822  16.978 -0.7323 -0.1200  0.2876
 3030SOL    HW120726   3.828   3.747  17.014 -1.4944  1.4543  2.5086
 3030SOL    HW220727   3.842   3.829  16.888 -1.8156 -0.7252  0.6487
 3031SOL     OW20728   0.256   3.530   1.816 -0.5114 -0.0311  0.7160
 3031SOL    HW120729   0.295   3.601   1.867  2.0650  0.5460 -2.1189
 3031SOL    HW220730   0.330   3.470   1.811 -0.9213 -0.4164 -0.7529
 3032SOL     OW20731   3.239   0.210  12.946 -0.1873 -0.2949  0.0024
 3032SOL    HW120732   3.183   0.279  12.911 -0.6836 -1.0476 -0.6822
 3032SOL    HW220733   3.317   0.258  12.975 -0.7076  1.8962 -2.3458
 3033SOL     OW20734   3.007   1.406   3.370  0.2209  0.0487  0.3155
 3033SOL    HW120735   3.088   1.432   3.414  0.0609 -0.9842  1.2038
 3033SOL    HW220736   2.937   1.425   3.433 -0.3962 -0.9110 -0.0912
 3034SOL     OW20737   2.087   3.804   2.697  0.3526  0.0820 -0.6866
 3034SOL    HW120738   2.008   3.853   2.676  0.2653 -0.0857 -0.7521
 3034SOL    HW220739   2.110   3.833   2.785  1.9301 -0.8566 -0.7884
 3035SOL     OW20740   1.096   0.619   6.541  0.2881 -0.0851 -0.8430
 3035SOL    HW120741   1.012   0.661   6.556  0.7314  0.8791 -1.0821
 3035SOL    HW220742   1.110   0.595   6.633  2.4411  0.3580 -1.0458
 3036SOL     OW20743   1.221   4.064   4.334  0.1769 -0.1044  0.0999
 3036SOL    HW120744   1.248   3.984   4.289 -0.3248 -1.1759  1.7126
 3036SOL    HW220745   1.143   4.090   4.285 -0.8228  1.1100  2.3591
 3037SOL     OW20746   1.664   0.471   5.955  0.3963 -0.6381 -0.0495
 3037SOL    HW120747   1.592   0.519   5.915  0.9310  2.1285  2.2938
 3037SOL    HW220748   1.612   0.402   5.998 -0.4711 -1.5226 -2.5190
 3038SOL     OW20749   1.284   2.382  15.877 -0.1519  0.1589  0.1902
 3038SOL    HW120750   1.208   2.405  15.824 -0.6825  3.4536  2.4414
 3038SOL    HW220751   1.342   2.448  15.840 -1.3555  1.6413  0.9734
 3039SOL     OW20752   4.672   2.250   8.972  0.0590 -0.4723  0.0709
 3039SOL    HW120753   4.730   2.301   9.029 -1.7344  1.1462  0.4461
 3039SOL    HW220754   4.681   2.293   8.887  1.0397  0.7139  0.7705
 3040SOL     OW20755   0.282   2.673   5.891 -0.3501 -0.2978  0.5586
 3040SOL    HW120756   0.194   2.659   5.855 -0.4455  1.4249  0.1553
 3040SOL    HW220757   0.301   2.590   5.934 -0.1356 -1.5783 -2.0085
 3041SOL     OW20758   2.931   2.571   3.450  0.2051 -0.2588 -0.1451
 3041SOL    HW120759   2.949   2.482   3.482 -1.7872 -0.5172  0.2635
 3041SOL    HW220760   3.020   2.602   3.434  1.2276 -1.7878  2.5854
 3042SOL     OW20761   1.907   3.984   6.787  0.0566 -0.3383  0.3899
 3042SOL    HW120762   1.903   3.907   6.845  0.5258 -2.5712 -2.5651
 3042SOL    HW220763   1.821   4.018   6.811 -0.4501 -0.9864 -0.4916
 3043SOL     OW20764   3.982   2.249  13.962  0.3041 -0.2497  0.4677
 3043SOL    HW120765   4.040   2.215  13.894 -0.8047 -1.9903  0.3963
 3043SOL    HW220766   3.940   2.169  13.993  3.1105 -2.6057 -1.7862
 3044SOL     OW20767   1.776   0.676   7.905  0.6554  0.4749 -0.3704
 3044SOL    HW120768   1.755   0.769   7.912  0.2004  0.2418  1.4987
 3044SOL    HW220769   1.871   0.691   7.907  0.7271  0.0615 -0.6679
 3045SOL     OW20770   3.747   0.088   6.048 -0.4186  0.2115  0.3422
 3045SOL    HW120771   3.767   0.161   6.106  0.8666 -0.4061  0.6906
 3045SOL    HW220772   3.656   0.110   6.031  0.0980  1.5406 -0.7094
 3046SOL     OW20773   4.086   4.438   9.163 -0.3103  0.0298 -0.3554
 3046SOL    HW120774   4.143   4.426   9.240  2.5424  3.8301 -1.8321
 3046SOL    HW220775   4.003   4.400   9.189 -0.7491  1.4313  0.3156
 3047SOL     OW20776   1.635   3.699   3.969  0.7341  0.1894  0.5688
 3047SOL    HW120777   1.661   3.769   3.909  2.4317 -0.2965  0.7506
 3047SOL    HW220778   1.670   3.623   3.924 -1.6639 -0.4762 -0.1811
 3048SOL     OW20779   3.492   2.447   8.978  0.1864  0.4819 -0.0021
 3048SOL    HW120780   3.439   2.378   9.017  0.2109  0.3014 -0.2851
 3048SOL    HW220781   3.477   2.520   9.039 -1.0064 -1.8295  2.4836
 3049SOL     OW20782   1.553   2.825  11.829  0.1148  0.5540  0.2314
 3049SOL    HW120783   1.593   2.807  11.914 -0.2192  1.7681  0.6332
 3049SOL    HW220784   1.602   2.901  11.798 -2.0591  0.9133 -2.2989
 3050SOL     OW20785   3.088   4.473   0.385  0.3143  0.1150 -0.8143
 3050SOL    HW120786   3.134   4.399   0.343  0.6450 -0.6774  0.9705
 3050SOL    HW220787   3.149   4.546   0.389 -1.1608  1.3065 -0.2705
 3051SOL     OW20788   1.210   1.056   4.435 -0.2779  0.9447  0.5208
 3051SOL    HW120789   1.216   1.142   4.395 -0.1218  1.0725  0.8183
 3051SOL    HW220790   1.271   1.078   4.506  0.2850  3.1226 -0.6694
 3052SOL     OW20791   0.523   0.532   8.567  0.2073 -0.3905  0.2092
 3052SOL    HW120792   0.445   0.556   8.617  0.2850 -0.1288  0.2007
 3052SOL    HW220793   0.529   0.607   8.508  2.0351  0.0549  0.9575
 3053SOL     OW20794   0.062   0.100   1.606 -0.0748 -0.4839 -0.2745
 3053SOL    HW120795   0.002   0.164   1.566  0.5634  1.2724  1.5876
 3053SOL    HW220796   0.027   0.092   1.694 -1.3236  2.0956 -0.5209
 3054SOL     OW20797   4.683   1.540  13.151  0.1281  0.2725  0.3311
 3054SOL    HW120798   4.643   1.480  13.213 -1.7293  0.7490 -0.4170
 3054SOL    HW220799   4.652   1.620  13.193  0.1408  0.9264 -0.9001
 3055SOL     OW20800   3.639   0.839   4.118  0.1792  0.2202  0.6587
 3055SOL    HW120801   3.659   0.932   4.117 -0.2877  0.3025 -1.8547
 3055SOL    HW220802   3.563   0.838   4.175 -0.4472 -1.9732 -0.1906
 3056SOL     OW20803   3.648   3.160  12.101  0.0571  0.1325 -0.2701
 3056SOL    HW120804   3.668   3.129  12.013  1.2027 -0.9481  0.3606
 3056SOL    HW220805   3.732   3.194  12.132 -0.2827  1.5800 -0.9368
 3057SOL     OW20806   3.778   3.081   3.674 -0.1851  0.1122 -0.1167
 3057SOL    HW120807   3.707   3.114   3.729 -1.4624  0.3990 -1.9216
 3057SOL    HW220808   3.842   3.056   3.741 -0.1439 -0.8477 -0.5062
 3058SOL     OW20809   0.379   0.173   8.529 -0.4817 -0.1116 -0.3218
 3058SOL    HW120810   0.316   0.104   8.544 -2.3826  1.5030 -0.9158
 3058SOL    HW220811   0.316   0.243   8.512 -1.1242 -0.3005  1.3198
 3059SOL     OW20812   2.811   4.555   6.634 -0.6828  0.0275  0.5659
 3059SOL    HW120813   2.905   4.567   6.644 -0.1806 -2.8365 -0.9547
 3059SOL    HW220814   2.785   4.550   6.726 -0.6477  1.9607  0.6964
 3060SOL     OW20815   1.523   4.582   9.696  0.4765 -0.1889 -0.0556
 3060SOL    HW120816   1.463   4.657   9.690  0.8054  0.1869  1.2866
 3060SOL    HW220817   1.530   4.551   9.606  2.0250 -2.2770  0.7840
 3061SOL     OW20818   1.012   0.617   7.864 -0.4526  0.2645  0.6583
 3061SOL    HW120819   0.932   0.601   7.914  0.1176 -0.9114  1.2054
 3061SOL    HW220820   1.021   0.712   7.876 -1.8976  0.4666  0.0743
 3062SOL     OW20821   4.514   1.963   3.132 -0.2255  0.3432  0.1048
 3062SOL    HW120822   4.599   1.985   3.171  0.6069  0.1509 -1.6266
 3062SOL    HW220823   4.520   1.876   3.092  0.3990  1.4163 -2.1237
 3063SOL     OW20824   4.299   2.403   2.546  0.4723 -0.4772  0.7038
 3063SOL    HW120825   4.207   2.385   2.528  0.4820  0.9035 -0.7493
 3063SOL    HW220826   4.338   2.318   2.563  3.8805  1.1061  0.7588
 3064SOL     OW20827   4.539   2.023  14.190 -0.0189 -0.0442  0.0861
 3064SOL    HW120828   4.573   2.070  14.114 -1.1606 -2.0566 -1.6698
 3064SOL    HW220829   4.559   1.933  14.164  1.0867 -0.4810  2.5062
 3065SOL     OW20830   0.627   2.200  15.839 -0.3429  0.5586  0.0188
 3065SOL    HW120831   0.617   2.217  15.745  2.1542 -1.1806 -0.5663
 3065SOL    HW220832   0.585   2.114  15.847  0.5433  0.2181  0.9429
 3066SOL     OW20833   1.137   0.525   6.279  0.4747 -0.5070  0.4268
 3066SOL    HW120834   1.134   0.439   6.322  1.0189 -1.2303 -0.9890
 3066SOL    HW220835   1.133   0.581   6.357  1.0522  1.0318 -0.6467
 3067SOL     OW20836   2.798   1.312   5.086 -0.7511 -0.3241  0.1968
 3067SOL    HW120837   2.865   1.380   5.090  0.2758 -1.3167 -0.1949
 3067SOL    HW220838   2.781   1.309   4.992  0.2518  1.1729 -0.0254
 3068SOL     OW20839   1.337   1.290   4.846  0.2534 -0.3552  0.0560
 3068SOL    HW120840   1.257   1.243   4.824  1.1445 -1.2589 -1.2164
 3068SOL    HW220841   1.291   1.360   4.893  1.6800 -0.7745  2.0413
 3069SOL     OW20842   3.777   3.545   6.426  0.3260  0.8990  0.1531
 3069SOL    HW120843   3.790   3.450   6.427 -1.7497  0.6295  0.6413
 3069SOL    HW220844   3.720   3.556   6.350  1.8996  0.0280 -1.1742
 3070SOL     OW20845   3.577   3.176   3.848 -0.1304 -0.1179  0.0126
 3070SOL    HW120846   3.618   3.148   3.929 -0.5092 -2.6623 -0.6669
 3070SOL    HW220847   3.571   3.272   3.845  3.1155 -0.0137 -3.3259
 3071SOL     OW20848   3.659   2.805  12.657  0.1888  0.0916 -0.2398
 3071SOL    HW120849   3.700   2.891  12.657 -1.0415  0.6928  1.4599
 3071SOL    HW220850   3.582   2.827  12.604 -1.1199 -0.9865  1.1686
 3072SOL     OW20851   3.669   2.176   7.058  0.0519 -0.6311  0.5328
 3072SOL    HW120852   3.593   2.218   7.018  2.3990  2.4449 -0.7100
 3072SOL    HW220853   3.667   2.201   7.151 -0.8867 -2.6960  1.0698
 3073SOL     OW20854   1.444   1.743   2.012 -0.3580 -0.0266  0.0444
 3073SOL    HW120855   1.395   1.698   1.943  2.0293 -1.0979 -0.9691
 3073SOL    HW220856   1.459   1.665   2.066 -0.5182  0.8730  1.3814
 3074SOL     OW20857   3.880   1.325   6.615  0.1228  0.3441  0.0019
 3074SOL    HW120858   3.851   1.244   6.574  1.2293 -0.2928  0.4749
 3074SOL    HW220859   3.812   1.337   6.681  1.0506 -0.8086  1.1578
 3075SOL     OW20860   1.432   0.417  15.945 -0.3141  0.8607 -0.6744
 3075SOL    HW120861   1.469   0.349  16.002 -0.8492  2.6662  1.8353
 3075SOL    HW220862   1.410   0.372  15.863 -0.0493 -2.6792  1.1565
 3076SOL     OW20863   0.889   4.450   5.578  0.2244 -0.2518  0.1793
 3076SOL    HW120864   0.940   4.494   5.647  2.0889 -1.1443 -0.6223
 3076SOL    HW220865   0.809   4.431   5.626  1.3287 -2.7252  1.0156
 3077SOL     OW20866   1.890   0.542   0.015  0.3331 -0.0839 -0.0065
 3077SOL    HW120867   1.898   0.464  17.714  1.9631  1.0133 -1.3384
 3077SOL    HW220868   1.978   0.580   0.016  0.2314  0.1994 -2.1074
 3078SOL     OW20869   1.619   2.860   9.110 -0.4027  0.0812 -0.1125
 3078SOL    HW120870   1.668   2.787   9.148  0.3694  1.8387  2.2924
 3078SOL    HW220871   1.550   2.867   9.176 -1.3722  1.0153 -1.2454
 3079SOL     OW20872   0.287   2.387   7.907  0.1144 -0.0663  0.3335
 3079SOL    HW120873   0.268   2.342   7.825 -0.0749 -0.5299  0.6322
 3079SOL    HW220874   0.299   2.472   7.865  1.6746 -0.2480  0.3905
 3080SOL     OW20875   4.516   3.883  17.475 -0.1672 -0.4751 -0.5477
 3080SOL    HW120876   4.450   3.821  17.506  0.8023 -0.9161  0.6277
 3080SOL    HW220877   4.562   3.823  17.416 -2.3787 -3.2498  0.5605
 3081SOL     OW20878   0.903   2.897   7.412  0.1610 -0.0730  0.2039
 3081SOL    HW120879   0.815   2.879   7.380  0.5207  1.8478 -1.8874
 3081SOL    HW220880   0.952   2.884   7.330  0.1387  0.9556  0.0287
 3082SOL     OW20881   3.770   0.244   3.110  1.0523  0.6726 -0.2673
 3082SOL    HW120882   3.753   0.262   3.202 -0.1864  0.8306 -0.5171
 3082SOL    HW220883   3.688   0.266   3.066 -0.2572 -0.7712  1.4321
 3083SOL     OW20884   0.960   1.748   6.245 -0.3796  0.0802  0.1910
 3083SOL    HW120885   1.041   1.797   6.233 -1.1761  1.7321  1.4791
 3083SOL    HW220886   0.922   1.785   6.165  0.1901  0.3390  0.0403
 3084SOL     OW20887   1.891   3.717   8.102  0.4758  0.3127 -0.0867
 3084SOL    HW120888   1.853   3.637   8.066 -1.6062  0.2091  2.3873
 3084SOL    HW220889   1.809   3.761   8.122 -0.5688 -2.3186  1.3017
 3085SOL     OW20890   2.529   2.724   6.221  0.0041  0.0203  0.4634
 3085SOL    HW120891   2.504   2.667   6.294 -0.6799 -0.5126 -0.1942
 3085SOL    HW220892   2.473   2.799   6.234  1.0463  1.0450 -0.9406
 3086SOL     OW20893   3.987   0.382   6.751  0.2121 -0.1020 -0.3212
 3086SOL    HW120894   3.982   0.473   6.781 -0.2913  0.1501 -1.1694
 3086SOL    HW220895   4.069   0.355   6.792  0.0566  0.3999  0.3253
 3087SOL     OW20896   0.029   3.416  13.552 -0.2440 -0.0763  0.4238
 3087SOL    HW120897   4.709   3.401  13.478  0.2241  2.0658 -0.3738
 3087SOL    HW220898   0.060   3.504  13.530  3.9044 -1.6026  0.2490
 3088SOL     OW20899   2.486   2.937   2.602  0.3593  0.4071 -0.4342
 3088SOL    HW120900   2.475   2.850   2.641  0.4364  0.3218 -0.6033
 3088SOL    HW220901   2.493   2.925   2.507  0.1002 -1.4934 -0.2089
 3089SOL     OW20902   3.057   0.418  15.469 -0.4561  0.5892  0.3662
 3089SOL    HW120903   3.070   0.443  15.560  0.1012  0.9089  0.1972
 3089SOL    HW220904   3.021   0.330  15.481 -0.3688  0.4681 -0.2681
 3090SOL     OW20905   1.692   3.533   7.224  0.1756  0.3458 -0.3736
 3090SOL    HW120906   1.609   3.550   7.267  1.1746  0.3123  1.5821
 3090SOL    HW220907   1.733   3.615   7.251  1.3365  0.1928 -1.6379
 3091SOL     OW20908   1.378   1.767   4.731 -0.7648 -0.5985 -0.3233
 3091SOL    HW120909   1.433   1.690   4.748  0.7109  0.5754  0.1695
 3091SOL    HW220910   1.375   1.806   4.818  1.0953 -0.1124 -0.4708
 3092SOL     OW20911   4.547   2.013   2.009  0.0577  0.2138  0.0168
 3092SOL    HW120912   4.550   1.919   1.988 -2.0260  0.4429 -1.2377
 3092SOL    HW220913   4.609   2.013   2.082  0.3477  1.4033 -0.2351
 3093SOL     OW20914   4.156   1.789   3.912 -0.3570 -0.6686 -0.4476
 3093SOL    HW120915   4.231   1.809   3.969  0.0270  1.6395 -1.7973
 3093SOL    HW220916   4.094   1.859   3.928 -0.0131 -0.0175 -2.0318
 3094SOL     OW20917   2.327   0.304   1.656  0.1155  0.0599 -0.0505
 3094SOL    HW120918   2.421   0.293   1.668  0.2791  0.7285 -0.6816
 3094SOL    HW220919   2.295   0.234   1.712  0.8227 -0.1831  0.0437
 3095SOL     OW20920   2.965   0.928   0.386 -0.4045  0.6055 -0.1815
 3095SOL    HW120921   2.958   0.974   0.303  1.5283  1.5100  0.1609
 3095SOL    HW220922   3.046   0.971   0.414  0.3958  0.0068 -1.6175
 3096SOL     OW20923   4.642   1.912   1.596  0.0075 -0.1023  0.6968
 3096SOL    HW120924   4.616   2.004   1.594  1.1268  0.2641  2.1256
 3096SOL    HW220925   4.565   1.862   1.570 -0.0949  0.7615 -0.6529
 3097SOL     OW20926   0.920   4.305   6.493  0.3853  0.6416 -0.1243
 3097SOL    HW120927   0.914   4.322   6.587  1.5136  3.2861 -0.5477
 3097SOL    HW220928   1.004   4.258   6.490  0.7911  1.2737  1.2953
 3098SOL     OW20929   2.051   2.327   1.882 -0.1388 -0.5630 -0.0193
 3098SOL    HW120930   2.063   2.236   1.911 -2.2719 -0.4208  1.3155
 3098SOL    HW220931   2.144   2.341   1.866  0.1211 -0.6992  1.3284
 3099SOL     OW20932   1.174   4.575   0.331 -0.2771 -0.0467 -0.3032
 3099SOL    HW120933   1.153   4.500   0.275 -1.0108 -0.7821  0.9574
 3099SOL    HW220934   1.191   4.627   0.253 -0.3742  2.3629  1.2687
 3100SOL     OW20935   2.292   3.951  14.426  0.2978 -0.0835 -0.1664
 3100SOL    HW120936   2.217   3.896  14.448 -0.0663  0.5986  0.3025
 3100SOL    HW220937   2.374   3.903  14.440  0.7927  0.3675 -1.5341
 3101SOL     OW20938   1.027   4.617   5.423  0.1116 -0.1575  0.2600
 3101SOL    HW120939   0.972   4.560   5.476  0.3747  1.2449  2.0227
 3101SOL    HW220940   0.961   4.646   5.361  2.8414  0.4047 -2.3913
 3102SOL     OW20941   0.991   1.713   5.961 -0.0186  0.2377 -0.1718
 3102SOL    HW120942   0.949   1.631   5.987  2.7089 -0.8657  0.6534
 3102SOL    HW220943   1.081   1.692   5.982 -1.0378 -0.7909  3.1343
 3103SOL     OW20944   0.918   1.693   1.620 -0.0403  0.0804 -0.2095
 3103SOL    HW120945   0.971   1.759   1.666 -2.5464  2.0523 -0.1702
 3103SOL    HW220946   0.844   1.740   1.583  1.4278  2.4444 -0.1224
 3104SOL     OW20947   1.872   2.647   3.179  0.1996 -0.0151  0.3239
 3104SOL    HW120948   1.779   2.671   3.172  0.1799 -1.1835 -3.3923
 3104SOL    HW220949   1.907   2.696   3.253 -1.1221 -0.7313  1.4267
 3105SOL     OW20950   1.835   4.185   3.046 -0.1038 -0.1994  0.7539
 3105SOL    HW120951   1.773   4.185   3.119 -0.2813 -1.6084  0.6089
 3105SOL    HW220952   1.791   4.222   2.970  0.0347 -1.8582 -0.1256
 3106SOL     OW20953   4.617   3.718   8.632  0.3461  0.0021  0.2673
 3106SOL    HW120954   4.532   3.761   8.632 -0.2964 -1.2629  2.2032
 3106SOL    HW220955   4.585   3.629   8.616  0.1936  0.3819 -1.4993
 3107SOL     OW20956   1.425   3.924   2.696 -0.0091 -0.4222  0.2475
 3107SOL    HW120957   1.430   3.861   2.624  2.3731 -0.8830  0.8305
 3107SOL    HW220958   1.467   3.997   2.650 -0.1663  1.1347  2.5743
 3108SOL     OW20959   0.650   4.175  14.901 -0.4840  0.3868  0.3024
 3108SOL    HW120960   0.734   4.130  14.914 -1.1201  0.4396  4.6211
 3108SOL    HW220961   0.591   4.124  14.956 -0.6872  1.0556  0.7078
 3109SOL     OW20962   4.280   4.426   4.593  0.5599  1.1063  0.6692
 3109SOL    HW120963   4.333   4.385   4.662  0.9492  0.8692  0.2354
 3109SOL    HW220964   4.208   4.454   4.649 -0.0383  0.5377  0.1863
 3110SOL     OW20965   4.002   0.078  17.239  0.2258 -0.0557 -0.2906
 3110SOL    HW120966   4.087   0.092  17.281  0.6887  0.8568 -1.5254
 3110SOL    HW220967   4.013   0.116  17.152  3.3698  0.9035  0.5050
 3111SOL     OW20968   2.159   0.317   3.003  0.3080 -0.2439  0.0844
 3111SOL    HW120969   2.165   0.411   3.023  0.3708 -0.8480  2.9471
 3111SOL    HW220970   2.093   0.281   3.062  0.0176  1.7937  1.0201
 3112SOL     OW20971   2.369   4.737   1.232  0.3125 -0.1565  0.0001
 3112SOL    HW120972   2.287   0.046   1.246  1.3905  0.9471  2.6105
 3112SOL    HW220973   2.422   0.065   1.274  0.0303 -0.1618  0.3673
 3113SOL     OW20974   2.503   1.526   7.823 -0.5746 -0.1679 -0.2969
 3113SOL    HW120975   2.421   1.565   7.793  0.5560  2.0316 -0.5397
 3113SOL    HW220976   2.489   1.538   7.917 -0.1587 -0.9295 -0.1396
 3114SOL     OW20977   0.249   2.394   3.294  0.2544 -0.1551  0.4956
 3114SOL    HW120978   0.292   2.472   3.260 -1.2493  0.0201 -0.9923
 3114SOL    HW220979   0.158   2.417   3.314 -0.0703 -1.6136  0.6875
 3115SOL     OW20980   1.316   3.859   4.183  0.0979 -0.1746 -0.2683
 3115SOL    HW120981   1.361   3.781   4.214 -0.0693 -0.2584 -0.2389
 3115SOL    HW220982   1.306   3.833   4.091  1.7837  0.0764 -0.5372
 3116SOL     OW20983   2.606   1.487  14.585  0.5370 -0.0630  0.1581
 3116SOL    HW120984   2.689   1.535  14.593  0.8926 -0.3565 -1.7522
 3116SOL    HW220985   2.613   1.429  14.661  0.2778 -0.7811 -0.3720
 3117SOL     OW20986   0.101   0.803   4.840  0.5443 -0.1013  0.3576
 3117SOL    HW120987   0.090   0.741   4.912 -2.3788 -0.5705 -0.5036
 3117SOL    HW220988   0.022   0.857   4.847  1.4077  1.3526 -1.1029
 3118SOL     OW20989   3.969   1.433   1.022 -0.0667  0.3589  0.5942
 3118SOL    HW120990   4.045   1.461   0.972 -0.0189  0.0513  0.4911
 3118SOL    HW220991   4.006   1.464   1.104  2.9033 -1.2348 -0.1725
 3119SOL     OW20992   0.468   4.724   7.922  0.4004 -0.6295 -0.4956
 3119SOL    HW120993   0.498   4.648   7.871 -1.5831 -2.0254  0.4397
 3119SOL    HW220994   0.437   4.681   8.001  2.4483 -0.2500  0.5058
 3120SOL     OW20995   0.431   1.688  10.587  0.1536  0.2482  0.0499
 3120SOL    HW120996   0.426   1.656  10.677 -1.6316  3.4797  1.0834
 3120SOL    HW220997   0.525   1.697  10.572  0.0407 -2.1843 -2.1322
 3121SOL     OW20998   4.676   3.443   3.833  0.3144 -0.4549  0.2397
 3121SOL    HW120999   0.031   3.453   3.850  0.4626  1.6881 -1.8601
 3121SOL    HW221000   4.686   3.350   3.814 -1.4091 -1.2449  3.2586
 3122SOL     OW21001   4.137   3.737  16.914  0.2334 -0.5323  0.4300
 3122SOL    HW121002   4.190   3.757  16.992 -0.4543 -0.8895  0.9868
 3122SOL    HW221003   4.050   3.754  16.951  2.1939  0.4119  4.6436
 3123SOL     OW21004   0.606   3.627   3.685 -0.1166  0.8882 -0.2991
 3123SOL    HW121005   0.542   3.691   3.715  2.9381  3.9920 -0.4099
 3123SOL    HW221006   0.614   3.653   3.593 -0.2440  0.1701 -0.5098
 3124SOL     OW21007   0.868   3.798   6.707 -0.2713 -0.4115 -0.5268
 3124SOL    HW121008   0.865   3.702   6.712 -0.3881 -0.3463  0.7373
 3124SOL    HW221009   0.777   3.817   6.687  0.0732  0.2056 -1.4921
 3125SOL     OW21010   0.994   1.370   6.627 -0.2098 -0.4197 -0.6050
 3125SOL    HW121011   1.013   1.347   6.536  1.7564  1.7279 -0.7516
 3125SOL    HW221012   0.930   1.306   6.655  0.5827 -1.1907 -0.5553
 3126SOL     OW21013   4.211   0.050  10.972 -0.0147  0.4642 -0.0667
 3126SOL    HW121014   4.176   0.025  11.057  0.0606  1.0148  0.1212
 3126SOL    HW221015   4.202   0.145  10.975 -0.9437  0.4546 -2.3138
 3127SOL     OW21016   2.240   4.036   2.297  0.3018  0.1332  0.4153
 3127SOL    HW121017   2.263   3.946   2.322  1.3276  0.3233  0.1599
 3127SOL    HW221018   2.166   4.028   2.237 -0.2029 -0.1525  1.0762
 3128SOL     OW21019   3.837   0.496   4.022 -0.0354  0.2242  0.3883
 3128SOL    HW121020   3.926   0.464   4.006  0.0757  1.3150 -1.1281
 3128SOL    HW221021   3.840   0.521   4.114  0.0263 -0.1681  0.4918
 3129SOL     OW21022   2.766   3.377   5.025 -0.1189 -0.1318 -0.2396
 3129SOL    HW121023   2.719   3.330   5.094  0.4694  0.9654  0.8975
 3129SOL    HW221024   2.818   3.440   5.075 -0.4101  0.4930 -0.7254
 3130SOL     OW21025   1.868   0.020   5.927 -0.6449 -0.0145 -0.0269
 3130SOL    HW121026   1.864   0.108   5.964 -0.5332 -0.3008  0.6738
 3130SOL    HW221027   1.929   0.029   5.854 -0.2941 -0.8822  0.1491
 3131SOL     OW21028   3.077   3.648   6.011  0.5431 -0.1967  0.1128
 3131SOL    HW121029   3.095   3.562   6.049  0.9964 -0.0503  0.2304
 3131SOL    HW221030   3.095   3.630   5.919 -0.1739  0.1130 -0.0907
 3132SOL     OW21031   2.971   1.622   5.293 -0.1895 -0.5776  0.0757
 3132SOL    HW121032   2.927   1.638   5.377 -0.2198 -2.7640  0.4842
 3132SOL    HW221033   2.978   1.527   5.289 -1.0075 -0.5838 -1.3969
 3133SOL     OW21034   0.662   1.666  11.388  0.4690 -0.5297 -0.0491
 3133SOL    HW121035   0.582   1.716  11.368  1.7611  1.6402  0.2669
 3133SOL    HW221036   0.670   1.692  11.479 -0.8748  2.1818 -0.7082
 3134SOL     OW21037   3.705   2.337   8.355 -0.7054  0.0730 -0.7875
 3134SOL    HW121038   3.621   2.300   8.383 -1.1943 -0.9658 -3.7065
 3134SOL    HW221039   3.760   2.331   8.434 -1.7694 -1.3940 -0.1715
 3135SOL     OW21040   4.440   2.041   8.046  0.5418  0.4558  0.0895
 3135SOL    HW121041   4.517   2.007   8.000 -1.7512 -1.2591 -2.4734
 3135SOL    HW221042   4.367   1.999   8.001  0.8099 -2.4314  2.3406
 3136SOL     OW21043   0.272   0.605   8.976  0.3852 -0.1657  0.1433
 3136SOL    HW121044   0.365   0.609   8.955  0.4516  1.8519  0.8341
 3136SOL    HW221045   0.247   0.515   8.953  2.0112  0.0364 -2.3785
 3137SOL     OW21046   3.564   4.022   6.422  0.3346 -0.2225 -0.5104
 3137SOL    HW121047   3.628   3.995   6.488 -1.1381  0.6992  1.2678
 3137SOL    HW221048   3.505   3.948   6.408 -1.3489  0.8930  0.7433
 3138SOL     OW21049   3.417   1.452  17.352 -0.2688 -0.5123  0.1150
 3138SOL    HW121050   3.330   1.412  17.354  0.4208 -1.9270  1.6055
 3138SOL    HW221051   3.417   1.490  17.264  0.9564 -1.3874 -0.2647
 3139SOL     OW21052   0.317   2.465   5.643  0.2486  0.0916 -0.1432
 3139SOL    HW121053   0.285   2.503   5.561 -2.6206 -0.5416  0.6698
 3139SOL    HW221054   0.247   2.483   5.705  0.9790 -0.3862  0.8137
 3140SOL     OW21055   1.219   0.461  14.901  0.1926  0.2627  0.1867
 3140SOL    HW121056   1.255   0.488  14.816  0.8309  1.0268  0.7074
 3140SOL    HW221057   1.129   0.443  14.874  0.0411 -0.3264  1.1016
 3141SOL     OW21058   0.233   2.763   2.104 -0.6673 -0.0099 -0.1193
 3141SOL    HW121059   0.185   2.762   2.187 -3.8439  2.6007 -1.8808
 3141SOL    HW221060   0.325   2.764   2.132 -0.5398 -1.4194 -0.5089
 3142SOL     OW21061   4.099   4.549   7.907 -0.4709  0.2512  0.6464
 3142SOL    HW121062   4.185   4.537   7.868 -0.1777 -0.2931  1.4586
 3142SOL    HW221063   4.130   4.595   7.985  0.1442 -0.8566  1.0492
 3143SOL     OW21064   1.773   2.854  10.143  0.4329  0.1900  0.0075
 3143SOL    HW121065   1.681   2.856  10.119  0.2654  0.5861  0.6887
 3143SOL    HW221066   1.776   2.898  10.227  0.1021 -0.1786  0.2145
 3144SOL     OW21067   4.514   3.244   4.821  0.4355 -0.2926 -0.0307
 3144SOL    HW121068   4.454   3.237   4.747 -0.0948 -2.3886  0.5904
 3144SOL    HW221069   4.456   3.261   4.895 -0.8743 -2.0138 -0.6712
 3145SOL     OW21070   2.052   1.063   3.593  0.4033 -0.5090  0.2372
 3145SOL    HW121071   2.023   1.025   3.676  2.4127 -2.3986  0.0622
 3145SOL    HW221072   1.987   1.037   3.529  3.2271  0.7220 -3.1492
 3146SOL     OW21073   4.625   1.909   9.400 -0.1807 -0.7118 -0.2835
 3146SOL    HW121074   4.658   1.871   9.318  1.9733  2.2610 -0.7973
 3146SOL    HW221075   4.531   1.904   9.388 -0.4813 -0.4509  1.9988
 3147SOL     OW21076   4.507   0.652   1.045  0.5731 -0.6054  0.1307
 3147SOL    HW121077   4.462   0.639   0.961 -1.2136  0.1547  0.9956
 3147SOL    HW221078   4.505   0.748   1.043 -0.2955 -0.6262 -0.0636
 3148SOL     OW21079   3.764   0.645   2.547 -0.2677  0.2356 -0.4156
 3148SOL    HW121080   3.852   0.683   2.538  0.8121 -2.8836 -3.4355
 3148SOL    HW221081   3.766   0.576   2.480 -0.6044  2.0756 -2.3266
 3149SOL     OW21082   2.364   2.610  12.466 -0.3717 -0.0240 -0.5951
 3149SOL    HW121083   2.276   2.635  12.436 -0.9066 -1.4585 -0.2013
 3149SOL    HW221084   2.333   2.555  12.538 -1.6870  0.1461 -1.0235
 3150SOL     OW21085   0.665   2.698  13.511  0.2063  0.7276 -0.2945
 3150SOL    HW121086   0.731   2.767  13.521 -0.1764  0.8448  1.3409
 3150SOL    HW221087   0.690   2.623  13.565 -1.6778  1.2787  1.3412
 3151SOL     OW21088   0.306   1.729  15.630 -0.4644 -0.3193 -0.0013
 3151SOL    HW121089   0.303   1.767  15.542 -0.6264  2.8100  1.3666
 3151SOL    HW221090   0.310   1.638  15.602  0.8583  0.2242 -1.5962
 3152SOL     OW21091   0.981   4.467  16.529 -0.2432 -0.5235  0.5232
 3152SOL    HW121092   0.950   4.395  16.584 -2.1031 -0.6865 -0.7485
 3152SOL    HW221093   1.056   4.497  16.580  0.6076 -0.9610 -0.4414
 3153SOL     OW21094   2.600   1.128   0.357  0.1910 -0.0713 -0.5481
 3153SOL    HW121095   2.649   1.068   0.413 -1.3888  0.3552  1.2710
 3153SOL    HW221096   2.526   1.154   0.411 -0.1273  0.6444 -1.3346
 3154SOL     OW21097   3.851   2.011  14.081  0.1071 -0.0106  0.3795
 3154SOL    HW121098   3.861   2.026  14.175 -2.8922  1.4065  0.4836
 3154SOL    HW221099   3.764   2.048  14.062  0.0857  0.2368  0.9618
 3155SOL     OW21100   3.997   2.208   2.557 -0.4289 -0.0359 -0.4388
 3155SOL    HW121101   3.995   2.122   2.515 -1.9669  0.1554 -0.7618
 3155SOL    HW221102   3.908   2.206   2.592  0.0707 -0.2888  0.8063
 3156SOL     OW21103   2.226   1.671   6.382 -0.2019  0.7932  0.3029
 3156SOL    HW121104   2.225   1.733   6.454 -0.5861  0.2105  0.7968
 3156SOL    HW221105   2.133   1.651   6.367 -0.3611  1.2151  0.7630
 3157SOL     OW21106   3.726   0.524   6.988  0.0528  0.0472 -0.1269
 3157SOL    HW121107   3.735   0.433   6.959  1.9634 -0.2901  1.5883
 3157SOL    HW221108   3.800   0.560   6.939  0.2841 -0.4597 -0.1536
 3158SOL     OW21109   3.411   1.107   3.982  0.5449 -0.2557  0.4238
 3158SOL    HW121110   3.474   1.171   3.948 -1.6261  0.8934 -1.3888
 3158SOL    HW221111   3.456   1.093   4.066 -1.3783 -2.2917  1.0976
 3159SOL     OW21112   2.083   0.896   5.810 -0.0117  0.8479 -0.3331
 3159SOL    HW121113   2.037   0.979   5.820 -0.4242  0.1769  3.2487
 3159SOL    HW221114   2.043   0.857   5.732 -1.5305 -1.9981  1.8618
 3160SOL     OW21115   1.461   3.529   5.793 -0.1226  0.3170  0.3592
 3160SOL    HW121116   1.466   3.617   5.755 -1.0170  0.7962  1.3234
 3160SOL    HW221117   1.549   3.493   5.794  1.0891  3.2685 -0.7207
 3161SOL     OW21118   2.263   3.538   4.382  0.6076 -1.0127 -0.8343
 3161SOL    HW121119   2.201   3.552   4.311 -0.8559  4.7637  1.5863
 3161SOL    HW221120   2.349   3.538   4.340  0.2409 -1.1026 -1.5805
 3162SOL     OW21121   1.651   1.331   2.498 -0.2441  0.1149 -1.0265
 3162SOL    HW121122   1.624   1.250   2.540  0.3920  0.7794  0.6605
 3162SOL    HW221123   1.739   1.336   2.536 -0.3637 -0.4652 -0.6692
 3163SOL     OW21124   1.194   0.267   3.387  0.1586 -0.5603 -0.2651
 3163SOL    HW121125   1.239   0.260   3.471 -1.1945  0.3164  0.5478
 3163SOL    HW221126   1.272   0.259   3.332  0.3646  1.6072 -0.2941
 3164SOL     OW21127   4.143   4.040  13.113  0.4690  0.7400  0.2916
 3164SOL    HW121128   4.222   3.987  13.107  0.1984  0.3035  0.4929
 3164SOL    HW221129   4.174   4.117  13.160 -0.8200  1.1449  0.4892
 3165SOL     OW21130   1.093   0.478   5.422  0.4174 -0.0772 -1.2429
 3165SOL    HW121131   0.998   0.461   5.422  0.1731  1.3620 -0.6993
 3165SOL    HW221132   1.090   0.568   5.452  1.2430 -0.4333 -0.1123
 3166SOL     OW21133   1.320   3.287   6.819  0.0929 -0.2054  0.3531
 3166SOL    HW121134   1.370   3.221   6.867  1.2619 -0.7040 -1.5392
 3166SOL    HW221135   1.326   3.251   6.731 -1.0004  1.9913 -0.6336
 3167SOL     OW21136   3.878   4.276   3.807  0.2336  0.1592  0.0378
 3167SOL    HW121137   3.835   4.191   3.793  0.1744 -0.1577  2.0335
 3167SOL    HW221138   3.867   4.308   3.718 -0.1944 -2.7299 -0.9717
 3168SOL     OW21139   0.934   0.784  15.222  0.6068  0.4417  0.3308
 3168SOL    HW121140   0.958   0.725  15.293  1.0273  0.4037  0.1574
 3168SOL    HW221141   0.998   0.752  15.158  0.9602 -0.9063  1.3449
 3169SOL     OW21142   4.481   3.582   1.464 -0.0367 -0.8477 -0.5398
 3169SOL    HW121143   4.564   3.597   1.419  0.7367 -1.1717  0.7751
 3169SOL    HW221144   4.438   3.667   1.453 -0.3535 -0.8434  0.6514
 3170SOL     OW21145   2.185   3.702   8.056  0.6797  0.3668 -0.5928
 3170SOL    HW121146   2.223   3.651   8.128  0.0886  1.3097  0.4031
 3170SOL    HW221147   2.092   3.692   8.076  0.6063 -1.8017 -2.1409
 3171SOL     OW21148   1.866   2.057   5.793  0.8688  0.0302 -0.2737
 3171SOL    HW121149   1.898   2.098   5.873 -1.9201 -0.5183  1.0920
 3171SOL    HW221150   1.912   1.973   5.789  1.6968  0.4262  1.2042
 3172SOL     OW21151   1.228   1.448   5.765  0.1150 -0.2047  0.7084
 3172SOL    HW121152   1.324   1.449   5.760 -0.0660 -0.1001 -3.0340
 3172SOL    HW221153   1.196   1.538   5.761  1.8652  0.4830  2.3078
 3173SOL     OW21154   1.313   3.992  12.918 -0.1810  0.2110  0.0752
 3173SOL    HW121155   1.329   4.055  12.847  1.7468 -0.3497  0.0115
 3173SOL    HW221156   1.357   4.034  12.992  2.5906 -1.6774 -0.4919
 3174SOL     OW21157   4.358   0.950   3.817  0.2736 -0.2908 -0.1627
 3174SOL    HW121158   4.293   0.887   3.847  0.5240 -0.7613 -0.6103
 3174SOL    HW221159   4.323   0.971   3.730  1.8882  0.8606 -0.5339
 3175SOL     OW21160   1.322   3.187  16.688  0.1069 -0.1544  0.1138
 3175SOL    HW121161   1.321   3.249  16.761 -0.0952 -0.0282  0.0059
 3175SOL    HW221162   1.248   3.221  16.637 -0.0470  2.2251  1.9381
 3176SOL     OW21163   3.038   1.498  11.941  0.0024 -0.2590  0.5715
 3176SOL    HW121164   2.985   1.572  11.913  0.6998  0.1614  0.3657
 3176SOL    HW221165   2.973   1.430  11.959 -0.3093 -0.7572 -2.4491
 3177SOL     OW21166   4.312   0.411   5.518 -0.7873 -0.3254  0.0294
 3177SOL    HW121167   4.293   0.485   5.577  1.1620  0.2664 -0.0989
 3177SOL    HW221168   4.285   0.342   5.579  2.2544 -1.3872  0.1760
 3178SOL     OW21169   3.537   4.634  11.499  0.3766 -0.1722  0.1625
 3178SOL    HW121170   3.612   4.613  11.555  0.9368  1.0457 -0.1268
 3178SOL    HW221171   3.527   4.545  11.465 -0.2800 -0.6008  1.4975
 3179SOL     OW21172   3.702   1.379   7.396 -0.0688 -0.1551 -0.6580
 3179SOL    HW121173   3.622   1.383   7.345  0.2146 -1.0413 -1.1659
 3179SOL    HW221174   3.713   1.288   7.421 -0.2082 -0.7052 -2.6222
 3180SOL     OW21175   2.594   1.858  11.354  0.2299 -0.4940  0.0449
 3180SOL    HW121176   2.540   1.923  11.399 -1.1158 -1.6723  0.1303
 3180SOL    HW221177   2.666   1.833  11.411  1.5419  0.4223 -1.1919
 3181SOL     OW21178   1.848   2.292  15.024  0.2333 -0.0468 -0.2480
 3181SOL    HW121179   1.824   2.373  15.067  0.9387  0.0181  0.0254
 3181SOL    HW221180   1.887   2.337  14.949  1.0837 -2.0299 -1.0176
 3182SOL     OW21181   3.282   4.378   2.095  0.2938 -0.3262  0.3946
 3182SOL    HW121182   3.231   4.403   2.171  2.4149  0.5647  1.5241
 3182SOL    HW221183   3.279   4.449   2.031  0.1296  0.7699  1.6363
 3183SOL     OW21184   2.842   1.789   2.588 -0.0660  0.6156 -0.0011
 3183SOL    HW121185   2.912   1.787   2.523 -1.6080 -0.8199 -1.6204
 3183SOL    HW221186   2.856   1.873   2.630 -1.9134  1.2306 -0.6110
 3184SOL     OW21187   4.055   2.213   9.974 -0.3847  0.3261 -0.0208
 3184SOL    HW121188   3.988   2.166   9.923 -0.5451 -0.4764  0.9187
 3184SOL    HW221189   4.005   2.254  10.045 -0.4257  1.6315 -0.8117
 3185SOL     OW21190   1.816   3.663   6.517 -0.2628  0.0420  0.0021
 3185SOL    HW121191   1.752   3.703   6.458  0.4434 -0.1975 -0.9345
 3185SOL    HW221192   1.793   3.571   6.503 -1.3685  0.8695 -3.8045
 3186SOL     OW21193   2.150   1.132  17.342 -0.0909 -0.2036  0.1063
 3186SOL    HW121194   2.127   1.060  17.400 -1.2543  1.0767  1.2412
 3186SOL    HW221195   2.230   1.099  17.300  0.4972 -0.6264  1.5392
 3187SOL     OW21196   0.673   3.986   8.363 -0.3706  0.4126  0.1934
 3187SOL    HW121197   0.680   4.058   8.301  0.4941  0.3095  0.1809
 3187SOL    HW221198   0.590   3.947   8.333  0.9090 -1.3369 -1.0493
 3188SOL     OW21199   1.553   4.008  14.417 -0.8190 -0.0962  0.8203
 3188SOL    HW121200   1.531   4.010  14.324  1.5849  1.9212  0.3259
 3188SOL    HW221201   1.542   3.913  14.430  0.5845 -0.1776  1.4601
 3189SOL     OW21202   0.623   1.830   2.387  0.4563  0.0037  0.0943
 3189SOL    HW121203   0.610   1.895   2.456 -0.8110  1.3092 -1.3841
 3189SOL    HW221204   0.540   1.817   2.341  0.9009  0.0119 -0.7130
 3190SOL     OW21205   0.321   1.219   2.848 -0.3781  0.0255 -0.3839
 3190SOL    HW121206   0.292   1.163   2.919  0.7666 -1.1680 -0.8538
 3190SOL    HW221207   0.361   1.288   2.901 -3.7601  0.1204  2.0564
 3191SOL     OW21208   1.297   3.335   5.694  0.0227  0.4132  0.1492
 3191SOL    HW121209   1.349   3.415   5.698  1.0171 -0.2575  0.9142
 3191SOL    HW221210   1.242   3.361   5.620 -2.4897 -1.0963  1.4925
 3192SOL     OW21211   1.645   4.133   6.971 -0.8269 -0.1568  0.1129
 3192SOL    HW121212   1.611   4.159   7.057  0.5742  0.6375  0.4240
 3192SOL    HW221213   1.735   4.165   6.978 -0.7777 -0.1173 -0.6262
 3193SOL     OW21214   1.557   2.948   6.768  0.2740  0.1777  0.3724
 3193SOL    HW121215   1.645   2.922   6.795  0.6406  1.2014  0.1454
 3193SOL    HW221216   1.514   2.986   6.844 -2.3931 -3.0623  0.4912
 3194SOL     OW21217   1.707   0.707  12.833 -0.1102 -0.3836  0.0724
 3194SOL    HW121218   1.684   0.736  12.922  0.1651 -1.0523  0.3587
 3194SOL    HW221219   1.720   0.614  12.849  1.8296 -0.2890 -1.0086
 3195SOL     OW21220   4.109   1.300   3.748 -0.0648  0.0187  0.4396
 3195SOL    HW121221   4.022   1.300   3.788 -0.3907 -1.8107 -0.2483
 3195SOL    HW221222   4.162   1.286   3.826 -1.6543  0.3951  1.5833
 3196SOL     OW21223   4.623   2.762   8.707  0.2365  0.0276 -0.0447
 3196SOL    HW121224   4.672   2.807   8.777  0.0331  1.4297 -0.8040
 3196SOL    HW221225   4.664   2.676   8.699  0.9194  0.2367  1.0561
 3197SOL     OW21226   4.232   1.316   6.453  0.7655  0.0122 -0.5700
 3197SOL    HW121227   4.187   1.263   6.388 -0.9979 -0.4300  1.0013
 3197SOL    HW221228   4.298   1.362   6.401  0.9170  0.7161  0.2386
 3198SOL     OW21229   3.967   0.667   4.761 -0.0934  0.9809 -0.0034
 3198SOL    HW121230   3.874   0.680   4.782  0.4159  1.1618  2.1586
 3198SOL    HW221231   3.958   0.614   4.682  0.8343  0.9291 -0.0773
 3199SOL     OW21232   1.388   3.683  16.688  0.1920 -0.1196  0.4356
 3199SOL    HW121233   1.443   3.732  16.626 -3.0049  0.1284 -2.2048
 3199SOL    HW221234   1.383   3.735  16.767  0.0425 -1.2751  1.1824
 3200SOL     OW21235   2.693   3.469   6.859  0.0101  0.3778  0.0213
 3200SOL    HW121236   2.786   3.447   6.866 -0.1146 -0.2240 -0.2859
 3200SOL    HW221237   2.670   3.404   6.793  3.6727 -1.1282  0.2327
 3201SOL     OW21238   4.586   3.511   5.404  0.2366 -0.0418 -0.7334
 3201SOL    HW121239   4.517   3.526   5.339 -0.9252  2.2243  1.0223
 3201SOL    HW221240   4.540   3.540   5.483 -0.7819 -1.7650 -0.6879
 3202SOL     OW21241   2.769   3.782   5.052 -0.0500  0.9554 -0.6685
 3202SOL    HW121242   2.710   3.839   5.005  0.7906  0.2853 -2.5544
 3202SOL    HW221243   2.851   3.800   5.006  0.4605 -0.6246 -0.4139
 3203SOL     OW21244   0.980   4.318   6.238  0.1295 -0.1718  0.1674
 3203SOL    HW121245   0.970   4.226   6.213 -0.9954  0.7524 -2.6953
 3203SOL    HW221246   0.952   4.319   6.330 -0.7491  2.9064 -0.1280
 3204SOL     OW21247   2.444   3.836   9.224  0.7473 -0.9084  0.4320
 3204SOL    HW121248   2.506   3.790   9.280 -0.1132 -0.8457  1.4317
 3204SOL    HW221249   2.445   3.922   9.265 -4.3042  0.0925 -1.4390
 3205SOL     OW21250   2.768   3.538   7.324 -0.0317  0.8092 -0.1480
 3205SOL    HW121251   2.688   3.485   7.324  1.2725 -1.1873 -1.3432
 3205SOL    HW221252   2.747   3.615   7.272  1.8846  1.8409  0.6205
 3206SOL     OW21253   0.073   1.576   4.605 -0.2479  0.1513  0.1249
 3206SOL    HW121254   0.147   1.538   4.557 -0.5149 -1.3840  0.9439
 3206SOL    HW221255   0.093   1.669   4.592  0.7437 -0.3084 -1.6264
 3207SOL     OW21256   2.215   2.413   1.398 -0.5045 -0.6784  0.3624
 3207SOL    HW121257   2.202   2.507   1.385 -0.2573 -0.7081 -0.0949
 3207SOL    HW221258   2.206   2.383   1.308  1.6080  0.0907 -0.1089
 3208SOL     OW21259   0.534   4.171  10.804 -0.1941  0.0680  0.1398
 3208SOL    HW121260   0.521   4.161  10.710  1.6337 -0.0796 -0.1014
 3208SOL    HW221261   0.473   4.241  10.825 -1.7116 -1.6537  1.4989
 3209SOL     OW21262   1.712   3.250  12.499 -0.4260 -0.3607 -0.0770
 3209SOL    HW121263   1.752   3.231  12.414  0.3779 -0.8857  0.4138
 3209SOL    HW221264   1.618   3.257  12.481 -0.0399 -1.0287 -2.3952
 3210SOL     OW21265   3.122   4.667   7.096 -0.2348  0.2707  0.5669
 3210SOL    HW121266   3.204   4.661   7.145 -0.4458 -1.3194  0.7050
 3210SOL    HW221267   3.108   4.578   7.065 -0.4401  0.7782 -0.8075
 3211SOL     OW21268   2.915   2.225  10.846  0.2518 -0.0274 -0.1041
 3211SOL    HW121269   2.891   2.153  10.904  0.2449 -1.7094 -2.1699
 3211SOL    HW221270   2.862   2.212  10.767 -1.2456 -1.8526  1.1944
 3212SOL     OW21271   4.461   4.616  11.442  0.1442  0.3803  0.3854
 3212SOL    HW121272   4.467   4.562  11.364 -0.3195  0.6529  0.1620
 3212SOL    HW221273   4.463   4.549  11.510  0.6699  0.8741  0.8663
 3213SOL     OW21274   3.867   3.857   2.145 -0.2427 -0.0568  0.4888
 3213SOL    HW121275   3.839   3.859   2.054  1.5180 -0.4264 -0.0557
 3213SOL    HW221276   3.782   3.863   2.188 -1.2704 -0.9927 -1.4407
 3214SOL     OW21277   1.350   3.356   8.665 -0.7923  0.1590 -0.3610
 3214SOL    HW121278   1.334   3.345   8.571  1.6316 -0.6422 -0.6981
 3214SOL    HW221279   1.430   3.408   8.660 -0.6897  0.1402  1.1742
 3215SOL     OW21280   4.341   0.196   2.899 -0.3912 -0.4054 -0.3546
 3215SOL    HW121281   4.374   0.180   2.811  1.3516  1.2610  0.0048
 3215SOL    HW221282   4.331   0.111   2.941  0.9821 -0.0725  0.6641
 3216SOL     OW21283   0.115   2.548  16.154 -0.3060  0.3425  0.3608
 3216SOL    HW121284   0.132   2.480  16.219 -1.4651 -1.1584 -0.8813
 3216SOL    HW221285   0.170   2.525  16.079 -1.5641  0.6844 -0.6802
 3217SOL     OW21286   4.719   2.082   3.226  0.5047 -0.2565  0.5333
 3217SOL    HW121287   4.725   2.174   3.255 -0.8068 -0.8558  2.7874
 3217SOL    HW221288   0.037   2.086   3.150  0.0231 -1.5976  0.1072
 3218SOL     OW21289   2.537   0.127   3.206  0.3950 -0.4195  0.0091
 3218SOL    HW121290   2.573   0.094   3.288 -1.1200  0.7842  1.1720
 3218SOL    HW221291   2.443   0.113   3.220  0.7957 -1.4730  1.6960
 3219SOL     OW21292   2.542   2.062  11.761 -0.0490  0.4328  0.5714
 3219SOL    HW121293   2.599   1.988  11.781  1.8533  2.4342  2.6975
 3219SOL    HW221294   2.500   2.037  11.679 -1.7963  1.1445  1.2573
 3220SOL     OW21295   1.873   2.592  10.674  0.4867 -0.1630 -0.2156
 3220SOL    HW121296   1.830   2.509  10.693  1.9417 -0.6108  1.0985
 3220SOL    HW221297   1.867   2.572  10.581  0.6047 -0.4327 -0.1640
 3221SOL     OW21298   3.188   1.403  12.158  0.9007  0.3765  0.0983
 3221SOL    HW121299   3.106   1.416  12.110  1.3498 -1.2297 -1.1390
 3221SOL    HW221300   3.213   1.311  12.149 -1.1500 -0.2305  0.7240
 3222SOL     OW21301   0.674   4.630   3.244  0.1541  0.3202  0.2698
 3222SOL    HW121302   0.698   4.697   3.308  1.0901 -0.2911  0.5633
 3222SOL    HW221303   0.672   4.690   3.170  1.5127  0.2287  0.1495
 3223SOL     OW21304   0.411   1.976   0.280  0.4706 -1.0549  0.1526
 3223SOL    HW121305   0.504   1.958   0.268  0.1459 -0.8002 -2.7404
 3223SOL    HW221306   0.389   2.003   0.191  1.6536  4.0090  1.4092
 3224SOL     OW21307   0.305   1.175   6.343 -0.2789  0.0474  0.1517
 3224SOL    HW121308   0.371   1.143   6.405 -1.2621  0.6973  1.5500
 3224SOL    HW221309   0.258   1.238   6.399 -0.2257 -0.3188  0.6106
 3225SOL     OW21310   3.570   2.585   2.310  0.2493  0.6706 -0.5829
 3225SOL    HW121311   3.622   2.650   2.263  1.9945 -0.1378  0.2503
 3225SOL    HW221312   3.587   2.504   2.262 -1.0240 -0.0264  0.1408
 3226SOL     OW21313   3.898   2.167  12.614  0.5014 -0.0646 -0.4648
 3226SOL    HW121314   3.974   2.168  12.556 -0.2477 -2.2832 -1.4762
 3226SOL    HW221315   3.906   2.075  12.642  2.7733  0.4647  0.6819
 3227SOL     OW21316   1.212   2.512   7.056  0.6472 -0.1107 -0.5411
 3227SOL    HW121317   1.222   2.457   6.978  2.4077  2.5409 -2.1564
 3227SOL    HW221318   1.258   2.451   7.114  2.0452  1.8540  0.4100
 3228SOL     OW21319   0.427   4.031   8.560  0.1641  0.1852  0.1873
 3228SOL    HW121320   0.442   3.941   8.590  0.3515  0.3274  0.5275
 3228SOL    HW221321   0.406   4.012   8.469 -1.5390 -1.0513  0.8440
 3229SOL     OW21322   2.849   1.086   9.863 -0.0664 -0.0897  0.2733
 3229SOL    HW121323   2.878   1.155   9.922  0.7732 -0.8265  0.7274
 3229SOL    HW221324   2.834   1.027   9.937 -1.8631  2.1096  1.6342
 3230SOL     OW21325   1.714   4.477   7.566  0.0187  0.0248  0.0958
 3230SOL    HW121326   1.659   4.543   7.525  0.0400 -0.0148  0.0045
 3230SOL    HW221327   1.794   4.519   7.598  0.2746  0.4001 -1.0266
 3231SOL     OW21328   2.924   2.024   2.689  0.4085  0.4321 -0.0953
 3231SOL    HW121329   2.917   2.099   2.630  1.0003 -0.8271 -1.7675
 3231SOL    HW221330   2.900   2.056   2.776 -0.6646  0.1026 -0.2710
 3232SOL     OW21331   4.394   0.303  15.903 -0.3657 -0.3577  0.0696
 3232SOL    HW121332   4.421   0.212  15.897 -1.0700 -0.6135  0.8209
 3232SOL    HW221333   4.472   0.339  15.945 -1.8659  0.3832  2.2093
 3233SOL     OW21334   2.347   0.578   6.336  0.2809  0.1639  0.1048
 3233SOL    HW121335   2.354   0.669   6.363 -0.2141  0.4831 -0.8605
 3233SOL    HW221336   2.256   0.561   6.363 -0.3212  2.1272 -0.7087
 3234SOL     OW21337   3.943   2.339   7.648 -0.2677  0.1134 -0.0653
 3234SOL    HW121338   3.983   2.322   7.733  3.5051 -0.9517 -2.0605
 3234SOL    HW221339   3.853   2.333   7.679 -0.7141  1.1269 -1.1608
 3235SOL     OW21340   1.682   3.212   6.744  0.2767  0.1947  0.2494
 3235SOL    HW121341   1.603   3.158   6.749  0.6871 -0.5532 -1.4906
 3235SOL    HW221342   1.673   3.256   6.829 -0.6284  2.6499 -1.1214
 3236SOL     OW21343   1.835   2.413   4.853 -0.3304  0.3374 -0.3680
 3236SOL    HW121344   1.837   2.507   4.874 -1.7570 -0.3628  2.8242
 3236SOL    HW221345   1.893   2.421   4.777  2.3790  0.3215  1.7510
 3237SOL     OW21346   2.032   1.100   1.466  0.2342  0.9200 -0.4229
 3237SOL    HW121347   2.072   1.015   1.484 -1.2880 -0.1318 -2.0914
 3237SOL    HW221348   1.941   1.085   1.490  0.5917  0.7254  0.7930
 3238SOL     OW21349   3.125   0.524   4.898  0.3904  0.5533 -0.0613
 3238SOL    HW121350   3.179   0.445   4.910  0.3413  0.3671 -0.9954
 3238SOL    HW221351   3.154   0.542   4.808  0.3830 -0.2745 -0.2363
 3239SOL     OW21352   0.754   2.951   2.773  0.0957  0.4405 -0.3763
 3239SOL    HW121353   0.672   3.000   2.767  0.5777  1.2123 -0.6158
 3239SOL    HW221354   0.771   2.958   2.867 -1.6515  0.2830 -0.0367
 3240SOL     OW21355   0.436   3.741   8.597 -0.1759  0.3379 -0.6415
 3240SOL    HW121356   0.392   3.740   8.511 -0.5100  1.0509 -0.4837
 3240SOL    HW221357   0.365   3.699   8.646 -0.1528  0.0865 -0.8242
 3241SOL     OW21358   3.811   4.110  16.414 -0.3887 -0.1255  0.1380
 3241SOL    HW121359   3.771   4.169  16.478  0.6615  0.3986  0.3157
 3241SOL    HW221360   3.894   4.156  16.406 -1.3206  0.9988 -2.7486
 3242SOL     OW21361   1.149   3.773  12.926  0.2164  0.3735  0.5953
 3242SOL    HW121362   1.204   3.847  12.954  1.1458 -0.2130  0.3251
 3242SOL    HW221363   1.067   3.821  12.917  0.0152 -0.2096 -0.7284
 3243SOL     OW21364   1.893   3.043   6.633 -0.4270 -0.3363 -0.4221
 3243SOL    HW121365   1.813   3.087   6.661  0.0304 -0.2937  0.8067
 3243SOL    HW221366   1.898   2.965   6.688  0.3356 -1.4277 -2.0220
 3244SOL     OW21367   4.544   0.547   8.973  0.6048  0.4507  0.0885
 3244SOL    HW121368   4.468   0.587   9.016 -0.6617 -0.4326 -1.3310
 3244SOL    HW221369   4.511   0.461   8.951 -1.3577  1.2533 -0.0806
 3245SOL     OW21370   2.649   2.147  10.380 -0.0702  0.1234  0.3946
 3245SOL    HW121371   2.628   2.126  10.289  0.6839  2.4547 -0.3118
 3245SOL    HW221372   2.704   2.073  10.406  1.9430  1.5417  0.2161
 3246SOL     OW21373   4.446   3.212   3.124  0.7382  0.1241 -0.3190
 3246SOL    HW121374   4.393   3.275   3.075  0.5127  1.7006  1.9370
 3246SOL    HW221375   4.449   3.140   3.062  0.6975 -1.4063  1.4704
 3247SOL     OW21376   0.692   2.133   0.344 -0.5163  0.0605 -0.0125
 3247SOL    HW121377   0.775   2.169   0.375  0.0500 -0.3939 -1.0164
 3247SOL    HW221378   0.634   2.183   0.403  1.6742  3.2771 -0.5932
 3248SOL     OW21379   3.388   1.445   1.979  0.7938 -0.6014  0.3238
 3248SOL    HW121380   3.352   1.523   1.937  0.1039 -0.7769  0.5947
 3248SOL    HW221381   3.382   1.486   2.066 -0.3792 -0.6347  0.2555
 3249SOL     OW21382   2.317   0.710  14.951 -0.1290 -0.4128 -0.2940
 3249SOL    HW121383   2.371   0.718  15.030 -0.3083 -0.5395 -0.1578
 3249SOL    HW221384   2.381   0.724  14.881  0.2534  0.8611  0.3027
 3250SOL     OW21385   4.234   0.902  17.733 -0.5669 -0.1311  0.2187
 3250SOL    HW121386   4.167   0.856  17.681 -2.3994  1.6069  1.0284
 3250SOL    HW221387   4.181   0.936   0.050  1.8744  1.2420  1.3592
 3251SOL     OW21388   2.379   3.398   5.480  0.1727 -0.2770  0.7909
 3251SOL    HW121389   2.291   3.362   5.467 -0.6146  1.0820  2.4149
 3251SOL    HW221390   2.406   3.425   5.392  0.3852 -0.4779  0.7931
 3252SOL     OW21391   1.789   3.440   3.453 -0.1352 -0.2127  0.0140
 3252SOL    HW121392   1.778   3.376   3.523 -0.0386  0.5001  0.6703
 3252SOL    HW221393   1.786   3.389   3.371  0.4825 -1.3706  0.7088
 3253SOL     OW21394   4.710   0.013   7.058  0.4175 -0.0885 -0.5093
 3253SOL    HW121395   0.036   0.083   7.068 -0.0079  0.2718 -0.2489
 3253SOL    HW221396   0.010   4.717   6.978 -0.2991  0.4063 -1.0806
 3254SOL     OW21397   0.621   1.297  10.479 -0.1304 -0.0640  0.3734
 3254SOL    HW121398   0.676   1.367  10.443  0.7335 -0.7500  0.3381
 3254SOL    HW221399   0.536   1.320  10.442 -0.3722 -2.3789 -0.4958
 3255SOL     OW21400   4.119   1.573  12.529  0.0647 -0.1204 -0.1991
 3255SOL    HW121401   4.122   1.662  12.495  0.4343  0.1780  0.6231
 3255SOL    HW221402   4.083   1.530  12.451 -3.9813  0.1300  1.5402
 3256SOL     OW21403   2.612   1.159  11.684 -0.3401 -0.3826 -0.4895
 3256SOL    HW121404   2.582   1.168  11.774  1.6899 -1.5648  0.3198
 3256SOL    HW221405   2.694   1.112  11.701 -0.2827 -0.5116 -1.1303
 3257SOL     OW21406   3.305   0.444   0.593  0.2456 -0.6296 -0.1541
 3257SOL    HW121407   3.211   0.454   0.608  0.2103 -0.1721 -0.6704
 3257SOL    HW221408   3.314   0.435   0.498  1.0709  1.6210 -0.2911
 3258SOL     OW21409   2.949   3.020   7.489 -0.0794 -0.3922  0.4355
 3258SOL    HW121410   2.884   3.070   7.440  3.5643  1.3541 -2.6298
 3258SOL    HW221411   2.901   2.975   7.557  3.0150 -1.7297  1.7345
 3259SOL     OW21412   1.704   1.842   1.879  0.0879 -0.3950 -0.4864
 3259SOL    HW121413   1.611   1.863   1.878 -0.2983 -2.1041 -1.1712
 3259SOL    HW221414   1.709   1.750   1.855  1.0386 -0.6052  0.5028
 3260SOL     OW21415   3.072   0.015   2.485 -0.3284 -0.4418 -0.2412
 3260SOL    HW121416   3.061   0.051   2.572  0.1256  0.1668 -0.4354
 3260SOL    HW221417   2.979   0.005   2.466 -0.0611 -3.5710  0.1610
 3261SOL     OW21418   2.818   1.628   8.786 -0.4313 -0.3882  0.4105
 3261SOL    HW121419   2.735   1.585   8.809  0.6582 -2.3695  0.6094
 3261SOL    HW221420   2.792   1.720   8.776  0.6632 -0.2056 -0.6504
 3262SOL     OW21421   1.568   0.605   3.175 -0.5077 -0.3157  0.2673
 3262SOL    HW121422   1.519   0.571   3.100  1.4740  0.7392 -1.5107
 3262SOL    HW221423   1.653   0.562   3.170 -2.2145 -3.4719 -1.1947
 3263SOL     OW21424   0.309   4.478   6.538 -0.6999  0.3956 -0.1041
 3263SOL    HW121425   0.335   4.477   6.630 -1.8195 -0.6300  0.1937
 3263SOL    HW221426   0.287   4.388   6.516  2.1040 -0.3233 -0.0333
 3264SOL     OW21427   1.153   4.299   8.478  0.0758  0.0353  0.3944
 3264SOL    HW121428   1.171   4.339   8.392  1.0593  0.2684  0.7127
 3264SOL    HW221429   1.096   4.230   8.442  0.9179  2.0549 -4.9113
 3265SOL     OW21430   3.286   3.107   7.074 -0.0129 -0.2948 -0.6749
 3265SOL    HW121431   3.255   3.172   7.137 -0.0105 -1.6105  0.6539
 3265SOL    HW221432   3.367   3.151   7.048 -0.5106  0.8184 -0.3389
 3266SOL     OW21433   2.418   0.179   8.290  0.3549  0.0088  0.7434
 3266SOL    HW121434   2.491   0.132   8.331  0.5542 -2.2040 -2.1345
 3266SOL    HW221435   2.365   0.111   8.247 -1.7039  2.4035 -0.4774
 3267SOL     OW21436   3.415   4.188   6.823 -0.4185  0.1745  0.1985
 3267SOL    HW121437   3.351   4.223   6.761  0.6665 -1.6133 -1.9494
 3267SOL    HW221438   3.473   4.138   6.765  0.1412 -2.1963  2.8028
 3268SOL     OW21439   4.694   2.013   2.234 -0.3226  0.5376  0.2962
 3268SOL    HW121440   0.008   2.082   2.273  0.9312 -0.6344  0.6374
 3268SOL    HW221441   0.019   1.943   2.243 -1.2734 -0.1765  1.5215
 3269SOL     OW21442   1.702   3.646   6.917  0.2810  0.2658 -0.5954
 3269SOL    HW121443   1.622   3.677   6.958  1.0070  0.0184  1.0172
 3269SOL    HW221444   1.678   3.643   6.824 -0.8599 -0.1048 -0.2854
 3270SOL     OW21445   2.623   3.831   2.098  0.0821 -0.1550 -0.3154
 3270SOL    HW121446   2.642   3.746   2.138  0.7720  0.9123  1.5914
 3270SOL    HW221447   2.683   3.834   2.023 -1.9391  0.0302 -1.9234
 3271SOL     OW21448   1.530   1.151   7.861 -0.4332  1.6868  0.6225
 3271SOL    HW121449   1.576   1.198   7.931 -1.2228 -1.8042  3.4815
 3271SOL    HW221450   1.508   1.226   7.806 -0.3879  0.4856 -1.0331
 3272SOL     OW21451   2.708   3.622   8.079  0.8544  0.1559 -0.1348
 3272SOL    HW121452   2.669   3.538   8.053  0.3275 -0.2262  1.9424
 3272SOL    HW221453   2.725   3.661   7.993  1.8165 -2.1187 -0.9969
 3273SOL     OW21454   1.198   1.951  13.296 -0.1812 -0.1059 -0.4453
 3273SOL    HW121455   1.107   1.936  13.269 -0.8735 -0.3880  2.0363
 3273SOL    HW221456   1.230   2.010  13.228 -0.4804  1.9498  1.2084
 3274SOL     OW21457   1.793   0.459   4.610 -0.6020  0.2205  0.9405
 3274SOL    HW121458   1.792   0.368   4.640 -0.3983 -0.0746  0.0258
 3274SOL    HW221459   1.700   0.481   4.619  0.0547  2.4426  2.3799
 3275SOL     OW21460   4.295   1.841   4.153  0.1585  0.2162  0.3013
 3275SOL    HW121461   4.341   1.924   4.149  1.4353 -0.4912  0.3398
 3275SOL    HW221462   4.359   1.772   4.139  1.4666  1.3730  0.5876
 3276SOL     OW21463   3.785   1.914   6.440 -0.2956 -0.2275  0.5496
 3276SOL    HW121464   3.861   1.858   6.454 -0.4289 -1.0713 -2.0339
 3276SOL    HW221465   3.742   1.928   6.525  0.9035 -0.7360  1.2378
 3277SOL     OW21466   1.982   0.567   7.031 -0.2294 -0.2658 -0.5827
 3277SOL    HW121467   2.005   0.502   6.965 -1.1864 -1.5431  0.3491
 3277SOL    HW221468   1.986   0.503   7.102  0.9136 -1.9945 -2.2424
 3278SOL     OW21469   3.476   0.046  12.844 -0.4100 -0.0220 -0.1436
 3278SOL    HW121470   3.411   0.069  12.910 -0.4995  3.2123 -1.3671
 3278SOL    HW221471   3.561   0.050  12.888 -1.0736 -0.4998  1.1712
 3279SOL     OW21472   0.596   2.991   6.257  1.0492 -0.1917 -0.4459
 3279SOL    HW121473   0.532   3.060   6.276 -0.1555 -1.0479 -1.3647
 3279SOL    HW221474   0.603   2.994   6.162  1.8779  0.5971 -0.3630
 3280SOL     OW21475   2.624   2.983  11.399  0.4922 -0.3480 -0.8702
 3280SOL    HW121476   2.600   3.040  11.472 -1.3809 -0.6689 -1.2437
 3280SOL    HW221477   2.697   2.934  11.436 -0.3028  0.0952  1.2923
 3281SOL     OW21478   1.210   3.369  14.715 -0.1244 -0.6598  0.4759
 3281SOL    HW121479   1.164   3.331  14.640  0.3843 -0.6259  0.1510
 3281SOL    HW221480   1.259   3.435  14.666 -1.2650  0.1466  0.4144
 3282SOL     OW21481   4.659   1.776   3.811 -0.6510  0.7384  0.0130
 3282SOL    HW121482   4.675   1.739   3.724 -0.7326  1.7398 -0.4370
 3282SOL    HW221483   0.006   1.804   3.842  0.2165 -1.9934  0.0411
 3283SOL     OW21484   0.348   1.734   5.993  0.1097 -0.1722  0.5711
 3283SOL    HW121485   0.276   1.730   6.057 -2.1813 -0.2067 -2.0079
 3283SOL    HW221486   0.345   1.827   5.971 -2.5438 -0.2114  0.8126
 3284SOL     OW21487   3.822   4.472   0.026  0.5629 -0.5099 -0.5710
 3284SOL    HW121488   3.755   4.479  17.713  0.7336 -0.1155 -0.7015
 3284SOL    HW221489   3.880   4.546   0.007 -0.8546  0.8740  0.4986
 3285SOL     OW21490   4.356   2.025   3.345 -0.2312  0.6135 -0.2028
 3285SOL    HW121491   4.322   1.937   3.359  0.8394  0.4207  1.2089
 3285SOL    HW221492   4.406   2.011   3.264 -1.9830  0.4364 -1.2429
 3286SOL     OW21493   2.947   1.304   6.176 -0.3187 -0.0823  0.3555
 3286SOL    HW121494   2.910   1.335   6.258  0.8270 -1.9490  1.5560
 3286SOL    HW221495   2.985   1.221   6.205  1.1148  0.4465  0.0392
 3287SOL     OW21496   3.748   0.031   8.335  0.0213  0.2923 -0.0468
 3287SOL    HW121497   3.722   0.078   8.257 -2.8983  1.3665  1.5801
 3287SOL    HW221498   3.731   0.090   8.408  1.3633 -1.2036  1.4959
 3288SOL     OW21499   4.494   1.407   4.301 -0.1394  0.7046 -0.2871
 3288SOL    HW121500   4.510   1.360   4.219 -2.8465 -1.4565  0.4282
 3288SOL    HW221501   4.564   1.471   4.290  0.3054  0.8242  3.1157
 3289SOL     OW21502   2.931   0.167  12.802 -0.2324  0.1748 -0.5336
 3289SOL    HW121503   2.845   0.204  12.827 -0.2065 -0.2859  0.2489
 3289SOL    HW221504   2.981   0.245  12.826 -2.2343  1.4478 -0.4505
 3290SOL     OW21505   1.669   3.063  11.721  0.7927 -0.4543  0.0385
 3290SOL    HW121506   1.687   3.122  11.648  0.1609 -1.9850 -1.3590
 3290SOL    HW221507   1.671   3.128  11.792  2.3942  1.1166 -1.4392
 3291SOL     OW21508   1.902   3.287   2.596  0.0154 -0.3229  0.3697
 3291SOL    HW121509   1.848   3.274   2.674  1.1756  0.4172  1.2924
 3291SOL    HW221510   1.946   3.370   2.613 -0.9941 -0.0952  1.8741
 3292SOL     OW21511   0.958   1.952   7.677  0.6392 -0.4008 -0.1285
 3292SOL    HW121512   0.917   2.001   7.748  0.8436 -3.1114  1.8463
 3292SOL    HW221513   0.881   1.911   7.637  0.7792  1.3273 -2.1988
 3293SOL     OW21514   2.590   3.896   4.879 -0.0384  1.0164  0.7152
 3293SOL    HW121515   2.612   3.987   4.858 -0.1481  1.1542  1.1858
 3293SOL    HW221516   2.529   3.865   4.813  0.0228 -1.9281  2.0701
 3294SOL     OW21517   0.782   1.356   1.320 -0.1348 -0.0107  0.1180
 3294SOL    HW121518   0.728   1.280   1.344 -0.4475  0.6878  1.6322
 3294SOL    HW221519   0.755   1.421   1.384  0.4854  0.5880 -0.2286
 3295SOL     OW21520   1.541   2.953   8.542  0.2451 -0.1325 -0.3929
 3295SOL    HW121521   1.490   2.968   8.463  1.7524  0.7501 -1.1933
 3295SOL    HW221522   1.612   3.012   8.518  1.2292 -1.3271 -0.4059
 3296SOL     OW21523   2.345   1.118   4.217 -0.1598 -0.0245  0.1131
 3296SOL    HW121524   2.349   1.039   4.271 -1.7744 -0.3835 -0.2994
 3296SOL    HW221525   2.434   1.153   4.216 -1.2333  2.7355  0.3563
 3297SOL     OW21526   3.014   4.201   8.225  0.3782  0.0523 -0.8035
 3297SOL    HW121527   3.074   4.157   8.286 -1.4141  1.1825  1.7948
 3297SOL    HW221528   3.039   4.292   8.237  0.5616 -0.2824  1.4202
 3298SOL     OW21529   2.003   3.206   8.280  0.1570 -0.4050  0.0535
 3298SOL    HW121530   2.053   3.272   8.232 -3.5666 -0.0508 -3.3702
 3298SOL    HW221531   1.912   3.222   8.255  0.0155 -0.0939  0.7800
 3299SOL     OW21532   2.728   3.378   2.040 -0.0739  0.7932 -0.2350
 3299SOL    HW121533   2.675   3.352   2.116  0.7928 -0.6208 -0.1258
 3299SOL    HW221534   2.665   3.396   1.970 -1.6169 -0.0900  0.9113
 3300SOL     OW21535   1.049   4.440   7.065  0.0094 -0.2180  0.1505
 3300SOL    HW121536   1.126   4.497   7.061 -2.1669  2.6295 -1.4881
 3300SOL    HW221537   0.980   4.506   7.070  0.5692  0.3033  0.8563
 3301SOL     OW21538   0.023   0.605   6.746 -0.3026 -0.4401 -0.2797
 3301SOL    HW121539   0.043   0.658   6.823  1.1709  0.1482 -1.0681
 3301SOL    HW221540   4.691   0.659   6.711  0.5132  0.3655 -0.6711
 3302SOL     OW21541   1.919   4.705   5.645 -0.0046  0.4570 -0.0288
 3302SOL    HW121542   1.829   4.738   5.642 -0.0178  0.2648 -1.9135
 3302SOL    HW221543   1.908   4.622   5.597  1.8661 -0.6414  1.4742
 3303SOL     OW21544   2.056   3.509   5.702 -0.2053  0.0425  0.0351
 3303SOL    HW121545   2.103   3.430   5.727 -3.1106 -1.3843  1.0141
 3303SOL    HW221546   2.014   3.487   5.618 -1.8714  0.7593  0.6854
 3304SOL     OW21547   1.187   4.238  14.011  1.0089  0.2361 -0.1358
 3304SOL    HW121548   1.278   4.264  14.023  0.3491  2.3045  0.3710
 3304SOL    HW221549   1.179   4.184  14.089  0.1948  0.9986  0.3057
 3305SOL     OW21550   2.980   3.085   7.099  0.3644 -0.0642  0.4055
 3305SOL    HW121551   3.072   3.075   7.078 -0.4880 -1.6245 -2.5595
 3305SOL    HW221552   2.936   3.028   7.036  1.2491  0.6467 -0.8692
 3306SOL     OW21553   0.943   1.879  13.140 -0.4615  0.7240 -0.2849
 3306SOL    HW121554   0.894   1.806  13.103  0.2672 -0.4427  1.0588
 3306SOL    HW221555   0.990   1.911  13.062  0.4957 -1.1254 -0.4818
 3307SOL     OW21556   2.399   1.731   9.082  0.4312  0.1530  0.0546
 3307SOL    HW121557   2.432   1.642   9.098  0.6109  0.4141  1.1691
 3307SOL    HW221558   2.304   1.726   9.089  0.6783 -1.1608  2.7580
 3308SOL     OW21559   1.445   4.453  11.095  0.0566 -0.1072 -0.0263
 3308SOL    HW121560   1.403   4.414  11.018  0.5146 -1.2688  0.3159
 3308SOL    HW221561   1.536   4.470  11.070  0.1336  0.7907  0.8839
 3309SOL     OW21562   3.717   1.783   5.203  0.3581 -0.6284 -0.0354
 3309SOL    HW121563   3.790   1.831   5.163  1.2744 -0.7129  1.5557
 3309SOL    HW221564   3.736   1.696   5.167  1.6518  0.1640 -1.2748
 3310SOL     OW21565   4.316   3.303   5.552 -0.2172  0.1453  0.1107
 3310SOL    HW121566   4.379   3.237   5.582 -1.0778 -1.6328 -2.0328
 3310SOL    HW221567   4.334   3.304   5.458 -1.2746 -1.4515 -0.1095
 3311SOL     OW21568   3.483   1.817   3.780  0.8042  0.1984  0.0220
 3311SOL    HW121569   3.562   1.852   3.739 -1.3978  3.3921 -1.4696
 3311SOL    HW221570   3.520   1.777   3.860  1.1824 -2.2461 -1.3725
 3312SOL     OW21571   2.105   2.951   5.005 -0.6568  0.2483  0.1043
 3312SOL    HW121572   2.124   3.043   4.986 -0.0038  0.1999  0.5630
 3312SOL    HW221573   2.113   2.952   5.100  1.3937  0.4144 -0.0729
 3313SOL     OW21574   3.495   1.697   6.529 -0.2595 -0.3340  0.5774
 3313SOL    HW121575   3.414   1.658   6.495  0.2860 -0.2988 -0.7483
 3313SOL    HW221576   3.559   1.662   6.468 -0.1252 -0.4444  0.7829
 3314SOL     OW21577   3.732   4.084   7.922 -0.2057 -0.0273 -0.1194
 3314SOL    HW121578   3.637   4.072   7.928 -0.0376  0.0960  2.6889
 3314SOL    HW221579   3.742   4.146   7.850  1.0456 -0.8702 -0.6710
 3315SOL     OW21580   0.325   4.400   8.518  0.0193 -0.1348 -0.0460
 3315SOL    HW121581   0.387   4.333   8.547 -0.0275 -0.8121 -1.5129
 3315SOL    HW221582   0.275   4.337   8.466 -0.3517  1.1902 -1.2891
 3316SOL     OW21583   4.288   1.410   5.967 -0.6343 -0.8085  0.8599
 3316SOL    HW121584   4.260   1.359   5.892  1.2181 -0.0047 -0.3691
 3316SOL    HW221585   4.274   1.497   5.931  1.4280 -0.5700  0.6952
 3317SOL     OW21586   3.688   1.586   8.498 -0.1652  0.6185  0.1665
 3317SOL    HW121587   3.732   1.508   8.466 -0.3474 -0.4927  2.5896
 3317SOL    HW221588   3.628   1.543   8.559  0.3120 -0.0026  0.2018
 3318SOL     OW21589   0.346   2.801   1.368 -0.6598 -0.2362  0.9618
 3318SOL    HW121590   0.312   2.777   1.455 -0.0135 -0.4253  1.1590
 3318SOL    HW221591   0.277   2.858   1.334  0.5938  0.1434 -0.8953
 3319SOL     OW21592   1.577   0.853  15.436 -0.3635 -0.3595 -0.0687
 3319SOL    HW121593   1.511   0.803  15.483 -1.0857  0.1668 -0.5179
 3319SOL    HW221594   1.579   0.798  15.357  0.2015 -0.8606  0.2957
 3320SOL     OW21595   3.205   2.663   3.385 -0.0543 -0.7334  0.6955
 3320SOL    HW121596   3.291   2.664   3.345  1.1554  3.5069  3.4599
 3320SOL    HW221597   3.219   2.592   3.447 -0.3823 -1.6856 -0.3104
 3321SOL     OW21598   2.936   0.163   3.867  0.4694 -0.1861  0.4231
 3321SOL    HW121599   2.857   0.121   3.899  0.4570 -0.2259  0.3402
 3321SOL    HW221600   2.918   0.146   3.775 -0.9641 -0.0879  0.6914
 3322SOL     OW21601   3.803   3.131  14.115 -0.6610 -0.7216  0.6539
 3322SOL    HW121602   3.835   3.221  14.102  1.1922 -1.6913 -1.3867
 3322SOL    HW221603   3.712   3.132  14.086 -0.4015  0.9065 -0.1677
 3323SOL     OW21604   3.841   3.273   7.029  0.0244 -0.3895 -0.4465
 3323SOL    HW121605   3.810   3.346   6.974 -1.2052  0.7985  1.8251
 3323SOL    HW221606   3.929   3.258   6.996 -0.0333 -2.5626  0.4402
 3324SOL     OW21607   2.654   1.154   5.920 -0.1335  0.3293 -0.1501
 3324SOL    HW121608   2.676   1.205   5.997  0.6059  1.9104 -1.4102
 3324SOL    HW221609   2.577   1.112   5.960  1.8690 -1.6194  1.6253
 3325SOL     OW21610   2.297   4.491   1.928  0.1800  0.1826  0.4421
 3325SOL    HW121611   2.378   4.489   1.979  0.5543 -0.8345 -0.1723
 3325SOL    HW221612   2.284   4.397   1.916 -1.2994  0.0796  3.0665
 3326SOL     OW21613   0.387   3.357   1.131  0.3254 -0.0004 -0.1967
 3326SOL    HW121614   0.406   3.443   1.169  1.1410 -0.8449  1.2993
 3326SOL    HW221615   0.467   3.345   1.080  0.6055 -0.9136  0.4577
 3327SOL     OW21616   3.458   0.499   3.908  0.1250 -0.5061  0.8619
 3327SOL    HW121617   3.509   0.448   3.970 -0.2820  0.0492  1.6508
 3327SOL    HW221618   3.502   0.474   3.826 -0.1778 -0.4893  0.6944
 3328SOL     OW21619   2.702   0.363   7.395  0.2826  0.2517 -0.4921
 3328SOL    HW121620   2.664   0.450   7.405 -0.8538 -0.1502 -1.2666
 3328SOL    HW221621   2.661   0.321   7.319 -1.2406  1.5367 -0.3735
 3329SOL     OW21622   1.267   2.540   8.056 -0.6029  0.4960 -0.2462
 3329SOL    HW121623   1.175   2.563   8.073 -0.4834  0.4506  0.4938
 3329SOL    HW221624   1.260   2.498   7.971 -0.2130  1.9503 -0.9959
 3330SOL     OW21625   3.085   4.458   8.212 -0.6031  0.4916 -0.3628
 3330SOL    HW121626   3.104   4.482   8.121 -1.3912 -2.3343 -1.2742
 3330SOL    HW221627   3.143   4.518   8.259  0.2148 -0.1926 -0.4996
 3331SOL     OW21628   2.594   4.349   9.626  0.2692  0.0155 -0.4285
 3331SOL    HW121629   2.547   4.327   9.707 -0.1808 -1.0550 -0.9764
 3331SOL    HW221630   2.615   4.261   9.595  0.2014  0.8311 -2.7537
 3332SOL     OW21631   4.009   4.047   7.660 -0.3856 -0.0397 -0.1162
 3332SOL    HW121632   4.026   4.135   7.694  0.4095  0.0132 -0.6426
 3332SOL    HW221633   4.086   4.041   7.604 -0.5502 -0.6143 -0.2815
 3333SOL     OW21634   4.049   3.485   4.908 -0.1995 -0.3269 -0.3568
 3333SOL    HW121635   4.117   3.548   4.885 -0.5297 -0.6530 -2.1909
 3333SOL    HW221636   4.080   3.404   4.867 -2.8240 -1.2574 -0.4814
 3334SOL     OW21637   0.191   3.357  16.255  0.1121 -0.6200 -0.7535
 3334SOL    HW121638   0.172   3.337  16.347  2.7081 -1.4286 -0.3908
 3334SOL    HW221639   0.275   3.401  16.270 -1.3501  1.3170  1.5989
 3335SOL     OW21640   0.305   4.620   7.495  0.3294  0.0367  0.1626
 3335SOL    HW121641   0.313   4.576   7.411  1.4531  1.3098 -0.4056
 3335SOL    HW221642   0.222   4.665   7.483  1.3824  2.1524  0.8702
 3336SOL     OW21643   2.994   1.063  10.125 -0.0133  0.1621 -0.1931
 3336SOL    HW121644   3.070   1.017  10.091  0.5703  0.2643  0.9820
 3336SOL    HW221645   3.007   1.151  10.088  0.4479  0.7140  1.2922
 3337SOL     OW21646   1.645   4.353   1.788 -0.1669  0.3221  0.6011
 3337SOL    HW121647   1.710   4.398   1.842  1.7113 -0.8272 -0.6970
 3337SOL    HW221648   1.606   4.293   1.852  2.4283 -2.1057 -0.1074
 3338SOL     OW21649   3.284   3.248  10.756  0.1341  0.2635  0.0807
 3338SOL    HW121650   3.193   3.278  10.766 -0.4306 -1.4563  0.0340
 3338SOL    HW221651   3.326   3.333  10.741  1.1588 -0.1657  0.5241
 3339SOL     OW21652   0.445   1.502  13.205  0.2494 -0.1284 -0.2494
 3339SOL    HW121653   0.441   1.555  13.126  1.4273  0.9483  0.4193
 3339SOL    HW221654   0.489   1.556  13.271  0.7313 -0.6014 -0.1781
 3340SOL     OW21655   3.282   3.057   6.796  0.0769 -0.5843 -0.3266
 3340SOL    HW121656   3.272   3.143   6.839  1.9067 -1.3527  1.6462
 3340SOL    HW221657   3.219   3.076   6.727 -1.7620 -0.9368  1.2569
 3341SOL     OW21658   2.646   1.159   8.223 -0.5065 -0.4941  0.5396
 3341SOL    HW121659   2.552   1.164   8.239  0.0338 -3.9167  4.5676
 3341SOL    HW221660   2.646   1.181   8.129  0.0104  0.4089  0.7469
 3342SOL     OW21661   4.007   0.850  17.598  0.0615 -0.1087 -0.2490
 3342SOL    HW121662   3.956   0.778  17.633 -0.8282  0.7609  0.2548
 3342SOL    HW221663   3.999   0.824  17.506 -0.5717  3.1366 -1.1239
 3343SOL     OW21664   3.714   0.444   3.348 -0.4115 -0.4925  0.1664
 3343SOL    HW121665   3.686   0.519   3.400  0.2278 -0.0656 -0.1140
 3343SOL    HW221666   3.638   0.429   3.291 -0.4902  1.1027 -0.1464
 3344SOL     OW21667   3.708   4.489  17.311  0.4645 -0.4172  0.6515
 3344SOL    HW121668   3.799   4.517  17.324  0.5679 -0.8624  0.8919
 3344SOL    HW221669   3.664   4.507  17.394  1.3523  0.5498  0.9183
 3345SOL     OW21670   2.515   0.234  13.800  0.0133  0.2190 -0.5274
 3345SOL    HW121671   2.552   0.295  13.864  0.4090 -2.1192  1.5076
 3345SOL    HW221672   2.497   0.290  13.725  1.0751  0.3640 -0.6676
 3346SOL     OW21673   2.273   0.130  15.675 -0.5917  0.3942  0.2110
 3346SOL    HW121674   2.238   0.057  15.624 -0.3799 -1.1246  2.2212
 3346SOL    HW221675   2.265   0.206  15.617  3.5714  0.7111  0.0635
 3347SOL     OW21676   4.623   2.453   7.857 -0.1579  0.4178 -0.2140
 3347SOL    HW121677   4.596   2.409   7.937  0.8242  2.5103  1.2739
 3347SOL    HW221678   4.614   2.545   7.883 -2.1482  0.5221 -1.2488
 3348SOL     OW21679   4.392   1.490   5.264  0.4446 -0.2895  0.2609
 3348SOL    HW121680   4.438   1.416   5.225 -2.4952 -1.7676 -0.4168
 3348SOL    HW221681   4.467   1.550   5.265  1.1330 -1.1839  1.8672
 3349SOL     OW21682   3.571   0.288  15.224 -0.6459  0.2443 -0.2596
 3349SOL    HW121683   3.594   0.379  15.204  0.6979 -0.0627 -0.0975
 3349SOL    HW221684   3.522   0.309  15.303 -2.0716  2.7481 -1.8036
 3350SOL     OW21685   3.840   3.348   2.980 -0.2301  0.1186  0.4682
 3350SOL    HW121686   3.755   3.392   2.984 -0.2760 -0.1229  2.0422
 3350SOL    HW221687   3.885   3.396   2.910 -1.0914  2.3850  1.4958
 3351SOL     OW21688   0.752   2.631   2.140 -0.0820 -0.0890 -0.2147
 3351SOL    HW121689   0.834   2.620   2.091  0.5211 -1.2252  1.0623
 3351SOL    HW221690   0.749   2.725   2.156 -0.2037 -0.2054  0.4192
 3352SOL     OW21691   3.184   4.210  14.004 -0.2278 -0.4043 -0.0346
 3352SOL    HW121692   3.258   4.212  14.064  0.0215  1.8414 -0.4052
 3352SOL    HW221693   3.156   4.302  14.005 -3.5995 -1.4133 -0.7123
 3353SOL     OW21694   0.794   2.366  11.821  0.7943  0.0608 -0.0514
 3353SOL    HW121695   0.769   2.387  11.732 -2.8280 -0.0631  0.9214
 3353SOL    HW221696   0.715   2.350  11.873 -1.3553 -0.3670 -3.4707
 3354SOL     OW21697   1.732   3.183   4.069 -0.1528  0.6444 -0.5863
 3354SOL    HW121698   1.716   3.114   4.004 -0.9792  2.5569 -2.3945
 3354SOL    HW221699   1.674   3.152   4.138 -0.7602  0.1328 -1.3158
 3355SOL     OW21700   3.939   0.526   8.771  0.6532 -0.0270 -0.3699
 3355SOL    HW121701   3.907   0.615   8.779  2.6739  0.6084  0.6729
 3355SOL    HW221702   3.922   0.478   8.853  0.7439 -0.3525 -0.5411
 3356SOL     OW21703   4.221   4.512   8.783  0.5486  0.0534  0.0728
 3356SOL    HW121704   4.132   4.529   8.752  0.5007  1.3135  0.8811
 3356SOL    HW221705   4.232   4.555   8.869 -0.8366 -1.2281  0.8783
 3357SOL     OW21706   4.196   4.111  14.550  0.3241  0.2852 -0.3521
 3357SOL    HW121707   4.242   4.072  14.476 -0.1178  1.1531 -1.0816
 3357SOL    HW221708   4.269   4.140  14.604  2.2878 -1.1937 -2.2383
 3358SOL     OW21709   0.447   2.637   5.421 -0.1142 -0.1022  0.0561
 3358SOL    HW121710   0.472   2.709   5.362 -0.8079  1.2810  1.4666
 3358SOL    HW221711   0.531   2.590   5.422 -0.5563 -0.8902 -0.4693
 3359SOL     OW21712   0.366   2.754   7.430 -0.5743  0.7477  0.3932
 3359SOL    HW121713   0.323   2.751   7.515 -3.3285 -0.9421 -1.0711
 3359SOL    HW221714   0.457   2.735   7.453 -0.4311  1.6105  0.5441
 3360SOL     OW21715   0.473   0.087   7.566 -0.3981  0.0038 -0.0382
 3360SOL    HW121716   0.436   0.170   7.536  0.8712 -0.1128 -1.8976
 3360SOL    HW221717   0.404   0.020   7.564  0.5901 -1.0151 -0.3616
 3361SOL     OW21718   3.278   3.825   5.385 -0.0348  0.0963  0.1225
 3361SOL    HW121719   3.238   3.739   5.402 -1.0826  1.0095  2.3259
 3361SOL    HW221720   3.201   3.882   5.387 -0.3607 -0.2916 -1.3270
 3362SOL     OW21721   2.606   1.610   2.669 -0.0232  0.0988  0.3515
 3362SOL    HW121722   2.665   1.679   2.641 -0.1052 -0.9498 -2.3937
 3362SOL    HW221723   2.550   1.594   2.593  0.2963  1.5932 -0.1921
 3363SOL     OW21724   1.102   0.922   5.889 -0.0682 -0.9462 -0.1840
 3363SOL    HW121725   1.032   0.964   5.939 -0.9713 -2.0968 -0.4686
 3363SOL    HW221726   1.118   0.980   5.815  0.3931 -0.9728 -0.1082
 3364SOL     OW21727   2.405   3.963   4.140  0.1105 -0.0426  0.0449
 3364SOL    HW121728   2.398   4.057   4.120 -0.2860  0.0012  0.3793
 3364SOL    HW221729   2.324   3.922   4.110  0.8658 -0.4351 -1.4376
 3365SOL     OW21730   3.463   0.795   0.483 -0.2539  0.0458 -0.0226
 3365SOL    HW121731   3.469   0.853   0.407  2.2212  0.3926  0.4403
 3365SOL    HW221732   3.418   0.854   0.544 -0.8805  0.1506 -0.5853
 3366SOL     OW21733   2.205   0.028  17.718 -0.2496 -0.3451  0.4711
 3366SOL    HW121734   2.173   0.036  17.629  2.2728 -2.3928 -0.6348
 3366SOL    HW221735   2.289   0.075  17.715 -0.9104  0.7812 -0.1881
 3367SOL     OW21736   3.959   4.496   9.851 -0.1168  0.4746  0.2595
 3367SOL    HW121737   4.020   4.570   9.854 -0.0621  0.4430 -0.1083
 3367SOL    HW221738   4.014   4.432   9.806 -1.8774 -0.1204 -1.0468
 3368SOL     OW21739   1.288   4.144   2.045 -0.1652 -0.1910  0.2382
 3368SOL    HW121740   1.251   4.228   2.073 -0.6178 -0.2476 -0.2042
 3368SOL    HW221741   1.228   4.082   2.084 -1.0506 -0.4017 -1.4617
 3369SOL     OW21742   4.051   3.882   5.105  0.4851 -0.5943  0.1235
 3369SOL    HW121743   4.100   3.801   5.123  3.0445  0.4244 -2.1888
 3369SOL    HW221744   4.084   3.946   5.168  0.6672 -1.4572  0.9072
 3370SOL     OW21745   2.944   0.512   6.311 -0.1770  0.2656 -0.0462
 3370SOL    HW121746   2.958   0.420   6.288  0.2306  0.0209  1.2072
 3370SOL    HW221747   3.033   0.540   6.332 -0.1679 -0.4888  0.9425
 3371SOL     OW21748   2.145   4.605   3.304  0.1516  0.3379 -0.4840
 3371SOL    HW121749   2.101   4.591   3.221 -2.8005 -1.8764  1.4684
 3371SOL    HW221750   2.224   4.654   3.283  0.9436 -0.2728  0.9919
 3372SOL     OW21751   0.536   1.595  12.945 -0.5965 -0.2341 -0.3690
 3372SOL    HW121752   0.542   1.511  12.899 -1.6262 -0.8192  0.5603
 3372SOL    HW221753   0.462   1.629  12.896  0.4302  2.8998  0.2473
 3373SOL     OW21754   3.387   3.918   4.737 -0.5165  0.0131 -0.1376
 3373SOL    HW121755   3.330   3.965   4.675  1.0408  2.0297 -0.0422
 3373SOL    HW221756   3.334   3.840   4.753  0.9024 -0.9654 -0.2239
 3374SOL     OW21757   1.846   3.948  11.030 -0.1388  0.1336 -0.0684
 3374SOL    HW121758   1.874   3.977  10.944  2.5635  0.1269  0.8233
 3374SOL    HW221759   1.912   3.989  11.086  1.2685  2.0020 -3.1436
 3375SOL     OW21760   4.371   2.910   9.791 -0.2432 -0.2276 -0.0038
 3375SOL    HW121761   4.382   2.819   9.763 -0.2639 -0.0767 -0.5109
 3375SOL    HW221762   4.442   2.952   9.743 -1.3128 -0.3852 -1.7418
 3376SOL     OW21763   0.345   2.099   5.628  0.1060  0.5660  0.2896
 3376SOL    HW121764   0.366   2.160   5.698  0.0151 -1.1713  1.8367
 3376SOL    HW221765   0.400   2.024   5.651 -0.1085  0.3006 -0.0463
 3377SOL     OW21766   4.111   0.774   8.865 -0.1157 -0.2532 -0.2349
 3377SOL    HW121767   4.139   0.683   8.871 -0.2690 -0.4071 -1.7613
 3377SOL    HW221768   4.199   0.810   8.881  0.1127 -0.7428 -0.3888
 3378SOL     OW21769   2.749   0.372   6.565 -0.4001 -0.5529 -0.4250
 3378SOL    HW121770   2.670   0.375   6.512 -0.7234  1.3854  0.1820
 3378SOL    HW221771   2.757   0.277   6.577 -1.3950 -0.8359 -1.9599
 3379SOL     OW21772   2.659   2.256   3.616  0.3742 -0.0371  0.8103
 3379SOL    HW121773   2.672   2.163   3.630 -1.3770 -0.6920 -2.0239
 3379SOL    HW221774   2.748   2.291   3.610  1.6427 -3.5947 -0.6254
 3380SOL     OW21775   1.618   4.711   9.350 -0.1641 -0.0371  0.4750
 3380SOL    HW121776   1.578   4.636   9.393  1.3704 -0.2469  1.5722
 3380SOL    HW221777   1.546   0.010   9.300  0.0856  0.2996  0.3701
 3381SOL     OW21778   2.634   1.996   2.452  0.0153  0.3751 -0.2886
 3381SOL    HW121779   2.699   1.941   2.408 -0.6566  1.1988 -2.3388
 3381SOL    HW221780   2.555   1.945   2.433  1.0490 -0.4647 -2.3304
 3382SOL     OW21781   3.018   0.331   6.633 -0.1873 -0.5721 -0.3766
 3382SOL    HW121782   3.025   0.416   6.676 -1.8475 -0.8950  0.5237
 3382SOL    HW221783   2.937   0.345   6.584 -1.5504 -0.7705  1.8621
 3383SOL     OW21784   0.576   2.641  11.526  0.8577 -0.2894 -0.1519
 3383SOL    HW121785   0.512   2.575  11.500  0.6517 -0.0892 -0.1528
 3383SOL    HW221786   0.511   2.712  11.526 -1.1365 -2.0979 -0.7810
 3384SOL     OW21787   1.292   2.361   6.830  0.4491 -0.5166 -0.2435
 3384SOL    HW121788   1.378   2.322   6.817  1.0774  0.8019 -0.0371
 3384SOL    HW221789   1.308   2.451   6.803  1.2855 -0.3458  0.8255
 3385SOL     OW21790   2.119   2.241   2.839 -0.0763  0.3874  0.2896
 3385SOL    HW121791   2.095   2.215   2.751  0.9600  2.0389 -0.4836
 3385SOL    HW221792   2.138   2.162   2.890 -0.2081  0.0025 -0.2645
 3386SOL     OW21793   2.664   4.525   6.415 -0.4698 -0.0322  0.3897
 3386SOL    HW121794   2.702   4.535   6.501  1.3057  2.3292 -0.6831
 3386SOL    HW221795   2.690   4.435   6.396  1.0827  0.0373  2.2254
 3387SOL     OW21796   0.722   4.467   3.454 -0.0384 -0.0883 -0.4975
 3387SOL    HW121797   0.813   4.444   3.437  0.0029  1.2191 -2.1048
 3387SOL    HW221798   0.711   4.530   3.383  0.4257  1.0327  0.4333
 3388SOL     OW21799   1.077   3.776   3.710  0.1641  0.0618 -0.5585
 3388SOL    HW121800   1.050   3.688   3.737  0.6163  0.1949  0.3067
 3388SOL    HW221801   1.006   3.824   3.751 -1.7824 -0.1103 -3.6534
 3389SOL     OW21802   3.135   2.189  10.254 -1.1608 -0.0603 -0.1504
 3389SOL    HW121803   3.141   2.203  10.349  0.2309 -2.6860  0.1310
 3389SOL    HW221804   3.106   2.274  10.220 -1.6678 -0.4693 -0.7463
 3390SOL     OW21805   2.600   4.137   4.667 -0.0091  0.1099  0.3443
 3390SOL    HW121806   2.622   4.229   4.676 -2.9869  0.6405  2.0787
 3390SOL    HW221807   2.521   4.131   4.614 -1.3269 -1.3707  2.4900
 3391SOL     OW21808   0.309   1.810  15.890  0.1547  1.0305  0.2411
 3391SOL    HW121809   0.315   1.807  15.795 -1.3941  1.5739  0.1278
 3391SOL    HW221810   0.365   1.736  15.912 -2.2707 -0.7001  0.5755
 3392SOL     OW21811   2.815   2.911   6.959 -0.1569 -0.0793 -0.4133
 3392SOL    HW121812   2.836   2.820   6.979  1.5360 -0.0153 -1.8164
 3392SOL    HW221813   2.721   2.920   6.976  0.1252  0.0526  1.0937
 3393SOL     OW21814   3.347   0.734   5.253  0.1739  0.0394 -0.4106
 3393SOL    HW121815   3.278   0.738   5.319  1.5113 -1.0277  1.0667
 3393SOL    HW221816   3.384   0.821   5.264 -1.1774  0.8130 -1.9774
 3394SOL     OW21817   4.478   1.404   3.983  0.3828  0.6187  0.0659
 3394SOL    HW121818   4.524   1.384   3.901 -0.1815  1.7636 -0.5235
 3394SOL    HW221819   4.388   1.378   3.965  0.1533  0.7069  1.1306
 3395SOL     OW21820   3.645   1.614   6.315  0.3079 -0.0258 -0.3342
 3395SOL    HW121821   3.714   1.582   6.257  1.8222  1.4119  0.6882
 3395SOL    HW221822   3.605   1.683   6.262  0.1032  0.3704  0.3496
 3396SOL     OW21823   2.739   0.442  13.174 -0.9090 -0.0438 -0.0388
 3396SOL    HW121824   2.738   0.420  13.267  1.0921  0.3416  0.0678
 3396SOL    HW221825   2.813   0.502  13.167 -0.7440 -0.3422 -0.8924
 3397SOL     OW21826   0.653   3.656  13.244 -0.3791 -0.6650 -0.5128
 3397SOL    HW121827   0.597   3.727  13.275  2.1849  1.1316  0.0479
 3397SOL    HW221828   0.722   3.682  13.305 -2.0349  0.7333  0.7566
 3398SOL     OW21829   3.007   0.686  12.043  0.2880  0.4190  0.1942
 3398SOL    HW121830   3.016   0.667  11.950  2.6544 -1.8349  0.8916
 3398SOL    HW221831   2.986   0.599  12.076  0.3982  1.0197  1.8483
 3399SOL     OW21832   4.079   2.152  13.732  0.2147 -0.1810 -0.0965
 3399SOL    HW121833   4.138   2.170  13.659  0.1812  1.5811  0.3057
 3399SOL    HW221834   4.003   2.119  13.685  0.1557  0.7036 -0.6179
 3400SOL     OW21835   3.738   2.739   4.128  0.3270  0.2712 -0.8093
 3400SOL    HW121836   3.693   2.752   4.045  1.7018 -1.8032 -1.8798
 3400SOL    HW221837   3.817   2.785   4.099  0.9405 -0.1126  0.2488
 3401SOL     OW21838   3.724   4.023   7.430  0.2593 -0.2147  0.2605
 3401SOL    HW121839   3.756   4.113   7.436  1.2384 -0.4955 -0.7757
 3401SOL    HW221840   3.768   3.971   7.497  0.9936 -0.6339 -0.5449
 3402SOL     OW21841   0.536   4.074   6.253 -0.1574 -0.4391 -0.2989
 3402SOL    HW121842   0.507   4.092   6.342  0.4945 -1.3223  0.0977
 3402SOL    HW221843   0.628   4.059   6.277  0.4819  3.5145 -0.2543
 3403SOL     OW21844   0.135   0.044   8.601 -0.3068 -0.1639  0.0802
 3403SOL    HW121845   0.061   0.088   8.642 -0.9153 -1.1241  0.0120
 3403SOL    HW221846   0.126   4.692   8.627  0.1971 -0.3188 -0.2822
 3404SOL     OW21847   3.750   3.676  14.008  0.0922  0.2210  0.6299
 3404SOL    HW121848   3.760   3.596  13.957  0.9983  0.2234  0.8123
 3404SOL    HW221849   3.687   3.724  13.954 -0.8351 -2.1029 -0.3229
 3405SOL     OW21850   4.050   1.455  10.568 -1.4581  0.4561 -0.0768
 3405SOL    HW121851   3.976   1.403  10.600 -0.7100  1.0380  2.5991
 3405SOL    HW221852   4.077   1.406  10.491 -0.7165 -1.4495  1.4157
 3406SOL     OW21853   3.686   2.397  11.016  0.5912  0.1238  0.2930
 3406SOL    HW121854   3.738   2.381  10.937  1.0057 -1.8322  0.9793
 3406SOL    HW221855   3.609   2.433  10.972  0.8805  0.6299  0.2030
 3407SOL     OW21856   2.591   1.502   2.138  0.6517  0.5712 -0.4198
 3407SOL    HW121857   2.665   1.443   2.152 -1.2320 -1.2902  1.7054
 3407SOL    HW221858   2.625   1.544   2.060 -0.2459  1.0163 -0.5712
 3408SOL     OW21859   3.417   3.505   7.727  0.5150 -0.6823  0.2314
 3408SOL    HW121860   3.485   3.444   7.755 -0.8788 -1.6840  1.4507
 3408SOL    HW221861   3.345   3.445   7.749 -0.6091  1.0386  1.1793
 3409SOL     OW21862   3.085   4.461  10.512  0.1497 -0.2270  0.1449
 3409SOL    HW121863   3.076   4.432  10.421 -0.6947 -0.2990  0.2573
 3409SOL    HW221864   3.141   4.537  10.495  0.9407 -0.7062  0.6073
 3410SOL     OW21865   4.426   3.966   4.648  0.4187 -0.0979  0.3724
 3410SOL    HW121866   4.511   3.955   4.692 -0.3092 -1.7081  1.3700
 3410SOL    HW221867   4.389   4.048   4.681  1.7229 -0.7022  3.3516
 3411SOL     OW21868   3.567   3.317   7.968 -0.6213  0.6592 -0.3600
 3411SOL    HW121869   3.498   3.358   8.020 -1.8298  0.1183 -1.5190
 3411SOL    HW221870   3.643   3.335   8.024 -0.6720 -0.9981  0.2606
 3412SOL     OW21871   1.017   4.478   3.332 -0.7286  0.4376  0.1173
 3412SOL    HW121872   1.044   4.562   3.368  0.4838  0.4786 -0.8910
 3412SOL    HW221873   1.076   4.416   3.375  1.0349  1.3925 -0.9345
 3413SOL     OW21874   3.068   4.693  16.807  0.2502  0.2716 -0.3682
 3413SOL    HW121875   2.996   4.658  16.860  0.1336 -1.4785 -1.6605
 3413SOL    HW221876   3.052   4.654  16.722  3.8669 -1.7215 -0.1437
 3414SOL     OW21877   4.586   3.901   3.984  0.1746  0.4565  0.2719
 3414SOL    HW121878   4.527   3.953   4.040  0.4206  1.8004 -0.7278
 3414SOL    HW221879   4.593   3.823   4.039 -0.1677 -0.5243 -1.0983
 3415SOL     OW21880   0.865   1.971   4.048 -0.1765  0.2720  0.1257
 3415SOL    HW121881   0.776   1.946   4.071 -1.2876  2.9298 -1.2590
 3415SOL    HW221882   0.883   2.034   4.118  1.5908  1.4598 -1.3936
 3416SOL     OW21883   2.713   0.468   1.368 -0.4545  0.1556 -0.1466
 3416SOL    HW121884   2.657   0.543   1.346 -0.7042 -0.1145 -0.4367
 3416SOL    HW221885   2.771   0.456   1.293  1.9925  0.8763  1.6237
 3417SOL     OW21886   3.085   1.794   4.317 -0.4536  0.0684 -0.3389
 3417SOL    HW121887   3.142   1.869   4.296  0.5871 -0.6611 -0.1203
 3417SOL    HW221888   3.030   1.799   4.239 -1.0150 -0.4054  0.0333
 3418SOL     OW21889   2.840   2.508   2.686 -0.1652  0.3434  0.0367
 3418SOL    HW121890   2.870   2.426   2.647 -2.4295 -0.2907 -0.3645
 3418SOL    HW221891   2.914   2.566   2.665 -1.6508  1.8976 -0.9398
 3419SOL     OW21892   3.356   3.593   5.842 -0.2465  0.4034 -0.7403
 3419SOL    HW121893   3.320   3.678   5.816 -0.3152  0.4337 -0.5452
 3419SOL    HW221894   3.277   3.539   5.840 -0.0251  0.0320  0.5422
 3420SOL     OW21895   1.967   2.102   4.013 -1.0075 -0.5972 -0.8920
 3420SOL    HW121896   1.989   2.088   4.105 -0.2974  1.3838 -0.7569
 3420SOL    HW221897   1.934   2.015   3.991  0.6022 -1.0429 -1.5363
 3421SOL     OW21898   0.083   4.310   8.948 -0.3070 -0.7124  0.1099
 3421SOL    HW121899   0.170   4.305   8.910 -1.3897  1.5432 -2.6633
 3421SOL    HW221900   0.093   4.259   9.028  0.5046 -1.3240 -0.3853
 3422SOL     OW21901   1.544   4.513   0.270 -0.1928  0.3601  0.0944
 3422SOL    HW121902   1.595   4.581   0.225  1.1963 -0.4564  0.4262
 3422SOL    HW221903   1.609   4.443   0.276  1.5784  2.2159  2.8318
 3423SOL     OW21904   1.801   3.810  11.288  0.5114  0.2302 -0.2293
 3423SOL    HW121905   1.731   3.875  11.298 -0.0487 -0.5179  0.6818
 3423SOL    HW221906   1.746   3.735  11.267 -1.9935  1.8527  0.4256
 3424SOL     OW21907   0.940   3.273   1.886  0.4586  0.7439 -0.3306
 3424SOL    HW121908   0.851   3.250   1.859 -0.0670  0.8412  1.3527
 3424SOL    HW221909   0.985   3.195   1.855 -1.1018  0.1239 -1.0538
 3425SOL     OW21910   4.353   3.902  11.568  0.5251 -0.5051 -0.0537
 3425SOL    HW121911   4.427   3.861  11.613 -0.5975 -2.1590  0.2620
 3425SOL    HW221912   4.294   3.831  11.547 -1.0038  0.9154 -0.5295
 3426SOL     OW21913   3.880   3.495   5.846 -0.5501 -0.8188  0.1067
 3426SOL    HW121914   3.793   3.474   5.880  0.1361 -3.1037  0.4020
 3426SOL    HW221915   3.859   3.522   5.757 -3.1422  2.4725  1.6771
 3427SOL     OW21916   3.296   0.170   6.720  0.3469  0.1046  0.2646
 3427SOL    HW121917   3.213   0.128   6.743  1.5253 -1.2412  2.0228
 3427SOL    HW221918   3.276   0.223   6.643  0.9695  0.6930  0.5070
 3428SOL     OW21919   3.421   0.141   9.172  0.2330  0.1617  0.1959
 3428SOL    HW121920   3.419   0.199   9.095  1.1610  0.6248  0.5144
 3428SOL    HW221921   3.509   0.105   9.162  0.1473  0.5475 -1.8820
 3429SOL     OW21922   3.042   0.241   5.635  0.2833  0.0377  0.2871
 3429SOL    HW121923   3.048   0.154   5.595 -1.0700 -0.4064  1.0655
 3429SOL    HW221924   2.960   0.231   5.683  0.6318  2.0625  1.3234
 3430SOL     OW21925   4.488   1.573  12.673  0.1359  0.1299  0.1406
 3430SOL    HW121926   4.431   1.522  12.730  1.1222 -1.9034 -0.6747
 3430SOL    HW221927   4.564   1.582  12.730  0.2914 -1.3056  0.1682
 3431SOL     OW21928   4.600   3.494   0.240 -0.1982  0.3033  0.3247
 3431SOL    HW121929   4.518   3.532   0.272 -0.3412  0.7049 -0.5183
 3431SOL    HW221930   4.672   3.542   0.281 -1.0075  1.7152  0.1045
 3432SOL     OW21931   4.105   3.923   3.430  0.0200 -0.3296  0.2011
 3432SOL    HW121932   4.178   3.935   3.370 -0.9523 -1.0677 -1.1165
 3432SOL    HW221933   4.127   3.861   3.499  1.9192 -0.1595 -0.2561
 3433SOL     OW21934   2.827   0.928   7.628 -0.2357 -0.2741 -0.4945
 3433SOL    HW121935   2.904   0.909   7.681 -1.7765 -0.9755  1.4649
 3433SOL    HW221936   2.857   1.004   7.578  2.9996 -1.0765  0.2566
 3434SOL     OW21937   0.231   1.387  11.182 -0.6201  0.7197 -0.2600
 3434SOL    HW121938   0.249   1.435  11.101  0.2790  2.4314  0.9600
 3434SOL    HW221939   0.234   1.293  11.164  1.8042  1.1584 -2.1515
 3435SOL     OW21940   2.933   1.256   1.773 -0.5698 -0.2702 -0.2494
 3435SOL    HW121941   2.936   1.316   1.847  1.3517  1.3790 -1.6480
 3435SOL    HW221942   2.966   1.175   1.811 -1.4459 -1.0901 -1.2349
 3436SOL     OW21943   0.998   3.402   2.717 -0.3421 -0.1638  0.0292
 3436SOL    HW121944   0.914   3.377   2.677  0.2319 -0.0375 -1.2713
 3436SOL    HW221945   0.970   3.462   2.786  0.4025  1.7924 -1.3552
 3437SOL     OW21946   0.878   2.245   5.305  0.1581  0.5300  0.3518
 3437SOL    HW121947   0.860   2.286   5.221 -1.6430 -1.4579 -0.2434
 3437SOL    HW221948   0.825   2.165   5.303  1.3269 -0.2358 -0.6103
 3438SOL     OW21949   2.830   4.009   8.127  0.8675 -0.1070  0.4276
 3438SOL    HW121950   2.904   3.976   8.076 -0.6915 -1.5275 -0.9047
 3438SOL    HW221951   2.878   4.073   8.179  0.3965 -1.1384  2.1430
 3439SOL     OW21952   0.574   0.541   1.881  0.2572  0.7149  0.9098
 3439SOL    HW121953   0.632   0.486   1.829 -0.1618 -0.2784  1.4893
 3439SOL    HW221954   0.482   0.522   1.862  0.4800  1.6783 -1.1696
 3440SOL     OW21955   3.646   4.499   8.149  0.0538  0.5159  0.1746
 3440SOL    HW121956   3.708   4.532   8.213  0.5174  0.8955 -0.4711
 3440SOL    HW221957   3.575   4.562   8.160  0.0571  0.7278 -1.0271
 3441SOL     OW21958   0.566   0.997   4.395 -0.1205  0.1527 -0.3105
 3441SOL    HW121959   0.560   1.071   4.334  1.9752  0.9574  0.4478
 3441SOL    HW221960   0.506   1.021   4.466 -0.6815 -1.1365 -0.3621
 3442SOL     OW21961   4.477   3.251  16.032  0.1497  0.2926 -0.3686
 3442SOL    HW121962   4.469   3.343  16.010  1.2753  0.1340 -1.4638
 3442SOL    HW221963   4.560   3.244  16.080  1.0617 -0.7194 -2.0986
 3443SOL     OW21964   4.642   4.287   1.479  0.1399  0.1707  0.0474
 3443SOL    HW121965   4.581   4.356   1.506 -0.5924 -0.8819  1.0562
 3443SOL    HW221966   4.659   4.310   1.387  2.5809  3.4322  1.2842
 3444SOL     OW21967   1.175   4.258   5.190 -0.2895  0.4582  0.0390
 3444SOL    HW121968   1.236   4.298   5.253 -0.2233 -1.1024  0.9520
 3444SOL    HW221969   1.095   4.291   5.231  0.2961  1.8259  0.1051
 3445SOL     OW21970   3.800   1.911  11.584  0.1496 -0.1074 -0.1462
 3445SOL    HW121971   3.829   1.959  11.661  1.1060 -0.1797 -0.4599
 3445SOL    HW221972   3.781   1.987  11.529  1.6022  0.5332  0.2370
 3446SOL     OW21973   1.121   0.798   9.000 -0.1741  1.0857  0.0811
 3446SOL    HW121974   1.052   0.812   9.064 -0.7582 -0.8260 -0.1273
 3446SOL    HW221975   1.114   0.878   8.949 -2.8160 -0.1639 -1.5009
 3447SOL     OW21976   3.760   3.167  17.366 -0.0614 -0.6275 -0.5794
 3447SOL    HW121977   3.729   3.160  17.456  0.3004 -0.7032 -0.4589
 3447SOL    HW221978   3.847   3.130  17.382  0.5973  0.6552 -1.1841
 3448SOL     OW21979   2.309   1.109   5.950  0.3251  0.8642 -0.3101
 3448SOL    HW121980   2.284   1.201   5.952 -0.1135  0.7697 -1.1003
 3448SOL    HW221981   2.241   1.065   6.002  0.0906  0.7052 -0.7482
 3449SOL     OW21982   3.704   4.637   3.009  0.1877 -0.0012 -0.6193
 3449SOL    HW121983   3.731   4.621   2.918  0.8093 -0.0101 -0.4330
 3449SOL    HW221984   3.610   4.652   3.003 -0.2026 -2.1174  0.1586
 3450SOL     OW21985   4.049   1.063  12.794 -0.0450 -0.7487 -0.4019
 3450SOL    HW121986   4.082   1.104  12.715  1.0299 -1.0644 -0.1248
 3450SOL    HW221987   3.954   1.060  12.782 -0.1841 -1.0535  0.6966
 3451SOL     OW21988   0.604   1.380   6.489 -0.4478  0.3815 -0.6242
 3451SOL    HW121989   0.593   1.365   6.395 -1.5452  2.5121 -0.8317
 3451SOL    HW221990   0.611   1.475   6.485 -0.6238  0.3673 -1.3347
 3452SOL     OW21991   1.222   1.076   2.255 -0.2628  0.7565  0.1318
 3452SOL    HW121992   1.253   0.987   2.239  0.0353  0.9224 -0.2018
 3452SOL    HW221993   1.214   1.111   2.166 -1.3663  1.9621  0.7022
 3453SOL     OW21994   0.313   4.043  17.534 -0.6078  0.9228  0.5394
 3453SOL    HW121995   0.409   4.045  17.535 -0.5880  0.2106  0.4382
 3453SOL    HW221996   0.292   4.127  17.494  0.2210  0.8902  0.0253
 3454SOL     OW21997   3.689   0.843   9.805  0.0142  0.2681 -0.1913
 3454SOL    HW121998   3.755   0.910   9.824  0.0656  0.4568 -1.0363
 3454SOL    HW221999   3.724   0.828   9.717  1.5743  1.9508  0.1414
 3455SOL     OW22000   1.440   4.042   5.855 -0.0716  0.1416 -0.1206
 3455SOL    HW122001   1.534   4.059   5.866  0.2636 -1.0998 -1.1322
 3455SOL    HW222002   1.424   3.974   5.920  1.6453 -0.3320 -0.1993
 3456SOL     OW22003   0.304   0.169   6.389 -0.1798 -0.2082 -0.7455
 3456SOL    HW122004   0.282   0.232   6.457 -1.5029 -1.4085 -0.0557
 3456SOL    HW222005   0.388   0.139   6.423 -0.5162  0.8197  0.9965
 3457SOL     OW22006   2.025   1.843   5.738  0.2377  0.2240 -0.5370
 3457SOL    HW122007   2.061   1.757   5.760 -2.4506 -0.2339  2.0667
 3457SOL    HW222008   2.107   1.887   5.717  0.9405 -1.0629 -0.4806
 3458SOL     OW22009   3.120   1.772   0.843 -0.0897  0.4149  0.1805
 3458SOL    HW122010   3.036   1.814   0.862 -0.7929 -1.7178  1.8642
 3458SOL    HW222011   3.175   1.849   0.854  1.2499 -0.8755  2.6675
 3459SOL     OW22012   3.728   1.799   1.630  0.2700 -0.5051  0.4850
 3459SOL    HW122013   3.783   1.872   1.603  2.0886 -2.3395 -0.7485
 3459SOL    HW222014   3.776   1.731   1.584  0.5359 -0.1164  0.1953
 3460SOL     OW22015   1.453   3.316  10.817  0.0591 -0.0510  0.3805
 3460SOL    HW122016   1.439   3.244  10.879 -2.2432 -0.0038 -0.1052
 3460SOL    HW222017   1.479   3.388  10.875 -1.5527  2.2402 -1.7478
 3461SOL     OW22018   2.593   3.516   2.716  0.0353  0.2845  0.1579
 3461SOL    HW122019   2.524   3.523   2.783  2.3427  1.4214  2.4295
 3461SOL    HW222020   2.569   3.592   2.663 -1.0543 -0.1142  0.0723
 3462SOL     OW22021   1.316   2.131   2.988 -0.3789  0.6213  0.0641
 3462SOL    HW122022   1.267   2.213   2.975 -2.3422 -0.3901  1.0802
 3462SOL    HW222023   1.408   2.156   2.978 -0.7212  2.8585  2.2735
 3463SOL     OW22024   2.368   3.757   8.307 -0.5079  0.5576  0.1416
 3463SOL    HW122025   2.294   3.818   8.304  0.1285  1.3211  0.0227
 3463SOL    HW222026   2.433   3.794   8.247  1.2240 -0.9604  1.0841
 3464SOL     OW22027   2.972   1.901  11.857  0.6468  0.5203  0.6360
 3464SOL    HW122028   2.954   1.813  11.822 -0.3300  1.2085 -0.5770
 3464SOL    HW222029   3.055   1.917  11.812  0.6788 -2.7032 -0.4952
 3465SOL     OW22030   2.699   3.122   8.721  0.0566  0.2207 -0.3755
 3465SOL    HW122031   2.624   3.063   8.719  0.5846 -0.3973 -1.6784
 3465SOL    HW222032   2.699   3.167   8.636 -2.5356  1.6914  0.4251
 3466SOL     OW22033   4.146   0.029  11.911 -0.3826  0.0293  0.6327
 3466SOL    HW122034   4.236   0.062  11.916  0.6970 -2.8855  0.3731
 3466SOL    HW222035   4.108   0.099  11.858 -0.7149  0.0466  0.8970
 3467SOL     OW22036   0.891   0.508   1.873 -0.2339  0.4202  0.2340
 3467SOL    HW122037   0.968   0.452   1.879 -1.3901 -1.3619 -1.2120
 3467SOL    HW222038   0.827   0.445   1.839 -0.1593 -1.0454  2.8456
 3468SOL     OW22039   4.494   1.347   7.208  0.0606  0.1043  0.3918
 3468SOL    HW122040   4.434   1.359   7.134  1.1446  3.2740  0.0252
 3468SOL    HW222041   4.436   1.338   7.284 -0.0939 -3.9645 -0.1977
 3469SOL     OW22042   2.763   0.136   9.005  0.6306  0.5581 -0.2699
 3469SOL    HW122043   2.712   0.149   9.084 -1.8921 -1.9011 -1.4726
 3469SOL    HW222044   2.853   0.125   9.037  0.4468  1.3880  0.4893
 3470SOL     OW22045   3.758   0.870  12.129  0.0094  0.0190  0.6008
 3470SOL    HW122046   3.714   0.947  12.092 -0.9879 -0.9105 -0.1319
 3470SOL    HW222047   3.695   0.849  12.198 -0.7539 -0.9435 -0.3942
 3471SOL     OW22048   0.408   0.140   9.144  0.0388 -0.4785 -0.2089
 3471SOL    HW122049   0.468   0.078   9.103  2.0961  1.5799 -0.3589
 3471SOL    HW222050   0.369   0.092   9.217  5.5659 -2.5119  1.4334
 3472SOL     OW22051   0.670   1.846  16.148  0.0064  0.3631 -0.1296
 3472SOL    HW122052   0.634   1.860  16.235  0.0449  0.0051 -0.0568
 3472SOL    HW222053   0.682   1.751  16.151 -0.7430  0.2507 -0.8695
 3473SOL     OW22054   2.076   4.629  16.145 -0.3848  0.1332 -0.3639
 3473SOL    HW122055   2.055   4.691  16.075  3.8227  1.9848 -0.0079
 3473SOL    HW222056   1.990   4.596  16.168 -0.2740  1.0025  1.2454
 3474SOL     OW22057   4.253   3.985   3.226  0.0281  0.4410  0.4301
 3474SOL    HW122058   4.266   3.908   3.172 -0.9937  0.3197  0.3660
 3474SOL    HW222059   4.344   4.013   3.236  0.4379 -0.9670  0.5599
 3475SOL     OW22060   2.866   0.993  11.684 -0.0519  0.3602  0.1552
 3475SOL    HW122061   2.869   0.972  11.590  0.3123 -0.3091  0.3157
 3475SOL    HW222062   2.820   0.914  11.713  1.9997 -0.1354  2.0128
 3476SOL     OW22063   4.561   4.593   2.553 -0.1974  0.1226 -0.4867
 3476SOL    HW122064   4.470   4.577   2.527 -0.0945  0.1156 -0.8491
 3476SOL    HW222065   4.557   4.577   2.647 -0.2896 -0.0712 -0.5249
 3477SOL     OW22066   0.873   0.690   4.709  0.0421  0.0567 -0.2316
 3477SOL    HW122067   0.916   0.605   4.710  0.4857  0.2753 -0.8282
 3477SOL    HW222068   0.799   0.680   4.650  1.6457 -0.9788 -2.0769
 3478SOL     OW22069   4.460   3.051  14.642  0.1361 -0.2821 -0.2198
 3478SOL    HW122070   4.488   2.970  14.600 -0.5461 -0.5874 -0.0898
 3478SOL    HW222071   4.529   3.055  14.708 -0.8005  0.2311  0.7387
 3479SOL     OW22072   1.846   1.412  14.221 -0.0423  0.4457 -0.3462
 3479SOL    HW122073   1.811   1.501  14.210 -0.5704 -0.1187 -3.1416
 3479SOL    HW222074   1.773   1.351  14.231  1.0746 -0.5768  1.5030
 3480SOL     OW22075   2.147   3.889  11.882  0.5312 -0.5039  0.1902
 3480SOL    HW122076   2.171   3.861  11.970  1.3185  0.2404  0.2050
 3480SOL    HW222077   2.140   3.983  11.893 -0.4645 -0.2734 -2.4415
 3481SOL     OW22078   2.420   1.207  15.207 -0.7342 -0.0913 -0.0166
 3481SOL    HW122079   2.325   1.199  15.203 -0.7466 -0.4183  0.8873
 3481SOL    HW222080   2.428   1.303  15.208  0.8442 -0.2167  1.0489
 3482SOL     OW22081   0.549   3.856   4.060 -0.5250 -0.2325  0.1307
 3482SOL    HW122082   0.511   3.900   3.984 -0.7063 -0.5135  0.0593
 3482SOL    HW222083   0.517   3.915   4.128  1.1142 -0.2694  0.9364
 3483SOL     OW22084   2.077   3.523   8.926 -0.2594 -0.4377  1.1406
 3483SOL    HW122085   2.167   3.534   8.956 -0.1606  0.3098  0.5434
 3483SOL    HW222086   2.080   3.427   8.920 -2.1785 -0.5443  1.7228
 3484SOL     OW22087   3.487   1.208   0.471 -0.3659 -0.8735  0.1397
 3484SOL    HW122088   3.422   1.181   0.406  0.1041 -2.1746  0.2058
 3484SOL    HW222089   3.557   1.145   0.452 -1.7994 -1.5896 -2.7514
 3485SOL     OW22090   2.287   2.865   8.295 -0.1797  0.0536 -1.3211
 3485SOL    HW122091   2.294   2.770   8.286  0.9638  0.2329 -2.2896
 3485SOL    HW222092   2.292   2.877   8.390  1.3019  0.9434 -1.5086
 3486SOL     OW22093   4.006   0.762   2.512 -0.1265 -0.5678 -0.4871
 3486SOL    HW122094   4.075   0.775   2.577 -0.2733  1.4465 -0.7396
 3486SOL    HW222095   4.041   0.810   2.437 -0.9778 -1.0157 -1.1715
 3487SOL     OW22096   3.100   2.333   6.683  0.3318 -0.0124  0.3863
 3487SOL    HW122097   3.192   2.312   6.671  0.6537  0.7838  1.4509
 3487SOL    HW222098   3.086   2.369   6.595  3.4925  0.1694 -0.0375
 3488SOL     OW22099   2.699   3.588  11.629  0.2755  0.6762 -0.1496
 3488SOL    HW122100   2.679   3.511  11.682 -0.9603  1.9514  1.2136
 3488SOL    HW222101   2.791   3.562  11.617  0.1815  0.4816 -0.4440
 3489SOL     OW22102   0.816   0.054   1.197  0.1296 -0.4136 -0.0830
 3489SOL    HW122103   0.907   0.052   1.228  0.6472 -0.8651 -1.6186
 3489SOL    HW222104   0.834   4.731   1.126  1.1282 -0.8251  0.5174
 3490SOL     OW22105   1.993   4.472  16.618  0.0803 -0.0456 -0.1705
 3490SOL    HW122106   2.041   4.554  16.627 -0.3649  0.4735 -2.5552
 3490SOL    HW222107   2.032   4.435  16.539 -0.7753  0.3586 -0.7846
 3491SOL     OW22108   3.783   0.601   9.379 -0.1743  0.6127 -0.2171
 3491SOL    HW122109   3.765   0.586   9.471 -1.5930 -0.1091 -0.6132
 3491SOL    HW222110   3.732   0.534   9.334 -0.0264  0.4522 -0.1440
 3492SOL     OW22111   0.639   1.895   6.126 -0.1934  0.0973  0.0234
 3492SOL    HW122112   0.623   1.862   6.215 -3.3120  2.4212  0.3483
 3492SOL    HW222113   0.577   1.966   6.112 -0.0210  0.0973 -0.7294
 3493SOL     OW22114   1.268   0.138   5.052  0.4008 -0.0855 -1.0151
 3493SOL    HW122115   1.358   0.142   5.086  0.6271  3.5128 -2.0320
 3493SOL    HW222116   1.224   0.214   5.091 -0.3564 -0.2824 -1.4878
 3494SOL     OW22117   4.221   0.007   3.534 -0.1744  0.4816  1.0361
 3494SOL    HW122118   4.154   0.025   3.468  1.7271  0.5388 -0.8551
 3494SOL    HW222119   4.196   0.078   3.594 -1.6190  1.5892 -0.8729
 3495SOL     OW22120   2.923   2.619   6.999 -0.3403 -0.2530  0.4577
 3495SOL    HW122121   2.989   2.553   7.018  0.6376  1.4049  2.8262
 3495SOL    HW222122   2.863   2.599   7.071  1.0940  0.2028  1.7850
 3496SOL     OW22123   1.881   3.247   3.225  0.1733 -0.6695 -0.1370
 3496SOL    HW122124   1.833   3.272   3.145  3.2899 -0.3656 -1.9183
 3496SOL    HW222125   1.951   3.193   3.189  0.3043  0.6248 -1.8238
 3497SOL     OW22126   2.576   0.629   7.281 -0.2650 -0.5388 -0.0624
 3497SOL    HW122127   2.510   0.669   7.338 -0.9487 -1.7562 -0.0019
 3497SOL    HW222128   2.535   0.621   7.194  4.2573  0.3361 -2.2612
 3498SOL     OW22129   2.272   1.606  11.633  0.4560  0.1126  0.1415
 3498SOL    HW122130   2.178   1.599  11.646  0.6117  0.9306  1.7495
 3498SOL    HW222131   2.300   1.517  11.613 -0.3977  0.3100 -1.9359
 3499SOL     OW22132   4.111   4.086   2.020  0.2055  0.1350 -0.2268
 3499SOL    HW122133   4.054   4.099   1.944 -1.2655  2.2988  1.2190
 3499SOL    HW222134   4.118   3.991   2.032  1.3259  0.4660  1.7211
 3500SOL     OW22135   1.738   3.887   2.058  0.3729 -0.8267 -0.2062
 3500SOL    HW122136   1.742   3.967   2.005  1.0007 -0.7027  0.0217
 3500SOL    HW222137   1.644   3.890   2.073  0.2418 -0.8975 -1.0351
 3501SOL     OW22138   3.384   0.334  15.409  0.2617 -0.5439 -0.3955
 3501SOL    HW122139   3.334   0.275  15.466 -0.1537  0.1789 -0.0105
 3501SOL    HW222140   3.369   0.425  15.435  0.9144 -0.1301 -1.4835
 3502SOL     OW22141   1.114   0.715   7.024  0.3489 -0.0998  0.2379
 3502SOL    HW122142   1.122   0.648   6.957 -2.1518  0.0698 -0.2220
 3502SOL    HW222143   1.070   0.788   6.980 -0.2592 -0.5886  0.0352
 3503SOL     OW22144   1.974   2.408  12.955  0.3525  0.1441 -0.1822
 3503SOL    HW122145   2.057   2.381  12.994  0.3363 -0.9511 -0.8932
 3503SOL    HW222146   1.916   2.332  12.965  1.4646 -0.2814  2.9335
 3504SOL     OW22147   1.507   1.645   0.361  0.3144  0.2017  0.1539
 3504SOL    HW122148   1.569   1.676   0.295  2.6768 -2.8533  0.9386
 3504SOL    HW222149   1.555   1.567   0.388  2.6632  1.1942 -1.1968
 3505SOL     OW22150   2.511   1.278   3.889 -0.6733 -0.3849 -0.3306
 3505SOL    HW122151   2.594   1.314   3.920 -0.4483  0.4237 -1.8385
 3505SOL    HW222152   2.456   1.272   3.967 -0.8279  0.8226 -0.3452
 3506SOL     OW22153   0.789   2.085   5.913  0.8964  0.5321 -0.3243
 3506SOL    HW122154   0.742   2.048   5.838  0.8211 -0.1914  0.0825
 3506SOL    HW222155   0.871   2.040   5.892  0.0056 -0.9941 -0.4759
 3507SOL     OW22156   4.584   1.538   2.055 -0.0868  0.6144 -0.0381
 3507SOL    HW122157   4.519   1.506   1.993  0.9343  1.0780 -1.3405
 3507SOL    HW222158   4.598   1.454   2.098 -0.6401 -0.9055 -2.9081
 3508SOL     OW22159   3.340   1.511   8.933 -0.3889  0.1737 -0.8833
 3508SOL    HW122160   3.298   1.427   8.954 -0.1950  0.6989  1.5308
 3508SOL    HW222161   3.316   1.522   8.841 -0.2652  1.0469 -0.8031
 3509SOL     OW22162   2.871   1.239  16.085  0.5608 -0.1794 -0.0895
 3509SOL    HW122163   2.906   1.206  16.168 -0.8346 -0.6104  0.3190
 3509SOL    HW222164   2.791   1.284  16.113  1.2745  0.0472  1.6039
 3510SOL     OW22165   4.156   0.909  14.959 -0.2297  0.1548 -0.8889
 3510SOL    HW122166   4.079   0.852  14.957  0.6171 -0.9671 -1.5588
 3510SOL    HW222167   4.174   0.909  15.053 -1.0570  0.0994 -0.7297
 3511SOL     OW22168   0.219   2.639   4.805 -0.4597  0.1865  0.8514
 3511SOL    HW122169   0.184   2.687   4.880  1.7875  1.0986  1.3165
 3511SOL    HW222170   0.180   2.677   4.726 -0.6071 -0.8608  0.4137
 3512SOL     OW22171   3.708   1.300   5.339 -0.4323  0.3106  0.1954
 3512SOL    HW122172   3.784   1.242   5.337  1.5941  2.9072  1.6524
 3512SOL    HW222173   3.660   1.273   5.260  2.2496 -1.2169 -0.9059
 3513SOL     OW22174   2.402   0.106  17.518  0.5875  0.7896  0.3451
 3513SOL    HW122175   2.435   0.026  17.478  0.4842  0.4822  0.8858
 3513SOL    HW222176   2.449   0.171  17.465 -0.9142 -0.6084 -2.6600
 3514SOL     OW22177   0.900   3.661  11.514 -0.0989 -0.8878  0.0758
 3514SOL    HW122178   0.888   3.620  11.428  3.0712  0.1598 -0.8666
 3514SOL    HW222179   0.868   3.750  11.501  0.1562 -0.9765 -1.1503
 3515SOL     OW22180   1.067   3.944  12.661  0.3630 -0.4002 -0.0359
 3515SOL    HW122181   1.108   3.876  12.608 -0.8050 -0.5975 -0.7069
 3515SOL    HW222182   1.110   3.937  12.746 -1.9681 -0.8150  1.1102
 3516SOL     OW22183   3.231   3.519  10.217  0.0611  0.1989 -0.0668
 3516SOL    HW122184   3.162   3.560  10.165 -1.1388 -0.1588  1.2437
 3516SOL    HW222185   3.256   3.597  10.266  1.0557 -1.3818  1.9157
 3517SOL     OW22186   3.685   3.600  16.929  0.4226  0.1793  0.0067
 3517SOL    HW122187   3.650   3.562  16.848 -5.4821  3.2166  1.0698
 3517SOL    HW222188   3.624   3.567  16.995  0.3834 -2.0250 -1.1384
 3518SOL     OW22189   0.136   0.942  15.554 -0.7410 -0.1486 -1.1243
 3518SOL    HW122190   0.185   0.906  15.480 -1.1659 -2.2734 -0.3521
 3518SOL    HW222191   0.162   0.876  15.618 -2.5488 -0.0067 -0.2589
 3519SOL     OW22192   0.926   3.574   7.032 -0.5705  0.2787  0.4234
 3519SOL    HW122193   0.954   3.665   7.015  0.4946 -0.0489  0.4100
 3519SOL    HW222194   0.871   3.556   6.956  0.8375  4.9989 -1.7335
 3520SOL     OW22195   0.889   4.185  12.173 -0.1923  0.1771 -0.1651
 3520SOL    HW122196   0.894   4.114  12.236  1.2204  3.3939  3.3259
 3520SOL    HW222197   0.801   4.185  12.135 -1.1837  2.2800  2.0851
 3521SOL     OW22198   3.778   4.666  17.005  0.1767  0.2341  0.0062
 3521SOL    HW122199   3.864   4.696  16.977 -0.2274  1.2697 -0.1292
 3521SOL    HW222200   3.791   4.571  17.000  1.6229  0.4831 -0.9814
 3522SOL     OW22201   3.572   3.011  12.904 -0.9369  0.4002 -0.3313
 3522SOL    HW122202   3.524   2.930  12.887  1.3897 -0.2010 -4.1802
 3522SOL    HW222203   3.637   3.008  12.834 -1.1324 -0.7531 -0.4661
 3523SOL     OW22204   4.580   3.194  17.396  0.2498 -0.3179 -0.7591
 3523SOL    HW122205   4.607   3.102  17.397  1.2955 -0.0053 -0.8576
 3523SOL    HW222206   4.562   3.206  17.490  1.1517  0.9512 -0.7518
 3524SOL     OW22207   3.309   0.502   4.379 -0.4761 -0.1800 -0.5067
 3524SOL    HW122208   3.316   0.576   4.318  1.7468 -0.9849 -1.2092
 3524SOL    HW222209   3.329   0.552   4.458 -1.8668 -0.2133 -0.1325
 3525SOL     OW22210   1.179   2.762   1.784 -0.0016 -0.1038  0.5068
 3525SOL    HW122211   1.169   2.667   1.794  0.1571 -0.1828 -0.0958
 3525SOL    HW222212   1.234   2.768   1.707 -0.2922 -3.0209  0.0750
 3526SOL     OW22213   4.032   3.746   1.836  0.1578 -0.3867  0.5087
 3526SOL    HW122214   4.051   3.701   1.918 -0.3996 -0.6662  0.4853
 3526SOL    HW222215   4.110   3.735   1.780 -0.7348 -2.9504 -0.2752
 3527SOL     OW22216   0.863   3.610   2.838 -0.0726 -0.1374  0.2254
 3527SOL    HW122217   0.771   3.588   2.858 -0.8631  1.8653 -1.2713
 3527SOL    HW222218   0.848   3.639   2.748 -0.1749 -2.0457 -0.3759
 3528SOL     OW22219   3.362   0.262   5.893 -0.5079 -0.0393 -0.0587
 3528SOL    HW122220   3.299   0.207   5.938 -1.4470  1.6223  0.6631
 3528SOL    HW222221   3.378   0.325   5.964  0.5026  0.1109 -0.4079
 3529SOL     OW22222   1.318   1.172   5.788 -0.0222  0.5253 -0.5680
 3529SOL    HW122223   1.265   1.238   5.832 -1.0536 -0.3004 -0.5694
 3529SOL    HW222224   1.370   1.140   5.862 -1.0878  0.5916  0.1986
 3530SOL     OW22225   3.185   3.252   6.388 -0.1592 -0.2685  0.2191
 3530SOL    HW122226   3.275   3.228   6.410 -0.5333  0.0035  2.0640
 3530SOL    HW222227   3.161   3.235   6.479  1.5737 -1.0214  0.5515
 3531SOL     OW22228   3.375   0.301  10.115 -0.4436 -0.1485  0.4112
 3531SOL    HW122229   3.368   0.380  10.169 -0.0100  1.1235 -1.3974
 3531SOL    HW222230   3.286   0.265  10.113 -0.7338  0.5441  0.9977
 3532SOL     OW22231   1.550   0.620   7.577 -0.1963 -0.2416  0.4901
 3532SOL    HW122232   1.456   0.627   7.561 -0.1946 -0.3965  0.4162
 3532SOL    HW222233   1.554   0.649   7.668  0.5874 -0.6025  0.5697
 3533SOL     OW22234   1.260   3.580   7.674  0.0505 -0.1277 -0.2266
 3533SOL    HW122235   1.213   3.641   7.617 -0.4518 -0.3708 -0.0729
 3533SOL    HW222236   1.261   3.501   7.621 -0.8481  1.4812 -2.6626
 3534SOL     OW22237   3.386   1.682  16.341 -0.0176  0.4509 -0.3868
 3534SOL    HW122238   3.300   1.696  16.381 -0.4922 -3.0495 -0.2423
 3534SOL    HW222239   3.387   1.757  16.282  1.0664  0.6569 -0.1083
 3535SOL     OW22240   4.617   2.228   6.011  0.2750 -0.4691  0.1277
 3535SOL    HW122241   4.645   2.319   6.022  0.3214 -0.3099 -1.3048
 3535SOL    HW222242   4.598   2.206   6.102  1.1923 -0.8978  0.2157
 3536SOL     OW22243   2.564   0.642   5.335 -0.2384  0.5869  0.2063
 3536SOL    HW122244   2.566   0.562   5.283  1.7963 -0.3861  1.7482
 3536SOL    HW222245   2.562   0.718   5.277  1.6825  1.4018  1.1764
 3537SOL     OW22246   4.480   3.607   3.780  0.3583 -0.0011  0.5633
 3537SOL    HW122247   4.557   3.559   3.811 -0.0603 -0.3787  1.0078
 3537SOL    HW222248   4.487   3.679   3.843 -1.1346  0.5499  0.0851
 3538SOL     OW22249   0.427   1.014   1.723  0.4846  0.6219 -0.1894
 3538SOL    HW122250   0.403   1.023   1.816  0.8484 -1.6594  0.1230
 3538SOL    HW222251   0.424   0.919   1.714 -0.6283  0.3963  2.4540
 3539SOL     OW22252   3.605   1.118   7.396 -0.8262 -0.1576  0.0072
 3539SOL    HW122253   3.588   1.063   7.473 -2.3284  0.4103  0.0701
 3539SOL    HW222254   3.534   1.102   7.334  1.1952  0.5023 -2.4602
 3540SOL     OW22255   4.487   4.530   1.428 -0.1475  0.3356 -0.4523
 3540SOL    HW122256   4.421   4.528   1.496 -0.5952  2.9543 -0.8117
 3540SOL    HW222257   4.431   4.476   1.372 -0.2363 -1.7662  1.6797
 3541SOL     OW22258   2.011   2.050   4.650 -0.3829  0.1000  0.0050
 3541SOL    HW122259   1.948   2.100   4.599 -0.9014  0.5549  1.0865
 3541SOL    HW222260   1.962   1.968   4.643 -0.9662  0.5302 -0.8746
 3542SOL     OW22261   4.491   2.669   5.295 -0.0601 -0.0140  0.5409
 3542SOL    HW122262   4.478   2.715   5.378 -0.4596 -0.7951  0.9102
 3542SOL    HW222263   4.525   2.744   5.246 -1.2370  0.1616 -0.0171
 3543SOL     OW22264   4.361   0.081   2.313  0.2538  0.1267 -0.0892
 3543SOL    HW122265   4.341   0.165   2.270 -3.0102 -0.1435  0.8899
 3543SOL    HW222266   4.291   0.076   2.379  1.1185 -1.3094  0.7099
 3544SOL     OW22267   3.320   3.767   1.215  0.0288 -0.0880 -0.2518
 3544SOL    HW122268   3.310   3.686   1.164 -2.0499 -0.4051  0.6647
 3544SOL    HW222269   3.390   3.746   1.277 -2.3524 -0.2447  2.3644
 3545SOL     OW22270   1.476   3.254  15.817 -0.4493  0.1199  0.2825
 3545SOL    HW122271   1.436   3.229  15.900 -1.4456 -1.5538 -0.6966
 3545SOL    HW222272   1.535   3.182  15.796 -0.9410 -0.8755  2.3161
 3546SOL     OW22273   3.166   0.715  15.922 -0.0287 -0.0647 -0.6314
 3546SOL    HW122274   3.163   0.679  16.011  0.3686  0.0259 -0.5820
 3546SOL    HW222275   3.096   0.779  15.937 -0.5966 -0.8425  0.0744
 3547SOL     OW22276   2.767   0.978   1.456 -0.1351 -0.1369  0.5590
 3547SOL    HW122277   2.708   0.998   1.528  0.1814 -1.6346  1.2148
 3547SOL    HW222278   2.759   1.062   1.409  1.2194 -1.4581 -2.0113
 3548SOL     OW22279   2.781   0.134  17.549  0.6079 -0.2036  0.0930
 3548SOL    HW122280   2.795   0.083  17.470 -1.7214  1.3082 -1.3056
 3548SOL    HW222281   2.786   0.067  17.618  0.0420  0.2177  0.5504
 3549SOL     OW22282   3.429   0.903   3.681  0.3280  0.4464 -0.0618
 3549SOL    HW122283   3.460   0.829   3.629 -0.7991  0.1105 -0.2618
 3549SOL    HW222284   3.471   0.880   3.763 -1.2900 -0.5761  0.4875
 3550SOL     OW22285   0.392   2.755   6.825 -0.1887  0.2381  0.1225
 3550SOL    HW122286   0.360   2.774   6.737 -1.2887 -0.7790  0.2970
 3550SOL    HW222287   0.339   2.678   6.846  1.7428 -0.5306  2.1418
 3551SOL     OW22288   2.551   0.230   8.574 -0.0691 -0.2372 -0.9789
 3551SOL    HW122289   2.606   0.155   8.551  1.3071  0.3637  0.4090
 3551SOL    HW222290   2.573   0.289   8.501 -0.6508  1.8776  0.5666
 3552SOL     OW22291   2.372   1.281   8.074  0.2561  0.0833 -0.0818
 3552SOL    HW122292   2.325   1.351   8.030 -0.4444 -0.3305  0.0156
 3552SOL    HW222293   2.301   1.227   8.107  1.8275 -0.2324  2.8596
 3553SOL     OW22294   4.086   4.145   3.058 -0.2151  0.1039 -0.6260
 3553SOL    HW122295   4.142   4.127   2.982 -0.3303 -1.5392 -0.3247
 3553SOL    HW222296   4.129   4.091   3.124 -1.6881 -0.8558 -0.4546
 3554SOL     OW22297   0.618   1.616   4.683 -0.0628 -0.0488  0.5131
 3554SOL    HW122298   0.584   1.553   4.618  1.8003 -1.3658  0.8294
 3554SOL    HW222299   0.649   1.559   4.753 -1.2681 -1.0727  0.2250
 3555SOL     OW22300   2.936   1.182   4.257 -0.5338  0.3641  0.3866
 3555SOL    HW122301   2.850   1.152   4.227  0.0712 -1.9492  0.9689
 3555SOL    HW222302   2.903   1.241   4.325  0.3650  0.6510  0.5692
 3556SOL     OW22303   1.734   4.232   7.407  0.2067  0.3586 -0.4352
 3556SOL    HW122304   1.784   4.151   7.390  0.0029 -0.0562  0.9674
 3556SOL    HW222305   1.767   4.293   7.341 -0.7741 -0.1333 -1.3780
 3557SOL     OW22306   4.363   1.024  12.798  0.4576  0.1043  0.2094
 3557SOL    HW122307   4.267   1.022  12.792  0.4951  1.5809 -0.7464
 3557SOL    HW222308   4.385   1.016  12.705  0.7563  2.4857  0.0847
 3558SOL     OW22309   1.902   4.478   5.505 -0.5992  0.9307  0.0058
 3558SOL    HW122310   1.865   4.390   5.504  2.0397 -0.1496 -3.3519
 3558SOL    HW222311   1.974   4.479   5.442 -1.1228  1.8429 -0.5780
 3559SOL     OW22312   0.949   3.530   6.074  0.1606 -0.4622  0.0582
 3559SOL    HW122313   0.896   3.456   6.104  1.5360 -1.5851 -0.3046
 3559SOL    HW222314   1.004   3.484   6.011 -1.2179 -1.8721 -0.1008
 3560SOL     OW22315   2.211   0.620  11.375 -0.3612  0.6572 -0.3758
 3560SOL    HW122316   2.299   0.583  11.376 -0.4374  0.6158  2.9845
 3560SOL    HW222317   2.205   0.623  11.279  0.2813 -0.0647 -0.4356
 3561SOL     OW22318   0.303   0.560   4.702 -0.2421 -0.3850 -0.5490
 3561SOL    HW122319   0.218   0.538   4.740 -0.4866 -1.5382 -1.7478
 3561SOL    HW222320   0.330   0.625   4.767  0.3562  1.1178 -2.3149
 3562SOL     OW22321   2.442   1.502  15.354  0.7349  0.0258  0.4552
 3562SOL    HW122322   2.535   1.519  15.340  0.3054  1.8570 -0.1604
 3562SOL    HW222323   2.403   1.563  15.416 -1.7755  0.8576 -1.9173
 3563SOL     OW22324   0.139   2.400   9.685 -0.6694  0.0107 -0.0237
 3563SOL    HW122325   0.212   2.363   9.733 -1.1312 -0.6042  0.1961
 3563SOL    HW222326   0.073   2.398   9.753 -1.5838  1.5112 -0.8486
 3564SOL     OW22327   0.441   2.742  13.121  0.2021  0.5014  0.7569
 3564SOL    HW122328   0.462   2.720  13.030  0.7415  4.0822  0.0422
 3564SOL    HW222329   0.365   2.798  13.108 -1.2540 -1.1825  2.0234
 3565SOL     OW22330   3.124   0.498   6.979 -0.0331 -0.0437  0.4157
 3565SOL    HW122331   3.080   0.495   7.064 -1.2003 -0.6602 -0.2087
 3565SOL    HW222332   3.172   0.415   6.984  0.0623 -0.1829 -2.5976
 3566SOL     OW22333   0.162   2.946   5.450  0.1661 -0.0466 -0.1176
 3566SOL    HW122334   0.103   2.971   5.521  0.3169  0.1904 -0.0719
 3566SOL    HW222335   0.249   2.947   5.491 -0.3594 -0.2918  0.9909
 3567SOL     OW22336   0.690   2.444  17.550  0.0572 -0.3091 -0.2733
 3567SOL    HW122337   0.731   2.360  17.569  2.6700  0.2058 -3.5698
 3567SOL    HW222338   0.599   2.418  17.559 -0.4938  2.0713  1.0285
 3568SOL     OW22339   4.483   3.820   3.540 -0.4187 -0.4618 -0.1705
 3568SOL    HW122340   4.478   3.768   3.620 -0.5937 -1.2185 -0.6751
 3568SOL    HW222341   4.468   3.912   3.562  0.2926  0.1093 -2.1263
 3569SOL     OW22342   2.540   4.275   5.583 -1.2065  0.1876  0.1048
 3569SOL    HW122343   2.621   4.244   5.623 -0.9101 -0.3947 -0.9568
 3569SOL    HW222344   2.545   4.366   5.613  0.1983 -0.2991  1.3394
 3570SOL     OW22345   3.342   4.208  11.294  0.4780  0.0069 -0.2624
 3570SOL    HW122346   3.273   4.174  11.237  1.4740 -2.2104 -0.1649
 3570SOL    HW222347   3.394   4.263  11.235 -0.9175  0.7876 -0.7588
 3571SOL     OW22348   1.057   0.680   2.528  0.0831 -0.1862 -0.0420
 3571SOL    HW122349   1.136   0.714   2.570  0.3439 -0.3431 -0.4015
 3571SOL    HW222350   1.001   0.695   2.604 -1.6127 -0.6023 -1.2101
 3572SOL     OW22351   3.617   3.267   5.829 -0.1921  0.4008 -0.0704
 3572SOL    HW122352   3.570   3.239   5.751  1.6084  0.8487 -1.3016
 3572SOL    HW222353   3.702   3.239   5.796 -0.0399 -0.4748  1.0686
 3573SOL     OW22354   4.589   1.079  14.854 -0.3553 -0.1892 -0.7854
 3573SOL    HW122355   4.551   1.092  14.941 -0.6411  0.7521 -1.0582
 3573SOL    HW222356   4.514   1.030  14.820 -1.0487  1.0904 -1.0833
 3574SOL     OW22357   4.460   3.748   4.976 -0.0385  0.2602  0.1350
 3574SOL    HW122358   4.522   3.782   4.911  0.3261  0.4668  0.5893
 3574SOL    HW222359   4.390   3.721   4.917  1.0399 -4.5089  1.0564
 3575SOL     OW22360   3.782   0.855   9.559  0.0381 -0.1239 -0.3324
 3575SOL    HW122361   3.841   0.787   9.529  0.7994 -0.0555  1.0268
 3575SOL    HW222362   3.803   0.935   9.511 -3.7448 -0.2820 -2.2617
 3576SOL     OW22363   2.455   3.471  13.578 -0.3477 -0.0983 -0.2813
 3576SOL    HW122364   2.483   3.562  13.565  0.0373 -0.2741 -0.6906
 3576SOL    HW222365   2.360   3.474  13.578 -0.3668 -0.7421 -0.1790
 3577SOL     OW22366   3.797   4.219  14.356 -0.1158  0.2443  0.2998
 3577SOL    HW122367   3.745   4.142  14.378 -1.3097  0.7564 -0.7145
 3577SOL    HW222368   3.773   4.280  14.426 -2.2911 -2.9441  2.3439
 3578SOL     OW22369   4.090   4.600   9.536 -0.2324  0.4710  0.9317
 3578SOL    HW122370   4.034   4.564   9.467  0.4672  1.3285 -0.0806
 3578SOL    HW222371   4.154   4.529   9.529 -1.2963 -0.2789 -1.2803
 3579SOL     OW22372   2.864   1.685   0.678  0.1521  0.3625 -0.4912
 3579SOL    HW122373   2.856   1.765   0.730 -0.2551 -0.0020  0.0023
 3579SOL    HW222374   2.774   1.653   0.675  0.1475  0.3496 -0.2143
 3580SOL     OW22375   2.379   0.847   6.349  0.3593 -0.1647 -0.0604
 3580SOL    HW122376   2.333   0.917   6.396 -0.6742  0.3751 -1.9004
 3580SOL    HW222377   2.378   0.889   6.263 -1.2378  0.7773  0.4106
 3581SOL     OW22378   2.476   2.839  12.476 -0.3092 -0.3200 -0.1357
 3581SOL    HW122379   2.416   2.765  12.478  0.7734 -1.2245 -1.1714
 3581SOL    HW222380   2.552   2.796  12.516  1.3128  1.1142 -1.6598
 3582SOL     OW22381   4.553   1.412   4.923  0.7090 -0.0595  0.2593
 3582SOL    HW122382   4.602   1.495   4.922 -2.3389  1.8023  2.4456
 3582SOL    HW222383   4.600   1.379   4.847 -2.9033 -3.7221 -0.3210
 3583SOL     OW22384   0.874   0.004   7.683 -0.7338  0.1995 -0.1989
 3583SOL    HW122385   0.946   0.065   7.667  0.0765 -1.2391 -1.9938
 3583SOL    HW222386   0.806   0.054   7.728 -0.4585  1.2146 -0.9153
 3584SOL     OW22387   0.459   0.366   7.404 -0.4703 -0.0478 -0.0281
 3584SOL    HW122388   0.452   0.441   7.463 -1.6924  1.3119 -1.9018
 3584SOL    HW222389   0.496   0.405   7.325  1.2621  2.2055  1.8945
 3585SOL     OW22390   0.868   0.198   4.523 -0.1258  0.5074 -0.6445
 3585SOL    HW122391   0.876   0.117   4.572 -0.4118  0.9280  0.0995
 3585SOL    HW222392   0.856   0.163   4.435  2.4558 -1.8164 -0.0550
 3586SOL     OW22393   3.348   2.972  11.620 -0.0977  0.2285 -0.0092
 3586SOL    HW122394   3.421   3.029  11.642 -0.0902 -0.2617  1.2422
 3586SOL    HW222395   3.316   2.948  11.707 -1.3809  1.2753 -0.1883
 3587SOL     OW22396   2.832   2.530   3.904 -0.1809  0.7979 -0.2833
 3587SOL    HW122397   2.747   2.516   3.862  0.0458  0.3484 -0.5995
 3587SOL    HW222398   2.874   2.600   3.854  0.4181  1.4586  1.1606
 3588SOL     OW22399   1.196   4.360   4.192  0.0271 -0.0534  0.1321
 3588SOL    HW122400   1.134   4.288   4.181  2.0094 -1.3515 -2.6325
 3588SOL    HW222401   1.270   4.314   4.153  0.1612  0.3893 -0.1450
 3589SOL     OW22402   0.514   1.484  13.660  0.0538  0.0085  0.5564
 3589SOL    HW122403   0.540   1.517  13.574 -0.2661  1.9292  1.2122
 3589SOL    HW222404   0.454   1.415  13.631  0.4813 -0.3106  0.4187
 3590SOL     OW22405   3.615   1.063   7.701 -0.7556  0.0015  0.1155
 3590SOL    HW122406   3.521   1.054   7.717 -0.6612 -1.5835 -0.2365
 3590SOL    HW222407   3.634   0.974   7.670  0.6020  0.7231 -1.1120
 3591SOL     OW22408   3.421   3.463   4.066 -0.3469 -0.0905 -0.0420
 3591SOL    HW122409   3.434   3.471   3.971 -0.0321 -0.6243 -0.0453
 3591SOL    HW222410   3.377   3.379   4.075  0.7258 -0.6662 -0.1024
 3592SOL     OW22411   2.071   2.924   8.136  0.1634 -0.2065  0.0380
 3592SOL    HW122412   2.138   2.894   8.197 -0.0565  1.1738  0.9599
 3592SOL    HW222413   2.080   3.018   8.151 -2.9545 -0.1177  1.3843
 3593SOL     OW22414   2.108   2.940  10.206  0.0552  0.0927 -0.2510
 3593SOL    HW122415   2.042   2.905  10.147 -1.0924 -0.6982  1.4952
 3593SOL    HW222416   2.184   2.901  10.163 -0.1321 -1.1078  0.5052
 3594SOL     OW22417   0.322   1.270   4.132 -0.2014  0.0318  0.2312
 3594SOL    HW122418   0.326   1.345   4.072 -0.3915  1.5814  2.1677
 3594SOL    HW222419   0.227   1.267   4.144 -0.6146  1.3320 -2.6723
 3595SOL     OW22420   2.238   2.457   4.210  0.0071 -0.0374 -0.3698
 3595SOL    HW122421   2.168   2.508   4.170 -0.7268  0.0936  1.0899
 3595SOL    HW222422   2.286   2.462   4.128  1.3003  0.2897  0.4065
 3596SOL     OW22423   3.562   4.257   8.259 -0.3978  0.0937  0.1444
 3596SOL    HW122424   3.631   4.191   8.269 -0.7573 -0.2217  0.5863
 3596SOL    HW222425   3.606   4.325   8.209  1.2564 -0.6942  0.5149
 3597SOL     OW22426   0.054   2.961   1.426  0.5057 -0.0665 -0.1749
 3597SOL    HW122427   0.031   2.946   1.518  0.8340 -0.4269 -0.1502
 3597SOL    HW222428   4.707   2.959   1.385  0.8415  2.7844 -0.9797
 3598SOL     OW22429   1.039   0.371   2.721  0.4772  0.1179 -0.0293
 3598SOL    HW122430   0.983   0.298   2.697 -0.0150  1.0777 -1.8260
 3598SOL    HW222431   1.032   0.418   2.638  1.3208 -1.1148 -0.7959
 3599SOL     OW22432   3.398   3.564  16.258 -0.6680 -0.0633  0.0620
 3599SOL    HW122433   3.372   3.655  16.244  1.4594  0.3204 -1.3198
 3599SOL    HW222434   3.332   3.521  16.204 -1.8569  0.0295  1.4490
 3600SOL     OW22435   2.318   3.137   1.541  1.0942  0.7175  0.0171
 3600SOL    HW122436   2.241   3.187   1.511  2.2458  0.4967 -3.3632
 3600SOL    HW222437   2.345   3.099   1.457 -0.7683 -0.9967  0.1960
 3601SOL     OW22438   2.522   3.088   7.366  0.1374  0.0258  0.1493
 3601SOL    HW122439   2.476   3.087   7.450  2.2249  2.4738  1.3375
 3601SOL    HW222440   2.606   3.133   7.380  0.5650 -0.7496  0.0998
 3602SOL     OW22441   2.830   3.955  16.377 -0.0332  0.4199 -0.3503
 3602SOL    HW122442   2.923   3.951  16.399  0.5180  3.2251 -2.1981
 3602SOL    HW222443   2.824   4.045  16.343  0.4931 -0.1020 -1.8484
 3603SOL     OW22444   2.180   1.382   4.161 -0.5936 -0.2960 -0.2520
 3603SOL    HW122445   2.232   1.302   4.165 -1.2086 -0.7242 -0.8707
 3603SOL    HW222446   2.107   1.367   4.221 -0.2905 -1.5531 -0.2128
 3604SOL     OW22447   4.727   1.530   3.317  0.1013 -0.3660  0.4709
 3604SOL    HW122448   4.653   1.469   3.316  0.4966 -0.7960 -2.3185
 3604SOL    HW222449   4.705   1.582   3.240 -1.2788 -1.5521  0.0527
 3605SOL     OW22450   3.855   2.710  15.887 -0.2299  0.1982  0.3868
 3605SOL    HW122451   3.860   2.762  15.968  2.2022  0.2089  0.2297
 3605SOL    HW222452   3.856   2.772  15.814  0.3250 -0.7283 -0.3937
 3606SOL     OW22453   1.176   2.453   7.419 -0.0617 -0.1825  0.1891
 3606SOL    HW122454   1.105   2.478   7.479  0.1927  0.6446  0.1384
 3606SOL    HW222455   1.158   2.360   7.405 -3.4431  0.5157 -0.0697
 3607SOL     OW22456   3.555   1.086   4.239  0.4069 -0.4711  0.2392
 3607SOL    HW122457   3.490   1.120   4.301 -0.5075 -2.7840  0.5375
 3607SOL    HW222458   3.629   1.137   4.271 -0.3931 -0.1892  1.6663
 3608SOL     OW22459   1.848   4.547   5.210  0.2450 -0.2539  0.4862
 3608SOL    HW122460   1.837   4.458   5.242 -1.3535 -0.1773  0.1350
 3608SOL    HW222461   1.927   4.544   5.155  0.7693  0.0235  1.2165
 3609SOL     OW22462   3.157   4.024  16.010  0.2560 -0.3543  0.0366
 3609SOL    HW122463   3.151   3.931  15.987  1.4573 -0.3107 -0.4596
 3609SOL    HW222464   3.065   4.044  16.024  0.2687 -1.8452  2.1893
 3610SOL     OW22465   4.073   4.246   9.393 -0.0119  0.1453  0.0507
 3610SOL    HW122466   3.977   4.243   9.397 -0.0809 -0.4348 -1.7015
 3610SOL    HW222467   4.093   4.161   9.354 -1.6437 -0.1041 -0.2278
 3611SOL     OW22468   4.381   1.265   0.754  0.3707  0.1301 -0.8616
 3611SOL    HW122469   4.341   1.187   0.791  0.8919  0.1422 -0.2704
 3611SOL    HW222470   4.449   1.280   0.819 -0.2905  0.1319 -0.1666
 3612SOL     OW22471   1.116   2.892   4.513 -0.1166 -0.5817 -0.4042
 3612SOL    HW122472   1.166   2.953   4.461 -1.6994  1.2571  0.2275
 3612SOL    HW222473   1.040   2.874   4.458  0.3247  2.9468 -2.1350
 3613SOL     OW22474   1.323   3.033   1.658  0.6483 -0.1529  0.2262
 3613SOL    HW122475   1.376   2.982   1.597 -0.1861 -0.0199 -0.6011
 3613SOL    HW222476   1.361   3.119   1.643 -0.8625 -0.0451 -2.9411
 3614SOL     OW22477   1.527   1.360   0.354 -0.2643 -0.0037 -0.1161
 3614SOL    HW122478   1.491   1.373   0.266 -2.5044 -1.4739  0.5926
 3614SOL    HW222479   1.516   1.266   0.364  1.7594 -0.2885 -0.5650
 3615SOL     OW22480   3.096   0.359   5.124  0.0498 -0.3453 -0.3292
 3615SOL    HW122481   3.074   0.321   5.209 -0.0030 -1.2421 -0.7419
 3615SOL    HW222482   3.159   0.426   5.148 -1.0025  1.2455 -2.0133
 3616SOL     OW22483   1.829   4.186  11.876  0.6833  0.4355  0.1557
 3616SOL    HW122484   1.858   4.210  11.964 -1.9158  0.6694  0.9511
 3616SOL    HW222485   1.765   4.125  11.913  1.4105  0.7216  1.8866
 3617SOL     OW22486   0.764   2.885   5.056  0.3818  0.1466 -0.4640
 3617SOL    HW122487   0.825   2.816   5.029  1.6056  0.3217  1.8753
 3617SOL    HW222488   0.802   2.967   5.023 -1.1519  1.4058  0.9115
 3618SOL     OW22489   3.833   0.690  12.834  0.3759 -0.3344 -0.3765
 3618SOL    HW122490   3.868   0.720  12.750  0.8886  0.9278  0.2912
 3618SOL    HW222491   3.742   0.694  12.804  0.5949 -1.7816 -1.2546
 3619SOL     OW22492   4.652   1.918   9.111 -0.3811 -0.7462  0.4160
 3619SOL    HW122493   4.602   1.991   9.148  0.4964 -0.3462  0.8099
 3619SOL    HW222494   0.001   1.952   9.096 -0.6482  0.7174  2.1005
 3620SOL     OW22495   1.913   1.065   8.851  0.0917 -0.3431 -0.2056
 3620SOL    HW122496   1.942   1.116   8.775 -0.1327  0.4705  0.2571
 3620SOL    HW222497   1.944   1.118   8.924 -3.4486  0.4146  0.7537
 3621SOL     OW22498   2.631   3.251   7.058 -0.2685 -0.0249  0.3500
 3621SOL    HW122499   2.709   3.228   7.108 -0.0179 -1.9587 -0.9563
 3621SOL    HW222500   2.658   3.249   6.967 -2.7437 -0.5521 -0.3877
 3622SOL     OW22501   3.535   2.213   1.570  0.6361  0.1101  0.1449
 3622SOL    HW122502   3.601   2.182   1.632  1.8822  2.0103 -0.2342
 3622SOL    HW222503   3.562   2.180   1.484  0.0875 -1.5347  0.6064
 3623SOL     OW22504   0.859   0.305   8.310 -0.2816  0.1238 -0.0017
 3623SOL    HW122505   0.939   0.353   8.290 -0.9827  1.6826  0.9219
 3623SOL    HW222506   0.877   0.276   8.400  1.4823  0.5183 -0.2230
 3624SOL     OW22507   0.918   4.222   3.762 -0.3500  0.3596 -0.3326
 3624SOL    HW122508   0.928   4.179   3.677 -1.1995  0.9506 -0.7432
 3624SOL    HW222509   1.006   4.219   3.798 -1.7614 -0.2153  3.0238
 3625SOL     OW22510   2.564   0.825   8.180  0.1140  0.3538 -0.0044
 3625SOL    HW122511   2.605   0.901   8.139 -0.6746  1.7406  1.7828
 3625SOL    HW222512   2.480   0.847   8.138  0.8740  1.7734 -0.7753
 3626SOL     OW22513   4.068   4.200   5.779 -0.3003  0.1358 -0.3798
 3626SOL    HW122514   4.114   4.281   5.800  3.4155 -1.2440 -3.0966
 3626SOL    HW222515   3.984   4.207   5.824  0.3397 -3.0213  1.3384
 3627SOL     OW22516   1.429   0.273  16.873 -0.2541  0.0770  0.3534
 3627SOL    HW122517   1.499   0.328  16.906  2.2737 -1.2286 -2.7500
 3627SOL    HW222518   1.416   0.217  16.950  0.0785 -0.5808 -0.0644
 3628SOL     OW22519   1.654   2.247  10.385  0.1904  0.0434 -0.7879
 3628SOL    HW122520   1.662   2.321  10.444  0.2887 -0.6909  0.1089
 3628SOL    HW222521   1.560   2.230  10.377  0.6799 -0.8541 -4.6330
 3629SOL     OW22522   4.004   2.056   8.827 -0.4135  0.4885 -0.4563
 3629SOL    HW122523   3.981   2.087   8.739  3.0859  1.3316 -1.0619
 3629SOL    HW222524   4.045   2.135   8.861  1.7252 -1.0607  0.5678
 3630SOL     OW22525   4.509   2.964  13.360  0.6406 -0.4987  0.3487
 3630SOL    HW122526   4.420   2.991  13.383  0.2471 -2.0055  0.5805
 3630SOL    HW222527   4.540   2.949  13.449  0.0992 -2.0941  0.2561
 3631SOL     OW22528   0.149   1.661   9.495  0.5033  0.1523  0.2931
 3631SOL    HW122529   0.092   1.695   9.563  1.4747  2.1336  0.1272
 3631SOL    HW222530   0.121   1.570   9.498  1.4874 -0.1760 -0.2703
 3632SOL     OW22531   4.441   3.543   9.563 -0.1814 -0.1812 -0.0483
 3632SOL    HW122532   4.498   3.519   9.636  0.8608  3.8020  0.4318
 3632SOL    HW222533   4.473   3.630   9.538 -1.1693  0.4028  0.7352
 3633SOL     OW22534   0.333   1.519   5.824 -0.3527 -1.0170  0.0818
 3633SOL    HW122535   0.247   1.484   5.848 -0.1157 -2.5200 -1.3189
 3633SOL    HW222536   0.336   1.590   5.889  0.8869  0.8280 -1.9933
 3634SOL     OW22537   4.451   4.658   3.177  0.7082  0.3729  0.3551
 3634SOL    HW122538   4.468   4.594   3.246 -0.9986 -0.0452  0.3824
 3634SOL    HW222539   4.359   4.651   3.152  0.8546  0.8672 -0.3280
 3635SOL     OW22540   0.441   1.444   3.941  0.1743  0.0700  0.0160
 3635SOL    HW122541   0.530   1.409   3.937 -0.4207 -1.3210 -0.9779
 3635SOL    HW222542   0.439   1.476   3.851 -0.1143  3.8011  1.3627
 3636SOL     OW22543   0.685   0.249   2.966  0.1027  0.2390 -0.3549
 3636SOL    HW122544   0.645   0.185   3.023  0.4993 -0.5561 -0.9719
 3636SOL    HW222545   0.762   0.272   3.019 -0.3977 -0.9193  0.8713
 3637SOL     OW22546   1.817   3.498   1.525 -0.2879  0.2961  0.5783
 3637SOL    HW122547   1.752   3.453   1.579 -0.7564  0.1790 -0.0780
 3637SOL    HW222548   1.765   3.539   1.455 -0.5082  0.3742  0.7861
 3638SOL     OW22549   1.810   3.039   1.599  0.1428  0.4359  0.6898
 3638SOL    HW122550   1.748   3.012   1.667 -0.5863  2.8958  0.9869
 3638SOL    HW222551   1.868   3.102   1.640  0.5114  1.0123 -0.7191
 3639SOL     OW22552   2.058   2.808   8.614 -0.1549 -0.3425  0.6658
 3639SOL    HW122553   1.999   2.848   8.550  1.2032  1.2318  0.3782
 3639SOL    HW222554   2.094   2.883   8.662 -0.2956  0.1986 -0.0774
 3640SOL     OW22555   2.654   3.976   1.767 -0.2165 -0.3196  0.0469
 3640SOL    HW122556   2.724   3.942   1.823  0.9652  0.2934 -1.0740
 3640SOL    HW222557   2.640   3.896   1.716 -1.2659  0.1194 -0.3635
 3641SOL     OW22558   1.592   4.574  12.727  0.3680  0.2901  0.5063
 3641SOL    HW122559   1.623   4.530  12.806  0.8676 -1.0465 -0.4435
 3641SOL    HW222560   1.674   4.588  12.681  0.4987  0.3744  0.7618
 3642SOL     OW22561   4.655   4.414  11.210 -0.0346  0.2211 -0.2014
 3642SOL    HW122562   4.564   4.435  11.190 -0.4388 -1.0652  0.2748
 3642SOL    HW222563   4.663   4.455  11.296  2.4985 -1.0430  0.1747
 3643SOL     OW22564   1.349   2.427   9.051  0.1315 -0.1639 -0.8486
 3643SOL    HW122565   1.289   2.479   9.106  0.7448 -0.1188 -0.2175
 3643SOL    HW222566   1.401   2.498   9.014 -1.8810  0.7588 -1.9197
 3644SOL     OW22567   1.794   2.325  10.826 -0.0721 -0.2072  0.2176
 3644SOL    HW122568   1.792   2.234  10.854  0.3617  0.4361  2.3406
 3644SOL    HW222569   1.858   2.366  10.885 -1.6825 -0.7608  2.3255
 3645SOL     OW22570   2.241   4.527  14.430  0.0407 -0.0497 -0.2382
 3645SOL    HW122571   2.213   4.486  14.512 -0.4634  2.1252  0.6708
 3645SOL    HW222572   2.321   4.577  14.449  0.0447 -0.2657  0.3360
 3646SOL     OW22573   0.129   2.525   2.021  0.2810 -0.5634  0.1446
 3646SOL    HW122574   0.189   2.596   2.044  2.6715 -2.3119 -0.6342
 3646SOL    HW222575   0.045   2.549   2.059  0.0807  0.6835 -1.0892
 3647SOL     OW22576   1.740   2.523   1.376  0.7794  0.2776  0.5211
 3647SOL    HW122577   1.754   2.612   1.344 -1.7483  0.5983  0.2873
 3647SOL    HW222578   1.787   2.527   1.459 -1.4673  1.3652  1.7510
 3648SOL     OW22579   1.885   3.724   7.286  0.4410  0.0046 -0.2800
 3648SOL    HW122580   1.914   3.658   7.223  0.8903 -0.4006  0.3525
 3648SOL    HW222581   1.934   3.692   7.361 -0.5007 -0.3522  0.1904
 3649SOL     OW22582   2.626   0.923   0.763 -0.4468 -0.9155  0.1167
 3649SOL    HW122583   2.652   0.944   0.673 -2.9700  0.3267 -0.3194
 3649SOL    HW222584   2.638   1.010   0.799  1.1168 -1.2388  0.3483
 3650SOL     OW22585   3.288   0.801   0.895 -0.2371 -0.0765  0.1033
 3650SOL    HW122586   3.249   0.717   0.919 -0.6329  0.7635  2.3865
 3650SOL    HW222587   3.271   0.853   0.974  0.1665  0.2628 -0.0328
 3651SOL     OW22588   1.489   3.628  11.402 -0.7627  0.3361  0.4516
 3651SOL    HW122589   1.515   3.622  11.494  0.8025 -0.2478 -0.0291
 3651SOL    HW222590   1.397   3.604  11.411 -0.5210 -1.1136 -0.9260
 3652SOL     OW22591   0.360   4.480   5.802 -0.4429 -0.4432  0.4954
 3652SOL    HW122592   0.285   4.478   5.861 -1.4017  2.5609 -0.6263
 3652SOL    HW222593   0.337   4.416   5.735 -1.2593  0.2586  0.0965
 3653SOL     OW22594   3.251   1.793  16.726  0.0683 -0.7563 -0.2066
 3653SOL    HW122595   3.286   1.826  16.809 -1.4379  0.0896  0.0818
 3653SOL    HW222596   3.308   1.842  16.667  1.8388 -1.7134  0.7094
 3654SOL     OW22597   3.107   3.123   2.135 -0.0203  0.2534  0.2149
 3654SOL    HW122598   3.048   3.191   2.167  0.2933  1.0404 -0.8532
 3654SOL    HW222599   3.140   3.087   2.217  0.4196  1.4744  0.5742
 3655SOL     OW22600   3.748   1.726   2.946  1.0822 -0.5635 -0.5520
 3655SOL    HW122601   3.772   1.667   3.019  1.0833 -1.1306 -1.0115
 3655SOL    HW222602   3.819   1.787   2.929 -1.2331  2.5893  1.1423
 3656SOL     OW22603   2.199   3.123   7.418 -0.0157 -0.1530 -0.0939
 3656SOL    HW122604   2.159   3.210   7.430 -0.3469 -0.1379 -1.2813
 3656SOL    HW222605   2.280   3.137   7.467  0.3066  1.3903 -1.0549
 3657SOL     OW22606   0.526   3.357  12.514  0.1390  0.7481  0.1853
 3657SOL    HW122607   0.589   3.353  12.442 -2.4301 -0.9089 -1.9775
 3657SOL    HW222608   0.457   3.305  12.473  0.9673  0.7273 -1.2041
 3658SOL     OW22609   4.263   1.258   6.721 -0.4214 -0.5877  0.0679
 3658SOL    HW122610   4.189   1.208   6.756 -1.7930 -0.0736 -2.0577
 3658SOL    HW222611   4.239   1.263   6.629 -0.6622 -2.5183  0.0400
 3659SOL     OW22612   4.607   4.688   7.852 -0.0157  0.1794 -0.2219
 3659SOL    HW122613   4.665   4.723   7.784  2.7986 -2.2607  0.9544
 3659SOL    HW222614   4.672   4.635   7.897  0.6805  1.6915  0.5560
 3660SOL     OW22615   2.017   3.512  10.791  0.0083  0.0279  0.0846
 3660SOL    HW122616   2.112   3.503  10.787  0.0062 -0.2440  0.6087
 3660SOL    HW222617   1.993   3.580  10.854  0.2495  0.3027 -0.1221
 3661SOL     OW22618   2.823   4.148   7.738 -0.1682 -0.2604 -0.0828
 3661SOL    HW122619   2.810   4.226   7.790  0.1811 -1.4885  1.8499
 3661SOL    HW222620   2.742   4.159   7.688 -0.4967  1.0122  0.7392
 3662SOL     OW22621   2.418   2.269  11.961  0.4238  0.8429  0.0392
 3662SOL    HW122622   2.377   2.289  12.045 -0.3870 -0.7497  0.0304
 3662SOL    HW222623   2.345   2.255  11.901  0.8923 -3.3944  0.4546
 3663SOL     OW22624   4.722   1.881  17.469 -0.2977  0.0374 -0.3882
 3663SOL    HW122625   0.021   1.964  17.495  0.7067 -0.4168 -0.3833
 3663SOL    HW222626   4.662   1.866  17.542 -1.8246 -0.6856 -1.7954
 3664SOL     OW22627   4.610   4.147   6.963  0.7016 -0.1988 -0.0552
 3664SOL    HW122628   4.625   4.059   6.928 -0.9484 -0.3788 -0.2892
 3664SOL    HW222629   4.613   4.134   7.057  0.0795  0.2261  0.0222
 3665SOL     OW22630   3.204   3.613   7.195 -0.0258  0.4609 -0.2876
 3665SOL    HW122631   3.263   3.574   7.261 -1.1158  0.9173  0.9535
 3665SOL    HW222632   3.131   3.553   7.209 -2.3225  3.1221 -0.9527
 3666SOL     OW22633   2.430   4.669  14.696  0.3941  0.2237  0.1511
 3666SOL    HW122634   2.369   4.596  14.686 -2.3551  2.5329  0.1385
 3666SOL    HW222635   2.468   4.664  14.608  1.1344 -1.5998  0.5604
 3667SOL     OW22636   1.246   0.116   7.114 -0.4613  0.1350  0.4250
 3667SOL    HW122637   1.274   0.145   7.201  0.8843  1.8106 -0.5614
 3667SOL    HW222638   1.154   0.142   7.120 -0.3868  0.0953  1.7029
 3668SOL     OW22639   3.813   3.466  10.496 -0.4517 -0.3846 -0.0120
 3668SOL    HW122640   3.822   3.472  10.591 -0.4556  1.9222 -0.1479
 3668SOL    HW222641   3.768   3.381  10.498  0.3207 -0.7807  0.4331
 3669SOL     OW22642   4.268   0.795  15.429  0.2891  0.3051 -0.3579
 3669SOL    HW122643   4.258   0.738  15.505 -2.5852  0.2400 -0.8061
 3669SOL    HW222644   4.353   0.836  15.446  0.2486 -0.0572  0.6710
 3670SOL     OW22645   4.223   4.417   0.138  0.2369  0.0334  0.4113
 3670SOL    HW122646   4.253   4.495   0.184  1.1948 -0.0419 -0.0807
 3670SOL    HW222647   4.288   4.351   0.163  0.7881 -0.2565 -1.7538
 3671SOL     OW22648   0.358   1.383  16.452 -0.3421 -0.4401  0.2558
 3671SOL    HW122649   0.363   1.389  16.356 -1.6601 -1.4387  0.1360
 3671SOL    HW222650   0.266   1.359  16.453 -0.2804 -0.5657  2.5255
 3672SOL     OW22651   3.412   4.224   8.001  0.0047  0.3128 -0.2167
 3672SOL    HW122652   3.382   4.133   8.000  1.4021 -0.1679  1.8360
 3672SOL    HW222653   3.442   4.225   8.092  0.0828 -0.5264 -0.2274
 3673SOL     OW22654   3.353   0.452   8.236 -0.1889 -0.3405 -0.0315
 3673SOL    HW122655   3.316   0.536   8.264 -0.9373 -1.5153  2.5472
 3673SOL    HW222656   3.423   0.446   8.301  0.2279 -3.0795 -0.7335
 3674SOL     OW22657   0.387   2.681  17.244 -0.0705 -0.2138  0.1610
 3674SOL    HW122658   0.410   2.666  17.152  0.7323  1.2651  0.1161
 3674SOL    HW222659   0.457   2.744  17.259  0.0608 -0.6624  1.4117
 3675SOL     OW22660   2.035   0.734   8.002  0.4104 -0.1173  0.1474
 3675SOL    HW122661   2.007   0.810   8.053 -1.1218 -1.3755  1.1833
 3675SOL    HW222662   2.083   0.687   8.070  1.8158  1.2346  0.0773
 3676SOL     OW22663   0.456   3.068   7.480  0.1973  0.1739 -0.0409
 3676SOL    HW122664   0.526   3.084   7.416  1.5822 -1.0818  1.1626
 3676SOL    HW222665   0.502   3.096   7.559  0.0588  1.0503 -0.2637
 3677SOL     OW22666   0.001   3.184   3.138 -0.4981 -0.2349 -0.2135
 3677SOL    HW122667   0.026   3.183   3.231  0.6050  2.3310 -0.4924
 3677SOL    HW222668   4.654   3.145   3.154 -0.0606 -1.1000  0.0659
 3678SOL     OW22669   1.708   3.404   5.799  0.2021  0.4271  0.7268
 3678SOL    HW122670   1.800   3.376   5.801  0.9802  2.9051 -0.7463
 3678SOL    HW222671   1.669   3.324   5.764 -0.5280  1.5472 -0.9764
 3679SOL     OW22672   0.769   1.055  17.310 -0.2492  0.3357  0.0478
 3679SOL    HW122673   0.732   0.967  17.306  0.6008 -0.0255  0.2382
 3679SOL    HW222674   0.687   1.103  17.297  0.2173  2.0884  3.5772
 3680SOL     OW22675   3.383   2.838  14.392 -0.3721 -0.1942  0.1054
 3680SOL    HW122676   3.328   2.764  14.415  0.8536 -1.0608  0.2602
 3680SOL    HW222677   3.430   2.845  14.475  0.4769 -0.1122 -0.3735
 3681SOL     OW22678   0.686   1.193   3.264  0.1568  0.4698  0.2790
 3681SOL    HW122679   0.593   1.212   3.254 -0.4317 -1.2902  2.4461
 3681SOL    HW222680   0.689   1.212   3.358  0.0985 -0.6379  0.5085
 3682SOL     OW22681   3.385   1.902   2.377 -0.3963  0.0326 -0.7548
 3682SOL    HW122682   3.433   1.831   2.420 -1.6607 -1.2980 -1.5301
 3682SOL    HW222683   3.301   1.907   2.424  2.5128  0.6658  4.3454
 3683SOL     OW22684   3.142   2.389  14.338  0.0471  0.5643 -0.0561
 3683SOL    HW122685   3.073   2.335  14.376 -0.5187  0.8562 -0.6568
 3683SOL    HW222686   3.212   2.329  14.311 -0.5519 -0.0700 -0.2026
 3684SOL     OW22687   1.251   2.172   5.079  0.5276 -0.0364  0.2641
 3684SOL    HW122688   1.230   2.265   5.088  2.6410  0.4286  0.4057
 3684SOL    HW222689   1.341   2.172   5.045  0.3794  1.2002 -0.1270
 3685SOL     OW22690   3.236   3.780  10.347  0.2933  0.6247  0.0361
 3685SOL    HW122691   3.329   3.789  10.365  0.4223  1.8106 -1.2693
 3685SOL    HW222692   3.207   3.740  10.429  1.6758  1.9033  1.1338
 3686SOL     OW22693   1.888   0.910   9.453  0.0099  0.3142 -0.3974
 3686SOL    HW122694   1.960   0.862   9.492  1.3105  2.3086 -0.3796
 3686SOL    HW222695   1.880   0.859   9.372  0.0775  0.1201 -0.2793
 3687SOL     OW22696   2.073   3.594   6.252 -0.2774  0.4021 -0.0665
 3687SOL    HW122697   2.045   3.517   6.300  1.3138 -0.9677 -1.3404
 3687SOL    HW222698   2.167   3.586   6.262 -0.4538  1.6506  2.4415
 3688SOL     OW22699   2.973   3.391  16.881 -0.4423 -0.3487 -0.5403
 3688SOL    HW122700   3.027   3.312  16.890 -1.9472 -1.4877 -1.3490
 3688SOL    HW222701   2.922   3.383  16.800 -0.3605  1.2550 -0.7501
 3689SOL     OW22702   3.612   0.506   9.987  0.2957 -0.1915  0.0011
 3689SOL    HW122703   3.529   0.535  10.025  0.3009  0.4862 -0.5123
 3689SOL    HW222704   3.680   0.567  10.017  0.3152 -1.6610  3.0118
 3690SOL     OW22705   2.730   2.967  14.699  0.2815 -0.5999  0.0207
 3690SOL    HW122706   2.774   3.047  14.668 -1.4301 -0.2877 -1.5974
 3690SOL    HW222707   2.639   2.995  14.707  0.4241 -0.3546  0.8452
 3691SOL     OW22708   4.149   3.549   3.205  0.5801 -0.6671 -0.5696
 3691SOL    HW122709   4.078   3.613   3.207  0.3821 -0.9866  2.7578
 3691SOL    HW222710   4.200   3.566   3.283 -0.3501 -0.2944 -0.0420
 3692SOL     OW22711   4.624   2.723   2.746 -0.0022 -0.0795  0.0242
 3692SOL    HW122712   4.638   2.695   2.656 -3.0014 -0.3145 -0.3772
 3692SOL    HW222713   4.537   2.688   2.764  0.7818 -1.5962  0.9210
 3693SOL     OW22714   4.497   4.421   8.198  1.0560  0.3889  0.2994
 3693SOL    HW122715   4.519   4.364   8.272 -1.6930 -0.2016  0.6732
 3693SOL    HW222716   4.547   4.381   8.127 -0.3769 -2.7049  1.0031
 3694SOL     OW22717   4.286   1.595   8.948 -0.3185  0.2759 -0.0800
 3694SOL    HW122718   4.242   1.665   8.996 -3.5817  0.5505 -3.4590
 3694SOL    HW222719   4.375   1.624   8.969 -1.4201  3.1073  0.7266
 3695SOL     OW22720   1.980   0.729   1.661 -0.0055 -0.1881 -0.5381
 3695SOL    HW122721   2.067   0.690   1.660 -0.9451 -2.2668  0.4870
 3695SOL    HW222722   1.998   0.801   1.722  2.1862 -0.8331 -0.4322
 3696SOL     OW22723   0.085   2.339  15.572  0.1866 -0.3425 -0.4520
 3696SOL    HW122724   0.172   2.327  15.534  0.8390  1.0512  0.5836
 3696SOL    HW222725   0.121   2.389  15.646  0.3784 -1.6642  0.3337
 3697SOL     OW22726   1.909   1.227   1.819  0.2645  0.5624  0.1081
 3697SOL    HW122727   1.817   1.226   1.846  0.1577  1.5510 -0.2386
 3697SOL    HW222728   1.944   1.160   1.878  0.8339 -0.0251 -0.8933
 3698SOL     OW22729   1.898   1.365   1.577  0.4330 -0.8918 -0.2050
 3698SOL    HW122730   1.877   1.300   1.511 -1.7939 -0.2502 -0.1330
 3698SOL    HW222731   1.907   1.307   1.653  0.2727 -0.1329  0.3926
 3699SOL     OW22732   0.075   4.397   6.154  0.2129  0.1611 -0.0097
 3699SOL    HW122733   0.009   4.425   6.218 -1.0378 -2.1680 -0.2603
 3699SOL    HW222734   0.160   4.407   6.197  0.6651 -0.6998 -0.6997
 3700SOL     OW22735   4.018   0.179  12.328  0.3721  0.3779  0.1930
 3700SOL    HW122736   4.045   0.108  12.269  1.9639  1.2513 -0.1108
 3700SOL    HW222737   3.923   0.164  12.324  0.6783 -0.9027 -3.1236
 3701SOL     OW22738   3.126   1.701  16.485 -0.2621  0.3135 -0.3610
 3701SOL    HW122739   3.153   1.727  16.573 -0.3602  0.1254 -0.2743
 3701SOL    HW222740   3.033   1.723  16.482  0.1956  2.4735  1.5570
 3702SOL     OW22741   0.719   2.888  12.730  0.3277  0.2825  0.3833
 3702SOL    HW122742   0.749   2.974  12.758  3.0073 -0.9756  1.3321
 3702SOL    HW222743   0.758   2.888  12.642 -1.8059 -0.8531 -0.5802
 3703SOL     OW22744   0.856   0.740   6.572  0.3505  1.1696 -0.3184
 3703SOL    HW122745   0.774   0.693   6.557 -0.5388  3.1195 -1.6654
 3703SOL    HW222746   0.825   0.812   6.627 -3.2601  0.0167 -0.8206
 3704SOL     OW22747   2.881   1.096  17.369  0.1552 -0.0200  0.5538
 3704SOL    HW122748   2.927   1.062  17.293  1.0552  1.9988  0.2028
 3704SOL    HW222749   2.839   1.166  17.320  0.5992 -2.0464 -2.6839
 3705SOL     OW22750   1.153   0.455   6.771 -0.5571 -0.0259 -0.3222
 3705SOL    HW122751   1.083   0.416   6.720  1.4174  0.1111 -3.1723
 3705SOL    HW222752   1.187   0.370   6.799 -3.4905 -0.1434  2.8741
 3706SOL     OW22753   1.468   3.028   1.210  0.1395 -0.0121  0.2873
 3706SOL    HW122754   1.520   3.099   1.172  0.9409 -1.9469 -2.2449
 3706SOL    HW222755   1.383   3.053   1.176 -0.1426 -1.3856 -0.0021
 3707SOL     OW22756   3.839   4.321   9.224  0.2295 -0.6241 -0.2327
 3707SOL    HW122757   3.779   4.391   9.249 -0.1154 -0.7653 -0.6606
 3707SOL    HW222758   3.791   4.250   9.266  2.8458 -0.7566  2.5294
 3708SOL     OW22759   4.739   1.066   3.589 -0.2058 -0.2412  0.2334
 3708SOL    HW122760   4.727   0.990   3.645  0.3786 -0.5787 -0.1104
 3708SOL    HW222761   4.685   1.038   3.515 -1.9150  1.1925  0.9150
 3709SOL     OW22762   3.921   4.429   1.280 -0.2099 -0.5410 -0.2152
 3709SOL    HW122763   3.982   4.413   1.352 -2.1225 -1.7021  1.1256
 3709SOL    HW222764   3.846   4.376   1.304 -0.9829  2.2217  3.3525
 3710SOL     OW22765   4.457   2.425  16.976  0.2405  0.0873  0.7390
 3710SOL    HW122766   4.531   2.411  16.918 -0.3736  5.9683 -1.5383
 3710SOL    HW222767   4.412   2.496  16.931 -3.1112 -2.1289  0.6306
 3711SOL     OW22768   0.607   3.418   6.304  0.0150 -0.8904  1.0271
 3711SOL    HW122769   0.561   3.414   6.220 -1.3442  2.1842  1.6337
 3711SOL    HW222770   0.694   3.407   6.265 -0.9478  2.2418 -1.9972
 3712SOL     OW22771   0.914   0.551   9.032 -0.3366 -0.6086 -0.0218
 3712SOL    HW122772   0.986   0.555   8.969 -0.5577 -0.8751 -0.2916
 3712SOL    HW222773   0.878   0.640   9.032 -1.2987 -0.9960  0.3935
 3713SOL     OW22774   3.303   1.518   3.133  0.0514 -0.6748 -0.0772
 3713SOL    HW122775   3.300   1.505   3.227 -1.2169  1.4657  0.1750
 3713SOL    HW222776   3.210   1.516   3.113  0.0988 -1.3980 -0.2418
 3714SOL     OW22777   2.053   0.149   6.316  0.5971  0.2000 -0.5359
 3714SOL    HW122778   1.969   0.183   6.347  2.4323  3.6939  0.5944
 3714SOL    HW222779   2.112   0.216   6.350  0.9115  0.5647 -1.8370
 3715SOL     OW22780   1.884   4.589  17.589  0.6393  0.4056 -0.1432
 3715SOL    HW122781   1.841   4.662  17.546  0.8549 -0.9877 -2.7144
 3715SOL    HW222782   1.912   4.640  17.666  1.6353 -2.8376  1.6523
 3716SOL     OW22783   0.687   3.512  12.981 -0.2983 -0.9787  0.2015
 3716SOL    HW122784   0.775   3.542  13.003 -0.9285  0.5617  0.6050
 3716SOL    HW222785   0.672   3.463  13.062  1.3707  0.4212  1.3670
 3717SOL     OW22786   4.562   2.099   8.668  0.0126 -0.4558  0.1215
 3717SOL    HW122787   4.621   2.165   8.703 -1.0001  1.4461 -1.7649
 3717SOL    HW222788   4.538   2.056   8.750 -2.0693  0.6094  0.0555
 3718SOL     OW22789   4.100   1.176   4.893  0.1740 -0.1582 -0.1322
 3718SOL    HW122790   4.064   1.164   4.805  0.4433  1.2632 -0.4363
 3718SOL    HW222791   4.177   1.228   4.872 -0.6352  1.5832  1.2138
 3719SOL     OW22792   1.450   2.678   8.985  0.2533 -0.2642 -0.1739
 3719SOL    HW122793   1.507   2.709   9.054 -0.6192 -1.0186  0.8820
 3719SOL    HW222794   1.424   2.760   8.943  0.5090 -0.9065 -1.6124
 3720SOL     OW22795   2.378   0.693   0.281 -0.3172 -0.2557 -0.7532
 3720SOL    HW122796   2.418   0.610   0.309 -0.6499 -0.9947 -2.4882
 3720SOL    HW222797   2.437   0.735   0.219  1.2902 -0.9102  0.3289
 3721SOL     OW22798   3.162   3.644  11.570 -0.0180  0.4281  0.1651
 3721SOL    HW122799   3.096   3.627  11.503 -0.0318  1.4235 -0.0634
 3721SOL    HW222800   3.138   3.582  11.639 -0.1204  1.5030  1.0991
 3722SOL     OW22801   0.637   2.907   4.647 -0.6177 -0.1731 -0.3008
 3722SOL    HW122802   0.631   2.876   4.738 -0.7069  0.3820 -0.1156
 3722SOL    HW222803   0.689   2.838   4.607  1.1620 -0.1650  1.9911
 3723SOL     OW22804   0.388   2.544   1.259 -0.2632 -0.0607 -0.2927
 3723SOL    HW122805   0.426   2.514   1.341 -0.3291  0.9285  0.0950
 3723SOL    HW222806   0.369   2.633   1.285 -0.7366 -0.4294  0.6051
 3724SOL     OW22807   4.500   0.268   8.420 -0.3423  0.2120  0.0481
 3724SOL    HW122808   4.583   0.254   8.375 -0.8528  0.7163 -1.0319
 3724SOL    HW222809   4.497   0.203   8.490  1.2946  1.2071  1.0572
 3725SOL     OW22810   4.510   1.749   5.437  0.3465 -0.6742  0.1133
 3725SOL    HW122811   4.573   1.724   5.369  0.9061  3.0319 -0.7088
 3725SOL    HW222812   4.500   1.669   5.488  3.2850 -2.0697 -1.5066
 3726SOL     OW22813   1.287   1.627   6.065  0.1232  0.1549 -0.7308
 3726SOL    HW122814   1.368   1.607   6.110  0.0341 -1.4010 -1.2643
 3726SOL    HW222815   1.330   1.673   5.994  0.3879 -0.3112 -0.8731
 3727SOL     OW22816   0.563   4.730   8.442 -0.3045 -0.1196  0.0744
 3727SOL    HW122817   0.595   0.016   8.355 -0.3369  0.4967  0.2373
 3727SOL    HW222818   0.502   0.063   8.459 -0.2221 -0.0729  0.1748
 3728SOL     OW22819   0.402   4.735   1.234  0.1259  0.2787  1.0197
 3728SOL    HW122820   0.416   4.694   1.149 -2.2344  1.1091  0.2448
 3728SOL    HW222821   0.422   4.656   1.285 -1.1886 -0.7733 -0.1036
 3729SOL     OW22822   3.565   0.703  15.767 -0.3671  0.3299  0.3328
 3729SOL    HW122823   3.635   0.662  15.718 -2.7189  0.4514 -3.1480
 3729SOL    HW222824   3.590   0.791  15.740 -1.8343  1.4268  2.4725
 3730SOL     OW22825   2.386   4.434   1.167 -0.0137  0.0656 -0.4875
 3730SOL    HW122826   2.400   4.520   1.207  1.4602 -0.1382 -0.5517
 3730SOL    HW222827   2.298   4.445   1.131 -0.1317 -3.9981 -1.3777
 3731SOL     OW22828   3.079   1.760   2.443 -0.0115 -0.4239  0.1921
 3731SOL    HW122829   3.164   1.719   2.457  0.9128  1.2138 -0.7168
 3731SOL    HW222830   3.081   1.758   2.348 -0.8388 -0.5706  0.1785
 3732SOL     OW22831   0.352   2.819   9.132 -0.4409 -0.2408  0.4869
 3732SOL    HW122832   0.318   2.760   9.199 -2.0110  2.1109  1.7575
 3732SOL    HW222833   0.418   2.864   9.184 -0.2849 -1.5991  1.4662
 3733SOL     OW22834   0.251   2.334   8.647  0.4327  0.1725 -0.7639
 3733SOL    HW122835   0.301   2.298   8.720 -0.3041  1.6527  0.4568
 3733SOL    HW222836   0.290   2.420   8.635 -0.4206  0.6294 -0.2787
 3734SOL     OW22837   2.541   2.512  10.518  0.3748 -0.0591 -0.3321
 3734SOL    HW122838   2.528   2.509  10.613 -2.6680  0.6306 -0.7090
 3734SOL    HW222839   2.613   2.575  10.513  0.6055  0.0208  3.8574
 3735SOL     OW22840   4.474   2.124   9.143 -0.1688  0.3115 -0.3043
 3735SOL    HW122841   4.514   2.158   9.063 -0.6313 -0.0138 -0.6789
 3735SOL    HW222842   4.500   2.191   9.205 -1.5713 -0.5175  1.1718
 3736SOL     OW22843   2.473   1.876   7.576 -0.1741  0.2154  0.8658
 3736SOL    HW122844   2.399   1.840   7.527  1.3569  0.2835 -1.5368
 3736SOL    HW222845   2.546   1.883   7.514 -0.6937  0.8507  0.3335
 3737SOL     OW22846   0.715   4.480   8.851 -0.1984 -0.0019 -0.3032
 3737SOL    HW122847   0.762   4.562   8.865  0.8261 -0.6328 -0.0630
 3737SOL    HW222848   0.657   4.511   8.781  1.2183  1.2558 -0.9500
 3738SOL     OW22849   1.798   3.291   0.306  0.1425 -0.4265  0.1289
 3738SOL    HW122850   1.737   3.245   0.363 -0.0228 -0.0618  0.2475
 3738SOL    HW222851   1.766   3.249   0.226  2.7954  0.7877 -1.5757
 3739SOL     OW22852   2.880   2.441  10.563  0.2270 -0.2087  1.0367
 3739SOL    HW122853   2.858   2.521  10.610  2.0485  0.3546  0.9279
 3739SOL    HW222854   2.820   2.378  10.602 -0.6331 -0.1669 -0.2000
 3740SOL     OW22855   2.045   0.855   1.909  0.3068 -0.2110  0.7193
 3740SOL    HW122856   2.118   0.813   1.955  1.5988  1.0223 -0.1947
 3740SOL    HW222857   2.001   0.895   1.984  1.1810  1.2124  0.4786
 3741SOL     OW22858   3.458   2.851   1.571 -0.5342 -0.1849  0.0945
 3741SOL    HW122859   3.383   2.883   1.621 -1.9312  2.5234 -3.7316
 3741SOL    HW222860   3.452   2.756   1.582  0.8649 -0.1808  0.9107
 3742SOL     OW22861   2.742   1.076   5.201 -0.1721  0.3653  0.1921
 3742SOL    HW122862   2.735   1.166   5.168 -0.7427  0.5540  0.8276
 3742SOL    HW222863   2.800   1.093   5.275 -0.4535 -2.5230  1.0661
 3743SOL     OW22864   1.383   3.254   7.267  0.6026 -0.5340  0.8296
 3743SOL    HW122865   1.389   3.338   7.222  2.1623 -2.1509 -1.9865
 3743SOL    HW222866   1.349   3.194   7.200  0.4818 -1.2711  1.5467
 3744SOL     OW22867   3.663   2.627   4.868 -0.4276  0.1375  0.3819
 3744SOL    HW122868   3.722   2.633   4.793 -2.1354  1.8053 -0.8385
 3744SOL    HW222869   3.720   2.650   4.941 -1.7963  2.4275  0.7505
 3745SOL     OW22870   0.589   2.286   7.747 -0.2744  0.3052  0.6033
 3745SOL    HW122871   0.532   2.209   7.742  0.8001 -0.4270 -0.3546
 3745SOL    HW222872   0.543   2.336   7.680  0.7485  1.5939  0.8639
 3746SOL     OW22873   0.139   0.300   3.724  0.3226 -0.1991 -0.1384
 3746SOL    HW122874   0.223   0.334   3.696 -0.4715  2.1052  0.2773
 3746SOL    HW222875   0.107   0.252   3.648 -1.3051 -1.1283  1.1201
 3747SOL     OW22876   4.537   1.578   2.931  0.0178 -0.3300  0.3699
 3747SOL    HW122877   4.621   1.579   2.977  0.0401 -2.0756  0.3778
 3747SOL    HW222878   4.489   1.500   2.961  0.3412 -0.1572  1.3386
 3748SOL     OW22879   3.617   2.374   7.757  0.2547 -0.2239 -0.3972
 3748SOL    HW122880   3.615   2.415   7.844  1.3270 -2.7270  0.7934
 3748SOL    HW222881   3.601   2.289   7.797 -1.7893  0.4183  0.1717
 3749SOL     OW22882   0.906   0.503  12.843 -0.0677  0.5787  0.1572
 3749SOL    HW122883   0.860   0.420  12.854 -0.5998  0.9276  0.5691
 3749SOL    HW222884   0.945   0.530  12.927 -0.6482  0.3151  0.5141
 3750SOL     OW22885   3.549   1.840   2.784 -0.4882 -0.1921 -0.5277
 3750SOL    HW122886   3.597   1.808   2.861 -3.0363  1.1069  1.5969
 3750SOL    HW222887   3.573   1.933   2.786  0.1550 -0.3928  1.4313
 3751SOL     OW22888   0.036   0.672   9.074  0.5180  0.2126  0.2801
 3751SOL    HW122889   0.122   0.647   9.041  0.7171 -0.3258  1.2342
 3751SOL    HW222890   4.722   0.595   9.056  0.2473  0.5701 -0.4989
 3752SOL     OW22891   1.263   1.188   1.996  0.1195 -0.1557  0.3202
 3752SOL    HW122892   1.293   1.269   1.954  0.2651 -0.6122 -0.4458
 3752SOL    HW222893   1.338   1.132   1.980 -0.2912 -0.0036 -2.1824
 3753SOL     OW22894   2.732   0.860  17.468  0.7450  0.0043 -0.3660
 3753SOL    HW122895   2.768   0.778  17.434 -1.3374 -0.9586 -0.2437
 3753SOL    HW222896   2.782   0.929  17.425  2.0063 -0.6689  0.0322
 3754SOL     OW22897   2.655   2.607   2.122  0.3102 -0.7788 -0.1028
 3754SOL    HW122898   2.682   2.597   2.030 -1.1838 -2.3734 -0.3737
 3754SOL    HW222899   2.729   2.661   2.148  1.2842 -1.1654 -2.0320
 3755SOL     OW22900   2.114   2.223   3.819  0.9123  0.2300  0.1528
 3755SOL    HW122901   2.081   2.172   3.892  1.5080  0.5055  0.6175
 3755SOL    HW222902   2.144   2.299   3.868  1.2630  0.5630 -0.5683
 3756SOL     OW22903   2.236   2.815  15.626 -0.1240 -0.6577 -0.5336
 3756SOL    HW122904   2.278   2.763  15.558  2.3843  2.9206 -1.7127
 3756SOL    HW222905   2.267   2.774  15.707 -0.2456 -2.4013 -1.3654
 3757SOL     OW22906   4.726   3.262   6.419 -0.4634  0.1268  0.2559
 3757SOL    HW122907   4.655   3.292   6.363 -0.9146  0.3063  0.9218
 3757SOL    HW222908   4.681   3.198   6.473 -0.3319 -0.5191 -0.4024
 3758SOL     OW22909   1.217   4.617   1.860 -0.0772 -0.0454 -0.3818
 3758SOL    HW122910   1.127   4.592   1.879  1.3361 -3.3759  2.0055
 3758SOL    HW222911   1.229   4.646   1.769  0.9356 -2.4724 -1.0292
 3759SOL     OW22912   4.505   1.041   9.629 -0.3082  0.3665 -0.0276
 3759SOL    HW122913   4.453   1.109   9.586 -1.9862 -2.5795 -2.6956
 3759SOL    HW222914   4.494   1.061   9.722  1.3738  2.4937 -0.2886
 3760SOL     OW22915   3.937   4.706  13.307 -0.7076  0.2232  0.6714
 3760SOL    HW122916   3.964   4.666  13.224  1.2829  1.1019  0.8913
 3760SOL    HW222917   3.906   0.055  13.290 -2.0319 -0.7007 -1.7474
 3761SOL     OW22918   1.460   0.757   3.362 -0.0526  0.1038 -0.1718
 3761SOL    HW122919   1.475   0.674   3.317 -0.3374 -0.5355  0.9142
 3761SOL    HW222920   1.525   0.815   3.323  0.3035  0.9098  1.6117
 3762SOL     OW22921   0.982   1.272   2.149 -0.6486  0.1313  0.4260
 3762SOL    HW122922   1.066   1.298   2.188 -0.0030 -0.2688 -0.7044
 3762SOL    HW222923   1.000   1.264   2.056 -0.5811 -0.5380  0.4943
 3763SOL     OW22924   3.559   3.140   8.247 -0.1916  0.1123  0.2967
 3763SOL    HW122925   3.561   3.234   8.228  1.3410 -0.0386 -0.2673
 3763SOL    HW222926   3.627   3.137   8.314  0.4012  2.0291 -0.2182
 3764SOL     OW22927   4.344   2.179  17.497  0.4430  0.4117  0.3555
 3764SOL    HW122928   4.401   2.141  17.564 -0.6640 -3.2505 -0.7552
 3764SOL    HW222929   4.347   2.108  17.433  2.8600 -1.4446  2.4979
 3765SOL     OW22930   0.625   3.942   2.320 -0.4203 -0.1239 -0.7066
 3765SOL    HW122931   0.711   3.984   2.318 -0.4524  0.0788  1.4917
 3765SOL    HW222932   0.592   3.985   2.241 -1.1514  0.2653 -0.1854
 3766SOL     OW22933   1.012   1.726   6.530  0.3968  0.5479 -0.1534
 3766SOL    HW122934   0.968   1.811   6.534  0.4362  0.4931  1.3156
 3766SOL    HW222935   0.978   1.706   6.443  1.0411  0.3781 -0.3677
 3767SOL     OW22936   1.674   1.161   8.698  0.1313 -0.2150  0.0936
 3767SOL    HW122937   1.643   1.140   8.787  0.3576 -0.0929  0.1996
 3767SOL    HW222938   1.754   1.210   8.713  1.3871 -2.3157  0.3297
 3768SOL     OW22939   2.636   0.153   7.663 -0.2873  0.5270  0.7490
 3768SOL    HW122940   2.666   0.243   7.655  0.3865  0.2132 -0.2364
 3768SOL    HW222941   2.705   0.120   7.720 -1.7798 -1.2273  1.5293
 3769SOL     OW22942   1.518   3.139   2.805 -0.6869  0.2483 -0.3462
 3769SOL    HW122943   1.563   3.168   2.725 -0.3302 -0.9584 -0.5956
 3769SOL    HW222944   1.473   3.062   2.769  1.3846 -1.6104  1.0546
 3770SOL     OW22945   3.111   0.125   7.461 -0.4681  0.7916 -0.1350
 3770SOL    HW122946   3.045   0.191   7.481 -0.9028  0.5602 -0.7823
 3770SOL    HW222947   3.095   0.110   7.368  1.6836  0.2078 -0.4023
 3771SOL     OW22948   0.242   0.487   0.325 -0.1664  0.3813 -0.1579
 3771SOL    HW122949   0.230   0.537   0.244 -0.3590 -0.3717 -0.5913
 3771SOL    HW222950   0.245   0.401   0.284  1.4210 -0.3309  1.4686
 3772SOL     OW22951   4.558   1.051   7.618 -0.1808 -0.1180 -0.1256
 3772SOL    HW122952   4.596   0.964   7.619 -0.2671 -0.1545  0.5115
 3772SOL    HW222953   4.603   1.082   7.540 -1.6681  2.3375 -0.0267
 3773SOL     OW22954   0.311   3.523   5.366 -0.0635 -0.0054 -0.0221
 3773SOL    HW122955   0.289   3.566   5.448  1.3025  0.4592  0.0889
 3773SOL    HW222956   0.238   3.565   5.319  1.3573  1.4722 -0.8987
 3774SOL     OW22957   2.543   1.267   7.745 -0.2390 -0.7896  0.5945
 3774SOL    HW122958   2.530   1.354   7.782  2.5055 -0.7876  1.5623
 3774SOL    HW222959   2.520   1.283   7.654  0.9409  3.3190  1.0445
 3775SOL     OW22960   0.719   4.157   1.276 -0.1451  0.1034 -0.1766
 3775SOL    HW122961   0.713   4.238   1.226  2.8496 -0.7133 -1.8451
 3775SOL    HW222962   0.641   4.162   1.332  0.0158 -0.8478  0.1220
 3776SOL     OW22963   4.611   2.192   4.709 -0.4979  0.5814  0.2834
 3776SOL    HW122964   4.617   2.100   4.682  1.6971  0.9387 -0.4045
 3776SOL    HW222965   4.700   2.222   4.695 -0.5457  0.0506 -1.1810
 3777SOL     OW22966   0.867   0.593  17.617 -0.4469 -0.3281  0.4468
 3777SOL    HW122967   0.826   0.610  17.702  0.0505 -1.0609  0.8400
 3777SOL    HW222968   0.909   0.678  17.610 -2.1615  0.5404  0.6596
 3778SOL     OW22969   0.259   3.836  10.450  0.2667  0.0662  0.5286
 3778SOL    HW122970   0.275   3.884  10.368 -0.1625 -0.1841  0.3000
 3778SOL    HW222971   0.196   3.897  10.489  1.7516  1.0212  1.4288
 3779SOL     OW22972   4.258   3.062  13.452  0.0518 -0.0102  0.7340
 3779SOL    HW122973   4.260   3.140  13.508 -0.2606  1.0397 -0.7265
 3779SOL    HW222974   4.198   3.004  13.499  1.0910  0.1208  2.2349
 3780SOL     OW22975   0.969   4.602   6.680  0.2064  0.5044 -0.3659
 3780SOL    HW122976   0.916   4.534   6.721 -0.5513 -0.3168 -2.7013
 3780SOL    HW222977   1.044   4.550   6.649 -0.1122 -0.9062  1.2342
 3781SOL     OW22978   1.098   0.879   3.782  0.5242  0.1958  0.1531
 3781SOL    HW122979   1.028   0.818   3.764  2.0958 -1.6457  0.3198
 3781SOL    HW222980   1.107   0.907   3.691  1.7272 -1.0668 -0.1186
 3782SOL     OW22981   0.521   0.451  10.670  0.3581 -0.2303  0.2016
 3782SOL    HW122982   0.596   0.402  10.707 -0.2202 -0.8039  0.6158
 3782SOL    HW222983   0.550   0.542  10.673  0.6164 -0.3111  0.2499
 3783SOL     OW22984   3.008   1.122   5.349  0.5687 -0.0249 -0.2067
 3783SOL    HW122985   3.074   1.079   5.294  2.1567  0.1112  1.5627
 3783SOL    HW222986   3.010   1.063   5.424 -2.0850 -0.6556 -0.6475
 3784SOL     OW22987   0.922   1.117   0.624  0.3708  0.3979 -0.1961
 3784SOL    HW122988   0.981   1.172   0.572  3.3340 -2.5469  0.1035
 3784SOL    HW222989   0.934   1.027   0.595  0.4129  0.8537 -1.5814
 3785SOL     OW22990   0.605   1.937   4.106  0.2332 -0.0878  0.1657
 3785SOL    HW122991   0.555   1.919   4.026  0.4848 -1.2430  0.2753
 3785SOL    HW222992   0.531   1.963   4.161  0.9474 -3.2400  2.5833
 3786SOL     OW22993   0.517   0.676  16.489  0.8415 -0.0762 -0.1483
 3786SOL    HW122994   0.604   0.715  16.482 -0.1056  1.6586 -2.1955
 3786SOL    HW222995   0.452   0.743  16.468  2.2223  0.6852 -2.0559
 3787SOL     OW22996   3.115   4.013   1.589 -0.0407 -0.2200  0.2194
 3787SOL    HW122997   3.151   3.947   1.647 -4.1612 -1.3317  1.5470
 3787SOL    HW222998   3.021   4.008   1.606  0.0218 -0.1958  0.5661
 3788SOL     OW22999   2.103   1.469   6.233 -0.3906 -0.0105 -0.2781
 3788SOL    HW123000   2.147   1.453   6.317 -0.5772 -2.0660 -0.5688
 3788SOL    HW223001   2.008   1.457   6.244 -0.0152 -1.7895  1.0388
 3789SOL     OW23002   0.902   4.646   3.955  0.4288  0.9336 -0.8257
 3789SOL    HW123003   0.909   4.633   3.860  1.4372  0.9944 -0.7574
 3789SOL    HW223004   0.862   4.732   3.969 -1.7258 -0.2998  0.5622
 3790SOL     OW23005   0.216   0.720   4.129 -0.5768  0.3455 -0.0073
 3790SOL    HW123006   0.247   0.810   4.137  1.6949 -0.4330 -0.0605
 3790SOL    HW223007   0.297   0.677   4.101  0.2857  0.2769  2.5900
 3791SOL     OW23008   3.075   1.028   3.538  0.6052 -0.5127 -0.0379
 3791SOL    HW123009   3.082   0.933   3.527 -0.6018 -0.8925  2.5294
 3791SOL    HW223010   2.990   1.048   3.578  1.1971  0.1536  0.8717
 3792SOL     OW23011   0.048   0.878   9.277 -0.3291  0.4420  0.3361
 3792SOL    HW123012   0.134   0.877   9.234 -1.3253 -1.9167 -1.5565
 3792SOL    HW223013   0.015   0.809   9.221  2.0668 -0.2635 -0.2181
 3793SOL     OW23014   0.120   1.407   8.763 -0.3584 -0.0248 -0.3869
 3793SOL    HW123015   0.025   1.407   8.774 -0.4728 -2.5545 -1.4264
 3793SOL    HW223016   0.146   1.493   8.797 -0.9317  0.0098 -0.0361
 3794SOL     OW23017   1.372   0.012   5.813  0.2396 -0.1303 -0.2068
 3794SOL    HW123018   1.313   0.086   5.831  0.8296  0.0661  0.9139
 3794SOL    HW223019   1.345   0.008   5.721 -1.1751  1.3248  0.1547
 3795SOL     OW23020   1.677   3.795   2.903 -0.4869  0.1714  0.1025
 3795SOL    HW123021   1.622   3.831   2.833  0.8464 -1.6102 -1.8903
 3795SOL    HW223022   1.689   3.703   2.880  1.3952 -0.0715  2.0793
 3796SOL     OW23023   4.133   0.827   1.275 -0.5014 -0.4302  0.1659
 3796SOL    HW123024   4.177   0.911   1.286 -1.9782  0.3007  0.4300
 3796SOL    HW223025   4.207   0.768   1.265  0.1107  0.2842  0.4847
 3797SOL     OW23026   3.436   2.178   2.339  0.1000 -0.3802  0.4464
 3797SOL    HW123027   3.432   2.087   2.366  1.7885 -0.0725  1.7098
 3797SOL    HW223028   3.400   2.218   2.418  0.9480 -0.7842  1.0249
 3798SOL     OW23029   2.241   3.843   3.437  0.3954  0.3986 -0.4493
 3798SOL    HW123030   2.292   3.820   3.515  1.2791  1.3568 -0.7415
 3798SOL    HW223031   2.177   3.773   3.427 -0.3872  1.3922 -2.3989
 3799SOL     OW23032   0.824   4.106   1.836 -0.5560  0.1061  0.3751
 3799SOL    HW123033   0.769   4.128   1.761  0.6943 -1.6649 -1.0413
 3799SOL    HW223034   0.907   4.152   1.820 -0.5640 -0.2235 -0.5661
 3800SOL     OW23035   3.500   4.292   3.771 -0.1626  0.2733  0.6171
 3800SOL    HW123036   3.547   4.219   3.730  1.8888  1.6863  0.4921
 3800SOL    HW223037   3.521   4.364   3.712  0.4504 -0.7101 -0.3578
 3801SOL     OW23038   3.600   2.793   3.892  0.0010  0.1672 -0.0235
 3801SOL    HW123039   3.546   2.715   3.898  0.3442 -0.0167  0.7355
 3801SOL    HW223040   3.552   2.838   3.822 -0.6118 -2.3744 -1.2015
 3802SOL     OW23041   3.507   0.424   4.971 -0.4372 -0.3368 -0.0933
 3802SOL    HW123042   3.419   0.385   4.968  0.1119 -1.2478 -4.0446
 3802SOL    HW223043   3.557   0.350   4.934 -1.9373 -2.0608  1.2988
 3803SOL     OW23044   4.243   1.199  15.015  0.1010  1.2462  0.3713
 3803SOL    HW123045   4.326   1.164  15.048 -0.1601 -0.2844 -0.6178
 3803SOL    HW223046   4.192   1.119  15.011  3.5583 -1.0084  1.3233
 3804SOL     OW23047   1.604   1.912   8.188  0.0503  0.2407  0.3695
 3804SOL    HW123048   1.684   1.961   8.206  2.0352 -1.8741 -2.6432
 3804SOL    HW223049   1.644   1.826   8.196 -2.6191 -0.8911  1.7332
 3805SOL     OW23050   4.627   3.171   7.869  0.4146  0.7500 -0.7275
 3805SOL    HW123051   4.568   3.156   7.795  1.3218  3.3900 -1.9839
 3805SOL    HW223052   4.680   3.092   7.865 -0.4162  0.2805 -2.2569
 3806SOL     OW23053   0.188   2.224   4.334  0.4142 -0.2786  0.0181
 3806SOL    HW123054   0.106   2.262   4.366  0.9995  1.3059 -0.4030
 3806SOL    HW223055   0.183   2.255   4.244  1.9060 -0.2478 -0.0540
 3807SOL     OW23056   3.311   1.431   1.449  0.1095 -0.3398  0.0998
 3807SOL    HW123057   3.334   1.373   1.376  0.6454 -1.3211  1.0597
 3807SOL    HW223058   3.374   1.498   1.424  1.7301 -1.1683  2.0076
 3808SOL     OW23059   1.780   0.619   1.878 -0.1929 -0.3123 -0.4319
 3808SOL    HW123060   1.848   0.673   1.837 -0.6992  0.7357  0.1047
 3808SOL    HW223061   1.836   0.548   1.909  0.0073 -0.0960 -0.2868
 3809SOL     OW23062   2.562   4.162   5.065  0.3276 -0.2609  0.1985
 3809SOL    HW123063   2.575   4.217   5.142 -1.7886  1.6123 -0.7758
 3809SOL    HW223064   2.653   4.149   5.039  0.2770  2.0832 -1.1905
 3810SOL     OW23065   4.520   0.325  12.101 -0.8473  0.7798 -0.0584
 3810SOL    HW123066   4.524   0.253  12.038 -0.6128  0.8606 -0.1355
 3810SOL    HW223067   4.433   0.325  12.140 -1.1810  1.5490 -0.8079
 3811SOL     OW23068   3.964   1.565   5.753  0.2553 -0.6030  0.2268
 3811SOL    HW123069   3.958   1.592   5.845  0.9922 -2.3347  0.8018
 3811SOL    HW223070   3.886   1.605   5.715  1.3914  1.2095 -0.1822
 3812SOL     OW23071   2.620   4.112   2.172  0.6339 -0.1801  0.3597
 3812SOL    HW123072   2.618   4.131   2.078  2.0668  0.8494  0.5208
 3812SOL    HW223073   2.599   4.019   2.177  0.9643 -0.2888 -0.2548
 3813SOL     OW23074   2.068   3.149   3.667  0.1432 -0.2126  0.2003
 3813SOL    HW123075   2.112   3.107   3.741  0.8694  0.6868  0.2872
 3813SOL    HW223076   2.053   3.235   3.705  1.9403 -0.9086  2.5206
 3814SOL     OW23077   1.087   3.276   1.250 -0.2413  0.1875  0.0370
 3814SOL    HW123078   1.017   3.257   1.188  0.5588 -0.2444 -0.7449
 3814SOL    HW223079   1.049   3.257   1.335  1.2873 -0.6788  0.5348
 3815SOL     OW23080   4.534   0.067  17.738 -0.2939 -0.1117  0.1093
 3815SOL    HW123081   4.493   0.142   0.026  0.1287  0.9373 -1.3598
 3815SOL    HW223082   4.456   0.012  17.724  0.3710 -1.2322  0.7550
 3816SOL     OW23083   0.599   2.610   7.484 -0.6164 -0.0181  0.1062
 3816SOL    HW123084   0.635   2.632   7.398  3.5238  2.5671  2.4962
 3816SOL    HW223085   0.675   2.595   7.541 -0.5660 -2.2045 -0.5469
 3817SOL     OW23086   0.867   2.303   8.825 -0.1957 -0.2945 -0.1154
 3817SOL    HW123087   0.842   2.268   8.740  0.9442  1.8547 -1.3385
 3817SOL    HW223088   0.957   2.269   8.819 -0.6549 -1.3384 -1.1513
 3818SOL     OW23089   1.371   0.429   4.967  0.0703  0.2427 -0.0200
 3818SOL    HW123090   1.327   0.416   5.051  2.6679 -1.6071  1.0595
 3818SOL    HW223091   1.451   0.378   4.977  0.6027  1.1022  0.0991
 3819SOL     OW23092   0.168   1.176   3.365 -0.2491  0.4447  0.0978
 3819SOL    HW123093   0.086   1.137   3.335 -1.0367  1.2216  1.2307
 3819SOL    HW223094   0.144   1.189   3.457  0.3903  0.4615  0.2625
 3820SOL     OW23095   0.047   3.490   2.070 -0.0296  0.8532 -0.1203
 3820SOL    HW123096   4.699   3.491   2.032  1.3218  0.4514 -3.1723
 3820SOL    HW223097   0.108   3.480   1.997 -0.9446  1.4882 -0.9705
 3821SOL     OW23098   0.150   0.581   2.859  0.3476 -0.3090  0.0146
 3821SOL    HW123099   0.083   0.590   2.927  1.1513  0.2175  0.7261
 3821SOL    HW223100   0.203   0.508   2.889 -0.0952 -0.9973 -0.8963
 3822SOL     OW23101   1.220   4.537   6.193 -0.0257  0.3923 -0.3117
 3822SOL    HW123102   1.248   4.476   6.261 -0.5791  0.3417 -0.1274
 3822SOL    HW223103   1.207   4.471   6.124 -0.0864 -0.4803  0.5386
 3823SOL     OW23104   0.587   4.518   9.470  0.8561 -1.0200 -0.0527
 3823SOL    HW123105   0.603   4.602   9.428  1.5817 -1.6684 -1.0719
 3823SOL    HW223106   0.546   4.469   9.399 -0.3632  0.4386 -0.3517
 3824SOL     OW23107   2.690   0.234  11.271  0.0468 -0.4324  0.1452
 3824SOL    HW123108   2.647   0.190  11.344  1.4400  0.1197  1.3002
 3824SOL    HW223109   2.750   0.295  11.314 -0.1793 -1.1851  1.5409
 3825SOL     OW23110   1.710   0.170   1.846 -0.0962 -0.1767  0.1001
 3825SOL    HW123111   1.771   0.243   1.855 -2.1566  1.7323 -1.0964
 3825SOL    HW223112   1.620   0.198   1.865  0.1066 -0.6068  1.6536
 3826SOL     OW23113   2.158   0.754   3.301 -0.5536  0.5604 -0.0158
 3826SOL    HW123114   2.073   0.722   3.331 -0.2167  1.2027  1.6246
 3826SOL    HW223115   2.208   0.673   3.305 -1.8202 -0.1987  0.4492
 3827SOL     OW23116   1.477   3.452   1.514  0.1297 -0.0148  0.0742
 3827SOL    HW123117   1.481   3.545   1.538 -0.8504  0.0817 -0.1352
 3827SOL    HW223118   1.517   3.450   1.428  0.9926 -0.3341  0.4868
 3828SOL     OW23119   1.257   0.880   7.439  0.4648  0.2040 -0.4167
 3828SOL    HW123120   1.247   0.851   7.349 -0.5424  2.2559 -0.9810
 3828SOL    HW223121   1.342   0.923   7.452  0.6807 -1.1675  2.7823
 3829SOL     OW23122   4.312   0.613   1.318 -0.0834  0.0046  0.3240
 3829SOL    HW123123   4.337   0.622   1.410 -1.3256  0.9452  0.5733
 3829SOL    HW223124   4.383   0.661   1.277 -0.3296 -1.3030 -1.6120
 3830SOL     OW23125   0.984   2.344   9.103 -0.2596 -0.3175 -0.0062
 3830SOL    HW123126   0.952   2.321   9.017  0.6405  4.2368 -1.5964
 3830SOL    HW223127   1.051   2.414   9.100  0.7567 -1.3485 -1.2695
 3831SOL     OW23128   4.147   2.452   2.090 -0.6478 -0.3742  0.3829
 3831SOL    HW123129   4.219   2.498   2.134 -0.9121 -2.3495  2.8816
 3831SOL    HW223130   4.092   2.431   2.165 -2.5398  0.0417 -0.8873
 3832SOL     OW23131   3.518   3.704   2.821 -0.0845  0.0472  0.4837
 3832SOL    HW123132   3.449   3.766   2.844 -0.4037 -0.7635  1.7354
 3832SOL    HW223133   3.523   3.730   2.729  0.7641 -1.2218  0.1636
 3833SOL     OW23134   2.095   0.326   5.696 -0.0081  0.0656  0.0106
 3833SOL    HW123135   2.096   0.422   5.693  2.9184  0.0114 -1.2255
 3833SOL    HW223136   2.006   0.315   5.728  0.7814 -0.3831  2.0936
 3834SOL     OW23137   0.996   3.313   4.962 -0.3251 -0.2089  0.3574
 3834SOL    HW123138   0.953   3.296   4.878  0.5694 -1.4067  0.1488
 3834SOL    HW223139   1.048   3.389   4.936 -0.8494 -0.0621 -0.2474
 3835SOL     OW23140   3.621   2.490   6.572 -0.6699  0.4501  0.2464
 3835SOL    HW123141   3.634   2.583   6.555  0.6984 -0.0895 -1.6230
 3835SOL    HW223142   3.604   2.495   6.666 -0.8972 -2.8634  0.3875
 3836SOL     OW23143   2.821   0.906  10.973  0.2484 -0.7968  0.0568
 3836SOL    HW123144   2.789   0.953  11.051 -0.0090 -0.3420 -0.3252
 3836SOL    HW223145   2.753   0.838  10.970 -1.4163  0.8906 -0.4751
 3837SOL     OW23146   2.127   1.237   3.137  0.3556  0.2516  0.2345
 3837SOL    HW123147   2.111   1.148   3.168 -0.1620  0.2115 -0.1541
 3837SOL    HW223148   2.209   1.234   3.087 -1.2309  0.9550 -2.3799
 3838SOL     OW23149   0.052   1.205   4.132  0.2396  0.0981  0.5946
 3838SOL    HW123150   0.053   1.140   4.061 -1.8144  1.2246 -0.4432
 3838SOL    HW223151   4.731   1.166   4.195 -0.8022  1.2465  0.3018
 3839SOL     OW23152   2.265   3.483   7.325  0.2336 -0.0434  0.5790
 3839SOL    HW123153   2.230   3.571   7.309  0.1052 -0.3780 -0.9825
 3839SOL    HW223154   2.351   3.482   7.284  0.1461 -0.1448  0.3943
 3840SOL     OW23155   4.432   3.753   2.718  0.2662  0.1634  1.0489
 3840SOL    HW123156   4.464   3.813   2.785  1.8248  1.9949 -1.3306
 3840SOL    HW223157   4.513   3.705   2.704  0.5828  1.5595 -1.7967
 3841SOL     OW23158   3.744   3.005   1.677  0.0983 -0.5646 -0.0421
 3841SOL    HW123159   3.786   3.091   1.680  0.0484 -0.5223 -0.5854
 3841SOL    HW223160   3.654   3.036   1.677  0.2595 -0.0957  0.9563
 3842SOL     OW23161   2.535   2.261  17.708 -0.6238 -0.5072  0.2318
 3842SOL    HW123162   2.614   2.208  17.712  1.1240  2.0757  0.0878
 3842SOL    HW223163   2.471   2.208  17.661  0.7164 -1.0054 -1.0384
 3843SOL     OW23164   0.698   2.082   7.461  0.2662  0.1949  0.1070
 3843SOL    HW123165   0.610   2.063   7.494  0.9529 -0.9559  1.3020
 3843SOL    HW223166   0.733   1.994   7.474  0.1942  0.2694  0.8009
 3844SOL     OW23167   3.272   2.717  15.103  0.4983 -0.5748  0.0268
 3844SOL    HW123168   3.257   2.638  15.051  0.5537 -1.6733  1.6974
 3844SOL    HW223169   3.190   2.764  15.094  0.3333 -1.1114 -1.2904
 3845SOL     OW23170   2.220   2.159  10.340  0.0593  0.4590 -0.1654
 3845SOL    HW123171   2.303   2.206  10.350  0.5860 -0.3370 -0.7199
 3845SOL    HW223172   2.202   2.167  10.433  0.6800  0.2162 -0.0244
 3846SOL     OW23173   0.017   4.041   6.471 -0.1465  0.3637  0.3294
 3846SOL    HW123174   4.683   4.100   6.490 -1.1021  0.2432 -2.8950
 3846SOL    HW223175   0.001   4.020   6.379  0.4484 -0.5475  0.4308
 3847SOL     OW23176   3.566   0.231  13.133 -0.3942 -0.1680  0.0208
 3847SOL    HW123177   3.513   0.311  13.130 -2.7133 -1.6045  2.7710
 3847SOL    HW223178   3.506   0.175  13.182  0.6580 -1.3832 -0.0943
 3848SOL     OW23179   3.090   2.380   6.414  0.3014 -0.1424 -0.0699
 3848SOL    HW123180   3.039   2.422   6.345  0.5674  1.7268  0.8662
 3848SOL    HW223181   3.183   2.382   6.391 -0.1120 -0.3565 -1.7738
 3849SOL     OW23182   1.012   2.106  15.808 -0.4925  0.0684  0.0826
 3849SOL    HW123183   0.918   2.089  15.813 -0.1213 -1.7225  0.9068
 3849SOL    HW223184   1.016   2.165  15.883 -0.2875 -0.8599  0.7917
 3850SOL     OW23185   1.075   4.135   7.537 -0.5455 -0.4124  0.3968
 3850SOL    HW123186   1.120   4.210   7.577 -1.5732  0.6026 -0.3278
 3850SOL    HW223187   0.987   4.172   7.524  0.1658  1.2048  0.1843
 3851SOL     OW23188   2.429   4.560   7.835  0.0991 -0.3109  0.0671
 3851SOL    HW123189   2.347   4.592   7.799  1.0839  2.1867  0.0561
 3851SOL    HW223190   2.403   4.546   7.926 -1.4928  0.7756 -0.2196
 3852SOL     OW23191   2.982   0.512   8.870  0.4971 -0.0052  0.2903
 3852SOL    HW123192   2.991   0.576   8.799  2.4977 -1.5033 -0.8238
 3852SOL    HW223193   2.889   0.490   8.865 -0.0387  2.4788 -0.9949
 3853SOL     OW23194   2.628   3.720   2.969  0.4904 -0.1888  0.5112
 3853SOL    HW123195   2.604   3.755   3.056  0.1731 -1.9064  1.1120
 3853SOL    HW223196   2.540   3.717   2.932  0.8700 -0.0279 -0.3930
 3854SOL     OW23197   4.149   1.738   2.131 -0.0321  0.2674  0.1466
 3854SOL    HW123198   4.108   1.824   2.147  0.7847  0.3609  1.8077
 3854SOL    HW223199   4.227   1.746   2.187 -0.2364 -3.1298  0.9127
 3855SOL     OW23200   1.970   4.402   6.901  0.3331 -0.1119 -0.2847
 3855SOL    HW123201   2.027   4.337   6.860 -0.6136 -0.9649 -0.2454
 3855SOL    HW223202   1.918   4.352   6.963  0.4643  2.1846  1.7085
 3856SOL     OW23203   1.630   0.871   1.737 -0.1960 -0.4814  0.1771
 3856SOL    HW123204   1.651   0.792   1.787  1.3456  0.1526  0.5366
 3856SOL    HW223205   1.713   0.919   1.741 -2.7191  4.0810 -1.4461
 3857SOL     OW23206   0.677   0.826   0.609 -0.5070 -0.0639  0.5773
 3857SOL    HW123207   0.635   0.744   0.634 -1.2635 -0.5667 -2.3577
 3857SOL    HW223208   0.614   0.884   0.651  0.4133  0.4365  1.2722
 3858SOL     OW23209   3.956   4.125   5.156 -0.1123  0.0467 -0.1311
 3858SOL    HW123210   3.916   4.190   5.214 -0.8667  1.4552 -2.2036
 3858SOL    HW223211   3.880   4.088   5.110  0.3061 -1.6612  0.5337
 3859SOL     OW23212   4.231   4.441   7.114 -0.4524 -0.1119  0.1751
 3859SOL    HW123213   4.246   4.348   7.130  2.9543  0.4410  0.1175
 3859SOL    HW223214   4.230   4.479   7.202 -0.1088  0.1754  0.0551
 3860SOL     OW23215   2.487   0.824   4.786  0.2662  0.6881 -0.5903
 3860SOL    HW123216   2.570   0.859   4.754  0.3743  1.0455  0.0810
 3860SOL    HW223217   2.519   0.763   4.853  0.7138 -0.4409 -1.8329
 3861SOL     OW23218   2.563   1.279   4.249 -0.4955 -0.2407 -0.4326
 3861SOL    HW123219   2.505   1.343   4.290  1.2500  1.5752 -0.8101
 3861SOL    HW223220   2.629   1.286   4.317  1.1904  1.4543 -2.2408
 3862SOL     OW23221   3.234   1.847   5.889  0.4927 -0.1942  0.3774
 3862SOL    HW123222   3.311   1.874   5.939 -1.0998 -0.5474  3.0204
 3862SOL    HW223223   3.252   1.754   5.878 -0.4085 -0.0103 -2.7060
 3863SOL     OW23224   2.998   2.438   5.506 -0.4624  0.2518  0.2935
 3863SOL    HW123225   3.065   2.422   5.572  0.9070  0.6898 -0.9929
 3863SOL    HW223226   3.007   2.533   5.500  1.5083 -0.0113 -0.8108
 3864SOL     OW23227   2.201   0.879   0.439  0.0244 -0.4715 -0.4331
 3864SOL    HW123228   2.251   0.807   0.401  0.7972 -0.8669  1.3132
 3864SOL    HW223229   2.274   0.898   0.499 -0.8611 -0.8872  0.7698
 3865SOL     OW23230   0.715   3.535   1.962 -0.4924 -0.0476  0.3972
 3865SOL    HW123231   0.658   3.564   2.033 -0.0619 -0.7817  1.0369
 3865SOL    HW223232   0.788   3.491   2.005 -0.9745 -0.3130  0.9442
 3866SOL     OW23233   2.021   4.346   3.365 -0.0096 -0.1011 -0.7012
 3866SOL    HW123234   2.046   4.261   3.399  0.3080  1.0434  1.9152
 3866SOL    HW223235   2.107   4.386   3.346 -1.5949  3.1256 -1.0991
 3867SOL     OW23236   1.905   0.709   3.378 -0.4786  0.3899  0.0032
 3867SOL    HW123237   1.829   0.657   3.349 -1.0041 -0.0207  2.1212
 3867SOL    HW223238   1.880   0.801   3.366 -0.5939  0.6873  2.4754
 3868SOL     OW23239   4.130   4.564  12.945  0.4493  0.1350 -0.5680
 3868SOL    HW123240   4.093   4.646  12.978 -2.8809 -1.6393  0.0871
 3868SOL    HW223241   4.065   4.542  12.878  0.8288 -4.6001  0.6399
 3869SOL     OW23242   1.389   1.359  16.434 -0.2996 -0.2162 -0.1052
 3869SOL    HW123243   1.410   1.445  16.396  1.9858 -0.7296  0.0071
 3869SOL    HW223244   1.401   1.380  16.526 -1.5007 -2.4202  0.5415
 3870SOL     OW23245   3.186   4.058  13.025  0.3138  0.1497  0.6882
 3870SOL    HW123246   3.198   4.047  12.930 -2.4596 -1.6924  0.5757
 3870SOL    HW223247   3.109   4.001  13.026 -1.3903  2.4158 -0.3814
 3871SOL     OW23248   2.221   0.822   4.116 -0.6126  0.0907  0.2814
 3871SOL    HW123249   2.290   0.776   4.164 -1.4015 -0.1116  1.1960
 3871SOL    HW223250   2.183   0.871   4.189  1.7392  1.0109  0.9084
 3872SOL     OW23251   2.678   1.641   1.895  0.2384  0.4118  0.2549
 3872SOL    HW123252   2.738   1.584   1.848  1.4708  0.1370  2.1673
 3872SOL    HW223253   2.732   1.705   1.942  1.5689 -0.0606 -0.6388
 3873SOL     OW23254   4.384   1.764   2.459  0.2642  0.1243 -0.2166
 3873SOL    HW123255   4.444   1.731   2.525 -0.5036  1.7346  1.2916
 3873SOL    HW223256   4.438   1.767   2.380 -0.6655 -1.2640 -0.8964
 3874SOL     OW23257   4.128   4.297   1.478  0.1107 -0.3881 -0.0559
 3874SOL    HW123258   4.177   4.265   1.402 -2.0966  0.0892 -1.6845
 3874SOL    HW223259   4.187   4.358   1.520 -0.4941 -0.0249  0.2732
 3875SOL     OW23260   4.205   1.420   2.425  0.4911 -0.1780  0.7177
 3875SOL    HW123261   4.251   1.451   2.347  0.4622  1.8643  1.5284
 3875SOL    HW223262   4.231   1.483   2.491 -1.2772  0.2478  1.0243
 3876SOL     OW23263   4.452   1.886   7.197 -0.4204 -0.1337  0.2111
 3876SOL    HW123264   4.484   1.909   7.284  1.7708 -1.5047 -0.2243
 3876SOL    HW223265   4.517   1.933   7.145 -0.1736  2.0049  2.4870
 3877SOL     OW23266   1.577   2.545   4.523 -0.2100 -0.1469  0.0740
 3877SOL    HW123267   1.662   2.518   4.558  1.4385  2.3402 -2.0663
 3877SOL    HW223268   1.589   2.637   4.545  1.2540 -0.2085 -0.4269
 3878SOL     OW23269   4.648   1.967  15.649 -0.0644 -0.0230 -0.2219
 3878SOL    HW123270   4.620   2.057  15.631  0.2985 -0.6396 -3.9188
 3878SOL    HW223271   4.567   1.922  15.672  0.7854 -1.5594 -0.2758
 3879SOL     OW23272   1.862   0.295   7.492 -0.2148  0.0242  0.4282
 3879SOL    HW123273   1.907   0.245   7.424  0.8964  0.1640  1.0557
 3879SOL    HW223274   1.891   0.382   7.466  2.2013 -1.2391 -1.0600
 3880SOL     OW23275   1.242   1.172  11.254  0.0436 -0.2455  0.0601
 3880SOL    HW123276   1.328   1.133  11.237  1.0512  1.3949  1.3707
 3880SOL    HW223277   1.202   1.165  11.167  1.5234  3.4591 -0.9155
 3881SOL     OW23278   3.132   4.169   3.768  0.0708  0.5869  0.0287
 3881SOL    HW123279   3.200   4.183   3.835  2.1996 -0.8943 -1.8036
 3881SOL    HW223280   3.050   4.190   3.813 -0.7892  0.0993 -1.3324
 3882SOL     OW23281   3.057   1.411   8.629  1.2180 -0.6352 -0.1171
 3882SOL    HW123282   3.058   1.430   8.536  1.3383 -1.4037 -0.2781
 3882SOL    HW223283   3.121   1.476   8.657  0.0418  0.4997 -0.0666
 3883SOL     OW23284   4.673   1.593  16.780  0.0478  0.4495 -0.2294
 3883SOL    HW123285   4.580   1.602  16.758 -0.1055  2.7180  1.2596
 3883SOL    HW223286   4.675   1.654  16.855  0.5914  2.2017 -1.6620
 3884SOL     OW23287   3.359   1.729   1.918 -0.0707  0.2291  0.0768
 3884SOL    HW123288   3.441   1.746   1.872 -0.1264  0.5057  0.0802
 3884SOL    HW223289   3.344   1.804   1.977 -0.9469  0.1210 -0.0157
 3885SOL     OW23290   3.131   3.100   3.708  0.0154 -0.2915 -0.0283
 3885SOL    HW123291   3.067   3.143   3.651 -0.5282  0.9994  1.5356
 3885SOL    HW223292   3.191   3.174   3.709 -1.3389  0.8216 -0.2215
 3886SOL     OW23293   1.747   0.817   8.274 -0.2921 -1.2628 -0.3185
 3886SOL    HW123294   1.717   0.901   8.309  0.9726 -1.5890  1.5811
 3886SOL    HW223295   1.776   0.774   8.355  2.1692 -1.9002 -1.5286
 3887SOL     OW23296   1.958   4.013   4.431  0.6858 -0.0623 -0.0524
 3887SOL    HW123297   1.918   4.084   4.381  0.4474  1.7811  2.6977
 3887SOL    HW223298   1.883   3.979   4.480  0.3951 -0.2977 -0.6663
 3888SOL     OW23299   1.970   4.414  12.984 -0.1861  0.7229 -0.7195
 3888SOL    HW123300   2.014   4.368  13.055 -1.4025  0.8757  0.1391
 3888SOL    HW223301   2.045   4.423  12.926 -0.5547 -1.9452 -1.5944
 3889SOL     OW23302   1.266   0.597   3.398 -0.3665 -0.3004  0.0991
 3889SOL    HW123303   1.326   0.671   3.399  0.4692 -0.9743  0.1086
 3889SOL    HW223304   1.315   0.540   3.457  0.4985  0.6549  0.2924
 3890SOL     OW23305   0.576   4.357   2.852 -0.1233 -0.2700 -0.2643
 3890SOL    HW123306   0.589   4.442   2.810 -1.9603  0.3170  0.4088
 3890SOL    HW223307   0.483   4.354   2.872 -0.8836  2.4129 -3.3106
 3891SOL     OW23308   2.275   0.002   8.145 -0.7721  0.3277  0.0612
 3891SOL    HW123309   2.296   4.649   8.127 -0.9277  0.4685 -0.8434
 3891SOL    HW223310   2.282   0.042   8.058  2.4021 -0.9029 -0.2751
 3892SOL     OW23311   3.959   0.832   3.988 -0.3240 -0.2727 -0.3482
 3892SOL    HW123312   3.938   0.777   4.064 -0.9057 -0.9821 -1.0183
 3892SOL    HW223313   4.054   0.840   3.990 -0.3185 -0.1851 -0.8560
 3893SOL     OW23314   1.711   1.483   8.750 -0.2122  0.9203  0.4573
 3893SOL    HW123315   1.697   1.543   8.677 -1.7577  1.9119  1.5827
 3893SOL    HW223316   1.628   1.437   8.767  0.1010  0.7668  1.5556
 3894SOL     OW23317   2.877   4.278   5.250 -0.3824 -0.3766  0.1022
 3894SOL    HW123318   2.816   4.281   5.324  1.0120 -1.2451  1.2773
 3894SOL    HW223319   2.959   4.268   5.298 -0.6204  3.4709  1.3084
 3895SOL     OW23320   2.123   2.472   2.496 -0.1327  0.1203 -0.3720
 3895SOL    HW123321   2.107   2.524   2.576  1.0571  0.1551 -0.1628
 3895SOL    HW223322   2.038   2.430   2.482  0.4257 -1.6525  1.5573
 3896SOL     OW23323   1.192   0.598  15.722  0.0271 -0.3495 -0.3927
 3896SOL    HW123324   1.167   0.647  15.801  1.9545 -0.6747  0.4221
 3896SOL    HW223325   1.124   0.532  15.735 -0.6630  0.2723 -0.8219
 3897SOL     OW23326   1.621   4.618   8.996  0.0269  0.3956 -0.0969
 3897SOL    HW123327   1.561   4.546   9.017  2.4031 -0.8557  2.3634
 3897SOL    HW223328   1.557   4.689   9.000 -3.2787 -2.5282 -0.6714
 3898SOL     OW23329   4.301   3.476   5.772  0.0770 -0.1252  0.0858
 3898SOL    HW123330   4.342   3.553   5.732 -1.3653  0.2991 -0.5798
 3898SOL    HW223331   4.296   3.418   5.696 -1.0890  2.0215 -1.4419
 3899SOL     OW23332   0.317   3.585  13.195 -0.0223 -0.0893  0.6868
 3899SOL    HW123333   0.260   3.509  13.180  1.2757 -0.9393  0.0310
 3899SOL    HW223334   0.358   3.601  13.111 -0.0953 -0.5394  0.5630
 3900SOL     OW23335   3.320   2.786   2.699 -0.0257 -0.0382  0.4066
 3900SOL    HW123336   3.365   2.816   2.620  1.9984 -1.2925  1.0797
 3900SOL    HW223337   3.227   2.791   2.677 -0.0257  1.3740  0.7255
 3901SOL     OW23338   0.103   2.380   9.134 -0.2512  0.2069 -0.9533
 3901SOL    HW123339   0.096   2.396   9.228 -0.6004 -1.3722 -0.7164
 3901SOL    HW223340   0.177   2.320   9.125  2.9552  4.1902 -1.3257
 3902SOL     OW23341   1.086   1.037   8.887 -0.2790 -0.9905 -0.2705
 3902SOL    HW123342   0.992   1.046   8.876 -0.1981  1.7786  1.1143
 3902SOL    HW223343   1.106   1.008   8.798  2.7413 -0.5174  0.2481
 3903SOL     OW23344   0.812   4.652   6.319 -0.6609 -0.3120 -0.0720
 3903SOL    HW123345   0.850   4.591   6.256 -3.1647  0.0409 -1.9037
 3903SOL    HW223346   0.785   4.729   6.270  0.8924  0.0740 -0.3216
 3904SOL     OW23347   3.255   1.050   6.752  0.2557  0.3140 -0.4345
 3904SOL    HW123348   3.186   0.995   6.715  0.5489 -0.3199 -0.0422
 3904SOL    HW223349   3.214   1.123   6.799  1.6011  0.8779 -0.1229
 3905SOL     OW23350   0.972   4.671  16.051  0.0535 -0.1430  0.1121
 3905SOL    HW123351   0.977   4.681  16.146  0.9487 -2.7255  0.3221
 3905SOL    HW223352   0.985   4.576  16.050 -0.0616 -0.1444 -0.9147
 3906SOL     OW23353   2.421   3.323   5.086 -0.0545 -0.9153  0.6980
 3906SOL    HW123354   2.430   3.414   5.116 -0.3289 -0.7857  0.3849
 3906SOL    HW223355   2.495   3.283   5.131 -1.4895 -2.8241  1.3416
 3907SOL     OW23356   3.699   0.769   5.939  0.4831  0.6595  0.0738
 3907SOL    HW123357   3.769   0.809   5.992 -0.7508  1.9892  0.7116
 3907SOL    HW223358   3.711   0.816   5.857  1.5970 -1.1623 -0.7857
 3908SOL     OW23359   3.547   4.553   4.317 -0.1565  0.1721  0.3608
 3908SOL    HW123360   3.618   4.490   4.327  0.7107  1.1290  0.2239
 3908SOL    HW223361   3.531   4.611   4.392  0.9228  2.8828 -1.5220
 3909SOL     OW23362   0.888   4.661  16.716 -0.3893 -0.2670 -0.5993
 3909SOL    HW123363   0.797   4.681  16.739 -0.1912 -0.8457  0.6859
 3909SOL    HW223364   0.886   4.651  16.621 -2.6171  1.0549 -0.7095
 3910SOL     OW23365   1.098   1.882   2.392 -0.2957 -0.4345  0.0658
 3910SOL    HW123366   1.040   1.832   2.334 -1.6746 -0.4698  1.5014
 3910SOL    HW223367   1.168   1.816   2.397 -1.0086 -1.2634 -0.8550
 3911SOL     OW23368   4.703   4.323   1.205 -0.3026  0.1316 -0.0425
 3911SOL    HW123369   0.003   4.383   1.142 -2.0080  0.5563 -0.7129
 3911SOL    HW223370   4.625   4.299   1.155  1.1330  1.7789 -3.0939
 3912SOL     OW23371   0.803   1.751   4.523 -0.0654 -0.2690 -0.6521
 3912SOL    HW123372   0.836   1.664   4.500 -1.0888 -1.2100  1.4601
 3912SOL    HW223373   0.746   1.727   4.596  0.6477  2.5082  0.8101
 3913SOL     OW23374   4.119   1.687   3.181 -0.3662 -0.5088  0.2181
 3913SOL    HW123375   4.125   1.715   3.272  0.0856 -1.9596  0.6285
 3913SOL    HW223376   4.169   1.606   3.192 -0.5756 -0.9281 -1.7725
 3914SOL     OW23377   1.411   0.081   2.627  0.2182  0.1319  0.5752
 3914SOL    HW123378   1.345   0.110   2.689 -1.1897 -0.1478 -0.8024
 3914SOL    HW223379   1.409   0.150   2.561 -1.8161 -0.1163  0.3801
 3915SOL     OW23380   2.709   2.609   4.682 -0.1378 -0.4241  0.0557
 3915SOL    HW123381   2.668   2.668   4.745  1.4966 -0.5221  1.2192
 3915SOL    HW223382   2.791   2.656   4.664 -0.2801 -0.4590 -0.6689
 3916SOL     OW23383   1.753   1.038   8.462  0.0100 -0.0574 -0.5753
 3916SOL    HW123384   1.706   1.039   8.545 -0.0240  2.0904 -0.6030
 3916SOL    HW223385   1.843   1.020   8.488  0.2861  1.1972 -0.6227
 3917SOL     OW23386   0.090   1.219  14.292  0.5031 -0.1092  0.0760
 3917SOL    HW123387   0.150   1.229  14.366  0.2606  3.1509 -0.1321
 3917SOL    HW223388   0.146   1.211  14.214  2.4711 -0.2674  1.5047
 3918SOL     OW23389   2.583   1.698   8.612  0.1366  0.2609 -0.3545
 3918SOL    HW123390   2.668   1.659   8.593 -0.9736 -1.4671 -1.7389
 3918SOL    HW223391   2.570   1.685   8.706  1.8927 -2.0495 -0.4192
 3919SOL     OW23392   3.462   4.227   3.351 -0.3434  0.4050 -0.0979
 3919SOL    HW123393   3.388   4.281   3.376 -0.7172  0.8123 -2.1028
 3919SOL    HW223394   3.510   4.301   3.315 -0.5705  0.0037 -1.2285
 3920SOL     OW23395   0.144   0.180   7.741  0.2888 -0.1742  0.8154
 3920SOL    HW123396   0.160   0.185   7.835  0.7224 -2.5464  0.8567
 3920SOL    HW223397   0.213   0.244   7.722  0.2051 -0.4621 -0.4814
 3921SOL     OW23398   0.488   1.945   3.072 -0.0238  0.0355  0.0682
 3921SOL    HW123399   0.537   1.990   3.004 -0.7572 -0.8931 -1.0670
 3921SOL    HW223400   0.486   2.004   3.148  0.5874  0.5214 -0.2969
 3922SOL     OW23401   4.486   0.431   7.000 -0.1494 -0.1899  0.0659
 3922SOL    HW123402   4.581   0.434   6.998 -0.1206 -0.8906  0.2459
 3922SOL    HW223403   4.465   0.354   6.947  1.2133  0.7911 -1.8781
 3923SOL     OW23404   3.369   1.992   3.422 -0.6069 -0.1993 -0.1502
 3923SOL    HW123405   3.448   1.948   3.392  0.2916  0.2534  1.5639
 3923SOL    HW223406   3.308   1.919   3.426 -0.8732  0.1339  1.7880
 3924SOL     OW23407   2.355   0.465   6.605  0.1725  0.0483 -0.4211
 3924SOL    HW123408   2.387   0.395   6.549 -1.2233 -1.0961  0.2119
 3924SOL    HW223409   2.420   0.452   6.674 -1.8199 -0.8190  1.2905
 3925SOL     OW23410   0.745   0.653  15.001 -0.2231 -0.0325  0.5604
 3925SOL    HW123411   0.742   0.563  15.034  0.8396 -0.1674  0.2813
 3925SOL    HW223412   0.774   0.706  15.075 -2.6367  2.4981 -0.3073
 3926SOL     OW23413   3.940   0.148  14.882 -0.0751 -0.4065  0.0034
 3926SOL    HW123414   3.908   0.150  14.972 -0.0820 -0.9045  0.0114
 3926SOL    HW223415   3.862   0.114  14.838 -0.5709 -1.6634  1.8643
 3927SOL     OW23416   0.567   2.476   1.993 -0.1105  0.0814  0.3895
 3927SOL    HW123417   0.624   2.530   2.048 -1.0480  0.9508  0.5020
 3927SOL    HW223418   0.492   2.450   2.046 -0.6667  0.0619 -0.4016
 3928SOL     OW23419   3.889   2.895   0.687 -0.6458  0.0983  0.1796
 3928SOL    HW123420   3.965   2.926   0.737  0.4055 -1.3376 -0.5160
 3928SOL    HW223421   3.828   2.967   0.704  0.4681  1.1569 -0.3563
 3929SOL     OW23422   3.088   2.664   7.527 -0.0895  0.1411  0.0946
 3929SOL    HW123423   3.014   2.649   7.585 -1.1083 -0.5847 -1.3871
 3929SOL    HW223424   3.040   2.685   7.446  2.0185 -0.6278 -1.3642
 3930SOL     OW23425   2.424   2.179   3.910 -0.8575 -0.0083 -0.5642
 3930SOL    HW123426   2.363   2.113   3.943 -1.3582  0.8486  0.1958
 3930SOL    HW223427   2.425   2.144   3.821 -2.1984 -0.1346 -0.5349
 3931SOL     OW23428   3.244   0.530  17.069  0.1077  0.2416 -0.2412
 3931SOL    HW123429   3.153   0.546  17.043 -0.0117 -0.2068 -0.0986
 3931SOL    HW223430   3.266   0.461  17.006  0.3567 -0.7703  0.9629
 3932SOL     OW23431   3.598   0.047   7.138  0.4517  0.4526 -0.5329
 3932SOL    HW123432   3.586   0.110   7.066  1.3410  0.2112 -0.8875
 3932SOL    HW223433   3.693   0.048   7.145  0.4692  1.9080 -0.8999
 3933SOL     OW23434   3.128   0.036   1.688 -0.2805  0.0020  0.1223
 3933SOL    HW123435   3.089   0.123   1.690  0.6707  0.4250  0.1358
 3933SOL    HW223436   3.054   4.721   1.715  0.4262  0.5037  3.0463
 3934SOL     OW23437   2.620   1.547   0.700  0.3813 -0.1561 -0.6461
 3934SOL    HW123438   2.532   1.508   0.701 -0.2409  1.2491 -2.6708
 3934SOL    HW223439   2.589   1.634   0.675  0.7041 -0.6538 -2.7405
 3935SOL     OW23440   4.352   2.848   8.024  0.4623  0.5823 -0.6321
 3935SOL    HW123441   4.368   2.814   8.112 -3.5786  0.9368  0.2517
 3935SOL    HW223442   4.439   2.843   7.984  0.8136  0.8301  0.0965
 3936SOL     OW23443   0.574   2.065   5.002 -0.5343 -0.2037  0.1903
 3936SOL    HW123444   0.584   2.140   5.061 -1.7034  0.4564 -0.4549
 3936SOL    HW223445   0.487   2.039   5.033 -1.4068  2.0150 -0.4011
 3937SOL     OW23446   1.309   1.209   7.391 -0.0327  0.2461  0.3544
 3937SOL    HW123447   1.365   1.160   7.451  0.8762  0.6086 -0.1837
 3937SOL    HW223448   1.287   1.143   7.325 -0.2913  0.6653  0.0203
 3938SOL     OW23449   4.302   0.626   5.680  0.8337 -0.0566 -0.3832
 3938SOL    HW123450   4.248   0.672   5.616  0.7071  1.4202  0.7947
 3938SOL    HW223451   4.366   0.695   5.699  1.1871 -0.8975  1.5041
 3939SOL     OW23452   3.509   4.411   4.994 -0.5572 -1.0722 -0.2082
 3939SOL    HW123453   3.561   4.404   4.914  0.0418 -0.0818  0.0942
 3939SOL    HW223454   3.518   4.323   5.030  0.5403 -0.0717  1.9769
 3940SOL     OW23455   0.075   0.314  12.294  0.0868  0.1852  0.1910
 3940SOL    HW123456   0.033   0.228  12.304  2.4039 -1.2734 -2.8529
 3940SOL    HW223457   4.732   0.363  12.284 -0.8578 -1.2903  0.7565
 3941SOL     OW23458   1.875   2.728  16.460 -0.6557 -0.2044 -0.1057
 3941SOL    HW123459   1.807   2.749  16.523 -2.1205 -0.3333 -1.6498
 3941SOL    HW223460   1.879   2.632  16.461 -0.1725 -0.1995 -4.2472
 3942SOL     OW23461   2.746   3.037   2.049 -0.6420 -0.0254  0.2580
 3942SOL    HW123462   2.818   2.975   2.047 -0.9003 -0.3880  2.1897
 3942SOL    HW223463   2.671   2.994   2.090 -0.9020 -2.3279 -2.5930
 3943SOL     OW23464   1.899   0.179   7.783  0.1599 -0.0174  0.6678
 3943SOL    HW123465   1.924   0.219   7.699 -0.2150  1.7464  1.4033
 3943SOL    HW223466   1.868   0.262   7.820  0.4777  0.3825  0.0520
 3944SOL     OW23467   4.183   3.146  12.997 -0.9336 -0.0151 -0.1667
 3944SOL    HW123468   4.170   3.144  13.092 -0.1527  1.1829 -0.0285
 3944SOL    HW223469   4.132   3.067  12.977 -0.0326 -0.5019 -0.5362
 3945SOL     OW23470   0.143   4.132   2.070 -1.1731 -0.1932  0.7074
 3945SOL    HW123471   0.126   4.216   2.111 -0.9303  0.5912 -0.7986
 3945SOL    HW223472   0.182   4.078   2.139  0.1074  1.4509  1.2693
 3946SOL     OW23473   1.073   0.997  12.249 -0.2121  0.5850  0.0976
 3946SOL    HW123474   1.164   0.975  12.272 -0.1671 -0.4665 -1.0642
 3946SOL    HW223475   1.032   0.940  12.314 -1.0493  1.3663  0.2445
 3947SOL     OW23476   1.778   1.668   0.667  0.0445  0.2289  0.3625
 3947SOL    HW123477   1.741   1.639   0.751 -1.7735  3.1602  0.5660
 3947SOL    HW223478   1.723   1.743   0.642 -0.0161  0.1095  0.1376
 3948SOL     OW23479   0.539   0.046  13.994 -0.3768 -0.1020  0.0167
 3948SOL    HW123480   0.458   4.736  13.988 -0.5758  0.2497 -0.1897
 3948SOL    HW223481   0.566   0.034  13.903 -0.4427  2.0222 -0.2882
 3949SOL     OW23482   4.247   2.629  11.234 -0.4091 -0.1267  0.2444
 3949SOL    HW123483   4.216   2.545  11.270 -2.0877  0.4608  0.1576
 3949SOL    HW223484   4.303   2.660  11.305  0.5714 -0.6778 -0.2948
 3950SOL     OW23485   3.549   1.848  16.025 -0.1717  0.1024  0.1539
 3950SOL    HW123486   3.600   1.767  16.024 -1.5373 -0.7495 -2.0848
 3950SOL    HW223487   3.595   1.889  15.951 -1.3443 -0.4941 -0.9124
 3951SOL     OW23488   2.149   2.128   6.637  0.0003  0.3110 -0.0527
 3951SOL    HW123489   2.237   2.165   6.632 -1.0511  3.2714  3.4842
 3951SOL    HW223490   2.113   2.171   6.715 -0.4274 -1.6282  0.8319
 3952SOL     OW23491   1.552   3.490   8.563 -0.0367  0.1941  0.4514
 3952SOL    HW123492   1.510   3.563   8.517  0.8483  1.0897  1.0838
 3952SOL    HW223493   1.617   3.467   8.497  0.5861  2.9059  0.1049
 3953SOL     OW23494   1.117   3.108   7.985  0.1851  0.2193  0.1842
 3953SOL    HW123495   1.025   3.134   7.972  0.2468  0.5005  0.3086
 3953SOL    HW223496   1.148   3.190   8.024  2.6849 -0.3464 -0.6790
 3954SOL     OW23497   3.938   0.809   3.389 -0.7202  0.1174  0.4921
 3954SOL    HW123498   3.961   0.799   3.297  0.4912  1.6554  0.6209
 3954SOL    HW223499   4.026   0.828   3.423 -0.8811  1.2900  0.2736
 3955SOL     OW23500   2.338   0.569   5.861 -0.3508 -0.1212 -0.2657
 3955SOL    HW123501   2.398   0.562   5.935  1.2267  0.8101 -1.4487
 3955SOL    HW223502   2.268   0.616   5.906  1.6901  1.3346  1.4118
 3956SOL     OW23503   3.033   4.513   2.744  0.6547 -0.4953  0.2397
 3956SOL    HW123504   3.078   4.436   2.711  0.4293 -1.3074  1.8190
 3956SOL    HW223505   2.945   4.488   2.718  1.2603 -2.2339 -0.1029
 3957SOL     OW23506   4.089   0.895   2.286 -0.0561  0.3132 -0.8735
 3957SOL    HW123507   4.064   0.833   2.218  1.9350 -2.8888  1.3036
 3957SOL    HW223508   4.038   0.967   2.249 -1.2887 -0.8105 -1.3660
 3958SOL     OW23509   0.975   2.167   9.473 -0.1066 -0.0551 -0.2345
 3958SOL    HW123510   1.045   2.153   9.537  1.0045  0.6073 -1.3088
 3958SOL    HW223511   0.955   2.259   9.489  0.7192  0.1613 -0.4544
 3959SOL     OW23512   2.504   4.188   1.612 -0.9332  0.2285  0.1669
 3959SOL    HW123513   2.580   4.133   1.593 -1.0980  0.3465 -0.8223
 3959SOL    HW223514   2.433   4.132   1.582  0.8248 -1.2753 -1.1991
 3960SOL     OW23515   2.519   4.401   7.240 -0.0884 -0.5296  0.1246
 3960SOL    HW123516   2.538   4.492   7.214  1.7229 -0.6902  0.9331
 3960SOL    HW223517   2.601   4.376   7.282  0.2895  0.4412 -0.0252
 3961SOL     OW23518   0.837   1.606   7.072  0.4176  0.2225  0.2524
 3961SOL    HW123519   0.884   1.528   7.104  0.8959 -0.0880 -1.1767
 3961SOL    HW223520   0.766   1.603   7.136  1.3594  0.5675  1.3173
 3962SOL     OW23521   2.965   0.470  16.115 -0.5817  0.0377  0.0611
 3962SOL    HW123522   3.033   0.524  16.156  1.1184 -2.2949  0.3468
 3962SOL    HW223523   2.926   0.537  16.058 -1.3128  0.3220  0.9051
 3963SOL     OW23524   3.806   0.051   5.019 -0.0814 -0.5994 -0.3264
 3963SOL    HW123525   3.867   0.078   5.087  1.8703 -1.4930 -1.7215
 3963SOL    HW223526   3.874   0.014   4.963  0.7366 -1.5358  1.2726
 3964SOL     OW23527   0.243   3.732   4.535 -0.2052  0.2632  0.1476
 3964SOL    HW123528   0.179   3.743   4.464 -2.1482  0.7616  1.9932
 3964SOL    HW223529   0.210   3.651   4.575  0.0791  0.0981  0.0494
 3965SOL     OW23530   3.479   2.880   2.200  0.6988 -0.4205 -0.5064
 3965SOL    HW123531   3.487   2.863   2.294  0.5721  0.4834 -0.3347
 3965SOL    HW223532   3.486   2.975   2.209 -0.3668 -0.3322 -0.5586
 3966SOL     OW23533   3.268   4.395  15.687 -0.4821 -0.3019 -0.1237
 3966SOL    HW123534   3.203   4.383  15.618 -1.9649  2.3478  0.8025
 3966SOL    HW223535   3.350   4.380  15.640 -1.2158 -0.6134 -1.3098
 3967SOL     OW23536   3.131   1.725   7.190 -0.0078 -0.0478  0.5777
 3967SOL    HW123537   3.098   1.786   7.124  2.9514  0.4518 -0.4520
 3967SOL    HW223538   3.225   1.740   7.182  0.1416 -1.0170  0.5840
 3968SOL     OW23539   4.657   4.035  11.125  0.3706 -0.3093 -0.3894
 3968SOL    HW123540   4.697   3.969  11.182 -0.9078 -1.1009 -0.3991
 3968SOL    HW223541   4.707   4.110  11.157  0.1710 -1.5581  2.9184
 3969SOL     OW23542   2.351   0.522   3.687 -0.5359  0.1776 -0.2722
 3969SOL    HW123543   2.432   0.539   3.734 -1.1522  1.7775  0.1941
 3969SOL    HW223544   2.381   0.465   3.616  2.0387  1.7759 -0.4640
 3970SOL     OW23545   2.026   1.570   2.811 -0.1323 -0.4547  0.1267
 3970SOL    HW123546   2.009   1.551   2.904 -1.6003  0.1230 -0.0224
 3970SOL    HW223547   2.072   1.490   2.785  2.2453  0.5773  1.1891
 3971SOL     OW23548   4.578   4.499   3.388 -0.4553 -0.0734  0.6604
 3971SOL    HW123549   4.617   4.571   3.439 -1.4770  0.5555  0.5437
 3971SOL    HW223550   4.515   4.469   3.453 -1.3489  0.3409 -0.0119
 3972SOL     OW23551   4.600   1.875  12.317 -0.0000  0.6581 -0.1689
 3972SOL    HW123552   4.540   1.826  12.373 -1.1890 -1.1327 -3.0406
 3972SOL    HW223553   4.670   1.906  12.375 -1.5043 -1.9260  3.0577
 3973SOL     OW23554   0.030   2.455   6.057  0.1221  0.3624  0.1395
 3973SOL    HW123555   0.106   2.511   6.073  0.2420 -0.2474  1.7393
 3973SOL    HW223556   4.706   2.485   6.122  0.7300  1.7651  0.0732
 3974SOL     OW23557   1.703   1.768   9.069 -0.5787 -0.3113  0.6791
 3974SOL    HW123558   1.674   1.826   8.998 -0.9128  1.3523  2.1862
 3974SOL    HW223559   1.659   1.684   9.054  0.9501 -0.4740 -2.8006
 3975SOL     OW23560   4.235   1.966   7.835 -0.2565 -0.1928  0.4345
 3975SOL    HW123561   4.140   1.971   7.823 -0.0536  1.2645 -0.6015
 3975SOL    HW223562   4.244   1.871   7.843 -0.8810 -0.3151 -0.3401
 3976SOL     OW23563   1.725   2.259   1.794  0.1923 -0.3904  0.3087
 3976SOL    HW123564   1.764   2.287   1.711  1.7491 -0.7258  0.9114
 3976SOL    HW223565   1.636   2.242   1.764  1.3564  0.2532 -3.5205
 3977SOL     OW23566   1.625   4.526   5.413  0.3820 -0.5102 -0.0350
 3977SOL    HW123567   1.660   4.592   5.473  0.3464 -2.2838  1.9451
 3977SOL    HW223568   1.701   4.504   5.358  1.3857 -0.3931  1.2973
 3978SOL     OW23569   1.018   2.017   1.959 -0.3436 -0.1758  0.3914
 3978SOL    HW123570   0.948   2.021   2.025  0.5115 -0.8762  1.3480
 3978SOL    HW223571   1.097   1.990   2.005  0.1587  1.0241  0.2161
 3979SOL     OW23572   2.839   4.705   6.349 -0.7699 -0.4796 -0.3743
 3979SOL    HW123573   2.806   4.624   6.389 -0.1766 -0.2054  0.6800
 3979SOL    HW223574   2.825   4.682   6.257  0.7750 -0.1497 -0.7013
 3980SOL     OW23575   4.370   3.147   8.330  0.1636  0.1404 -0.5912
 3980SOL    HW123576   4.358   3.086   8.402  2.3234 -0.1158 -0.4286
 3980SOL    HW223577   4.407   3.223   8.375 -3.1996  1.7194 -0.4838
 3981SOL     OW23578   2.200   2.614   7.438 -0.0257 -0.2404  0.0559
 3981SOL    HW123579   2.294   2.596   7.426 -0.2973 -1.5564 -0.1264
 3981SOL    HW223580   2.195   2.702   7.402  0.8512  0.3234  1.2914
 3982SOL     OW23581   4.583   0.441  12.324 -0.2606  0.1364 -0.1455
 3982SOL    HW123582   4.495   0.463  12.352 -0.5450 -0.2107 -0.7685
 3982SOL    HW223583   4.566   0.386  12.247 -2.7611 -1.0779  1.3081
 3983SOL     OW23584   1.069   4.235  15.069  0.3888  0.0632 -0.2051
 3983SOL    HW123585   1.104   4.324  15.060 -2.7002  1.2925 -0.0120
 3983SOL    HW223586   1.144   4.181  15.093  0.1876 -0.6158 -1.1193
 3984SOL     OW23587   4.582   4.175  16.478 -0.6346 -0.2032  0.0783
 3984SOL    HW123588   4.573   4.209  16.567  1.2949  2.2189 -0.6440
 3984SOL    HW223589   4.510   4.113  16.478  0.4435 -1.4676 -0.2051
 3985SOL     OW23590   4.334   0.626   3.576 -0.1757 -0.5144  0.3124
 3985SOL    HW123591   4.386   0.557   3.616  1.1834 -0.0417 -0.6252
 3985SOL    HW223592   4.325   0.591   3.487  3.5501  1.0661 -0.7015
 3986SOL     OW23593   3.040   0.671  13.148 -0.3546  0.4479  0.2830
 3986SOL    HW123594   3.109   0.619  13.105 -1.3769  0.7226 -1.6980
 3986SOL    HW223595   3.072   0.674  13.238 -2.7501 -1.0098  1.1851
 3987SOL     OW23596   1.882   4.008   8.247 -0.5404 -1.0775  0.7735
 3987SOL    HW123597   1.832   4.075   8.293  0.1970 -0.8481  1.2310
 3987SOL    HW223598   1.816   3.939   8.240 -1.5573 -0.1329  1.0424
 3988SOL     OW23599   3.330   3.718   2.346 -0.5083 -0.6593 -0.4616
 3988SOL    HW123600   3.373   3.739   2.264  2.1006 -1.6094  0.6765
 3988SOL    HW223601   3.262   3.659   2.313  0.1038 -0.3529 -2.2361
 3989SOL     OW23602   0.375   0.378   2.363  0.0509 -0.2091  0.3839
 3989SOL    HW123603   0.353   0.357   2.272  1.6327  0.4824 -0.1623
 3989SOL    HW223604   0.452   0.325   2.380  0.6212  1.3380  2.6394
 3990SOL     OW23605   4.359   2.342  13.799  0.3772 -0.0386 -0.6359
 3990SOL    HW123606   4.399   2.416  13.845 -0.7070  0.6447 -0.7806
 3990SOL    HW223607   4.324   2.379  13.718  0.9227 -0.9194 -1.2807
 3991SOL     OW23608   3.974   2.667   2.359  0.3283 -0.6753 -0.1644
 3991SOL    HW123609   3.988   2.574   2.340 -1.4318 -1.0940  0.6789
 3991SOL    HW223610   3.920   2.685   2.282  0.2971 -0.5432 -0.1108
 3992SOL     OW23611   4.554   4.550   5.512 -0.4577 -0.6758 -0.2281
 3992SOL    HW123612   4.609   4.517   5.441  2.3431  2.1411  0.6442
 3992SOL    HW223613   4.537   4.479   5.573 -1.1638 -0.3131  0.0011
 3993SOL     OW23614   0.827   1.080  13.682  0.0551  0.2059 -0.2115
 3993SOL    HW123615   0.820   1.083  13.778  0.8079 -0.1351 -0.1470
 3993SOL    HW223616   0.887   1.150  13.658 -0.3922  1.0566  1.1404
 3994SOL     OW23617   0.324   3.276   8.600 -0.3041  0.0455  0.2442
 3994SOL    HW123618   0.249   3.279   8.540 -0.2905 -2.7646  0.0697
 3994SOL    HW223619   0.307   3.343   8.666 -0.8464  1.2832 -1.1655
 3995SOL     OW23620   0.719   1.220  12.421  0.2452 -0.0714 -0.3119
 3995SOL    HW123621   0.800   1.261  12.449 -0.9341  0.3372  2.4920
 3995SOL    HW223622   0.709   1.259  12.334  3.1706 -1.9587 -1.5103
 3996SOL     OW23623   0.004   4.350   3.203 -0.3624  0.1997 -0.3459
 3996SOL    HW123624   0.092   4.369   3.171  0.1751  0.4244  1.2755
 3996SOL    HW223625   0.002   4.420   3.268 -1.3065  0.3105 -0.4831
 3997SOL     OW23626   4.100   3.623   5.174  0.3005 -0.4245  0.2646
 3997SOL    HW123627   4.098   3.561   5.101 -2.2597 -0.9800  0.8115
 3997SOL    HW223628   4.006   3.642   5.172  0.4130  0.1174  0.1620
 3998SOL     OW23629   4.634   4.346   5.340 -0.4761 -0.2092 -0.0042
 3998SOL    HW123630   4.579   4.277   5.303 -0.1712 -0.6935  0.4504
 3998SOL    HW223631   4.619   4.412   5.272  1.0347 -0.5243 -0.6498
 3999SOL     OW23632   0.564   2.273   2.880  0.3360 -0.1235  0.3028
 3999SOL    HW123633   0.594   2.262   2.970 -1.2387  1.1831  0.9878
 3999SOL    HW223634   0.606   2.357   2.861 -1.1427  0.6416  0.3336
 4000SOL     OW23635   4.297   4.295   9.775 -0.4416 -0.4408 -0.2518
 4000SOL    HW123636   4.263   4.280   9.863  1.4424 -1.4086  0.3069
 4000SOL    HW223637   4.343   4.212   9.760  2.7957  1.4363 -0.4684
 4001SOL     OW23638   3.060   1.728   7.783  0.2084 -0.1809  0.3577
 4001SOL    HW123639   3.053   1.788   7.857 -0.2100  0.3902 -0.1480
 4001SOL    HW223640   3.032   1.646   7.823 -1.6100 -0.3779 -1.2924
 4002SOL     OW23641   2.971   4.160   4.556  0.3413 -0.8152 -0.1808
 4002SOL    HW123642   3.004   4.157   4.466 -2.2370 -1.8376 -1.1161
 4002SOL    HW223643   2.942   4.251   4.559  1.1283 -0.5763 -0.0377
 4003SOL     OW23644   2.704   0.997  12.005  0.5523  0.1322 -0.2254
 4003SOL    HW123645   2.669   0.924  11.955 -1.8926  0.7935  0.5154
 4003SOL    HW223646   2.641   1.003  12.077  0.8288 -0.1574  0.0395
 4004SOL     OW23647   0.746   1.131  11.026 -0.7459 -0.1579 -1.0877
 4004SOL    HW123648   0.755   1.227  11.025  0.7273 -0.2644  0.8138
 4004SOL    HW223649   0.792   1.111  10.945 -0.2917 -1.3973 -0.5174
 4005SOL     OW23650   2.146   1.782   4.744 -0.5318 -0.4792 -0.4552
 4005SOL    HW123651   2.151   1.720   4.817  1.4135 -1.4528 -1.3991
 4005SOL    HW223652   2.162   1.723   4.671 -3.6295 -1.0465 -0.6484
 4006SOL     OW23653   1.975   2.859   2.581  0.0587  0.1169  0.0933
 4006SOL    HW123654   1.978   2.825   2.491  0.5123  0.4331 -0.0082
 4006SOL    HW223655   2.000   2.776   2.621  0.1945 -0.0664 -0.3752
 4007SOL     OW23656   2.259   0.723   2.003  0.1612  0.4844 -0.1464
 4007SOL    HW123657   2.296   0.713   1.916  1.0238  2.1317  0.0188
 4007SOL    HW223658   2.284   0.645   2.052  0.7928  0.9067  0.2121
 4008SOL     OW23659   2.615   0.797   4.473 -0.1496 -0.5710 -0.0395
 4008SOL    HW123660   2.624   0.851   4.551  0.5273 -0.8998  0.1041
 4008SOL    HW223661   2.673   0.829   4.404 -0.7986 -0.9266 -0.7526
 4009SOL     OW23662   0.742   1.376   6.943 -0.4881 -0.6396 -0.0905
 4009SOL    HW123663   0.657   1.376   6.987  0.3413 -0.0739  1.5178
 4009SOL    HW223664   0.782   1.461   6.962 -1.5060 -0.3198  0.6426
 4010SOL     OW23665   0.559   3.775   2.906  1.2634  0.3272 -0.3674
 4010SOL    HW123666   0.621   3.847   2.909  2.7738 -0.9766 -0.2155
 4010SOL    HW223667   0.521   3.782   2.993  2.0105  0.6956 -0.0733
 4011SOL     OW23668   2.362   2.554  13.139 -0.2496  0.1547  0.5668
 4011SOL    HW123669   2.374   2.638  13.096  2.7788 -0.7561 -0.4407
 4011SOL    HW223670   2.363   2.569  13.233 -1.8962  3.8377 -0.0252
 4012SOL     OW23671   1.126   1.037   7.685  0.3673 -0.3929 -0.4253
 4012SOL    HW123672   1.171   1.001   7.608  0.4434 -1.4339  0.1016
 4012SOL    HW223673   1.075   1.109   7.647 -0.4277 -0.3896  0.6487
 4013SOL     OW23674   0.560   4.233   7.450  0.3307  0.4334  0.3453
 4013SOL    HW123675   0.562   4.144   7.415 -2.1519  0.3401  0.4429
 4013SOL    HW223676   0.611   4.281   7.385 -0.9235 -0.3156 -1.2045
 4014SOL     OW23677   2.355   3.008   5.890 -0.2997  0.2129  0.2881
 4014SOL    HW123678   2.289   3.072   5.917 -1.3335 -1.4679  1.7644
 4014SOL    HW223679   2.300   2.930   5.879  0.6891 -0.1873 -1.7018
 4015SOL     OW23680   1.354   4.394  14.219 -0.2363 -0.3687 -0.1199
 4015SOL    HW123681   1.400   4.477  14.211 -0.7860  0.0292  0.8592
 4015SOL    HW223682   1.279   4.408  14.276 -0.5998 -1.6573 -0.2775
 4016SOL     OW23683   3.841   1.855   5.493 -0.3540  0.1259 -0.2909
 4016SOL    HW123684   3.910   1.787   5.489 -0.1355  0.2379  1.8679
 4016SOL    HW223685   3.785   1.845   5.416 -0.7461  0.4934 -0.0475
 4017SOL     OW23686   2.917   2.834  12.199  0.0548 -0.6157  0.0595
 4017SOL    HW123687   2.975   2.879  12.138  2.1217  0.5583  2.9516
 4017SOL    HW223688   2.955   2.746  12.192 -0.7447 -1.1056  1.8550
 4018SOL     OW23689   1.609   4.234   8.338 -0.0895 -0.3920  0.3466
 4018SOL    HW123690   1.613   4.287   8.259  0.4607  0.7581  1.1444
 4018SOL    HW223691   1.659   4.277   8.408  0.3108 -1.9059  0.9937
 4019SOL     OW23692   2.191   2.803   5.807 -0.0791 -0.2843  0.5187
 4019SOL    HW123693   2.258   2.744   5.773  0.2424 -0.5589  1.6335
 4019SOL    HW223694   2.117   2.745   5.823 -0.2240  0.3573  2.1229
 4020SOL     OW23695   4.110   0.725   8.235  0.5300 -0.3122  0.2526
 4020SOL    HW123696   4.049   0.672   8.184  2.0648 -1.0889 -0.7709
 4020SOL    HW223697   4.196   0.702   8.199  1.0155  3.5018 -1.0036
 4021SOL     OW23698   3.153   1.018  12.275  0.2843 -0.1429 -0.0273
 4021SOL    HW123699   3.071   0.968  12.269 -0.9146  1.7800  0.5551
 4021SOL    HW223700   3.160   1.040  12.182 -1.2902  0.0897 -0.1005
 4022SOL     OW23701   2.435   1.786   5.629  0.3997 -0.4355 -0.3184
 4022SOL    HW123702   2.465   1.748   5.547 -0.0830 -1.0145 -0.2293
 4022SOL    HW223703   2.502   1.767   5.695  0.8509 -0.7353 -0.8641
 4023SOL     OW23704   2.235   1.378   2.762 -0.2482  0.7740 -0.5562
 4023SOL    HW123705   2.257   1.318   2.691 -1.0874 -0.3537  0.1244
 4023SOL    HW223706   2.276   1.332   2.835  0.6402  2.2927 -0.0883
 4024SOL     OW23707   3.203   1.786   5.525 -0.1394 -0.0115 -0.2468
 4024SOL    HW123708   3.194   1.764   5.618  0.1760 -1.5344 -0.5769
 4024SOL    HW223709   3.259   1.710   5.507 -0.0892 -0.4051  1.5517
 4025SOL     OW23710   4.037   1.119   8.362  0.1285  0.0723 -0.4159
 4025SOL    HW123711   4.043   1.026   8.386 -2.7328  0.8134  3.2152
 4025SOL    HW223712   4.036   1.164   8.447  0.9254 -1.1650  0.2628
 4026SOL     OW23713   2.020   3.201   1.201 -0.2094  0.0686 -0.3454
 4026SOL    HW123714   1.924   3.197   1.199 -0.1941  0.0219 -1.1140
 4026SOL    HW223715   2.052   3.210   1.111 -0.3729 -0.8561 -0.5046
 4027SOL     OW23716   3.720   2.343   2.474  0.4542 -0.3676  0.8549
 4027SOL    HW123717   3.740   2.435   2.493 -1.6832  0.0955  0.7796
 4027SOL    HW223718   3.662   2.307   2.540 -2.5651  1.2899 -0.9316
 4028SOL     OW23719   3.565   4.495   9.261 -0.1947  0.0524 -0.0195
 4028SOL    HW123720   3.520   4.455   9.335 -1.8677 -0.0398 -1.0982
 4028SOL    HW223721   3.502   4.504   9.189  0.0902  1.8397 -0.0459
 4029SOL     OW23722   3.286   1.306   4.770  0.6346 -0.3970  0.0408
 4029SOL    HW123723   3.198   1.267   4.768 -0.0348  1.2495 -2.5253
 4029SOL    HW223724   3.291   1.344   4.682  0.9560  0.1503  0.3025
 4030SOL     OW23725   0.396   0.033   3.956 -0.1866  0.1045 -0.3928
 4030SOL    HW123726   0.314   0.079   3.978 -0.0068  0.1425  0.1942
 4030SOL    HW223727   0.419   0.089   3.882 -0.5771 -0.2804 -0.8014
 4031SOL     OW23728   3.510   1.501   6.965  0.0061 -0.1593 -0.6242
 4031SOL    HW123729   3.425   1.534   6.936  0.2906  0.5075 -0.6936
 4031SOL    HW223730   3.529   1.445   6.889  0.3347 -1.0693  0.1323
 4032SOL     OW23731   2.285   4.259   2.742  0.6238 -0.7237  0.3044
 4032SOL    HW123732   2.225   4.202   2.694  1.3416 -0.2868 -1.1179
 4032SOL    HW223733   2.365   4.214   2.715  2.8807  2.5648  1.5290
 4033SOL     OW23734   0.939   3.090   8.932  0.0360 -0.0706  0.1564
 4033SOL    HW123735   0.977   3.141   8.861  0.1630 -0.8438 -0.3409
 4033SOL    HW223736   0.956   3.149   9.005 -0.8480 -1.4405  1.4700
 4034SOL     OW23737   1.856   4.558  11.736  0.3539  0.0975  0.4316
 4034SOL    HW123738   1.924   4.593  11.678 -1.0565 -0.6860 -1.7228
 4034SOL    HW223739   1.821   4.476  11.701  0.0973  1.0792 -1.6560
 4035SOL     OW23740   0.512   2.494   9.219  0.5381  0.1438  0.8585
 4035SOL    HW123741   0.535   2.573   9.266 -1.1293  0.7350  0.6925
 4035SOL    HW223742   0.540   2.426   9.280 -0.1089  0.7717  1.8494
 4036SOL     OW23743   4.621   2.466   4.157 -0.4879  0.2898 -0.4294
 4036SOL    HW123744   4.590   2.515   4.081 -1.9198 -0.4017 -0.2756
 4036SOL    HW223745   4.695   2.522   4.182  1.1927 -2.2890  0.3899
 4037SOL     OW23746   2.112   0.134   7.349  0.0527 -0.0365  0.4142
 4037SOL    HW123747   2.127   0.061   7.409  2.4706 -0.4985 -0.7459
 4037SOL    HW223748   2.203   0.161   7.337  0.0210  0.6645  1.8240
 4038SOL     OW23749   4.292   4.352  14.909 -0.2821  0.0121  0.4308
 4038SOL    HW123750   4.252   4.270  14.881  1.1837 -0.5987  0.1591
 4038SOL    HW223751   4.264   4.411  14.839 -0.2935 -1.0125 -0.4269
 4039SOL     OW23752   0.335   2.009   5.113  0.0061 -0.4485  0.3340
 4039SOL    HW123753   0.258   2.052   5.151  0.3916  0.8289 -0.3150
 4039SOL    HW223754   0.311   1.919   5.132  1.5204 -0.7946  0.6279
 4040SOL     OW23755   3.498   4.213   7.434 -0.0121  0.5436 -0.4824
 4040SOL    HW123756   3.576   4.158   7.441 -0.3869  0.1124  0.3490
 4040SOL    HW223757   3.527   4.290   7.482  0.7935  0.0006 -0.1018
 4041SOL     OW23758   0.505   1.443   8.916 -0.4324 -0.2971 -0.2781
 4041SOL    HW123759   0.414   1.422   8.935 -1.2294  0.9511 -2.7960
 4041SOL    HW223760   0.523   1.479   9.003 -2.5522 -1.2562  0.5476
 4042SOL     OW23761   1.970   1.145   5.805 -0.2846 -0.1695  0.7185
 4042SOL    HW123762   1.919   1.203   5.749 -0.8117 -1.4151 -0.0945
 4042SOL    HW223763   2.043   1.199   5.835 -2.1694  2.0458  1.3091
 4043SOL     OW23764   1.566   0.734   2.125  0.1602  0.1110  0.0043
 4043SOL    HW123765   1.476   0.733   2.092 -0.6776 -0.7259  2.3011
 4043SOL    HW223766   1.583   0.641   2.106  1.2375  0.1757  0.6986
 4044SOL     OW23767   3.455   1.767   5.089  0.1416 -0.0881  0.5478
 4044SOL    HW123768   3.407   1.818   5.154 -0.8335 -1.4418  0.9019
 4044SOL    HW223769   3.526   1.733   5.144  1.2482  1.2241 -0.0838
 4045SOL     OW23770   3.118   3.541   5.728 -0.1432  0.4983  0.2310
 4045SOL    HW123771   3.058   3.569   5.660  0.3100  0.7603 -0.0617
 4045SOL    HW223772   3.100   3.450   5.751  1.4150 -0.6965 -3.2631
 4046SOL     OW23773   1.849   2.478   2.805 -0.3134  0.3566 -0.2437
 4046SOL    HW123774   1.860   2.417   2.878  4.1446  2.4149  0.8478
 4046SOL    HW223775   1.778   2.436   2.757 -1.5362 -0.8895  2.6452
 4047SOL     OW23776   1.454   4.088  13.788 -0.0687 -0.0469  0.1402
 4047SOL    HW123777   1.453   4.001  13.827 -1.8236 -0.0183  0.1627
 4047SOL    HW223778   1.457   4.144  13.866 -0.2927 -0.2772  0.3139
 4048SOL     OW23779   4.405   0.093   7.971 -0.3339  0.1833  0.2856
 4048SOL    HW123780   4.483   0.037   7.962 -1.5045 -1.9056  2.9793
 4048SOL    HW223781   4.385   0.102   7.878  0.9772  1.3721  0.1233
 4049SOL     OW23782   3.672   1.810  14.275  0.0282  0.6223 -0.6183
 4049SOL    HW123783   3.732   1.741  14.302 -1.0717 -0.5168 -1.0880
 4049SOL    HW223784   3.717   1.891  14.301 -1.6152  0.7050  1.9865
 4050SOL     OW23785   0.438   3.253   3.464  0.5715  0.6591 -0.1154
 4050SOL    HW123786   0.387   3.178   3.432  0.6697  0.7906 -0.5888
 4050SOL    HW223787   0.424   3.318   3.395  0.1098 -0.2269 -0.8616
 4051SOL     OW23788   1.575   3.826  11.027 -0.1844 -0.5400  0.0305
 4051SOL    HW123789   1.655   3.856  11.071 -0.5870 -0.2010  0.5342
 4051SOL    HW223790   1.550   3.903  10.977  0.7157  0.4939  1.1574
 4052SOL     OW23791   1.312   2.543   8.655  0.0878 -0.0457  0.2021
 4052SOL    HW123792   1.276   2.625   8.687 -1.3617 -0.0005 -1.6256
 4052SOL    HW223793   1.387   2.567   8.601  0.0000 -0.2785 -0.0203
 4053SOL     OW23794   1.416   2.982   8.304 -0.0860  0.4422  0.9559
 4053SOL    HW123795   1.373   2.907   8.263  1.2346  0.4167 -0.3531
 4053SOL    HW223796   1.503   2.972   8.265 -0.2134 -0.9532  1.0454
 4054SOL     OW23797   3.632   2.144   4.837 -0.8401 -0.3500 -0.8377
 4054SOL    HW123798   3.647   2.051   4.818  0.4734  0.2194 -2.6591
 4054SOL    HW223799   3.549   2.138   4.883  0.7462 -3.1261  1.6647
 4055SOL     OW23800   0.819   0.756   6.297 -0.5941 -0.4972 -0.1986
 4055SOL    HW123801   0.724   0.743   6.306 -0.5852 -2.0287 -2.3198
 4055SOL    HW223802   0.852   0.738   6.385  0.8411  2.3602 -0.1771
 4056SOL     OW23803   2.695   1.651   4.464  0.1238  0.3698 -0.4137
 4056SOL    HW123804   2.623   1.685   4.517 -0.4146 -1.1272 -0.1842
 4056SOL    HW223805   2.741   1.729   4.433 -1.2708  1.8828  1.3562
 4057SOL     OW23806   3.478   3.192  15.012  1.0681 -0.4503 -0.2866
 4057SOL    HW123807   3.439   3.126  15.070  0.6205  0.8777  0.9315
 4057SOL    HW223808   3.404   3.246  14.985  0.7963 -0.4186  0.5083
 4058SOL     OW23809   4.173   4.326   2.189 -0.5935 -0.2131 -0.3854
 4058SOL    HW123810   4.254   4.295   2.228 -0.6218  1.8711  1.3428
 4058SOL    HW223811   4.150   4.247   2.140  2.5171 -2.1806  1.3552
 4059SOL     OW23812   2.785   2.752  11.476  0.2093 -0.2537  0.3505
 4059SOL    HW123813   2.746   2.720  11.395 -0.6348 -0.9848  1.0456
 4059SOL    HW223814   2.805   2.668  11.516  0.4509  0.7723  2.3672
 4060SOL     OW23815   1.209   1.625  14.587  0.5534  0.0510 -0.6031
 4060SOL    HW123816   1.288   1.669  14.618 -0.2654  0.1274  1.3234
 4060SOL    HW223817   1.246   1.537  14.582 -0.1498 -0.2229 -0.8870
 4061SOL     OW23818   3.459   1.398   8.539 -0.9130  0.5316 -0.5144
 4061SOL    HW123819   3.539   1.366   8.582  0.2860  2.4222 -1.3430
 4061SOL    HW223820   3.407   1.318   8.545  0.5257 -0.3390  0.3350
 4062SOL     OW23821   4.480   3.829   6.133  0.3696 -0.1065 -0.1211
 4062SOL    HW123822   4.423   3.815   6.058  0.4216 -0.1743 -0.1480
 4062SOL    HW223823   4.434   3.771   6.194 -0.7920 -0.5273 -1.4057
 4063SOL     OW23824   2.810   4.642  11.458  0.2369  0.0920  0.2959
 4063SOL    HW123825   2.831   4.669  11.368  0.5378 -1.1094  0.0025
 4063SOL    HW223826   2.829   4.548  11.459  1.6813  0.3875 -0.2019
 4064SOL     OW23827   4.402   4.165  11.493 -0.2954  0.7445 -0.1454
 4064SOL    HW123828   4.364   4.087  11.532  1.1766 -0.3165 -0.8460
 4064SOL    HW223829   4.496   4.145  11.499 -0.8444 -1.3092  1.2165
 4065SOL     OW23830   4.600   1.039   2.316 -0.1593  0.3151  0.4316
 4065SOL    HW123831   4.510   1.070   2.308  0.0953  1.1144  0.6418
 4065SOL    HW223832   4.603   1.010   2.407  1.0379 -0.4774  0.1409
 4066SOL     OW23833   0.636   4.728  10.269 -0.9162  0.0617 -0.0085
 4066SOL    HW123834   0.651   4.684  10.186 -0.2553 -2.6055  1.5153
 4066SOL    HW223835   0.605   4.654  10.321  0.2465 -0.3319  0.1196
 4067SOL     OW23836   0.108   2.649  17.717 -0.2343  0.2515  0.0007
 4067SOL    HW123837   0.192   2.636  17.673 -0.1716  1.8577 -0.3269
 4067SOL    HW223838   0.084   2.556  17.717 -0.4947  0.3205 -1.1212
 4068SOL     OW23839   2.901   3.395  12.157 -0.4854 -0.5329 -0.0445
 4068SOL    HW123840   2.961   3.325  12.132  0.0504  0.9768 -2.9620
 4068SOL    HW223841   2.818   3.362  12.123  0.3964  1.3201 -3.9879
 4069SOL     OW23842   0.069   2.064   9.557 -0.2233 -0.4745  0.1722
 4069SOL    HW123843   0.034   1.988   9.511  1.4694 -2.0167  1.4509
 4069SOL    HW223844   4.730   2.118   9.571 -0.4151 -1.0821  1.5283
 4070SOL     OW23845   4.377   0.496   6.128 -0.0895 -0.4899 -0.2610
 4070SOL    HW123846   4.289   0.465   6.150 -0.6505  1.5599  0.4344
 4070SOL    HW223847   4.373   0.573   6.184  0.0763 -0.2426 -0.5873
 4071SOL     OW23848   0.404   2.533  13.695  0.3471  0.1931 -0.0528
 4071SOL    HW123849   0.361   2.617  13.682 -1.0577 -0.8667 -2.1289
 4071SOL    HW223850   0.464   2.546  13.769  0.0589  1.1660  0.0042
 4072SOL     OW23851   3.092   3.023   1.737 -0.4071 -0.1670  0.1694
 4072SOL    HW123852   3.050   2.976   1.808 -1.8473  1.8344  0.6585
 4072SOL    HW223853   3.185   3.023   1.761 -0.6463 -0.5020  1.0819
 4073SOL     OW23854   3.133   0.009   0.641 -0.1071 -0.2206 -0.1437
 4073SOL    HW123855   3.174   0.002   0.555  1.9052  0.5424  0.7590
 4073SOL    HW223856   3.134   4.656   0.669 -0.1757 -0.0916  0.2975
 4074SOL     OW23857   4.542   0.737   2.555  0.2951 -0.2539  0.5964
 4074SOL    HW123858   4.635   0.715   2.543  0.0060 -0.3727 -1.3779
 4074SOL    HW223859   4.508   0.652   2.585 -0.0530  0.0623  1.1035
 4075SOL     OW23860   4.037   4.412   4.785 -0.4549 -0.5991 -0.0329
 4075SOL    HW123861   4.075   4.369   4.861  2.1692  1.1681 -0.3735
 4075SOL    HW223862   4.048   4.346   4.716 -0.3275 -0.6712  0.0565
 4076SOL     OW23863   4.480   1.358   8.080  0.1141 -0.7827 -0.4273
 4076SOL    HW123864   4.485   1.448   8.048 -1.6058 -1.3697 -2.3525
 4076SOL    HW223865   4.396   1.348   8.125  1.4752  0.1960  2.3319
 4077SOL     OW23866   0.502   4.384  14.458  0.0937 -0.1005  0.5237
 4077SOL    HW123867   0.455   4.329  14.521  0.1651 -0.2520  0.4420
 4077SOL    HW223868   0.588   4.362  14.492  0.5880  0.9870 -0.0212
 4078SOL     OW23869   4.141   4.441  11.566 -0.9324 -0.0287  0.5502
 4078SOL    HW123870   4.052   4.406  11.565 -0.8704 -0.1672 -0.6045
 4078SOL    HW223871   4.145   4.496  11.488 -1.6241 -2.3803 -1.1583
 4079SOL     OW23872   1.086   1.628   8.602  0.9459 -0.6835 -0.0262
 4079SOL    HW123873   1.014   1.679   8.566  0.1948 -1.1515  0.8116
 4079SOL    HW223874   1.102   1.675   8.683 -0.9842 -3.0674  1.7448
 4080SOL     OW23875   1.371   2.711   9.915 -0.3415 -0.7442 -0.2706
 4080SOL    HW123876   1.300   2.691   9.976  0.5320  0.0126  0.9986
 4080SOL    HW223877   1.422   2.769   9.971 -1.3744 -0.1357  0.0316
 4081SOL     OW23878   0.441   0.473   2.664  0.0415 -0.4558  0.0906
 4081SOL    HW123879   0.514   0.511   2.615  0.5270  1.5155  2.3099
 4081SOL    HW223880   0.481   0.439   2.744  1.3540 -1.2414 -0.8952
 4082SOL     OW23881   4.347   2.563   9.970 -0.8665  0.0652  0.0451
 4082SOL    HW123882   4.270   2.543   9.917 -1.3498 -0.6135  1.0295
 4082SOL    HW223883   4.336   2.497  10.038 -1.4262  0.5110  0.3912
 4083SOL     OW23884   2.776   0.306   4.713  0.0756 -0.0428 -0.9514
 4083SOL    HW123885   2.840   0.374   4.731  1.9530 -1.6388 -1.5869
 4083SOL    HW223886   2.698   0.361   4.702 -0.4617 -0.3458  1.2372
 4084SOL     OW23887   4.580   2.255   7.301  0.4719  0.0714  0.0157
 4084SOL    HW123888   4.668   2.219   7.304  0.1112 -0.8963 -1.1912
 4084SOL    HW223889   4.536   2.181   7.343  0.2736  1.0351  1.5027
 4085SOL     OW23890   3.198   2.729   8.740 -0.4898  0.3236  0.5210
 4085SOL    HW123891   3.142   2.721   8.663 -0.0571 -1.4205  0.3893
 4085SOL    HW223892   3.282   2.735   8.693 -0.0617 -1.0312  1.1029
 4086SOL     OW23893   1.750   0.780  12.569  0.6535  0.4268 -0.1767
 4086SOL    HW123894   1.724   0.743  12.653  0.2311 -0.4943 -0.7179
 4086SOL    HW223895   1.823   0.720  12.554  0.0077 -0.3701 -0.1100
 4087SOL     OW23896   1.650   3.547   7.575  0.0973 -0.3315  0.1313
 4087SOL    HW123897   1.653   3.452   7.567  1.1636 -0.1068 -2.0350
 4087SOL    HW223898   1.606   3.572   7.494  0.2182  0.1270  0.2069
 4088SOL     OW23899   3.266   0.960  17.086 -0.2516  0.4278 -0.0201
 4088SOL    HW123900   3.297   0.870  17.092 -0.8615  0.2914  0.9969
 4088SOL    HW223901   3.352   1.000  17.072 -0.4541  0.2950 -1.6572
 4089SOL     OW23902   0.421   2.051   7.313 -0.1079 -0.1824  0.1851
 4089SOL    HW123903   0.497   2.083   7.263 -0.0014  0.6446  0.8706
 4089SOL    HW223904   0.365   2.127   7.296  1.0212  0.1997 -1.8857
 4090SOL     OW23905   3.278   3.700   6.953  0.1982  0.1858 -0.3341
 4090SOL    HW123906   3.243   3.682   7.041  1.6141 -0.5226  0.0911
 4090SOL    HW223907   3.312   3.787   6.971 -1.1337  0.8882 -1.2699
 4091SOL     OW23908   3.547   4.678  16.839 -0.6206 -0.1593 -0.0068
 4091SOL    HW123909   3.490   4.712  16.909 -0.8434 -2.2567  0.8364
 4091SOL    HW223910   3.631   4.689  16.885 -0.3210  0.5279 -0.7282
 4092SOL     OW23911   4.102   0.195   4.656  0.3852 -0.0888  0.1219
 4092SOL    HW123912   4.014   0.176   4.689  0.9255 -0.8444  1.1438
 4092SOL    HW223913   4.130   0.105   4.637 -0.5080 -0.6056  1.2216
 4093SOL     OW23914   4.289   2.657   9.674 -0.2475  0.3472 -0.5267
 4093SOL    HW123915   4.240   2.681   9.595  2.3451  1.1757 -1.8972
 4093SOL    HW223916   4.229   2.596   9.717 -1.5273  2.9855  1.4235
 4094SOL     OW23917   3.995   0.310   4.421  0.3762 -0.8185 -0.0532
 4094SOL    HW123918   4.006   0.261   4.339  2.1895 -1.2057  0.4086
 4094SOL    HW223919   4.061   0.267   4.475  1.5921  1.8085  0.5902
 4095SOL     OW23920   3.325   0.976   0.681 -0.1732 -0.0668 -0.0736
 4095SOL    HW123921   3.295   0.924   0.756 -3.1346  1.7713  0.0332
 4095SOL    HW223922   3.413   1.003   0.706  0.2758 -0.2560 -1.4693
 4096SOL     OW23923   3.422   3.492   3.783 -0.1363 -0.4414  0.4866
 4096SOL    HW123924   3.408   3.434   3.709  2.0319 -0.3970  0.0532
 4096SOL    HW223925   3.423   3.578   3.741 -2.9385 -0.1607  0.9840
 4097SOL     OW23926   2.232   2.485   3.637 -0.1968  0.2039 -0.3682
 4097SOL    HW123927   2.323   2.510   3.620  0.0794 -0.1596  0.6273
 4097SOL    HW223928   2.198   2.469   3.549 -1.6487  0.0453  0.2360
 4098SOL     OW23929   0.038   2.414   4.742 -0.3388  0.9091 -0.6050
 4098SOL    HW123930   4.710   2.464   4.695 -1.6264  0.1920  0.4572
 4098SOL    HW223931   0.095   2.488   4.765 -0.6372  0.2172  2.3498
 4099SOL     OW23932   1.309   2.932   7.961 -0.1692 -0.6876  0.3895
 4099SOL    HW123933   1.319   2.880   8.041  0.1698 -0.9870  0.1534
 4099SOL    HW223934   1.228   2.981   7.977 -0.8620 -1.6709 -0.1050
 4100SOL     OW23935   3.100   0.229  10.086 -0.0812 -0.4973 -0.3236
 4100SOL    HW123936   3.037   0.175  10.133  0.5875  0.0827  1.2326
 4100SOL    HW223937   3.063   0.237   9.998  0.7107 -0.4817 -0.6556
 4101SOL     OW23938   0.691   2.272   9.936 -0.1602  0.4516 -0.0294
 4101SOL    HW123939   0.602   2.243   9.958  0.2050 -0.6787 -0.0580
 4101SOL    HW223940   0.713   2.217   9.861  1.0674  2.3920 -1.0730
 4102SOL     OW23941   2.784   2.690   1.098 -0.3153  0.2441  0.4895
 4102SOL    HW123942   2.825   2.776   1.104  0.8297 -0.3029  0.4724
 4102SOL    HW223943   2.722   2.689   1.171 -0.4877 -1.6114  0.3323
 4103SOL     OW23944   0.162   3.224   1.946  0.3599  0.2441 -0.4480
 4103SOL    HW123945   0.092   3.199   2.006 -0.1362 -0.6184 -1.3869
 4103SOL    HW223946   0.114   3.230   1.863  1.3946  1.3338 -0.9679
 4104SOL     OW23947   1.672   3.836  16.911 -0.7984  0.2527 -0.0734
 4104SOL    HW123948   1.661   3.851  17.005  1.0660  1.8859 -0.1079
 4104SOL    HW223949   1.590   3.879  16.890 -0.7085  1.4334  1.9723
 4105SOL     OW23950   2.398   2.880   5.610 -0.3623 -0.5854 -0.4816
 4105SOL    HW123951   2.306   2.901   5.624 -0.1147  0.2424 -0.1355
 4105SOL    HW223952   2.448   2.961   5.619  0.8997 -1.3195 -0.7840
 4106SOL     OW23953   0.560   4.108   2.711  0.5503 -0.5155  0.1643
 4106SOL    HW123954   0.589   4.169   2.643 -2.0260 -0.3260 -0.7945
 4106SOL    HW223955   0.528   4.171   2.775  2.3798  0.0883  0.4829
 4107SOL     OW23956   2.786   0.926   3.936 -0.0041  0.1353  0.1909
 4107SOL    HW123957   2.713   0.920   3.874 -0.4096  2.4403  0.4133
 4107SOL    HW223958   2.824   0.838   3.929  3.3710  1.8741 -3.5316
 4108SOL     OW23959   2.479   3.883   6.580 -0.2632  0.3429  0.1091
 4108SOL    HW123960   2.443   3.809   6.628 -0.7462  0.2460 -0.3871
 4108SOL    HW223961   2.404   3.943   6.586 -1.0840 -0.5961 -0.6682
 4109SOL     OW23962   3.244   2.120  15.093 -0.7855 -0.3470  0.1240
 4109SOL    HW123963   3.203   2.089  15.011  2.2110 -1.4188 -0.9760
 4109SOL    HW223964   3.325   2.070  15.090 -0.9378 -0.5730 -0.3243
 4110SOL     OW23965   3.374   0.584   4.650  0.2927 -0.0130 -0.1680
 4110SOL    HW123966   3.458   0.600   4.607  0.5400 -0.6081  0.0917
 4110SOL    HW223967   3.364   0.671   4.690 -2.3754 -0.6278  0.4788
 4111SOL     OW23968   4.226   4.043   7.487 -0.5878 -0.0435  0.0657
 4111SOL    HW123969   4.244   3.993   7.407  0.7697  0.6375 -0.0604
 4111SOL    HW223970   4.195   4.129   7.457  1.7912  1.1170  0.9448
 4112SOL     OW23971   3.945   4.429  10.115  0.1969 -0.2751  0.1395
 4112SOL    HW123972   3.861   4.392  10.145  0.8583 -0.6815  1.5044
 4112SOL    HW223973   3.916   4.463  10.030 -0.4668  1.4646  1.0559
 4113SOL     OW23974   1.976   0.792   5.592  0.2131 -0.1241  0.6855
 4113SOL    HW123975   1.978   0.698   5.610  0.2716 -0.7265 -2.3012
 4113SOL    HW223976   2.062   0.809   5.553  0.9584  1.6458  3.1553
 4114SOL     OW23977   1.544   0.639   8.487 -0.7781  0.2452 -0.0216
 4114SOL    HW123978   1.525   0.550   8.515  0.3191 -0.5168 -1.6877
 4114SOL    HW223979   1.539   0.688   8.569 -0.8439 -1.3817  0.9513
 4115SOL     OW23980   4.071   1.484   1.329 -0.2126  0.6575  0.7077
 4115SOL    HW123981   4.038   1.395   1.336  3.5578 -0.7249  1.1117
 4115SOL    HW223982   4.164   1.473   1.309 -0.6656  0.9278 -1.4796
 4116SOL     OW23983   2.472   4.722   2.512 -0.4972 -0.8255  0.3589
 4116SOL    HW123984   2.510   0.066   2.484 -0.7077 -0.8003  0.1512
 4116SOL    HW223985   2.377   4.738   2.515  0.0625  2.0554  2.8249
 4117SOL     OW23986   1.612   2.238   3.658  0.3513 -0.3067  0.4819
 4117SOL    HW123987   1.672   2.166   3.642 -2.2158 -1.4769 -3.8011
 4117SOL    HW223988   1.599   2.235   3.753 -0.0627  1.8201  0.4996
 4118SOL     OW23989   0.421   1.209  12.251  0.2824 -0.2309 -0.2127
 4118SOL    HW123990   0.461   1.122  12.246 -2.1181 -1.2927 -0.7277
 4118SOL    HW223991   0.484   1.278  12.230 -0.6152  0.8261  0.5374
 4119SOL     OW23992   2.367   4.432   8.715 -0.0837 -0.2967  0.0790
 4119SOL    HW123993   2.387   4.506   8.773  2.4867 -1.0010  0.1075
 4119SOL    HW223994   2.283   4.411   8.755  0.2623  0.9032  1.4482
 4120SOL     OW23995   3.050   0.601   5.678 -0.0667 -0.3021 -0.4304
 4120SOL    HW123996   3.054   0.640   5.766  1.7875 -0.0470 -0.6153
 4120SOL    HW223997   3.057   0.686   5.635  0.8298 -0.3932 -0.4663
 4121SOL     OW23998   2.248   3.776   2.463 -0.2145  0.4198 -0.1206
 4121SOL    HW123999   2.206   3.751   2.546  0.7638 -0.2097  0.1905
 4121SOL    HW224000   2.229   3.700   2.407  1.3460 -1.2760  1.6637
 4122SOL     OW24001   2.138   0.329  15.507 -0.0202  0.2353 -0.3055
 4122SOL    HW124002   2.085   0.376  15.572  0.3144 -0.4120  0.4287
 4122SOL    HW224003   2.172   0.398  15.451  0.1669 -0.4301 -1.0126
 4123SOL     OW24004   2.856   1.895   0.862 -0.3268  0.1147 -0.4747
 4123SOL    HW124005   2.863   1.928   0.951 -0.1008  1.1566 -0.8746
 4123SOL    HW224006   2.782   1.939   0.820 -0.2459 -0.1234 -0.8768
 4124SOL     OW24007   2.087   0.089  16.854  0.0968  0.1208 -0.4485
 4124SOL    HW124008   2.005   0.104  16.806 -0.2597  0.2399  0.1998
 4124SOL    HW224009   2.154   0.055  16.794  1.2646  2.9673 -0.7500
 4125SOL     OW24010   2.443   4.723   3.726 -0.0801  0.5779 -0.1932
 4125SOL    HW124011   2.377   4.656   3.703  1.7215 -0.3069 -2.8142
 4125SOL    HW224012   2.501   4.669   3.779 -0.5751 -0.1971 -0.4253
 4126SOL     OW24013   4.098   1.618   8.587 -0.3931 -0.3196  0.5095
 4126SOL    HW124014   4.029   1.664   8.634  0.3006 -0.2605  1.4565
 4126SOL    HW224015   4.140   1.694   8.546 -0.6624 -0.9982 -1.0263
 4127SOL     OW24016   2.871   4.422   4.544 -0.5562  0.2899  0.3262
 4127SOL    HW124017   2.888   4.503   4.594 -0.3742  0.4910 -0.0562
 4127SOL    HW224018   2.819   4.380   4.612 -1.3421 -1.0225 -1.0848
 4128SOL     OW24019   4.614   0.792  12.371 -0.4568 -0.4358  0.2241
 4128SOL    HW124020   4.692   0.783  12.425 -0.3894 -2.3745 -0.1744
 4128SOL    HW224021   4.599   0.702  12.341 -0.4554 -0.0299 -1.0118
 4129SOL     OW24022   3.127   2.419   6.939  0.1031  0.5134  0.5001
 4129SOL    HW124023   3.089   2.336   6.968 -0.7279  0.4035 -0.8916
 4129SOL    HW224024   3.115   2.410   6.845  0.9536  2.0085  0.2448
 4130SOL     OW24025   3.957   2.467  12.814  0.0987  0.1578  0.7236
 4130SOL    HW124026   4.003   2.384  12.803 -1.8042 -0.6687 -0.9605
 4130SOL    HW224027   4.022   2.513  12.868  2.6828  0.4525 -2.6255
 4131SOL     OW24028   0.624   0.394   9.074  0.2019 -0.2645 -0.1482
 4131SOL    HW124029   0.712   0.385   9.110  0.6837  3.3570 -0.3769
 4131SOL    HW224030   0.598   0.306   9.050 -0.2082  0.5134 -2.5332
 4132SOL     OW24031   0.493   4.004   4.281 -0.6363  0.1415 -0.7501
 4132SOL    HW124032   0.564   4.066   4.298  1.2493 -2.2906  0.1874
 4132SOL    HW224033   0.474   3.970   4.368  0.5054  0.8967 -0.2110
 4133SOL     OW24034   0.431   4.675  16.715  0.2240 -0.7785 -0.3829
 4133SOL    HW124035   0.501   4.684  16.779  0.9494 -2.7445 -0.8877
 4133SOL    HW224036   0.436   0.017  16.664  0.8003  1.3143  3.0106
 4134SOL     OW24037   2.424   2.295  10.427  0.1877 -0.3764  0.1912
 4134SOL    HW124038   2.465   2.380  10.441 -0.7856 -0.0532  1.0122
 4134SOL    HW224039   2.503   2.242  10.412  0.6942  0.5145 -0.3079
 4135SOL     OW24040   2.407   4.654  15.435 -0.2469 -0.3069  0.0494
 4135SOL    HW124041   2.419   4.720  15.367  0.8051  0.0802  0.6079
 4135SOL    HW224042   2.352   4.590  15.390 -2.3840  3.4389 -2.6039
 4136SOL     OW24043   0.733   3.508  13.567  0.4244 -0.5632 -0.6948
 4136SOL    HW124044   0.809   3.487  13.622 -1.4291 -1.7235  1.4429
 4136SOL    HW224045   0.769   3.573  13.507  0.5489 -0.1919 -0.2218
 4137SOL     OW24046   0.756   3.489   5.192 -0.2827 -0.5500  0.5468
 4137SOL    HW124047   0.741   3.505   5.098  2.0597  0.0909  0.2973
 4137SOL    HW224048   0.761   3.393   5.192  1.4783 -0.4553 -0.5052
 4138SOL     OW24049   2.973   2.401   7.398  0.1683 -0.0778 -0.1909
 4138SOL    HW124050   3.038   2.460   7.359 -0.2889 -0.3848 -1.4052
 4138SOL    HW224051   2.940   2.362   7.318  0.0549 -1.7826  0.6821
 4139SOL     OW24052   3.198   2.754  17.264  0.2968  0.0575  0.1502
 4139SOL    HW124053   3.238   2.674  17.298  1.9072  0.2189 -1.3388
 4139SOL    HW224054   3.175   2.722  17.177  1.7492  0.1898 -0.2904
 4140SOL     OW24055   3.665   3.769   3.974  0.0068 -0.2094 -0.6299
 4140SOL    HW124056   3.679   3.810   4.060  1.0911  0.5354 -1.1545
 4140SOL    HW224057   3.571   3.788   3.976 -0.1503 -1.0678 -0.1106
 4141SOL     OW24058   4.651   1.412   1.645 -0.4956  0.4392 -0.0189
 4141SOL    HW124059   4.633   1.324   1.680  0.5321  0.5053  0.6547
 4141SOL    HW224060   4.573   1.421   1.589 -1.0477  0.0773  0.6951
 4142SOL     OW24061   1.713   4.494   0.701 -0.3628 -0.1170  0.2817
 4142SOL    HW124062   1.681   4.582   0.721  0.2743  0.6243 -1.9232
 4142SOL    HW224063   1.752   4.512   0.615 -0.3223 -0.9222  0.1376
 4143SOL     OW24064   3.311   4.506   6.021  0.0638 -0.1077 -0.5971
 4143SOL    HW124065   3.272   4.426   6.054  0.6275 -1.0406 -2.1586
 4143SOL    HW224066   3.384   4.470   5.971  1.4276 -1.6868  2.5404
 4144SOL     OW24067   2.063   0.886   7.611  0.2710  0.2173  0.4497
 4144SOL    HW124068   2.042   0.950   7.544 -0.2802 -1.7345 -1.2272
 4144SOL    HW224069   1.972   0.870   7.636 -0.0826  1.4673 -0.0401
 4145SOL     OW24070   0.012   3.929   8.396 -0.4642 -0.2465 -0.1999
 4145SOL    HW124071   4.660   3.917   8.369 -0.8790  3.7385 -0.6923
 4145SOL    HW224072   0.017   3.894   8.484 -0.6504  2.0825  0.7333
 4146SOL     OW24073   3.473   1.490  17.627 -0.1364 -0.4332 -0.2744
 4146SOL    HW124074   3.384   1.513  17.653 -0.2069 -0.2604 -0.6693
 4146SOL    HW224075   3.471   1.488  17.531  0.7566  1.6093 -0.3469
 4147SOL     OW24076   1.880   4.373   2.662 -0.2381 -0.0735  0.3183
 4147SOL    HW124077   1.957   4.367   2.719  0.8072 -1.2782 -1.2456
 4147SOL    HW224078   1.811   4.386   2.727  0.9106  1.7775  1.1844
 4148SOL     OW24079   1.978   2.768   9.643  0.1532  0.2915  0.4717
 4148SOL    HW124080   1.950   2.818   9.567 -0.8830  0.7625  1.1680
 4148SOL    HW224081   2.070   2.796   9.648  0.6620 -1.3053  0.2423
 4149SOL     OW24082   4.206   2.986   4.746  0.1901 -0.0009  0.4022
 4149SOL    HW124083   4.217   2.947   4.832 -1.9740 -0.6798  0.3795
 4149SOL    HW224084   4.247   2.922   4.688  1.7031  0.2132  1.2553
 4150SOL     OW24085   2.200   2.071  12.868 -0.1747 -0.5660  0.2850
 4150SOL    HW124086   2.197   2.158  12.908 -0.5639 -0.8689  0.9124
 4150SOL    HW224087   2.116   2.039  12.899 -1.0182  1.1289 -0.2277
 4151SOL     OW24088   0.938   0.396  16.930  0.0753 -0.2170  0.2815
 4151SOL    HW124089   0.963   0.304  16.938 -2.2155 -0.8204  0.4551
 4151SOL    HW224090   0.886   0.400  16.850 -0.9615  0.0056  0.9661
 4152SOL     OW24091   3.390   1.944  16.224 -0.5706  0.9671 -0.2081
 4152SOL    HW124092   3.431   1.922  16.140 -1.0855  1.4775 -0.5882
 4152SOL    HW224093   3.368   2.036  16.210 -0.2273  1.3490  1.8394
 4153SOL     OW24094   3.270   1.771  13.689 -0.8253  0.6236 -0.1553
 4153SOL    HW124095   3.298   1.776  13.780  2.0152  0.2611 -1.0044
 4153SOL    HW224096   3.181   1.740  13.703 -0.5685  0.4716  1.0874
 4154SOL     OW24097   0.288   0.998   3.052  0.2870 -0.2128  0.0803
 4154SOL    HW124098   0.353   0.976   3.119  1.2701 -2.5249 -1.6457
 4154SOL    HW224099   0.303   0.930   2.986 -2.5824  0.0332 -0.8596
 4155SOL     OW24100   1.328   0.308   6.527 -0.3899  0.1676  0.9435
 4155SOL    HW124101   1.296   0.291   6.616  0.6378  1.7754  1.6355
 4155SOL    HW224102   1.246   0.307   6.477 -1.1724  1.1908  2.1973
 4156SOL     OW24103   2.990   3.743   8.240 -0.6464  0.8162  0.2654
 4156SOL    HW124104   2.934   3.809   8.280 -0.8166 -0.2103  1.7325
 4156SOL    HW224105   2.922   3.700   8.188  0.0604  0.2598 -0.1823
 4157SOL     OW24106   2.810   0.618   1.643 -0.1784 -0.3718  0.1245
 4157SOL    HW124107   2.794   0.666   1.562 -1.0981 -1.0725 -0.1081
 4157SOL    HW224108   2.887   0.578   1.603 -0.2231 -0.4800  0.1471
 4158SOL     OW24109   1.759   2.265  16.213 -0.4771  0.0287  0.0162
 4158SOL    HW124110   1.823   2.335  16.208  2.7905 -2.8053  2.5742
 4158SOL    HW224111   1.692   2.317  16.168  0.5226 -0.1878 -1.7267
 4159SOL     OW24112   1.094   3.377  13.469 -0.3179 -0.0890 -0.3402
 4159SOL    HW124113   1.025   3.375  13.403  3.3398 -1.2338 -4.1365
 4159SOL    HW224114   1.041   3.357  13.546 -0.6800  0.8543 -0.3467
 4160SOL     OW24115   3.307   0.204   8.317 -0.2277 -0.7663  0.1064
 4160SOL    HW124116   3.331   0.287   8.276 -2.6574  0.1533  0.5196
 4160SOL    HW224117   3.333   0.147   8.244  0.8323 -0.1860  0.0401
 4161SOL     OW24118   4.527   3.943   2.903 -0.2338 -0.0075 -0.0175
 4161SOL    HW124119   4.518   4.027   2.859 -2.1101  0.2732  0.8792
 4161SOL    HW224120   4.571   3.961   2.986  0.2842 -0.8991 -0.1013
 4162SOL     OW24121   3.388   4.122  13.192 -0.4902  0.1551 -0.2500
 4162SOL    HW124122   3.448   4.137  13.118 -2.0435 -1.8319 -1.9197
 4162SOL    HW224123   3.306   4.097  13.151  0.4605 -0.2753 -1.9281
 4163SOL     OW24124   4.266   1.405   2.135 -0.7181 -0.4262  0.3922
 4163SOL    HW124125   4.274   1.366   2.048  2.5398  0.3108  0.3469
 4163SOL    HW224126   4.188   1.459   2.134 -0.6870 -0.4158 -1.0567
 4164SOL     OW24127   3.127   3.188   2.584  0.4041  0.1351 -0.0155
 4164SOL    HW124128   3.086   3.166   2.668  0.0633  1.2205  0.0992
 4164SOL    HW224129   3.067   3.254   2.550  1.1856 -0.1357 -1.9350
 4165SOL     OW24130   2.873   1.894   1.997 -0.6297 -0.3335 -0.3566
 4165SOL    HW124131   2.830   1.913   1.914 -4.0403 -2.1064  1.0044
 4165SOL    HW224132   2.928   1.970   2.019 -1.5695  0.5050 -0.8863
 4166SOL     OW24133   3.496   2.692  13.637 -0.3103  0.7424  0.5170
 4166SOL    HW124134   3.577   2.734  13.665  0.0583 -0.1577  0.8234
 4166SOL    HW224135   3.430   2.751  13.673 -3.0803 -2.0941  0.1007
 4167SOL     OW24136   3.082   0.259   8.425 -0.0401  0.4868 -0.3078
 4167SOL    HW124137   3.161   0.256   8.371 -0.7116  0.7040 -1.3208
 4167SOL    HW224138   3.105   0.305   8.505 -0.1123  0.4845 -0.2861
 4168SOL     OW24139   2.675   0.361  11.868  0.2062 -0.0613 -0.7046
 4168SOL    HW124140   2.727   0.292  11.910  0.6159  0.2450 -0.7095
 4168SOL    HW224141   2.591   0.340  11.910  1.3689 -0.8301  1.2143
 4169SOL     OW24142   3.459   4.352   8.995 -0.1917 -0.4396  0.5213
 4169SOL    HW124143   3.425   4.428   9.043  2.4930  0.6039  0.7312
 4169SOL    HW224144   3.437   4.371   8.904  1.5411  2.3459  0.6870
 4170SOL     OW24145   2.284   3.761  11.678  0.5782  0.0423  0.1275
 4170SOL    HW124146   2.210   3.774  11.620  0.3009  0.9691  0.6981
 4170SOL    HW224147   2.256   3.818  11.750  0.6624 -1.1917  1.1402
 4171SOL     OW24148   0.381   0.175  10.180 -0.2095 -0.3369 -0.0444
 4171SOL    HW124149   0.297   0.219  10.189 -0.0508  0.2915 -1.6572
 4171SOL    HW224150   0.390   0.119  10.258  0.8359  1.6072  1.2205
 4172SOL     OW24151   1.730   2.733   2.830 -0.7288 -0.2028  0.2422
 4172SOL    HW124152   1.716   2.762   2.740 -1.9787 -2.4647 -0.2916
 4172SOL    HW224153   1.771   2.646   2.831  0.1532  0.2636  3.2043
 4173SOL     OW24154   4.319   0.330   2.141  0.4947  0.0030  0.4228
 4173SOL    HW124155   4.251   0.356   2.079  0.9902 -0.5264 -0.3472
 4173SOL    HW224156   4.354   0.414   2.173  1.4503  0.2068 -1.1443
 4174SOL     OW24157   0.827   2.964   8.085  0.3456 -0.0407 -0.2720
 4174SOL    HW124158   0.763   2.945   8.154  0.4101  0.3024 -0.1181
 4174SOL    HW224159   0.799   3.052   8.060 -2.0369 -0.5957  0.4110
 4175SOL     OW24160   0.204   1.443   6.913  0.4710 -0.3826  0.5844
 4175SOL    HW124161   0.298   1.444   6.933  0.8412 -0.4918 -1.1727
 4175SOL    HW224162   0.187   1.536   6.931  1.0979 -0.3690  1.1019
 4176SOL     OW24163   0.492   3.761  13.604 -0.1470 -0.1790 -0.1372
 4176SOL    HW124164   0.498   3.759  13.508 -1.6124  1.4736 -0.2676
 4176SOL    HW224165   0.439   3.839  13.619  0.2326 -0.1306  0.9633
 4177SOL     OW24166   3.124   1.680  13.410 -0.3682 -0.3489 -0.5871
 4177SOL    HW124167   3.138   1.593  13.373  1.7507  0.1682 -0.9874
 4177SOL    HW224168   3.214   1.712  13.406  0.6565 -3.0751  1.1512
 4178SOL     OW24169   4.370   4.442  15.662 -0.1327 -0.5982 -0.4097
 4178SOL    HW124170   4.323   4.525  15.665  2.9714  1.1564  0.2913
 4178SOL    HW224171   4.391   4.427  15.570  0.9764 -0.1881 -0.2301
 4179SOL     OW24172   0.166   2.688   6.177 -0.6808  0.3485 -0.2415
 4179SOL    HW124173   0.092   2.744   6.202 -1.0808  0.0731 -0.8191
 4179SOL    HW224174   0.229   2.755   6.150 -2.8686  2.8939  0.8617
 4180SOL     OW24175   0.576   3.447   5.411 -0.0149  0.1199  0.0334
 4180SOL    HW124176   0.630   3.464   5.334  0.9968 -0.5722  0.5928
 4180SOL    HW224177   0.487   3.474   5.390 -0.3485  0.7336  2.2522
 4181SOL     OW24178   0.497   3.390  14.894 -0.0031 -0.3722  0.6011
 4181SOL    HW124179   0.581   3.355  14.863 -0.3508 -2.1805  1.7373
 4181SOL    HW224180   0.471   3.426  14.809  0.4603  0.3846  0.7753
 4182SOL     OW24181   0.659   1.103  16.912 -0.1716  0.5018  0.0594
 4182SOL    HW124182   0.660   1.198  16.921 -1.4076  0.8207 -3.0912
 4182SOL    HW224183   0.603   1.090  16.835  0.4471  2.3070 -0.6923
 4183SOL     OW24184   0.951   1.979  10.021  0.4621  0.0888  0.0017
 4183SOL    HW124185   0.963   1.891   9.987  2.2489 -0.2734  1.5822
 4183SOL    HW224186   0.987   1.973  10.109  0.8648  1.1107 -0.0921
 4184SOL     OW24187   0.248   2.284   6.662  0.4573  0.1003  1.0232
 4184SOL    HW124188   0.182   2.268   6.594  1.7428 -2.1738  0.3041
 4184SOL    HW224189   0.253   2.198   6.703  1.4864  0.0522  0.8064
 4185SOL     OW24190   2.449   1.144   8.591  0.1546  0.2509  0.3013
 4185SOL    HW124191   2.389   1.120   8.662 -1.2134  2.6287 -0.0451
 4185SOL    HW224192   2.412   1.229   8.566 -1.0404 -0.4466 -0.3330
 4186SOL     OW24193   1.700   0.850   2.976 -0.0360  0.6316  0.4833
 4186SOL    HW124194   1.639   0.872   3.047 -0.7617  1.6566 -0.4584
 4186SOL    HW224195   1.704   0.924   2.916 -1.6568  0.7599  0.5210
 4187SOL     OW24196   2.125   0.362   7.713  0.3679  0.6767  0.0721
 4187SOL    HW124197   2.195   0.315   7.668 -1.2325 -0.4792 -1.2212
 4187SOL    HW224198   2.114   0.443   7.664 -0.3938  1.6247  1.7827
 4188SOL     OW24199   2.979   1.401   3.900  0.1106 -0.2211 -0.0962
 4188SOL    HW124200   3.066   1.427   3.870 -0.9512  0.8618 -2.2081
 4188SOL    HW224201   2.986   1.306   3.900  2.4864 -0.0389  0.3889
 4189SOL     OW24202   2.890   2.364   5.952 -0.0401  0.0498  0.3482
 4189SOL    HW124203   2.811   2.333   5.908 -0.4941  0.5725  0.7967
 4189SOL    HW224204   2.898   2.450   5.912 -1.7751  0.4926  0.9705
 4190SOL     OW24205   0.504   0.196   3.774  0.0588 -0.0760  0.0641
 4190SOL    HW124206   0.495   0.144   3.694 -0.0890  1.9227 -1.2144
 4190SOL    HW224207   0.489   0.287   3.748  1.4239 -0.2970 -1.4944
 4191SOL     OW24208   1.944   3.561  12.864 -0.1277  0.2263 -0.1407
 4191SOL    HW124209   2.018   3.507  12.893 -1.4920 -0.6578  1.7308
 4191SOL    HW224210   1.893   3.492  12.821  0.2587  1.0780 -1.9208
 4192SOL     OW24211   4.436   3.241   6.626  0.1719 -0.0037  0.2587
 4192SOL    HW124212   4.385   3.207   6.553 -1.1934  2.5816  0.0345
 4192SOL    HW224213   4.428   3.333   6.603 -0.4333 -0.5006 -1.5267
 4193SOL     OW24214   2.375   4.271  13.630 -1.3657  0.0117  0.1250
 4193SOL    HW124215   2.367   4.204  13.562 -1.5434 -0.2525  0.4056
 4193SOL    HW224216   2.445   4.235  13.684 -1.4302 -2.0510 -1.1857
 4194SOL     OW24217   1.460   1.716   1.483 -0.5953  0.4340  0.1094
 4194SOL    HW124218   1.449   1.804   1.519  1.4953 -0.3684  2.6739
 4194SOL    HW224219   1.386   1.665   1.517 -0.9027 -0.3043 -1.6801
 4195SOL     OW24220   4.256   0.958   6.146 -0.0125  0.1504 -0.4742
 4195SOL    HW124221   4.322   0.899   6.183 -1.8699 -2.2338 -0.9491
 4195SOL    HW224222   4.181   0.905   6.121  1.6964 -2.7060  0.4639
 4196SOL     OW24223   3.019   2.602   1.741  0.6477  1.2028  0.2263
 4196SOL    HW124224   2.965   2.539   1.789 -0.2405  1.7204 -0.0954
 4196SOL    HW224225   3.004   2.583   1.648  0.0946 -3.2400  1.2469
 4197SOL     OW24226   2.148   1.386  12.248 -0.1502  0.2979  0.2051
 4197SOL    HW124227   2.125   1.436  12.326 -3.0697 -0.1947 -0.3320
 4197SOL    HW224228   2.156   1.455  12.182  0.2806 -2.2185 -2.4172
 4198SOL     OW24229   0.120   1.175  16.495 -0.9114 -0.0557 -1.0311
 4198SOL    HW124230   0.076   1.228  16.560  2.1356  0.3815  0.6609
 4198SOL    HW224231   0.061   1.100  16.504 -1.6375  0.4439 -1.5848
 4199SOL     OW24232   4.143   4.206   8.732  0.5218 -0.3044 -0.3151
 4199SOL    HW124233   4.071   4.214   8.670 -0.2619 -1.2064  0.4734
 4199SOL    HW224234   4.166   4.298   8.744 -2.4937  0.4235 -0.0736
 4200SOL     OW24235   1.458   2.893   2.715 -0.3136 -0.4617 -0.1493
 4200SOL    HW124236   1.534   2.899   2.658 -0.3604  0.9224 -0.0599
 4200SOL    HW224237   1.392   2.864   2.652 -0.3069 -1.4161  0.2826
 4201SOL     OW24238   0.702   3.708   4.536 -0.3232  0.0121  0.1749
 4201SOL    HW124239   0.639   3.655   4.485 -1.9573  0.4075  1.7878
 4201SOL    HW224240   0.659   3.716   4.621 -1.1121 -0.8546 -0.1381
 4202SOL     OW24241   0.592   4.223   9.841 -0.0265 -0.4115 -0.2799
 4202SOL    HW124242   0.665   4.262   9.794  0.9061 -1.9738 -0.1337
 4202SOL    HW224243   0.522   4.287   9.827  1.2092  0.7092 -1.2782
 4203SOL     OW24244   1.476   1.302   2.275  0.2415  0.7130  0.4565
 4203SOL    HW124245   1.541   1.316   2.344  0.8009 -1.3043  0.3449
 4203SOL    HW224246   1.460   1.210   2.258  0.9220  0.5402  0.7569
 4204SOL     OW24247   1.491   0.116   9.103  0.5138  0.1741 -0.6049
 4204SOL    HW124248   1.489   0.151   9.014 -0.0408  0.6433 -0.4036
 4204SOL    HW224249   1.400   0.114   9.131  0.6064 -0.4647 -0.3546
 4205SOL     OW24250   2.375   2.004   7.961 -0.1486  0.0708 -0.2637
 4205SOL    HW124251   2.343   2.022   7.872  0.9024  1.6392 -0.3155
 4205SOL    HW224252   2.460   1.964   7.940 -0.7236 -0.3774 -1.7545
 4206SOL     OW24253   2.974   0.720  13.863 -0.2053 -0.3650 -0.4576
 4206SOL    HW124254   2.986   0.797  13.918 -1.8215 -0.4110 -0.0520
 4206SOL    HW224255   2.996   0.760  13.778 -0.0751 -1.2838 -0.8578
 4207SOL     OW24256   4.147   3.914   4.575 -0.3122 -0.1550  0.3773
 4207SOL    HW124257   4.243   3.915   4.576 -0.3194 -2.3521  1.5972
 4207SOL    HW224258   4.134   3.935   4.667  1.1629  1.2924  0.2541
 4208SOL     OW24259   1.082   0.667  16.683  0.0125  0.4608 -0.3519
 4208SOL    HW124260   1.106   0.634  16.597 -3.0047 -0.6507 -0.7449
 4208SOL    HW224261   1.152   0.624  16.733 -0.4882 -0.3629 -0.3775
 4209SOL     OW24262   2.650   2.299   5.787 -0.5658  0.2906  0.2454
 4209SOL    HW124263   2.579   2.311   5.725  1.3693 -0.1195 -2.0472
 4209SOL    HW224264   2.715   2.247   5.738  0.1500  1.0032  0.4392
 4210SOL     OW24265   0.984   1.453   1.795 -0.4424  0.2084  0.3569
 4210SOL    HW124266   0.975   1.516   1.723  0.3447 -1.6254 -1.3559
 4210SOL    HW224267   0.892   1.443   1.818 -0.3569 -0.6246  0.3446
 4211SOL     OW24268   1.181   0.188  14.499 -0.0776  0.4936  0.2689
 4211SOL    HW124269   1.099   0.147  14.470 -0.3050  1.9821 -1.2171
 4211SOL    HW224270   1.157   0.280  14.489 -0.9902  0.3819  1.4653
 4212SOL     OW24271   2.410   3.616   3.169  0.2532  0.2043 -0.3760
 4212SOL    HW124272   2.351   3.564   3.223  1.4604  0.0084  0.7473
 4212SOL    HW224273   2.465   3.556   3.118 -0.5198 -1.2198  0.4888
 4213SOL     OW24274   4.014   4.125   4.371 -0.0289 -0.1707 -0.4530
 4213SOL    HW124275   4.011   4.036   4.406  1.6507 -0.4813 -1.1432
 4213SOL    HW224276   4.103   4.153   4.390  0.1939 -0.9150 -0.3960
 4214SOL     OW24277   1.910   4.194   5.616 -0.1328 -0.5262  0.2047
 4214SOL    HW124278   1.936   4.252   5.688  0.8732 -0.7856  0.0491
 4214SOL    HW224279   1.989   4.184   5.564 -0.6012 -0.0466 -0.6027
 4215SOL     OW24280   2.811   1.301   6.406  0.3990  0.2668  0.7542
 4215SOL    HW124281   2.765   1.379   6.438  0.2384  1.3500 -2.1153
 4215SOL    HW224282   2.888   1.294   6.462  0.0336 -0.1726  1.2071
 4216SOL     OW24283   1.903   3.789  12.717  0.5922  0.3292 -0.3217
 4216SOL    HW124284   1.934   3.739  12.793  1.8654 -0.7878 -1.5622
 4216SOL    HW224285   1.820   3.748  12.696  0.6884 -0.6648  1.2027
 4217SOL     OW24286   1.826   3.743   0.390 -0.2380 -0.2143  0.5366
 4217SOL    HW124287   1.758   3.709   0.331  0.4173  1.6685 -1.3161
 4217SOL    HW224288   1.788   3.827   0.414 -1.6693 -0.8757  0.6059
 4218SOL     OW24289   1.228   0.008   8.967 -0.2162  0.0487 -0.1458
 4218SOL    HW124290   1.202   4.687   9.037 -1.0490  0.7331  0.1289
 4218SOL    HW224291   1.247   4.682   8.900  0.4190  0.0969 -0.0097
 4219SOL     OW24292   1.662   3.335   4.569 -0.0063  0.3147 -0.0618
 4219SOL    HW124293   1.709   3.381   4.500  1.0413 -0.2375  0.2816
 4219SOL    HW224294   1.733   3.319   4.632 -1.0095  0.9697  1.2533
 4220SOL     OW24295   1.012   4.613  15.483  0.4747  0.0755  0.4855
 4220SOL    HW124296   1.005   4.615  15.578  0.5455 -0.5554  0.5015
 4220SOL    HW224297   1.073   4.540  15.471  1.2254  0.6276  0.9025
 4221SOL     OW24298   2.168   0.335   2.193  0.6603  0.4061 -0.3126
 4221SOL    HW124299   2.078   0.310   2.214  0.4176  2.1186  0.6579
 4221SOL    HW224300   2.213   0.250   2.188 -0.6996 -0.2734 -1.1368
 4222SOL     OW24301   4.408   1.129   4.870  0.0704  0.2310  0.2736
 4222SOL    HW124302   4.451   1.188   4.931  0.0559 -1.0994  1.5716
 4222SOL    HW224303   4.394   1.186   4.794 -0.0023  0.7503  0.6753
 4223SOL     OW24304   1.427   3.921  16.874 -0.8472 -0.4502 -0.2706
 4223SOL    HW124305   1.372   3.892  16.947  0.5674  0.5654  1.2081
 4223SOL    HW224306   1.409   4.015  16.879 -0.9384 -0.4015 -1.4159
 4224SOL     OW24307   0.109   2.615   7.057  0.3688  0.0727 -0.3111
 4224SOL    HW124308   0.014   2.603   7.061  0.1723  2.0186  1.1221
 4224SOL    HW224309   0.147   2.570   6.982  1.4456  0.7789 -0.1976
 4225SOL     OW24310   3.049   0.282   1.771 -0.1867  0.3039 -0.2490
 4225SOL    HW124311   3.007   0.346   1.827 -0.4862  1.1437 -1.4236
 4225SOL    HW224312   3.044   0.336   1.692 -0.4380 -1.5521 -1.5020
 4226SOL     OW24313   1.918   4.628  13.725  0.2386  0.3721  0.5536
 4226SOL    HW124314   1.904   4.573  13.648 -2.5210  2.1496 -0.2143
 4226SOL    HW224315   2.013   4.638  13.725  0.4372 -1.5481  1.5794
 4227SOL     OW24316   3.248   2.494   3.591 -0.1577 -0.0965 -0.5172
 4227SOL    HW124317   3.335   2.464   3.567 -0.3236 -0.8599 -0.1622
 4227SOL    HW224318   3.194   2.420   3.621  2.2006 -0.8001  1.9331
 4228SOL     OW24319   4.456   4.412   4.869  0.0805 -0.7035 -0.1692
 4228SOL    HW124320   4.479   4.494   4.826  0.0332  0.4016  1.9248
 4228SOL    HW224321   4.506   4.415   4.951 -0.9389  2.3255  0.3527
 4229SOL     OW24322   0.305   1.217  17.040 -0.1012  0.4392  0.3522
 4229SOL    HW124323   0.274   1.189  16.953  0.3950  0.5414  0.1429
 4229SOL    HW224324   0.303   1.311  17.026 -1.1121  0.5459  1.1848
 4230SOL     OW24325   2.888   3.743   3.103  0.0558 -0.6265 -0.2453
 4230SOL    HW124326   2.803   3.759   3.060 -0.0732  0.3187  0.3741
 4230SOL    HW224327   2.868   3.677   3.169  1.3730  0.5253  1.3009
 4231SOL     OW24328   2.934   2.354   5.272  0.5430 -0.0505 -0.0568
 4231SOL    HW124329   2.842   2.343   5.294  0.3931  2.8678  0.8205
 4231SOL    HW224330   2.964   2.398   5.352 -3.0229  0.8040  0.8195
 4232SOL     OW24331   4.643   1.944   1.153 -0.1236  0.1128 -0.4769
 4232SOL    HW124332   4.718   1.971   1.100  0.6587 -2.2546 -0.5738
 4232SOL    HW224333   4.686   1.897   1.225 -2.4216 -1.5095 -0.1620
 4233SOL     OW24334   0.997   3.255   7.371 -0.0096  0.2534  0.1122
 4233SOL    HW124335   1.021   3.168   7.403 -0.0297  0.1689 -0.0976
 4233SOL    HW224336   1.022   3.256   7.279  1.3020 -1.4791  0.4326
 4234SOL     OW24337   0.531   4.550   6.752 -0.3947  0.3928  0.0277
 4234SOL    HW124338   0.508   4.474   6.805  0.9651 -0.5720 -0.7479
 4234SOL    HW224339   0.574   4.506   6.678 -0.0007  1.7682 -0.5613
 4235SOL     OW24340   0.694   1.674  10.615  0.2234 -0.6500 -0.1562
 4235SOL    HW124341   0.766   1.648  10.673  0.1029 -0.2669  0.1649
 4235SOL    HW224342   0.731   1.753  10.576 -1.0327 -0.2806 -0.6164
 4236SOL     OW24343   3.035   4.637   9.955 -0.1030 -0.2801 -0.2108
 4236SOL    HW124344   2.942   4.627   9.937 -0.8135  1.1257  2.7920
 4236SOL    HW224345   3.057   4.725   9.927  3.3646 -0.8687  0.6752
 4237SOL     OW24346   2.390   0.900   0.632  0.1972  0.2174  0.1903
 4237SOL    HW124347   2.325   0.903   0.702 -1.7680 -1.8691 -1.5354
 4237SOL    HW224348   2.471   0.924   0.678  0.8930 -0.1548 -0.8397
 4238SOL     OW24349   3.539   2.461   3.564 -0.0890  0.6734 -0.2029
 4238SOL    HW124350   3.541   2.366   3.561 -2.0733  0.6663 -1.8234
 4238SOL    HW224351   3.604   2.474   3.495  0.6935 -0.1468  0.3890
 4239SOL     OW24352   3.717   3.979  15.176  0.3206  0.4029 -0.4036
 4239SOL    HW124353   3.725   4.020  15.262 -0.4944  0.8226 -0.5343
 4239SOL    HW224354   3.757   3.893  15.193 -1.5745 -0.4498 -0.3001
 4240SOL     OW24355   3.130   1.043   4.337 -0.2099  0.4313 -0.0129
 4240SOL    HW124356   3.060   1.100   4.305 -2.0601 -1.1729  1.1340
 4240SOL    HW224357   3.134   0.989   4.258  0.0297  2.1623 -1.1871
 4241SOL     OW24358   3.879   3.867   3.023  0.1432  0.1657 -0.3699
 4241SOL    HW124359   3.959   3.857   2.972 -0.2668 -3.4980 -0.2438
 4241SOL    HW224360   3.828   3.920   2.962 -0.3661 -1.5639 -1.4244
 4242SOL     OW24361   4.454   0.800  16.626 -0.0153 -0.1581  0.2854
 4242SOL    HW124362   4.391   0.828  16.691  1.0974 -2.4176  2.3418
 4242SOL    HW224363   4.518   0.744  16.669 -0.1949 -0.9736 -0.4988
 4243SOL     OW24364   1.214   3.673   7.175 -0.6410 -0.4236  0.3776
 4243SOL    HW124365   1.202   3.588   7.134 -0.6897 -0.1722 -0.1241
 4243SOL    HW224366   1.269   3.723   7.114 -0.6611 -0.6982  0.1352
 4244SOL     OW24367   1.556   2.674   7.964 -0.8572 -0.1253 -0.6944
 4244SOL    HW124368   1.468   2.697   7.994 -0.7159  0.2202 -0.5391
 4244SOL    HW224369   1.568   2.725   7.884  1.7282  2.6116  1.4228
 4245SOL     OW24370   3.326   3.746   4.236 -0.2473 -0.2123  0.3892
 4245SOL    HW124371   3.380   3.739   4.315 -0.8027  0.5972  0.8453
 4245SOL    HW224372   3.317   3.653   4.218 -1.3277 -0.1292  0.5231
 4246SOL     OW24373   0.017   0.134   3.552 -0.0246  0.3480  0.5361
 4246SOL    HW124374   0.008   0.044   3.522  0.8848  0.3359  0.2975
 4246SOL    HW224375   4.665   0.162   3.551  0.0647  0.6532  1.0602
 4247SOL     OW24376   3.156   4.712  10.435 -0.0627 -0.4173 -0.2353
 4247SOL    HW124377   3.142   0.066  10.452 -0.5020 -0.4758 -0.2820
 4247SOL    HW224378   3.121   4.704  10.346 -0.7358  2.6953 -0.2512
 4248SOL     OW24379   4.669   2.260   1.871  0.5790  0.1962 -0.6052
 4248SOL    HW124380   4.651   2.252   1.777  0.6108  2.3572 -0.8014
 4248SOL    HW224381   4.628   2.181   1.905 -0.1764  1.0218  0.3998
 4249SOL     OW24382   3.529   0.577   9.163 -0.1138 -0.6624  0.2259
 4249SOL    HW124383   3.437   0.603   9.160 -0.0730 -0.5621 -0.0852
 4249SOL    HW224384   3.524   0.483   9.179 -3.2547 -0.1720  2.0918
 4250SOL     OW24385   1.353   2.226   3.830 -0.8165  0.1359  0.1585
 4250SOL    HW124386   1.441   2.242   3.862 -0.9036  1.6042 -0.3403
 4250SOL    HW224387   1.353   2.145   3.778 -0.3074 -0.8787  1.7380
 4251SOL     OW24388   2.875   4.524   2.350 -0.2277  0.1437 -0.5539
 4251SOL    HW124389   2.819   4.601   2.364  0.5572  0.5945  0.0858
 4251SOL    HW224390   2.820   4.452   2.379  1.3195 -0.2963  1.3208
 4252SOL     OW24391   0.320   2.837  14.496  0.1269  0.1240  0.5728
 4252SOL    HW124392   0.224   2.827  14.496  0.3147 -1.6275  0.4854
 4252SOL    HW224393   0.335   2.910  14.436  0.8555 -0.7266 -0.2819
 4253SOL     OW24394   0.749   1.744  10.171  0.0772 -0.3225 -0.2441
 4253SOL    HW124395   0.841   1.726  10.151 -0.2217 -0.1677 -1.7756
 4253SOL    HW224396   0.707   1.683  10.110 -1.2365 -1.1200  1.4572
 4254SOL     OW24397   3.052   4.054   7.617  0.1356 -0.0915  0.0855
 4254SOL    HW124398   2.968   4.079   7.656  1.1203  0.7015  1.7001
 4254SOL    HW224399   3.110   4.131   7.618  0.9316 -0.6612 -2.0754
 4255SOL     OW24400   4.312   4.433   1.636  0.8931  0.2553 -0.3818
 4255SOL    HW124401   4.367   4.388   1.700  0.2582  0.7600  0.5082
 4255SOL    HW224402   4.255   4.477   1.698 -1.2069 -0.6513 -1.6677
 4256SOL     OW24403   2.215   3.035   8.694  0.0449 -0.0243  0.1689
 4256SOL    HW124404   2.194   3.106   8.633 -2.5510 -2.3216 -1.6052
 4256SOL    HW224405   2.177   3.074   8.773 -2.0596 -1.1325 -0.3168
 4257SOL     OW24406   0.822   4.116   2.522 -0.5084  0.1056  0.1779
 4257SOL    HW124407   0.890   4.148   2.462  0.4419 -2.3100 -0.0423
 4257SOL    HW224408   0.864   4.115   2.608  0.3245 -1.5026 -0.2343
 4258SOL     OW24409   2.317   1.334   5.632 -0.1879 -0.0379 -1.1373
 4258SOL    HW124410   2.290   1.401   5.694 -0.1158  0.3831 -1.5587
 4258SOL    HW224411   2.313   1.382   5.549 -1.3582  1.8224  0.0066
 4259SOL     OW24412   0.068   2.649  14.979 -0.5478 -0.1779  0.3886
 4259SOL    HW124413   4.733   2.589  14.982 -0.2776 -0.5827 -1.0330
 4259SOL    HW224414   0.066   2.680  14.888 -2.0221 -4.0350 -0.8949
 4260SOL     OW24415   2.295   4.039   7.573  0.5561 -0.0675 -0.9927
 4260SOL    HW124416   2.251   4.068   7.653  0.0879 -0.2265 -1.1929
 4260SOL    HW224417   2.367   3.987   7.608 -1.0939 -0.6275  1.5821
 4261SOL     OW24418   2.534   4.463   2.052  1.0436  0.7322  0.0592
 4261SOL    HW124419   2.537   4.472   2.147 -0.8441  0.5136  0.1437
 4261SOL    HW224420   2.567   4.373   2.046  0.1647  0.2982  1.5387
 4262SOL     OW24421   1.997   3.664   7.510 -0.7698  0.2159 -0.2219
 4262SOL    HW124422   1.937   3.673   7.584  0.9321 -0.6423  1.2522
 4262SOL    HW224423   2.082   3.691   7.546  0.4954 -1.2335 -2.1276
 4263SOL     OW24424   0.045   0.105   9.261 -0.3392  0.2829 -0.2649
 4263SOL    HW124425   4.694   0.075   9.267  0.3725 -1.4967  1.6382
 4263SOL    HW224426   0.072   0.128   9.350  3.3749 -0.0145 -1.3153
 4264SOL     OW24427   3.407   2.374   8.696  0.0888 -0.4680  0.3635
 4264SOL    HW124428   3.491   2.399   8.657 -1.1563 -1.5084 -2.9239
 4264SOL    HW224429   3.404   2.434   8.771  2.3261  1.2922 -0.9612
 4265SOL     OW24430   2.008   3.976   0.532  0.2767 -0.7541  0.1056
 4265SOL    HW124431   2.025   3.884   0.549  1.3113 -0.6295 -0.2758
 4265SOL    HW224432   1.937   3.963   0.470 -1.1298  2.8293  0.9708
 4266SOL     OW24433   4.587   3.458   4.574 -0.0576  0.7401  0.0721
 4266SOL    HW124434   4.605   3.502   4.657  1.5751  0.1917 -0.0006
 4266SOL    HW224435   4.522   3.519   4.537 -1.8742 -0.1316  1.8438
 4267SOL     OW24436   0.317   2.633  17.520 -0.1464 -0.2003 -0.0090
 4267SOL    HW124437   0.345   2.665  17.434  1.3416 -1.7708 -0.1160
 4267SOL    HW224438   0.308   2.540  17.500 -0.1801  0.0717 -1.3117
 4268SOL     OW24439   0.940   4.593   1.936 -0.3925 -0.2966 -0.1623
 4268SOL    HW124440   0.924   4.653   1.862 -0.2003 -0.5382 -0.4001
 4268SOL    HW224441   0.958   4.646   2.014  0.8806  1.4718 -1.6467
 4269SOL     OW24442   2.067   2.080   2.590  0.2861  0.3050  0.0300
 4269SOL    HW124443   1.984   2.087   2.543  1.2733  0.5941 -1.6631
 4269SOL    HW224444   2.058   1.996   2.634 -0.2483 -0.7087 -2.0263
 4270SOL     OW24445   3.116   2.676  11.399  0.4993 -0.4559  0.2270
 4270SOL    HW124446   3.164   2.615  11.343  0.3540 -1.4501  1.1914
 4270SOL    HW224447   3.050   2.628  11.448  1.4142  0.8061  2.6933
 4271SOL     OW24448   0.435   3.753  11.068 -0.2170  0.5401  0.3883
 4271SOL    HW124449   0.492   3.706  11.008  1.0817  2.1118  0.4044
 4271SOL    HW224450   0.472   3.838  11.046 -0.7489  0.5692 -0.3787
 4272SOL     OW24451   1.293   4.421   4.835 -0.2042  0.1777  0.0336
 4272SOL    HW124452   1.288   4.505   4.791  2.1261  0.8643  1.0716
 4272SOL    HW224453   1.387   4.413   4.855  0.0551  0.3243 -1.1496
 4273SOL     OW24454   0.346   1.448   1.010 -0.0953 -0.3926 -0.4607
 4273SOL    HW124455   0.384   1.535   1.021 -1.1821 -0.2517  2.0324
 4273SOL    HW224456   0.423   1.405   1.048 -1.2791 -0.2062  2.1269
 4274SOL     OW24457   2.036   1.688   7.096  0.3940 -0.4357 -0.1392
 4274SOL    HW124458   1.941   1.684   7.079  0.0206 -1.3592  2.1678
 4274SOL    HW224459   2.066   1.731   7.017  1.5256 -2.1417 -0.6370
 4275SOL     OW24460   3.931   3.715   2.438  0.7667  0.1539 -0.2024
 4275SOL    HW124461   3.985   3.748   2.509  1.8049  3.4960 -2.5579
 4275SOL    HW224462   3.974   3.743   2.357 -2.9657  0.5047 -2.0265
 4276SOL     OW24463   2.391   3.540   8.790 -0.2247  0.0268 -0.2158
 4276SOL    HW124464   2.447   3.517   8.864 -1.6519  0.7907  1.1033
 4276SOL    HW224465   2.415   3.477   8.722  1.3870 -1.6602  1.9014
 4277SOL     OW24466   2.080   2.435   4.706 -0.0924 -0.1265 -0.2424
 4277SOL    HW124467   2.144   2.484   4.758  0.7405 -0.5836 -0.8309
 4277SOL    HW224468   2.135   2.420   4.629 -2.2330  3.2326 -2.3926
 4278SOL     OW24469   2.676   4.072   5.996 -0.2925 -0.7189  0.7320
 4278SOL    HW124470   2.740   4.002   6.000  2.1675  1.4503 -0.2591
 4278SOL    HW224471   2.593   4.035   5.967 -1.5182  1.3321  1.5905
 4279SOL     OW24472   4.150   3.161   1.929  0.6058  1.0020  0.1358
 4279SOL    HW124473   4.150   3.250   1.894 -3.2260  1.3009  0.8074
 4279SOL    HW224474   4.244   3.148   1.933  0.1677 -2.2879  0.1938
 4280SOL     OW24475   4.222   2.889   4.444 -0.6664 -0.1493 -0.3438
 4280SOL    HW124476   4.198   2.976   4.476 -0.5611 -0.4317  0.5208
 4280SOL    HW224477   4.144   2.837   4.427 -0.9164  0.9988 -2.6960
 4281SOL     OW24478   0.445   4.101   6.979  0.5731  0.6148 -0.7265
 4281SOL    HW124479   0.457   4.008   6.996  1.1855  0.4345 -2.1532
 4281SOL    HW224480   0.393   4.099   6.899  0.5667  3.0179 -0.7715
 4282SOL     OW24481   4.391   1.930   1.263 -0.4848  0.0212 -0.2385
 4282SOL    HW124482   4.441   1.911   1.183  0.3603 -0.9821  0.5209
 4282SOL    HW224483   4.366   2.021   1.247 -0.6945 -0.0696 -0.4275
 4283SOL     OW24484   2.751   1.338   4.431  0.3667 -0.1267  0.3112
 4283SOL    HW124485   2.749   1.328   4.527  1.6336  0.7252  0.4411
 4283SOL    HW224486   2.763   1.432   4.421  0.0866 -0.4164 -2.6499
 4284SOL     OW24487   0.176   1.887   3.855 -0.2944 -0.0314 -0.1850
 4284SOL    HW124488   0.198   1.896   3.762 -2.8946  1.4390 -0.6620
 4284SOL    HW224489   0.254   1.915   3.902 -1.3319 -0.3013  1.7097
 4285SOL     OW24490   3.304   0.185   2.870 -0.5830 -0.1395 -0.2340
 4285SOL    HW124491   3.210   0.195   2.887 -0.6758  0.4072 -1.0516
 4285SOL    HW224492   3.311   0.133   2.790 -0.0670  1.8296 -1.4554
 4286SOL     OW24493   0.876   2.797   1.318 -0.7737 -0.0679  0.0184
 4286SOL    HW124494   0.803   2.775   1.375 -0.1721 -1.4354  0.2632
 4286SOL    HW224495   0.929   2.719   1.339 -1.1642 -0.4056 -0.2472
 4287SOL     OW24496   2.562   1.150   2.479  0.1642  0.0183  0.3546
 4287SOL    HW124497   2.541   1.065   2.516  0.1345 -0.1953 -0.1649
 4287SOL    HW224498   2.655   1.149   2.504  0.4216  0.2606 -0.5868
 4288SOL     OW24499   3.108   1.315   6.522  0.5899 -0.0095 -0.4271
 4288SOL    HW124500   3.184   1.285   6.472  1.3041  0.0860  0.5994
 4288SOL    HW224501   3.111   1.239   6.581 -0.2402 -0.2539 -0.6870
 4289SOL     OW24502   2.166   2.416   5.793  0.3652 -0.4042 -0.3324
 4289SOL    HW124503   2.232   2.461   5.740  1.5488 -1.6583  0.0689
 4289SOL    HW224504   2.130   2.350   5.733 -1.0980 -0.0250  0.1219
 4290SOL     OW24505   1.122   2.666  10.045  0.2025  0.0979 -0.1758
 4290SOL    HW124506   1.099   2.600  10.111 -1.3439  1.5099  0.7130
 4290SOL    HW224507   1.038   2.702  10.016  0.2368  1.2240  1.1183
 4291SOL     OW24508   0.358   2.887   5.609 -0.0273  0.1211  0.0170
 4291SOL    HW124509   0.436   2.832   5.612  0.6225  1.0038 -1.1150
 4291SOL    HW224510   0.395   2.971   5.636 -0.6656 -0.1443  1.7260
 4292SOL     OW24511   4.259   1.511  12.852 -0.3131  0.1637 -0.0630
 4292SOL    HW124512   4.216   1.425  12.853 -0.4671  0.2389 -0.2755
 4292SOL    HW224513   4.286   1.522  12.943  1.5594 -0.1876 -0.5805
 4293SOL     OW24514   3.059   1.376   5.450  0.5361  0.0171  0.4188
 4293SOL    HW124515   3.042   1.295   5.401  2.7845 -0.4792  0.4456
 4293SOL    HW224516   3.035   1.349   5.539 -0.4642 -1.8860 -0.4105
 4294SOL     OW24517   2.062   1.309   4.392  0.1609  0.3276 -0.2618
 4294SOL    HW124518   1.977   1.350   4.409  0.2027 -0.3711  1.7045
 4294SOL    HW224519   2.042   1.224   4.431 -1.0471  0.4756 -0.5559
 4295SOL     OW24520   0.316   4.304   3.486 -0.0153  0.0946  0.1757
 4295SOL    HW124521   0.264   4.262   3.554 -2.4347 -0.1429 -1.8095
 4295SOL    HW224522   0.405   4.307   3.522  0.5846 -0.2727 -1.2822
 4296SOL     OW24523   3.399   1.946  13.249  0.2782  0.7443  0.2072
 4296SOL    HW124524   3.395   1.895  13.330  1.1946 -0.1390 -0.3199
 4296SOL    HW224525   3.478   1.910  13.210  0.8910  2.6868 -0.3507
 4297SOL     OW24526   0.983   2.672   3.691 -0.1017 -0.0017 -0.1683
 4297SOL    HW124527   1.077   2.686   3.700  0.0865 -3.0769  2.4209
 4297SOL    HW224528   0.966   2.714   3.607 -0.0456 -2.4868 -1.4044
 4298SOL     OW24529   1.157   3.091   5.770  0.1205 -1.0349 -0.0858
 4298SOL    HW124530   1.188   3.182   5.774 -1.5467 -0.3632 -2.2267
 4298SOL    HW224531   1.178   3.075   5.678 -0.3861 -0.3478 -0.3259
 4299SOL     OW24532   4.501   1.518   5.608 -0.0905 -0.0132  0.5933
 4299SOL    HW124533   4.549   1.591   5.648 -2.9444  2.1233  0.1541
 4299SOL    HW224534   4.570   1.453   5.593  0.7636  0.6938  1.4306
 4300SOL     OW24535   4.599   0.168   7.445  0.1817  0.2421  0.0260
 4300SOL    HW124536   4.527   0.132   7.497 -0.5751  1.1589 -0.3938
 4300SOL    HW224537   4.672   0.109   7.468  0.7887  1.4013  1.1128
 4301SOL     OW24538   2.016   3.646  11.896  0.2823  0.2227 -0.2213
 4301SOL    HW124539   2.080   3.585  11.932 -2.4922 -1.8550  1.1501
 4301SOL    HW224540   2.062   3.730  11.902 -0.8841  0.8505 -0.1546
 4302SOL     OW24541   4.563   1.068  15.732 -0.1733 -0.1757  0.2199
 4302SOL    HW124542   4.588   1.085  15.823 -0.5843  0.5573  0.1931
 4302SOL    HW224543   4.559   1.155  15.691  1.9394  0.3955  1.2083
 4303SOL     OW24544   3.742   2.985   5.116 -0.1413 -0.2418  0.2105
 4303SOL    HW124545   3.816   3.013   5.063 -1.4502  2.6673 -0.1362
 4303SOL    HW224546   3.673   3.040   5.077 -0.5427 -1.3043 -0.5678
 4304SOL     OW24547   2.759   0.650   5.515 -0.5439 -0.8040 -0.4372
 4304SOL    HW124548   2.679   0.669   5.465 -2.0178 -2.0731  1.4773
 4304SOL    HW224549   2.812   0.604   5.451 -2.7507 -2.4295 -1.1087
 4305SOL     OW24550   1.731   4.467  10.962 -0.4015  0.0046  0.6072
 4305SOL    HW124551   1.759   4.496  10.875  1.1105  0.0913  1.1399
 4305SOL    HW224552   1.709   4.375  10.950 -0.9677 -0.1433  2.8057
 4306SOL     OW24553   2.402   2.488  16.079  0.1206 -0.0046 -0.2713
 4306SOL    HW124554   2.392   2.443  15.995  1.3571 -1.0062  0.1397
 4306SOL    HW224555   2.496   2.507  16.073  0.0205 -0.2086 -2.4145
 4307SOL     OW24556   0.195   4.008  10.917 -0.0675 -0.1259 -0.2991
 4307SOL    HW124557   0.213   4.099  10.894  1.8105 -0.1653  1.0783
 4307SOL    HW224558   0.234   4.015  11.004  1.1364  1.3073 -0.9656
 4308SOL     OW24559   3.513   0.961   9.545 -0.4427  0.1172  0.3882
 4308SOL    HW124560   3.588   0.907   9.572 -1.0963 -0.6309  0.7282
 4308SOL    HW224561   3.495   1.012   9.624 -0.2016  1.5375 -0.4685
 4309SOL     OW24562   3.098   2.083   3.409  0.0472  0.6293 -0.4270
 4309SOL    HW124563   3.071   1.993   3.423 -0.3321  0.6387 -1.1254
 4309SOL    HW224564   3.192   2.080   3.424 -0.0442 -1.4592 -0.2635
 4310SOL     OW24565   4.614   3.238   9.605  0.1451 -0.2282  0.5924
 4310SOL    HW124566   4.629   3.303   9.674  0.6231 -1.0252  1.2424
 4310SOL    HW224567   4.602   3.296   9.530  0.0195 -1.2575 -0.1942
 4311SOL     OW24568   2.388   1.390   6.577  0.2123  0.3509 -0.2795
 4311SOL    HW124569   2.374   1.471   6.626  1.9705  0.6788 -0.3124
 4311SOL    HW224570   2.448   1.345   6.637 -1.1190 -0.5693  0.3558
 4312SOL     OW24571   2.168   3.972   3.837  0.3044 -0.6495  0.1657
 4312SOL    HW124572   2.175   3.933   3.924  0.5155 -2.0277 -0.4586
 4312SOL    HW224573   2.257   3.973   3.800 -0.0423  2.9378 -0.6197
 4313SOL     OW24574   1.873   3.685   1.903 -0.4357  0.4604 -0.5077
 4313SOL    HW124575   1.815   3.748   1.943 -1.7626 -2.4770  2.2267
 4313SOL    HW224576   1.953   3.705   1.952 -1.6345  1.9687  0.8191
 4314SOL     OW24577   2.345   2.075   6.965 -0.2861  0.3722 -0.7898
 4314SOL    HW124578   2.412   2.043   6.905  0.0849 -1.2867  0.5083
 4314SOL    HW224579   2.349   2.170   6.963  1.5597  0.3616  1.5999
 4315SOL     OW24580   0.035   2.465   3.422 -0.3419  0.4340 -0.0216
 4315SOL    HW124581   4.700   2.525   3.432 -0.7858 -0.2026  0.5228
 4315SOL    HW224582   0.064   2.452   3.513  1.7584  1.1506 -0.5872
 4316SOL     OW24583   3.804   1.001   7.044  0.4722 -0.1246 -0.0651
 4316SOL    HW124584   3.735   1.065   7.028  0.1629 -0.6028 -0.6856
 4316SOL    HW224585   3.800   0.952   6.961  1.4481 -0.2765 -0.0194
 4317SOL     OW24586   2.289   2.077   7.694 -0.5665  0.0522 -0.1674
 4317SOL    HW124587   2.367   2.033   7.658 -0.2299 -0.1204  0.7607
 4317SOL    HW224588   2.249   2.099   7.610 -1.4083  0.9199  0.4720
 4318SOL     OW24589   1.797   1.165   3.265 -0.0266 -0.3853 -0.1888
 4318SOL    HW124590   1.893   1.168   3.263 -0.0285  0.4026  0.9422
 4318SOL    HW224591   1.784   1.213   3.347 -0.4227  1.2017 -1.2016
 4319SOL     OW24592   1.400   0.620   6.808 -0.0261  0.7238 -0.2008
 4319SOL    HW124593   1.431   0.547   6.861 -0.5484 -0.2710 -1.2497
 4319SOL    HW224594   1.350   0.566   6.747  0.6183  0.2976 -0.3522
 4320SOL     OW24595   1.580   0.572   5.344  0.6957  0.1368  0.3436
 4320SOL    HW124596   1.647   0.579   5.411  1.0293 -1.4065  0.1690
 4320SOL    HW224597   1.538   0.489   5.366 -1.7097  0.6650 -2.1154
 4321SOL     OW24598   0.013   3.638   6.347 -0.4087  0.2335 -0.3821
 4321SOL    HW124599   0.045   3.680   6.267  0.8578 -0.3588 -0.1773
 4321SOL    HW224600   0.041   3.553   6.315 -0.0394  0.1595  0.1470
 4322SOL     OW24601   0.827   0.441   5.420  0.0405  0.1821 -0.1369
 4322SOL    HW124602   0.736   0.451   5.447 -0.1360 -0.9376 -0.3293
 4322SOL    HW224603   0.826   0.417   5.328 -0.3515  0.8147 -0.2922
 4323SOL     OW24604   1.632   4.493   8.150  0.1070 -0.1230  0.1100
 4323SOL    HW124605   1.718   4.507   8.188 -0.4392 -0.5629  1.5128
 4323SOL    HW224606   1.628   4.558   8.081 -0.7396  1.3207  1.5001
 4324SOL     OW24607   4.678   4.557   0.801 -0.1835  0.1161  0.0795
 4324SOL    HW124608   4.583   4.563   0.808 -0.2352  0.0122 -0.5698
 4324SOL    HW224609   4.714   4.560   0.890 -1.0442  1.8988  0.3647
 4325SOL     OW24610   0.303   1.799   2.953 -0.1332  0.5853 -0.4666
 4325SOL    HW124611   0.315   1.787   2.859  3.0606 -1.2907  0.1697
 4325SOL    HW224612   0.383   1.837   2.989  0.1378 -1.0304  0.6578
 4326SOL     OW24613   3.171   2.274  10.815 -0.5620 -0.2645  0.3176
 4326SOL    HW124614   3.076   2.277  10.805 -0.4370  1.5297 -0.3643
 4326SOL    HW224615   3.191   2.214  10.743  0.6644 -1.1831  1.4313
 4327SOL     OW24616   3.973   2.331  10.225  0.0654 -0.4289 -0.2376
 4327SOL    HW124617   3.890   2.374  10.242 -1.1853 -1.5092 -3.5597
 4327SOL    HW224618   4.006   2.345  10.313  2.7640  0.7894 -1.4408
 4328SOL     OW24619   1.370   1.165   8.816 -0.9138  0.0868  0.3912
 4328SOL    HW124620   1.302   1.111   8.856 -0.1958 -1.2393 -0.1958
 4328SOL    HW224621   1.444   1.168   8.876 -1.0384 -1.6853  0.6163
 4329SOL     OW24622   4.453   0.276   8.953  0.9801 -0.1145  0.9163
 4329SOL    HW124623   4.483   0.193   8.915 -4.0044 -1.7787  0.6005
 4329SOL    HW224624   4.365   0.253   8.983  0.3036  0.9339 -0.2680
 4330SOL     OW24625   4.321   4.413  12.043  0.1946 -0.0370 -0.0123
 4330SOL    HW124626   4.361   4.332  12.074 -0.5364  0.6904  2.8448
 4330SOL    HW224627   4.240   4.384  12.001 -0.8568  1.5325  0.9195
 4331SOL     OW24628   3.961   0.206   5.198  0.0384 -0.0113  0.3056
 4331SOL    HW124629   4.051   0.188   5.223  0.0505  0.2300  0.4383
 4331SOL    HW224630   3.933   0.262   5.271 -2.2072 -0.2092 -0.3865
 4332SOL     OW24631   0.564   3.836  12.987 -0.5540 -0.1925 -0.2776
 4332SOL    HW124632   0.495   3.772  12.970 -2.1591  1.4394  0.0810
 4332SOL    HW224633   0.602   3.794  13.065 -1.6416 -2.3005 -0.9013
 4333SOL     OW24634   0.972   2.519  15.276  0.1153 -0.6642  0.3839
 4333SOL    HW124635   1.031   2.594  15.280 -0.3739 -0.2926  0.5107
 4333SOL    HW224636   1.036   2.450  15.257  0.9086  0.0428  0.4909
 4334SOL     OW24637   1.761   2.125   6.915 -0.8554 -0.0373 -0.1069
 4334SOL    HW124638   1.811   2.070   6.974 -2.5656  0.7894  2.1140
 4334SOL    HW224639   1.771   2.089   6.827  0.8655 -0.1162  0.1237
 4335SOL     OW24640   3.903   3.718   7.958  0.0201  0.3284  0.1558
 4335SOL    HW124641   3.877   3.772   7.883  0.2532  0.5921  0.2651
 4335SOL    HW224642   3.934   3.639   7.913 -1.5875 -0.0965 -0.2035
 4336SOL     OW24643   0.977   4.118   8.365  0.0331  0.1872  0.4773
 4336SOL    HW124644   0.926   4.080   8.436 -0.5075  0.0169  0.0011
 4336SOL    HW224645   0.915   4.110   8.292  1.2288  1.6356 -0.6974
 4337SOL     OW24646   3.313   4.116  16.260  0.3123  0.3549  0.0928
 4337SOL    HW124647   3.276   4.092  16.175 -0.4866 -2.0297  1.1178
 4337SOL    HW224648   3.398   4.075  16.245 -0.4633 -1.6899  1.1926
 4338SOL     OW24649   1.929   1.233   9.105  0.5977  0.1437  0.1662
 4338SOL    HW124650   1.869   1.295   9.063 -1.6403 -1.0313  1.6108
 4338SOL    HW224651   1.866   1.182   9.157  1.0965  0.3695  0.9920
 4339SOL     OW24652   3.517   1.274   3.479 -0.1105 -0.2706  0.2749
 4339SOL    HW124653   3.434   1.253   3.521  0.7580  0.4151  2.3378
 4339SOL    HW224654   3.499   1.261   3.386 -0.6053 -0.7453  0.4392
 4340SOL     OW24655   4.212   3.696   3.567 -0.7536  0.4792  0.1518
 4340SOL    HW124656   4.231   3.715   3.659 -2.1494  2.4301  0.0311
 4340SOL    HW224657   4.296   3.663   3.533 -1.9643 -3.1107  0.6623
 4341SOL     OW24658   2.740   4.692  16.019 -0.3335 -0.9418  0.3530
 4341SOL    HW124659   2.751   0.005  16.098  2.1957 -0.4437 -0.3129
 4341SOL    HW224660   2.654   4.655  16.037 -0.1478 -2.9485 -2.8693
 4342SOL     OW24661   3.261   0.444   3.407  0.1757  0.1517  0.3102
 4342SOL    HW124662   3.261   0.409   3.496  1.7811 -1.2065 -0.2232
 4342SOL    HW224663   3.196   0.513   3.420  0.7601  1.0423 -1.4411
 4343SOL     OW24664   0.764   2.497  16.758  0.7919  0.0734 -0.0556
 4343SOL    HW124665   0.837   2.517  16.816  0.2568  0.6862  0.4110
 4343SOL    HW224666   0.754   2.579  16.708 -0.2551 -1.8969 -3.0997
 4344SOL     OW24667   2.521   2.757   4.303  0.2957  0.2638 -0.2852
 4344SOL    HW124668   2.551   2.690   4.242  0.1127  0.5756 -0.7189
 4344SOL    HW224669   2.452   2.715   4.354 -0.4652  0.1477 -1.4075
 4345SOL     OW24670   3.922   1.154   4.119  0.3173  0.2786  0.4713
 4345SOL    HW124671   3.873   1.112   4.190  1.8693 -2.3649 -0.0021
 4345SOL    HW224672   3.945   1.073   4.074 -0.3491 -0.5806  1.6788
 4346SOL     OW24673   3.004   4.074   2.740 -0.1289  0.8186 -0.1901
 4346SOL    HW124674   3.002   4.127   2.819  0.9981  1.0371 -0.3029
 4346SOL    HW224675   3.000   3.985   2.776  0.3141 -0.2337 -2.7088
 4347SOL     OW24676   4.704   2.353   5.595 -0.0631  1.1625 -0.0816
 4347SOL    HW124677   4.684   2.261   5.612 -2.4665  2.0349  1.8684
 4347SOL    HW224678   4.632   2.382   5.540 -0.8944  2.3807  1.6313
 4348SOL     OW24679   4.583   2.414   5.357 -0.2737 -0.8621  0.5082
 4348SOL    HW124680   4.600   2.379   5.269  1.4225  0.0739  0.4783
 4348SOL    HW224681   4.574   2.509   5.349  0.2793 -0.8220  0.3710
 4349SOL     OW24682   0.789   1.970   3.718  0.1349 -0.7413  0.5114
 4349SOL    HW124683   0.787   1.937   3.808 -3.4167 -2.3583 -0.1625
 4349SOL    HW224684   0.859   2.035   3.729 -0.5554  0.3053 -1.2530
 4350SOL     OW24685   3.464   0.882   8.112 -0.3055  0.3085 -0.5378
 4350SOL    HW124686   3.430   0.839   8.191 -0.7153 -0.7430 -1.2921
 4350SOL    HW224687   3.465   0.973   8.143 -0.8563  0.0187  0.3396
 4351SOL     OW24688   2.375   0.655   7.903  0.2883 -0.4334  0.4281
 4351SOL    HW124689   2.342   0.573   7.939 -0.0827 -0.5657 -0.2053
 4351SOL    HW224690   2.306   0.689   7.846  1.0335  0.4116  0.0294
 4352SOL     OW24691   1.937   2.667   3.577  0.1335  0.0553 -0.2790
 4352SOL    HW124692   1.877   2.596   3.556 -2.0794  1.2231  2.1225
 4352SOL    HW224693   1.934   2.717   3.496 -0.6824  0.7736  0.1966
 4353SOL     OW24694   3.244   3.324   7.262  0.4768  0.0595 -0.1576
 4353SOL    HW124695   3.288   3.290   7.339  1.4271  3.1017  0.6613
 4353SOL    HW224696   3.160   3.349   7.300  0.9096  0.8821  0.2653
 4354SOL     OW24697   0.478   2.528   1.558  0.2286  0.1449  0.0553
 4354SOL    HW124698   0.470   2.584   1.635  0.0782  0.8323 -0.4664
 4354SOL    HW224699   0.443   2.446   1.592  0.1124  0.1051 -0.1620
 4355SOL     OW24700   1.684   3.923   1.242 -0.0426 -0.3058  0.5539
 4355SOL    HW124701   1.628   3.994   1.210  0.7207  0.4148  0.8142
 4355SOL    HW224702   1.633   3.851   1.205 -0.6408  0.3410  0.1002
 4356SOL     OW24703   4.156   1.230   5.146 -0.0731 -0.1044 -0.3272
 4356SOL    HW124704   4.218   1.301   5.135 -0.8105  0.2356 -2.2127
 4356SOL    HW224705   4.125   1.212   5.058 -2.1294  2.4479 -0.1262
 4357SOL     OW24706   3.386   1.770  13.456  0.4915  0.0969  0.1893
 4357SOL    HW124707   3.334   1.770  13.537  0.3317 -1.2855  0.1002
 4357SOL    HW224708   3.478   1.754  13.476  0.8611  1.8579 -0.1822
 4358SOL     OW24709   1.314   1.736   9.286  0.2771 -0.4223 -0.1283
 4358SOL    HW124710   1.317   1.683   9.365  0.8600 -0.3901 -0.1283
 4358SOL    HW224711   1.389   1.794   9.298 -0.3247  0.4132 -0.3999
 4359SOL     OW24712   1.306   3.791  14.842 -0.1018 -0.4322 -0.3213
 4359SOL    HW124713   1.348   3.741  14.912  2.6738 -2.0262 -3.1674
 4359SOL    HW224714   1.369   3.861  14.824  0.8515 -1.1535  0.2326
 4360SOL     OW24715   2.133   4.083   7.777  0.0335  0.4940 -0.0511
 4360SOL    HW124716   2.131   4.077   7.872  1.9114 -1.3364 -0.1319
 4360SOL    HW224717   2.039   4.090   7.764 -0.3983 -1.2453  2.2222
 4361SOL     OW24718   0.919   4.361   5.305 -0.4681  0.3310 -0.2052
 4361SOL    HW124719   0.906   4.382   5.398  2.0982 -1.7013  0.6257
 4361SOL    HW224720   0.859   4.422   5.262  1.2226 -0.1823 -3.2235
 4362SOL     OW24721   2.327   2.123   6.361 -0.5830 -0.2687 -0.2107
 4362SOL    HW124722   2.348   2.195   6.420 -0.8251 -1.3354  1.1646
 4362SOL    HW224723   2.413   2.081   6.349 -0.3195  0.2956 -0.3512
 4363SOL     OW24724   2.584   0.762   6.504  0.0336 -0.5686  0.0148
 4363SOL    HW124725   2.522   0.794   6.438 -1.1375  0.0712  1.4117
 4363SOL    HW224726   2.667   0.770   6.458  0.2381 -0.7989  0.3439
 4364SOL     OW24727   3.785   3.632   4.832 -0.4598 -0.7805 -0.6051
 4364SOL    HW124728   3.838   3.559   4.864 -0.9884 -0.8583  0.0935
 4364SOL    HW224729   3.792   3.702   4.897  1.6040 -1.4124 -0.1647
 4365SOL     OW24730   1.277   2.637   3.718 -0.4829  0.2760  0.5131
 4365SOL    HW124731   1.360   2.606   3.681  0.8768  2.4161  1.7924
 4365SOL    HW224732   1.292   2.592   3.801  1.7083 -0.3123 -0.2053
 4366SOL     OW24733   3.368   0.110   7.570 -0.1983  0.9461 -0.3089
 4366SOL    HW124734   3.288   0.147   7.533 -0.7246  0.7500  0.6286
 4366SOL    HW224735   3.343   0.092   7.661 -0.9939  2.1705 -0.2989
 4367SOL     OW24736   1.155   3.739   5.278  0.8991 -0.6830  0.0583
 4367SOL    HW124737   1.236   3.757   5.230 -0.6724  1.2924 -1.8711
 4367SOL    HW224738   1.137   3.651   5.245 -1.4673 -0.3638  0.4255
 4368SOL     OW24739   2.467   0.900   6.055  0.7817  0.0248  0.0850
 4368SOL    HW124740   2.426   0.813   6.049  0.6550  0.1166 -0.3716
 4368SOL    HW224741   2.408   0.949   5.998 -2.2732 -1.9695  1.4811
 4369SOL     OW24742   4.068   2.824   3.461  0.8360 -0.3755 -0.0684
 4369SOL    HW124743   3.977   2.850   3.459  0.3743 -1.8374  1.7684
 4369SOL    HW224744   4.105   2.910   3.481  0.6853 -0.5417  0.9174
 4370SOL     OW24745   0.251   3.206   9.758 -0.0510  0.0482  0.2792
 4370SOL    HW124746   0.244   3.301   9.764 -1.7849 -0.0651  0.0041
 4370SOL    HW224747   0.336   3.200   9.714 -0.4721 -1.3143 -0.3637
 4371SOL     OW24748   1.957   1.372  14.490 -0.4110  0.6797  0.2327
 4371SOL    HW124749   1.911   1.402  14.411  2.7018  1.0689 -1.4460
 4371SOL    HW224750   1.895   1.305  14.519  2.0091 -0.8382  1.8857
 4372SOL     OW24751   3.211   0.412   6.223  0.4922 -0.4507 -0.1035
 4372SOL    HW124752   3.161   0.468   6.163  1.9561  0.8324 -0.1340
 4372SOL    HW224753   3.295   0.415   6.177  0.1734  1.0376 -0.5838
 4373SOL     OW24754   3.201   2.635  14.305 -0.3042 -0.5950 -0.2423
 4373SOL    HW124755   3.192   2.541  14.315 -0.4567 -0.9788 -3.9582
 4373SOL    HW224756   3.277   2.646  14.247 -0.4076 -0.8327 -0.4205
 4374SOL     OW24757   1.250   2.452   5.093 -0.1818 -0.1894 -0.1527
 4374SOL    HW124758   1.165   2.489   5.068 -0.4871  0.7398  2.3249
 4374SOL    HW224759   1.308   2.514   5.048 -2.3888  0.5183 -2.0479
 4375SOL     OW24760   0.899   2.263   7.456  0.5376 -0.5219  0.2023
 4375SOL    HW124761   0.917   2.262   7.362  2.7201 -0.5972  0.6168
 4375SOL    HW224762   0.816   2.216   7.464 -1.9100  3.4031 -2.0377
 4376SOL     OW24763   4.582   1.002   6.172 -0.1769 -0.2261 -0.4465
 4376SOL    HW124764   4.584   0.918   6.216 -0.2171  0.7295  1.4030
 4376SOL    HW224765   4.674   1.025   6.179  0.1544 -3.0203  3.9543
 4377SOL     OW24766   3.655   4.053   4.245  0.3080  0.3331  0.8684
 4377SOL    HW124767   3.570   4.021   4.277 -0.9835 -0.1697 -3.0868
 4377SOL    HW224768   3.634   4.059   4.152 -0.8676 -0.3582  1.0842
 4378SOL     OW24769   2.700   1.568  11.321 -0.1197  0.3045 -0.0761
 4378SOL    HW124770   2.640   1.547  11.249 -0.0432 -1.0490  0.2598
 4378SOL    HW224771   2.638   1.567  11.394 -1.1750 -0.6656 -0.9622
 4379SOL     OW24772   3.385   0.031   6.441 -0.7834 -0.2450 -0.2483
 4379SOL    HW124773   3.294   0.002   6.430 -0.9727 -0.6704  2.3944
 4379SOL    HW224774   3.372   0.113   6.488  0.8614 -0.0907 -0.0709
 4380SOL     OW24775   0.946   1.784   8.169 -0.2437 -0.1299 -0.5834
 4380SOL    HW124776   0.873   1.728   8.197  0.9730 -1.2832  0.3161
 4380SOL    HW224777   0.910   1.873   8.171  0.1238 -0.0422  2.3649
 4381SOL     OW24778   1.223   2.100   6.247 -0.6722 -0.1230  0.2455
 4381SOL    HW124779   1.265   2.057   6.172 -0.9361  0.8037 -0.4264
 4381SOL    HW224780   1.213   2.032   6.314 -0.8712  0.0058  0.3477
 4382SOL     OW24781   1.949   1.749   2.067  0.9995 -0.1869 -0.5811
 4382SOL    HW124782   1.972   1.659   2.044 -2.2766 -0.5003 -2.7090
 4382SOL    HW224783   1.984   1.792   1.989 -0.4637  1.6064 -0.2431
 4383SOL     OW24784   2.722   1.962  11.957  0.0940 -0.1054 -0.1021
 4383SOL    HW124785   2.699   1.900  12.026 -0.4822  1.2950  0.9493
 4383SOL    HW224786   2.813   1.934  11.942  0.9933  2.4576  0.5619
 4384SOL     OW24787   3.972   0.233  11.762  0.5142  0.5084  0.4246
 4384SOL    HW124788   3.881   0.206  11.749  0.4767  1.0301 -0.4639
 4384SOL    HW224789   3.954   0.327  11.760 -0.1237  0.3886  0.2676
 4385SOL     OW24790   2.233   4.405  12.472  0.0409  0.4465 -0.7661
 4385SOL    HW124791   2.313   4.459  12.474 -0.7161  1.6770 -3.9280
 4385SOL    HW224792   2.284   4.326  12.456  0.1301 -0.2819  3.0146
 4386SOL     OW24793   0.143   0.594  12.980 -0.6498  0.0366  0.5271
 4386SOL    HW124794   0.058   0.548  12.978 -0.1626 -0.8790  0.7592
 4386SOL    HW224795   0.161   0.600  13.074  1.3467  0.3071  0.1219
 4387SOL     OW24796   0.585   2.637   8.124  0.2917 -0.0698  0.9325
 4387SOL    HW124797   0.580   2.565   8.061  0.3798  0.9306 -0.2018
 4387SOL    HW224798   0.667   2.617   8.169  1.4518  0.8611 -0.7751
 4388SOL     OW24799   1.688   3.876   3.745 -0.3274  0.0827  0.4824
 4388SOL    HW124800   1.635   3.886   3.666  0.1562  1.0500  0.2737
 4388SOL    HW224801   1.779   3.876   3.715 -1.0782 -0.0093 -1.7707
 4389SOL     OW24802   3.674   2.909   9.326 -0.0530 -0.1086 -0.5029
 4389SOL    HW124803   3.603   2.863   9.370 -0.6831  1.1337 -0.2386
 4389SOL    HW224804   3.631   2.933   9.244 -0.6779 -2.2999 -0.8113
 4390SOL     OW24805   3.741   3.684  10.391 -0.7923  0.4039 -0.5788
 4390SOL    HW124806   3.811   3.748  10.399  2.1254 -2.5652 -2.3590
 4390SOL    HW224807   3.781   3.607  10.431 -1.3012  1.1407  1.3491
 4391SOL     OW24808   1.588   0.766   9.381  0.2174 -0.1266  0.3885
 4391SOL    HW124809   1.651   0.836   9.399 -1.5385  1.7496 -0.8737
 4391SOL    HW224810   1.552   0.766   9.470 -2.1406 -0.2490 -0.5749
 4392SOL     OW24811   3.732   0.032  14.736 -0.4124 -0.2682  0.0574
 4392SOL    HW124812   3.777   4.712  14.675  2.0209 -1.1093  2.6528
 4392SOL    HW224813   3.690   4.711  14.798  0.8580 -1.4222 -0.1869
 4393SOL     OW24814   4.290   1.284   4.690 -0.6487  0.5103 -0.3873
 4393SOL    HW124815   4.347   1.355   4.660  0.9524 -1.5504 -2.1965
 4393SOL    HW224816   4.285   1.229   4.612 -0.6786  2.4871 -1.7878
 4394SOL     OW24817   2.770   3.660   6.497  0.4124  0.6299 -0.1966
 4394SOL    HW124818   2.697   3.705   6.455  0.1491 -1.5471 -2.0706
 4394SOL    HW224819   2.797   3.596   6.430 -1.1354 -1.2750  1.0102
 4395SOL     OW24820   2.606   0.004  10.149  0.0418  0.0802  0.3607
 4395SOL    HW124821   2.622   0.045  10.234 -0.7620  1.7760 -0.3067
 4395SOL    HW224822   2.517   4.710  10.157 -0.5670  1.5230 -0.3535
 4396SOL     OW24823   4.327   0.260  10.354 -0.1748  0.4546  0.2226
 4396SOL    HW124824   4.413   0.220  10.348 -0.3409  0.3743 -1.7401
 4396SOL    HW224825   4.283   0.209  10.286 -0.8640  0.3608  0.7404
 4397SOL     OW24826   1.315   1.677   5.237 -0.3452 -0.2062 -0.2002
 4397SOL    HW124827   1.391   1.638   5.192  0.5946  0.8555  0.4596
 4397SOL    HW224828   1.366   1.703   5.314  1.7844 -2.8200 -0.7276
 4398SOL     OW24829   2.865   2.545   1.521 -0.7058  0.4719  0.7570
 4398SOL    HW124830   2.911   2.613   1.472  0.6666 -1.5145 -0.7267
 4398SOL    HW224831   2.797   2.597   1.563  0.0854  1.1407  1.2207
 4399SOL     OW24832   3.533   2.998   9.119  1.2387 -0.2772  0.0314
 4399SOL    HW124833   3.560   3.081   9.079 -1.0799  0.0370 -0.8633
 4399SOL    HW224834   3.462   2.975   9.059 -1.0290  0.5773  2.3781
 4400SOL     OW24835   4.566   4.304   4.449 -0.2484 -0.0355 -0.3980
 4400SOL    HW124836   4.616   4.274   4.524  0.2859  1.3466 -0.1958
 4400SOL    HW224837   4.539   4.390   4.480 -1.0699 -0.2910 -0.4118
 4401SOL     OW24838   0.049   2.532   5.795 -0.3384  0.2039  0.0125
 4401SOL    HW124839   0.028   2.503   5.884 -0.4579 -0.1278 -0.1233
 4401SOL    HW224840   0.005   2.469   5.737  1.1471 -1.2774  0.4883
 4402SOL     OW24841   3.067   3.530  16.275  0.2159  0.2164 -0.0517
 4402SOL    HW124842   3.008   3.603  16.258  0.5940  0.6226  0.4234
 4402SOL    HW224843   3.089   3.492  16.190 -2.6407  0.6347 -0.9800
 4403SOL     OW24844   4.540   0.471   2.353 -0.3554  0.4099 -0.4652
 4403SOL    HW124845   4.615   0.468   2.294  0.4309 -1.6284  0.6120
 4403SOL    HW224846   4.566   0.395   2.405 -2.9831  0.0721  0.3582
 4404SOL     OW24847   1.483   0.770   6.363 -0.5552 -0.0650  0.4183
 4404SOL    HW124848   1.494   0.681   6.328 -0.1359  0.3335 -0.4791
 4404SOL    HW224849   1.399   0.790   6.321 -0.0099  0.6095 -0.3526
 4405SOL     OW24850   3.016   2.297  12.146 -0.0748 -0.0660 -0.3096
 4405SOL    HW124851   3.064   2.324  12.068  0.9093  0.5023  0.5025
 4405SOL    HW224852   3.090   2.278  12.203 -0.5846  0.2726  0.4650
 4406SOL     OW24853   4.466   4.110   5.779 -0.4414  0.4286  0.1955
 4406SOL    HW124854   4.545   4.164   5.786 -0.5996  0.9022 -1.8061
 4406SOL    HW224855   4.425   4.138   5.861 -1.0603 -2.3067  0.8230
 4407SOL     OW24856   4.582   1.619   1.362 -0.1734 -0.6514 -0.2823
 4407SOL    HW124857   4.668   1.661   1.355 -1.2886  1.5571 -0.7160
 4407SOL    HW224858   4.538   1.672   1.430  1.1006 -0.3407  0.3012
 4408SOL     OW24859   2.850   3.204   1.235  0.0060  0.1347 -0.0069
 4408SOL    HW124860   2.804   3.287   1.247 -1.6078 -0.9019  1.0788
 4408SOL    HW224861   2.940   3.234   1.243  0.5457 -1.7317  0.8737
 4409SOL     OW24862   1.938   2.598   4.066 -0.0846 -0.2812  0.0854
 4409SOL    HW124863   1.924   2.656   4.141  0.4054  2.6006 -2.0319
 4409SOL    HW224864   1.893   2.650   3.999  2.6599  2.0022 -0.0125
 4410SOL     OW24865   1.298   1.311   7.708 -0.2839  0.1746 -0.1234
 4410SOL    HW124866   1.270   1.220   7.708  1.4318 -0.3518  0.8484
 4410SOL    HW224867   1.226   1.351   7.755  0.1657 -0.0986  0.7961
 4411SOL     OW24868   4.251   0.616   1.612  0.1080 -0.3662 -0.2124
 4411SOL    HW124869   4.211   0.534   1.584  0.6052 -0.2043 -1.4151
 4411SOL    HW224870   4.299   0.574   1.684 -2.7843  0.2203  2.0474
 4412SOL     OW24871   4.096   4.675   9.050 -0.0129 -0.3776  0.1652
 4412SOL    HW124872   4.045   4.703   9.126  0.4106  0.6888  0.0526
 4412SOL    HW224873   4.091   4.582   9.071  1.5021 -0.7501 -1.0900
 4413SOL     OW24874   0.832   2.971   3.036  0.2458  0.3520 -0.0914
 4413SOL    HW124875   0.864   3.048   3.084 -0.1732 -0.0945  0.9103
 4413SOL    HW224876   0.885   2.906   3.083  0.9505  0.9681 -0.0450
 4414SOL     OW24877   0.440   0.633   3.992  0.0761  0.0829  0.0287
 4414SOL    HW124878   0.412   0.542   3.983 -0.6039  0.1865  1.1405
 4414SOL    HW224879   0.524   0.639   3.946  0.2659  1.7374  0.6052
 4415SOL     OW24880   1.978   3.532   3.681  0.1140  0.1936 -0.2691
 4415SOL    HW124881   1.983   3.485   3.764 -0.8819 -0.5748 -0.6399
 4415SOL    HW224882   1.888   3.517   3.652  0.9789 -4.0665 -0.8986
 4416SOL     OW24883   3.147   1.353   4.158  0.3280 -0.2050  0.3497
 4416SOL    HW124884   3.113   1.279   4.109 -1.8968  1.8338 -1.1852
 4416SOL    HW224885   3.130   1.318   4.246  2.3529 -0.2054  0.7407
 4417SOL     OW24886   3.849   2.993  13.858 -0.0790 -0.6362 -0.5122
 4417SOL    HW124887   3.807   3.079  13.854  1.3243  0.0714  0.1805
 4417SOL    HW224888   3.821   2.961  13.944 -1.1904 -2.3642 -1.5160
 4418SOL     OW24889   3.556   1.964   8.237 -0.4438  0.5625  0.1631
 4418SOL    HW124890   3.616   1.929   8.303  1.4747 -3.1399 -3.5251
 4418SOL    HW224891   3.586   1.931   8.152  3.8916  3.1430  0.6449
 4419SOL     OW24892   1.309   2.924   3.765  0.0443  0.2745  1.1248
 4419SOL    HW124893   1.223   2.939   3.805 -1.1297  0.2800 -1.3946
 4419SOL    HW224894   1.326   2.830   3.763 -1.9113  0.0102 -3.4653
 4420SOL     OW24895   1.935   0.455   5.496  0.5196 -0.1889 -0.1016
 4420SOL    HW124896   2.028   0.451   5.518  0.5705  1.0152 -0.0966
 4420SOL    HW224897   1.896   0.470   5.582  1.9155  0.6853  0.3773
 4421SOL     OW24898   0.834   2.724  17.743 -0.1606 -0.8005  0.0465
 4421SOL    HW124899   0.756   2.772   0.018  0.1369  1.4877 -2.8010
 4421SOL    HW224900   0.905   2.771   0.031 -0.6425 -0.0373  0.0106
 4422SOL     OW24901   3.470   1.964   6.037 -0.3160 -0.2123 -0.1463
 4422SOL    HW124902   3.490   1.889   6.093 -0.6274  2.5019  3.6106
 4422SOL    HW224903   3.541   2.025   6.057 -1.0374  1.3249 -2.2841
 4423SOL     OW24904   3.845   4.537   3.861  0.1601  0.6825  0.1548
 4423SOL    HW124905   3.833   4.442   3.853 -0.1052  0.5442  2.4356
 4423SOL    HW224906   3.782   4.553   3.931  2.1893  2.4764  1.5613
 4424SOL     OW24907   3.768   2.334   8.641 -0.0466  0.0752 -0.0778
 4424SOL    HW124908   3.844   2.276   8.631 -0.5427 -0.3824 -1.2412
 4424SOL    HW224909   3.748   2.317   8.733 -0.2986 -0.4692 -0.2274
 4425SOL     OW24910   2.790   1.390   6.825  0.2028 -0.0800 -0.0213
 4425SOL    HW124911   2.710   1.443   6.829  0.2420  0.0026 -0.3276
 4425SOL    HW224912   2.841   1.449   6.770 -1.2956 -0.4367 -1.8024
 4426SOL     OW24913   3.059   4.491  16.565  0.0441  0.2657  0.7275
 4426SOL    HW124914   3.132   4.549  16.543  1.0194 -1.2208  0.0659
 4426SOL    HW224915   3.085   4.412  16.519 -0.1642  2.5219 -3.2439
 4427SOL     OW24916   4.145   0.349   2.584 -0.4244  0.2969 -0.0721
 4427SOL    HW124917   4.106   0.263   2.568 -0.4670 -0.2697  2.9905
 4427SOL    HW224918   4.117   0.388   2.501  0.8089  0.7533 -0.2785
 4428SOL     OW24919   0.793   0.951  12.213 -0.3046 -0.3977 -0.5021
 4428SOL    HW124920   0.888   0.960  12.205 -0.2211  0.2067  1.3951
 4428SOL    HW224921   0.763   1.014  12.147  0.1996  0.1116 -0.2411
 4429SOL     OW24922   0.290   4.580   8.329  0.9163 -0.1252 -0.3719
 4429SOL    HW124923   0.308   4.526   8.406  1.0221  1.2292  0.5499
 4429SOL    HW224924   0.376   4.572   8.287  1.6390  0.4728  0.9924
 4430SOL     OW24925   2.453   3.243   8.020 -0.0124  0.3054  0.2490
 4430SOL    HW124926   2.370   3.287   8.038 -0.1203  0.9338 -1.8120
 4430SOL    HW224927   2.466   3.186   8.096 -1.0689  0.1783  0.3319
 4431SOL     OW24928   4.179   1.136  12.425 -0.1197  0.0961 -0.3305
 4431SOL    HW124929   4.273   1.142  12.408  0.1289  2.3731  1.8781
 4431SOL    HW224930   4.157   1.080  12.351 -1.0679 -0.5548  0.4470
 4432SOL     OW24931   1.382   0.189   7.376 -0.0548  0.1205  0.0186
 4432SOL    HW124932   1.342   0.188   7.463 -0.6337 -0.4243 -0.2536
 4432SOL    HW224933   1.391   0.283   7.361 -0.1313 -0.0802 -1.2864
 4433SOL     OW24934   2.879   2.864   8.008  0.4321 -0.6994  0.7016
 4433SOL    HW124935   2.954   2.916   7.979  1.0034 -0.9867  1.6502
 4433SOL    HW224936   2.893   2.772   7.985 -1.1977 -0.8744  0.4173
 4434SOL     OW24937   0.252   1.401  14.755  0.1556  0.6465 -1.2875
 4434SOL    HW124938   0.256   1.493  14.729  0.4379  1.3327  1.2337
 4434SOL    HW224939   0.250   1.407  14.850 -1.5849  0.4911 -1.3161
 4435SOL     OW24940   4.611   0.958   4.803 -0.4458 -0.9569 -0.1157
 4435SOL    HW124941   4.582   0.912   4.724 -1.1474 -0.3160 -0.2312
 4435SOL    HW224942   4.547   1.029   4.799 -0.3830 -1.0019 -2.2861
 4436SOL     OW24943   1.655   0.699   0.025  0.4573  0.2021  0.2811
 4436SOL    HW124944   1.717   0.634   0.056 -0.9146 -0.8698  0.8183
 4436SOL    HW224945   1.571   0.655   0.041  1.0454 -0.8860  0.4276
 4437SOL     OW24946   0.256   0.465  15.181 -0.3938 -0.0193 -0.0024
 4437SOL    HW124947   0.180   0.472  15.123  0.5132  1.6128 -1.0063
 4437SOL    HW224948   0.325   0.506  15.129  0.0693 -0.5827  0.1707
 4438SOL     OW24949   2.370   1.882  10.365  0.3899 -0.8476 -1.0083
 4438SOL    HW124950   2.299   1.917  10.418  1.6797 -1.2116  0.9374
 4438SOL    HW224951   2.384   1.943  10.292  0.7441  1.3330  0.9009
 4439SOL     OW24952   1.111   2.124   8.836 -0.6791 -0.0772 -0.5255
 4439SOL    HW124953   1.140   2.204   8.792  1.9965 -1.1824 -0.7064
 4439SOL    HW224954   1.175   2.114   8.906  0.3235 -1.3516 -1.6128
 4440SOL     OW24955   2.592   0.191   1.772  0.5340  0.0435 -0.1483
 4440SOL    HW124956   2.586   0.100   1.802  2.3281 -0.8035 -2.2763
 4440SOL    HW224957   2.661   0.188   1.705  2.0535  0.8714  1.3848
 4441SOL     OW24958   3.621   3.133   6.275  0.1934 -0.0276  0.3543
 4441SOL    HW124959   3.702   3.155   6.320  1.0358  0.3620 -1.3450
 4441SOL    HW224960   3.646   3.132   6.183 -0.4407 -2.4834  0.2281
 4442SOL     OW24961   3.863   4.166   8.721  0.1094  0.3414  0.6507
 4442SOL    HW124962   3.859   4.072   8.703  1.4552  0.1498  1.3217
 4442SOL    HW224963   3.814   4.175   8.803  1.2204 -0.4938  1.4026
 4443SOL     OW24964   4.217   0.231   5.701 -0.1201  0.4259 -0.1875
 4443SOL    HW124965   4.288   0.172   5.727  0.9911  0.7198 -2.5469
 4443SOL    HW224966   4.153   0.220   5.771 -2.4208  0.1754 -2.3272
 4444SOL     OW24967   4.101   0.401   9.088  0.2729 -0.4136 -0.0802
 4444SOL    HW124968   4.150   0.328   9.126 -0.3313 -1.2266 -0.8629
 4444SOL    HW224969   4.037   0.346   9.043 -0.0188 -0.3371  0.2445
 4445SOL     OW24970   2.557   3.496   3.789 -0.0827  0.0254  0.5091
 4445SOL    HW124971   2.550   3.500   3.694 -2.3186  3.1787  0.7823
 4445SOL    HW224972   2.645   3.464   3.809 -0.4932 -1.6890 -0.4853
 4446SOL     OW24973   3.502   3.835   6.063 -0.7337 -0.6949 -0.2803
 4446SOL    HW124974   3.504   3.931   6.059  1.0793 -0.7936 -1.7578
 4446SOL    HW224975   3.418   3.819   6.020 -1.7294  0.8399  1.0842
 4447SOL     OW24976   2.002   2.018   7.048  0.8507  0.4908  0.3265
 4447SOL    HW124977   2.025   2.110   7.066  0.1157  0.6036  0.6531
 4447SOL    HW224978   2.020   1.976   7.132 -1.6934  1.9918  1.6213
 4448SOL     OW24979   1.656   4.024  10.799 -0.0588 -0.2913 -0.2985
 4448SOL    HW124980   1.718   4.088  10.766 -1.2389  0.9435 -0.1279
 4448SOL    HW224981   1.604   4.095  10.836  0.3569 -0.2955  0.2818
 4449SOL     OW24982   3.051   4.483  10.176 -0.0602  0.5335 -0.8600
 4449SOL    HW124983   3.054   4.544  10.102  0.9463 -0.2988 -1.5217
 4449SOL    HW224984   3.142   4.480  10.205 -0.1925  0.2464 -0.4830
 4450SOL     OW24985   0.216   4.232   4.449 -0.3519 -0.3676  0.3201
 4450SOL    HW124986   0.174   4.308   4.489 -1.4183 -0.4179 -0.7052
 4450SOL    HW224987   0.276   4.219   4.522  0.2351 -0.4707 -0.1830
 4451SOL     OW24988   1.516   0.350   8.512 -0.3236  0.9401  0.0673
 4451SOL    HW124989   1.434   0.343   8.561  1.0746  2.1583  2.5606
 4451SOL    HW224990   1.471   0.355   8.428  1.6010  2.1711 -0.8823
 4452SOL     OW24991   0.574   0.449   7.137 -0.1977 -0.9164 -0.0741
 4452SOL    HW124992   0.543   0.506   7.067 -1.0967 -1.1538  0.1274
 4452SOL    HW224993   0.625   0.393   7.079 -1.5932 -1.9176 -0.3331
 4453SOL     OW24994   0.821   4.607   1.000 -1.1799 -0.1316  0.6115
 4453SOL    HW124995   0.780   4.532   0.957  0.3085 -0.0819 -0.8935
 4453SOL    HW224996   0.890   4.618   0.935 -1.6952 -0.7527 -0.0429
 4454SOL     OW24997   0.838   0.270  16.519  0.0658  0.0574  0.5940
 4454SOL    HW124998   0.926   0.231  16.513  0.1591  0.2609  0.6496
 4454SOL    HW224999   0.803   0.205  16.458  0.4901 -1.4142  1.9136
 4455SOL     OW25000   4.687   2.353   4.378  0.3563  0.0578  0.0932
 4455SOL    HW125001   4.658   2.385   4.293  0.4699  2.9357  1.1393
 4455SOL    HW225002   4.625   2.280   4.380 -2.5879  2.5724 -0.2302
 4456SOL     OW25003   3.308   2.088  14.046 -0.2558  0.9886 -0.5080
 4456SOL    HW125004   3.274   2.177  14.038  0.7807  1.2221 -2.3650
 4456SOL    HW225005   3.402   2.106  14.051 -0.6052  2.6896  0.0963
 4457SOL     OW25006   3.350   2.908   6.392 -0.2888 -0.2672 -0.0498
 4457SOL    HW125007   3.277   2.855   6.425  1.6477 -1.6369  1.9762
 4457SOL    HW225008   3.354   2.900   6.297  0.2538 -1.2399  0.0617
 4458SOL     OW25009   4.325   4.520  16.911  0.1180  0.6876  0.5013
 4458SOL    HW125010   4.242   4.498  16.954  0.4760 -1.1334  0.2580
 4458SOL    HW225011   4.388   4.469  16.962 -0.6835  0.4855  1.3011
 4459SOL     OW25012   3.427   2.559   6.801  0.0402 -0.1384  0.0922
 4459SOL    HW125013   3.506   2.548   6.855 -0.4924 -0.4479  0.8111
 4459SOL    HW225014   3.388   2.638   6.838 -2.2001 -1.4219  0.4309
 4460SOL     OW25015   3.267   0.291   6.479  0.4295  0.3533 -0.1148
 4460SOL    HW125016   3.180   0.309   6.514 -0.5520 -0.2521 -2.2909
 4460SOL    HW225017   3.249   0.324   6.392  0.7040 -0.8764 -0.6429
 4461SOL     OW25018   1.915   3.279   2.888 -0.4788  0.2026  0.5905
 4461SOL    HW125019   1.869   3.195   2.886  0.2472 -0.1613 -0.4928
 4461SOL    HW225020   1.997   3.240   2.857 -2.7295 -1.0884 -3.6876
 4462SOL     OW25021   4.369   4.657  12.218 -0.3790 -0.3528  0.5922
 4462SOL    HW125022   4.308   4.643  12.290 -1.0192 -1.5557 -0.1898
 4462SOL    HW225023   4.383   4.568  12.184  0.3888  0.5268 -1.4183
 4463SOL     OW25024   2.673   1.586   4.176 -0.8314 -0.5663 -0.2531
 4463SOL    HW125025   2.605   1.652   4.162  0.0713  0.1118 -1.4646
 4463SOL    HW225026   2.697   1.607   4.266 -0.1895 -1.9483 -0.1058
 4464SOL     OW25027   2.510   0.166   8.878  0.2938 -0.1373  0.3434
 4464SOL    HW125028   2.508   0.197   8.787  0.6476 -1.6644 -0.1925
 4464SOL    HW225029   2.591   0.116   8.874  1.3504  1.5330  1.2304
 4465SOL     OW25030   2.931   4.508  15.860 -0.1188  0.5780  0.0943
 4465SOL    HW125031   2.850   4.558  15.865 -0.8738 -0.7288  1.0983
 4465SOL    HW225032   2.967   4.514  15.948  5.0655 -0.2127 -1.9925
 4466SOL     OW25033   2.561   3.392   7.434  0.0130  0.3777 -0.1738
 4466SOL    HW125034   2.468   3.409   7.447 -0.2847 -0.6576 -0.9437
 4466SOL    HW225035   2.601   3.398   7.521  1.2940  1.6084 -0.8521
 4467SOL     OW25036   3.193   2.988   6.138 -0.2500  0.0861  0.3148
 4467SOL    HW125037   3.214   3.080   6.156 -2.9094  0.7833 -0.1372
 4467SOL    HW225038   3.123   2.992   6.073 -1.5496  0.7888  1.7834
 4468SOL     OW25039   0.546   1.517  10.183  0.0810  0.2590 -0.2629
 4468SOL    HW125040   0.485   1.452  10.217  1.7741 -1.8811 -1.3660
 4468SOL    HW225041   0.507   1.597  10.218 -0.6106 -0.8907  1.5926
 4469SOL     OW25042   0.473   3.483   8.206 -0.0747 -0.4255  0.1671
 4469SOL    HW125043   0.532   3.468   8.280  2.5595 -0.0468 -1.8242
 4469SOL    HW225044   0.502   3.548   8.141  0.4366 -0.5339  0.2818
 4470SOL     OW25045   4.332   2.428   4.364  0.0114  0.2307  0.1376
 4470SOL    HW125046   4.250   2.469   4.393 -0.2217 -0.3272  0.2896
 4470SOL    HW225047   4.356   2.390   4.448  1.6568 -0.4490 -0.6367
 4471SOL     OW25048   3.691   4.336  10.076  0.1973  0.0976  0.0690
 4471SOL    HW125049   3.669   4.394  10.003  0.3920  1.2181  0.8995
 4471SOL    HW225050   3.711   4.257  10.026 -2.4053 -1.9483  2.2537
 4472SOL     OW25051   3.849   4.667   0.323  0.3621 -0.3474 -0.2349
 4472SOL    HW125052   3.806   4.724   0.387  0.1954 -0.1196 -0.5484
 4472SOL    HW225053   3.937   4.706   0.325 -0.3792  1.3951 -1.1511
 4473SOL     OW25054   1.056   0.222   0.294 -0.2815  0.8995  0.0329
 4473SOL    HW125055   0.960   0.222   0.299 -0.4728 -0.6688 -3.4847
 4473SOL    HW225056   1.069   0.317   0.298  0.2641  0.8421 -0.4170
 4474SOL     OW25057   1.802   2.421   8.648  0.3817 -0.3900 -0.1550
 4474SOL    HW125058   1.883   2.470   8.652  0.1569 -0.1276  1.2626
 4474SOL    HW225059   1.731   2.460   8.699  1.8033  1.4437  0.4072
 4475SOL     OW25060   2.431   4.703   9.780 -0.5942 -0.4747  0.6519
 4475SOL    HW125061   2.463   4.619   9.811 -0.7739 -1.0492 -0.7009
 4475SOL    HW225062   2.343   4.712   9.817 -1.8505 -3.0018 -1.7178
 4476SOL     OW25063   2.383   1.923  12.690 -0.5584 -0.0362 -0.0567
 4476SOL    HW125064   2.346   2.000  12.732 -1.8381 -1.4682  1.4014
 4476SOL    HW225065   2.353   1.860  12.755  1.8483 -1.3509 -0.2213
 4477SOL     OW25066   0.029   1.013   5.492 -0.6783  0.2532 -0.1739
 4477SOL    HW125067   0.120   0.989   5.475 -1.0736 -1.2196 -0.1413
 4477SOL    HW225068   0.026   1.106   5.468 -0.5300 -0.2816 -2.2562
 4478SOL     OW25069   0.893   4.442   3.095 -0.0574  0.2127 -0.7987
 4478SOL    HW125070   0.831   4.507   3.128 -0.7803 -1.0204  0.3105
 4478SOL    HW225071   0.961   4.440   3.162 -1.9956  1.0456  1.1964
 4479SOL     OW25072   1.672   1.237   5.824 -0.2999 -0.4246 -0.0869
 4479SOL    HW125073   1.697   1.144   5.829 -1.9647 -0.8225  0.8274
 4479SOL    HW225074   1.683   1.267   5.915 -2.5430  3.1618 -1.0088
 4480SOL     OW25075   3.540   3.746  15.371 -0.7973 -0.4586 -0.1958
 4480SOL    HW125076   3.518   3.817  15.431  0.4438 -1.7925  1.8460
 4480SOL    HW225077   3.635   3.752  15.380 -0.9983  1.5286  0.4095
 4481SOL     OW25078   3.783   1.602   2.555 -0.8761  0.1037 -0.0388
 4481SOL    HW125079   3.865   1.640   2.587 -0.3156 -1.1067 -0.0289
 4481SOL    HW225080   3.776   1.528   2.615 -1.9672 -1.3885 -1.9876
 4482SOL     OW25081   3.144   2.480  17.496 -0.0022  0.1401 -0.2543
 4482SOL    HW125082   3.049   2.491  17.500 -0.2037 -1.9346  0.9947
 4482SOL    HW225083   3.145   2.387  17.474 -0.4351  0.1773 -0.4217
 4483SOL     OW25084   1.482   1.137  14.608  0.4040  0.3311 -0.2873
 4483SOL    HW125085   1.408   1.095  14.652 -0.2314  1.4044 -0.3249
 4483SOL    HW225086   1.432   1.138  14.527  0.3593  0.8314 -0.2562
 4484SOL     OW25087   2.537   4.230   8.986 -0.2284  0.3627  0.2542
 4484SOL    HW125088   2.525   4.320   9.016  2.3458  1.1935 -1.2629
 4484SOL    HW225089   2.553   4.251   8.894  0.1780  2.6025  0.8454
 4485SOL     OW25090   0.551   0.809  15.933 -0.0572 -0.0267 -0.1861
 4485SOL    HW125091   0.512   0.833  15.849 -2.0857 -0.4541  0.6265
 4485SOL    HW225092   0.635   0.776  15.903  0.1327  0.4006 -0.1258
 4486SOL     OW25093   0.404   1.075   5.118  0.0826 -0.8355 -0.1361
 4486SOL    HW125094   0.379   1.024   5.040 -0.7205 -1.9706  0.8654
 4486SOL    HW225095   0.476   1.021   5.152  1.1050  2.0866  2.3547
 4487SOL     OW25096   3.172   2.151   7.823  0.0595 -0.3121  0.1816
 4487SOL    HW125097   3.112   2.214   7.862 -0.9764  0.1385 -2.1217
 4487SOL    HW225098   3.165   2.195   7.738  3.6780 -0.0413  0.0246
 4488SOL     OW25099   1.096   1.326   6.900 -0.2313  0.0539 -0.0400
 4488SOL    HW125100   1.011   1.335   6.857 -0.0940  0.2315 -0.2738
 4488SOL    HW225101   1.144   1.401   6.865  0.6078 -0.0132  0.9836
 4489SOL     OW25102   1.029   0.314   3.197  0.0282 -0.4478  0.0652
 4489SOL    HW125103   1.092   0.306   3.269  2.0547 -0.3678 -1.6902
 4489SOL    HW225104   1.022   0.225   3.161 -0.1380  0.1024 -1.2465
 4490SOL     OW25105   1.118   1.177  16.758  0.6928  0.1778  0.2552
 4490SOL    HW125106   1.153   1.139  16.677  1.0717  1.6724 -0.2803
 4490SOL    HW225107   1.119   1.105  16.821 -2.0068  0.5979  0.7663
 4491SOL     OW25108   0.698   1.651   6.463  0.2449  0.0166  0.0331
 4491SOL    HW125109   0.628   1.703   6.424 -0.3233 -1.6299 -1.1498
 4491SOL    HW225110   0.775   1.672   6.410  1.0126  1.1796  1.6278
 4492SOL     OW25111   0.690   1.347   3.982 -0.1865 -0.4964  0.4476
 4492SOL    HW125112   0.760   1.338   3.918 -1.6859 -2.3208 -0.9394
 4492SOL    HW225113   0.740   1.397   4.046 -0.1477 -0.4856  0.4087
 4493SOL     OW25114   2.141   2.320  15.949  0.1057 -0.1756  0.4872
 4493SOL    HW125115   2.083   2.244  15.959 -0.7455  0.6815  2.0583
 4493SOL    HW225116   2.189   2.320  16.031 -1.7751 -1.3963  1.6103
 4494SOL     OW25117   3.418   1.178   3.236 -0.1309  0.4196 -0.2817
 4494SOL    HW125118   3.334   1.158   3.276 -0.2256  0.5635 -0.4069
 4494SOL    HW225119   3.394   1.223   3.154 -1.6112 -0.0695 -0.1068
 4495SOL     OW25120   0.608   2.040   1.762  0.1067 -0.0889 -0.3547
 4495SOL    HW125121   0.528   2.087   1.784  1.4631  1.9742  0.0817
 4495SOL    HW225122   0.625   2.007   1.850  1.5554 -1.3231 -1.1033
 4496SOL     OW25123   4.051   0.918   4.702  0.5153  0.6957 -0.2086
 4496SOL    HW125124   4.133   0.920   4.751  0.3367  0.5824  0.0973
 4496SOL    HW225125   4.025   0.829   4.724 -0.3363  0.9429 -0.2048
 4497SOL     OW25126   3.637   2.565  11.225  0.0685 -0.7530 -0.0548
 4497SOL    HW125127   3.665   2.502  11.159  0.2685 -2.1739  1.3769
 4497SOL    HW225128   3.563   2.609  11.184  1.0745  0.8132 -0.1959
 4498SOL     OW25129   3.815   3.466   8.835 -0.3503  0.1974  0.0389
 4498SOL    HW125130   3.727   3.465   8.872 -0.4283  0.2643 -0.1481
 4498SOL    HW225131   3.850   3.547   8.872 -0.4398  0.0057  0.5417
 4499SOL     OW25132   1.109   2.883   8.980  0.1037  0.1162  0.0258
 4499SOL    HW125133   1.061   2.965   8.972 -1.0651 -0.6581 -0.9770
 4499SOL    HW225134   1.187   2.906   9.030 -0.3069  2.8110 -0.5884
 4500SOL     OW25135   2.337   0.061   0.292  0.2795  0.0595  0.0162
 4500SOL    HW125136   2.310   0.151   0.309  0.1105 -0.2169  1.2189
 4500SOL    HW225137   2.399   0.078   0.221 -0.0001 -0.6825 -0.4199
 4501SOL     OW25138   4.425   3.644   4.433  0.4590  0.1119  0.1630
 4501SOL    HW125139   4.422   3.637   4.338  1.6482 -1.7058  0.2612
 4501SOL    HW225140   4.451   3.736   4.441  0.0580  0.1987  0.5078
 4502SOL     OW25141   1.457   3.108   6.964  0.1176  0.1923 -0.1535
 4502SOL    HW125142   1.371   3.104   7.006  0.3102 -1.8763  0.0800
 4502SOL    HW225143   1.505   3.061   7.032  0.5188  2.0056  0.7910
 4503SOL     OW25144   4.269   0.883   4.861 -0.2102 -0.0603 -0.2851
 4503SOL    HW125145   4.252   0.890   4.955 -0.1260 -0.9200 -0.2013
 4503SOL    HW225146   4.324   0.960   4.848  1.2132 -0.7342  1.7620
 4504SOL     OW25147   4.083   0.641  14.726 -0.1560  0.0467  0.1184
 4504SOL    HW125148   4.060   0.649  14.819 -1.4483  0.9744 -0.2886
 4504SOL    HW225149   4.140   0.713  14.699  0.4397 -0.2564  0.5617
 4505SOL     OW25150   3.186   4.416   5.006  0.3007 -0.0735  0.1604
 4505SOL    HW125151   3.134   4.466   4.944 -1.0051 -2.3641 -0.6129
 4505SOL    HW225152   3.270   4.420   4.960  1.3441  5.4059  2.6068
 4506SOL     OW25153   2.723   1.722   3.175  0.3514 -0.0669  0.0161
 4506SOL    HW125154   2.748   1.636   3.139 -1.8388 -0.2895 -1.0086
 4506SOL    HW225155   2.751   1.773   3.099 -0.8972  1.1556  0.3828
 4507SOL     OW25156   4.555   4.131   7.248  0.8318 -0.3432  0.4600
 4507SOL    HW125157   4.568   4.204   7.309 -1.0345  0.4702 -0.1170
 4507SOL    HW225158   4.594   4.067   7.308 -1.7011 -1.9190  0.4194
 4508SOL     OW25159   2.788   2.986  14.964  0.3619 -0.3432  0.1403
 4508SOL    HW125160   2.763   2.975  14.872  1.6635  2.8809 -0.6307
 4508SOL    HW225161   2.704   2.996  15.008 -0.0858 -1.8193 -0.3883
 4509SOL     OW25162   0.791   1.078   6.987  0.0708  0.1722 -0.1087
 4509SOL    HW125163   0.835   1.049   7.067  0.6148 -3.5728 -1.7780
 4509SOL    HW225164   0.795   1.174   6.992 -1.9217  0.3913 -2.4771
 4510SOL     OW25165   0.890   2.517  12.041  0.2127 -0.1223 -0.3449
 4510SOL    HW125166   0.848   2.465  11.973  1.4942 -1.4618 -0.1235
 4510SOL    HW225167   0.921   2.450  12.103  0.8759  0.7412  0.2582
 4511SOL     OW25168   0.488   2.665   8.901  0.7591  0.1295  0.4300
 4511SOL    HW125169   0.520   2.595   8.958  0.9579 -0.2302 -0.1255
 4511SOL    HW225170   0.449   2.730   8.959  0.5669 -0.4117  0.9148
 4512SOL     OW25171   1.253   0.742  13.357  0.1027  0.3993  0.1008
 4512SOL    HW125172   1.276   0.711  13.270 -1.2720 -1.2960  0.3590
 4512SOL    HW225173   1.282   0.834  13.362  0.1494  0.3974 -0.1476
 4513SOL     OW25174   1.327   2.259   7.176  0.5987  0.7120 -0.1057
 4513SOL    HW125175   1.283   2.197   7.235 -0.1760  1.5591  0.1988
 4513SOL    HW225176   1.322   2.201   7.100  0.8134  0.0876  0.3562
 4514SOL     OW25177   2.730   4.525   8.936 -0.5379  0.5447 -0.1634
 4514SOL    HW125178   2.771   4.576   8.866  0.5959 -0.1201  0.0125
 4514SOL    HW225179   2.808   4.490   8.979  0.1909  0.5584 -1.4660
 4515SOL     OW25180   3.083   4.541   5.249 -0.5249  0.1942 -0.4449
 4515SOL    HW125181   3.060   4.461   5.297  0.7843  0.1906  0.1924
 4515SOL    HW225182   3.125   4.505   5.171 -0.5296  3.3365 -1.8917
 4516SOL     OW25183   2.692   2.523  17.639 -0.8524 -0.4491  0.2011
 4516SOL    HW125184   2.618   2.463  17.649 -2.5744  1.9426  1.8681
 4516SOL    HW225185   2.725   2.528  17.729  0.0311  0.6845 -0.1840
 4517SOL     OW25186   3.680   1.564   5.433  0.5535 -0.1518 -0.3602
 4517SOL    HW125187   3.690   1.473   5.402 -0.3502 -0.0244 -1.0025
 4517SOL    HW225188   3.664   1.621   5.358 -1.0037  0.9569  0.8218
 4518SOL     OW25189   2.773   1.790  14.885  0.2853  0.2427 -0.4643
 4518SOL    HW125190   2.696   1.842  14.908 -0.8433 -1.6232  0.0528
 4518SOL    HW225191   2.812   1.834  14.810 -1.4603  1.9722 -0.3445
 4519SOL     OW25192   1.247   1.413   3.715  0.2853  0.7600 -0.2231
 4519SOL    HW125193   1.323   1.357   3.730 -0.5678  0.1364  1.6995
 4519SOL    HW225194   1.175   1.349   3.715  0.3765  0.6627  0.4745
 4520SOL     OW25195   4.417   2.486   6.639  0.0329 -0.1059 -0.3688
 4520SOL    HW125196   4.447   2.520   6.723  2.7652 -0.7259 -1.0860
 4520SOL    HW225197   4.322   2.482   6.652  0.3874 -1.3594  1.9035
 4521SOL     OW25198   3.043   4.140   4.297 -0.5870 -0.0557 -0.4466
 4521SOL    HW125199   3.081   4.062   4.257 -0.3860  1.0866 -2.4723
 4521SOL    HW225200   2.978   4.157   4.229 -0.4197  2.9578  0.1436
 4522SOL     OW25201   3.744   4.639   7.655  0.6382  0.2524  0.1026
 4522SOL    HW125202   3.762   4.599   7.740  3.2673 -0.3856 -0.7646
 4522SOL    HW225203   3.711   4.726   7.679 -1.2680 -0.4244 -0.0180
 4523SOL     OW25204   2.192   4.564   5.809  0.6947  0.4642 -0.3681
 4523SOL    HW125205   2.217   4.634   5.749  0.5628  1.9038  1.2590
 4523SOL    HW225206   2.274   4.541   5.854  0.8177  0.0520 -0.8050
 4524SOL     OW25207   2.703   1.917  10.904  0.1330  1.0090 -0.1565
 4524SOL    HW125208   2.786   1.937  10.947  0.3414 -1.8814  0.7270
 4524SOL    HW225209   2.654   1.876  10.976  0.0008  0.1643 -0.7323
 4525SOL     OW25210   1.478   0.915   4.873 -0.1576 -0.1343 -0.1788
 4525SOL    HW125211   1.467   0.847   4.940  0.2608 -0.2447 -0.2235
 4525SOL    HW225212   1.568   0.892   4.849  0.5920  1.4675  1.0863
 4526SOL     OW25213   0.327   0.967   4.197  0.0220 -0.8945 -0.2913
 4526SOL    HW125214   0.334   0.954   4.292 -2.0459 -2.3647 -0.3531
 4526SOL    HW225215   0.297   1.057   4.202  1.8437 -0.3554  1.0959
 4527SOL     OW25216   1.445   1.781   7.626  0.0665  0.0656  0.1397
 4527SOL    HW125217   1.465   1.851   7.688  2.2749 -1.0195  0.6530
 4527SOL    HW225218   1.350   1.783   7.623  0.0087 -1.9124  1.2039
 4528SOL     OW25219   0.290   3.551   2.460 -0.2484  0.0932 -0.5120
 4528SOL    HW125220   0.258   3.556   2.550  3.1919 -1.6055  0.8174
 4528SOL    HW225221   0.257   3.466   2.430 -3.2180  1.3238 -0.7495
 4529SOL     OW25222   0.208   0.834   4.601 -0.5246  0.2255  0.0582
 4529SOL    HW125223   0.189   0.748   4.563 -0.1219  0.5529 -0.8841
 4529SOL    HW225224   0.152   0.829   4.678  0.2716  0.1781  0.6349
 4530SOL     OW25225   0.893   2.623   1.726 -1.0314 -0.1110 -0.5523
 4530SOL    HW125226   0.857   2.707   1.754 -2.1277 -0.1819 -1.7376
 4530SOL    HW225227   0.818   2.564   1.733 -0.7113 -0.5333 -0.7047
 4531SOL     OW25228   3.054   2.400   8.295 -0.1944 -0.6160  0.1561
 4531SOL    HW125229   3.106   2.363   8.366  1.2789 -1.5173 -1.4080
 4531SOL    HW225230   3.108   2.449   8.233  1.7643 -2.8026  0.1520
 4532SOL     OW25231   0.899   2.779   4.378  0.6139 -0.0869 -0.7779
 4532SOL    HW125232   0.892   2.761   4.284  2.1500 -0.6473 -0.7784
 4532SOL    HW225233   0.848   2.710   4.420  0.0461  2.1210  2.1545
 4533SOL     OW25234   2.206   0.306   0.026  0.2199 -0.3195  0.1980
 4533SOL    HW125235   2.272   0.375   0.024  0.1336 -0.2839 -1.2812
 4533SOL    HW225236   2.261   0.246   0.076  0.6255  0.2343  0.4191
 4534SOL     OW25237   0.265   3.494   8.784 -0.1022  0.5980  0.5990
 4534SOL    HW125238   0.209   3.554   8.735 -0.8258 -0.8910 -0.4284
 4534SOL    HW225239   0.195   3.450   8.831  0.7666 -1.9200 -0.4138
 4535SOL     OW25240   0.179   3.352   2.266  0.0481  0.1781  0.4717
 4535SOL    HW125241   0.098   3.342   2.318 -0.2032 -0.5552 -0.0594
 4535SOL    HW225242   0.148   3.410   2.197  0.9021  0.5362  0.3986
 4536SOL     OW25243   0.686   2.262  17.315 -0.3276 -0.2601  0.5196
 4536SOL    HW125244   0.781   2.256  17.314 -0.3083  0.3475 -1.8123
 4536SOL    HW225245   0.677   2.342  17.368 -1.4090  0.6531 -1.0302
 4537SOL     OW25246   2.792   2.394   7.589  0.2665  0.1579 -0.0103
 4537SOL    HW125247   2.811   2.311   7.632  0.9171 -0.6492 -1.8607
 4537SOL    HW225248   2.866   2.401   7.528 -0.8421  2.1233 -1.1150
 4538SOL     OW25249   4.387   0.944   1.848  0.3206 -0.3036 -0.1679
 4538SOL    HW125250   4.350   0.896   1.922 -2.6876 -0.2643 -1.6661
 4538SOL    HW225251   4.444   0.880   1.804 -1.0328 -2.3075  1.0244
 4539SOL     OW25252   0.277   0.738   5.211  0.2174 -0.0916  0.0819
 4539SOL    HW125253   0.348   0.729   5.147  1.0558  0.7921  0.8814
 4539SOL    HW225254   0.329   0.761   5.288 -0.7807  0.9211  0.4643
 4540SOL     OW25255   1.740   2.393   4.071 -0.3255  0.4744 -0.2875
 4540SOL    HW125256   1.738   2.444   4.152 -0.3107 -1.6668  1.0544
 4540SOL    HW225257   1.830   2.410   4.041 -0.2494  1.8838  0.7088
 4541SOL     OW25258   3.513   3.488   7.252  0.1654  0.1000 -0.0866
 4541SOL    HW125259   3.430   3.470   7.296  1.6653 -0.5589  2.5241
 4541SOL    HW225260   3.559   3.511   7.333  0.7017  1.0380 -0.6597
 4542SOL     OW25261   2.720   3.584  14.084  0.8791  0.1203  0.3547
 4542SOL    HW125262   2.806   3.577  14.125  0.5638  0.0945  1.0099
 4542SOL    HW225263   2.745   3.656  14.025  2.9330  0.3024  1.4644
 4543SOL     OW25264   1.252   0.097  16.735  0.5579  0.0216 -0.1709
 4543SOL    HW125265   1.295   0.136  16.811 -1.4121  0.5555  0.6754
 4543SOL    HW225266   1.338   0.074  16.700  1.7224  0.9861  2.0387
 4544SOL     OW25267   1.793   2.303   5.715 -0.2423  0.1966 -0.2941
 4544SOL    HW125268   1.812   2.317   5.808 -0.1568  0.9390 -0.4228
 4544SOL    HW225269   1.812   2.209   5.714  0.6627  0.3987 -1.7062
 4545SOL     OW25270   2.318   2.601   8.267 -0.4177 -0.3563  0.4407
 4545SOL    HW125271   2.341   2.545   8.341 -0.3264 -1.5562 -0.4940
 4545SOL    HW225272   2.321   2.539   8.193  3.2875 -0.2055  0.4639
 4546SOL     OW25273   2.043   3.501   0.943  0.2577 -0.5194 -0.1164
 4546SOL    HW125274   2.115   3.523   0.884  0.5745 -0.3950  0.3100
 4546SOL    HW225275   1.988   3.452   0.882 -2.9568  2.7480  0.1303
 4547SOL     OW25276   0.787   2.098   7.837 -0.1631 -0.5302  0.4580
 4547SOL    HW125277   0.711   2.154   7.826 -1.1391 -2.1605 -1.0744
 4547SOL    HW225278   0.799   2.110   7.931  0.9353  0.8241  0.1573
 4548SOL     OW25279   2.805   0.220  17.203 -0.1992 -0.1797 -0.2494
 4548SOL    HW125280   2.858   0.194  17.127  0.3242 -0.9269  0.3704
 4548SOL    HW225281   2.788   0.137  17.248 -2.5309 -0.4326 -1.6164
 4549SOL     OW25282   0.066   2.675  14.717  0.3293  0.0254 -0.1912
 4549SOL    HW125283   0.108   2.602  14.671 -0.5596 -0.4188 -0.3163
 4549SOL    HW225284   0.001   2.692  14.649  0.8886  0.8822 -0.4935
 4550SOL     OW25285   1.296   3.789   3.903 -0.4807  0.0084 -0.2505
 4550SOL    HW125286   1.236   3.840   3.850 -0.2536 -0.4301 -0.9338
 4550SOL    HW225287   1.371   3.847   3.916 -0.8274  0.1688  1.0939
 4551SOL     OW25288   4.439   1.253   8.447 -0.1181 -0.6423  0.0678
 4551SOL    HW125289   4.418   1.162   8.465  0.0822 -0.6803  0.1089
 4551SOL    HW225290   4.353   1.292   8.458 -0.5048 -1.9254  1.4942
 4552SOL     OW25291   3.185   3.538   8.252 -0.4227 -0.2091 -0.7386
 4552SOL    HW125292   3.123   3.610   8.258 -0.1502 -0.1419  1.3013
 4552SOL    HW225293   3.147   3.477   8.316 -3.1101  0.8563 -1.3140
 4553SOL     OW25294   4.494   2.753  11.067 -0.2506  0.2681 -0.7585
 4553SOL    HW125295   4.441   2.682  11.030 -1.7520  0.2573  1.4531
 4553SOL    HW225296   4.557   2.696  11.112  1.1072  2.1225 -0.2951
 4554SOL     OW25297   1.546   0.379  10.371  0.0360  0.3074  0.1886
 4554SOL    HW125298   1.635   0.349  10.347 -1.1587 -2.6415 -0.6062
 4554SOL    HW225299   1.532   0.426  10.289 -1.5276 -2.4272 -1.1270
 4555SOL     OW25300   1.453   2.439   0.546  0.7506 -0.7378  0.7521
 4555SOL    HW125301   1.484   2.404   0.629  1.8268  1.2909  1.1935
 4555SOL    HW225302   1.459   2.534   0.558 -2.2331 -0.5296  0.6334
 4556SOL     OW25303   2.515   3.585   4.286  0.4745  0.4722 -0.2445
 4556SOL    HW125304   2.542   3.641   4.359  1.5215  1.7547 -1.6225
 4556SOL    HW225305   2.582   3.610   4.223 -0.1778 -1.0070 -1.5242
 4557SOL     OW25306   1.141   3.920   6.068  0.2896 -0.6268 -0.0317
 4557SOL    HW125307   1.078   3.946   6.001 -0.1979 -0.4715  0.4879
 4557SOL    HW225308   1.164   3.836   6.029  0.9551  0.1326 -1.2858
 4558SOL     OW25309   4.692   1.985   3.511  0.2560 -0.4999 -0.2850
 4558SOL    HW125310   4.721   2.029   3.431 -0.1959 -0.4835 -0.4399
 4558SOL    HW225311   0.032   1.998   3.564  1.2430 -0.4678 -1.7622
 4559SOL     OW25312   2.221   1.103   2.324  0.1751 -0.0175 -0.4025
 4559SOL    HW125313   2.264   1.116   2.239  0.6444 -0.5017 -0.2421
 4559SOL    HW225314   2.247   1.014   2.348 -1.6875 -0.1338  1.1360
 4560SOL     OW25315   3.082   3.733  12.898 -0.0726 -0.0324  0.0118
 4560SOL    HW125316   3.003   3.781  12.923 -1.7639 -2.8358  0.0208
 4560SOL    HW225317   3.126   3.810  12.863 -1.4346  1.1983  0.9884
 4561SOL     OW25318   4.507   1.513   3.622  0.4980 -0.2070 -0.0623
 4561SOL    HW125319   4.555   1.443   3.667 -0.5347 -0.7733  0.1649
 4561SOL    HW225320   4.575   1.550   3.567 -0.0486 -1.1417 -1.3577
 4562SOL     OW25321   4.168   3.269   4.754  0.4650 -0.1920 -0.4646
 4562SOL    HW125322   4.160   3.174   4.758 -0.5251 -0.1886 -2.0797
 4562SOL    HW225323   4.141   3.275   4.662  0.5451  0.4694 -0.4439
 4563SOL     OW25324   4.178   2.830   6.310 -0.0321 -0.3000  0.0270
 4563SOL    HW125325   4.120   2.764   6.274 -0.4200  0.7288 -1.2031
 4563SOL    HW225326   4.254   2.809   6.255 -0.1210 -0.7822  0.0813
 4564SOL     OW25327   1.075   2.353   5.511  0.2413  0.1209  0.4218
 4564SOL    HW125328   1.105   2.270   5.547 -0.6074 -1.0473 -1.5804
 4564SOL    HW225329   1.014   2.320   5.446  0.9294  1.0408 -0.7039
 4565SOL     OW25330   0.509   3.025   9.293 -0.0227 -0.7004  0.1323
 4565SOL    HW125331   0.603   3.012   9.280  0.1418  1.4994 -0.8354
 4565SOL    HW225332   0.488   3.102   9.241  2.0681  0.4892  1.0146
 4566SOL     OW25333   0.563   2.796   5.255  0.6929  0.2076 -0.3406
 4566SOL    HW125334   0.653   2.807   5.222  1.2820  0.8651  1.4494
 4566SOL    HW225335   0.523   2.878   5.226  0.2914  0.8868  2.1552
 4567SOL     OW25336   4.373   2.621   2.741 -0.0409 -0.0301 -0.2017
 4567SOL    HW125337   4.364   2.550   2.804  1.9099  1.2292  1.4932
 4567SOL    HW225338   4.314   2.589   2.673 -1.6342  0.8608  0.7468
 4568SOL     OW25339   1.762   3.581   9.104  0.1317 -0.3189 -0.1405
 4568SOL    HW125340   1.769   3.486   9.097  0.3619 -0.3099 -0.0488
 4568SOL    HW225341   1.755   3.608   9.013  1.9560 -1.8126 -0.7307
 4569SOL     OW25342   0.593   1.151   0.873  0.2695  0.3214 -0.5015
 4569SOL    HW125343   0.570   1.206   0.948  0.7453 -1.3407  0.8691
 4569SOL    HW225344   0.517   1.096   0.855 -0.1670  0.8005 -0.1367
 4570SOL     OW25345   1.432   0.878   4.190 -0.1512  0.0081 -0.5228
 4570SOL    HW125346   1.435   0.904   4.099 -3.0612  1.5141 -0.1910
 4570SOL    HW225347   1.458   0.954   4.242  0.3369 -1.0965  0.8842
 4571SOL     OW25348   0.778   2.003   5.331  0.0541 -0.6504  0.0217
 4571SOL    HW125349   0.778   1.941   5.257 -1.0542 -2.8757  1.8756
 4571SOL    HW225350   0.683   2.019   5.333  0.3332  1.0837 -1.3363
 4572SOL     OW25351   3.722   4.298   7.724  0.3724 -0.9135  0.0407
 4572SOL    HW125352   3.756   4.372   7.774  0.9628 -0.2262 -1.4085
 4572SOL    HW225353   3.768   4.299   7.640 -0.5331  0.2104 -0.4293
 4573SOL     OW25354   1.905   0.078   5.271  0.1471  0.1209  0.4472
 4573SOL    HW125355   1.864   4.732   5.257 -0.5026  0.5075  0.0100
 4573SOL    HW225356   1.968   0.051   5.338  0.7098 -0.4023 -0.2998
 4574SOL     OW25357   1.382   3.843   5.679  0.2465 -0.0777 -0.4753
 4574SOL    HW125358   1.409   3.875   5.593 -0.0746  2.3164  0.3074
 4574SOL    HW225359   1.419   3.912   5.735  1.0591 -1.5461  0.8094
 4575SOL     OW25360   2.066   0.408  15.011  0.4308 -0.0739  0.1808
 4575SOL    HW125361   2.086   0.316  14.992 -0.1426  0.1535 -1.5460
 4575SOL    HW225362   2.082   0.454  14.928 -0.4395  1.4719  0.8772
 4576SOL     OW25363   3.410   4.659   4.913  0.3998  0.0578  0.3390
 4576SOL    HW125364   3.362   4.686   4.991  0.6907  1.0958  0.1670
 4576SOL    HW225365   3.436   4.574   4.948  0.7619  0.4445  1.0405
 4577SOL     OW25366   0.370   0.849   6.634 -0.5353 -0.5360  0.4725
 4577SOL    HW125367   0.435   0.904   6.590 -2.5897  2.2695  0.9093
 4577SOL    HW225368   0.327   0.913   6.691 -0.7507 -0.0413 -0.2386
 4578SOL     OW25369   3.367   0.801   8.360 -0.0134  0.0952 -0.5343
 4578SOL    HW125370   3.431   0.844   8.416 -1.4245 -1.1393  1.9995
 4578SOL    HW225371   3.295   0.837   8.412 -0.1062 -0.2871 -0.3969
 4579SOL     OW25372   3.715   2.732   1.675 -0.0979 -0.1129 -0.1770
 4579SOL    HW125373   3.729   2.827   1.675  1.5079 -0.3371 -1.4847
 4579SOL    HW225374   3.737   2.711   1.584 -0.6220 -0.6128 -0.1855
 4580SOL     OW25375   1.063   2.281   2.866 -0.0228  0.3224 -0.2317
 4580SOL    HW125376   1.000   2.213   2.890 -0.5569  0.8369 -0.1818
 4580SOL    HW225377   1.088   2.318   2.951 -0.0473  2.2990 -1.0899
 4581SOL     OW25378   3.647   1.815   7.432 -0.1584  0.1535  0.4641
 4581SOL    HW125379   3.714   1.862   7.382 -0.1250  0.5650  0.8945
 4581SOL    HW225380   3.691   1.737   7.464 -0.7206 -0.5294 -0.4185
 4582SOL     OW25381   2.573   3.760   1.641  0.1043  0.1020  0.3300
 4582SOL    HW125382   2.493   3.709   1.632  0.3088 -0.9092  3.9767
 4582SOL    HW225383   2.565   3.810   1.560  0.9744 -1.2525 -0.5800
 4583SOL     OW25384   3.311   3.621  15.454 -0.3430  0.0287 -0.3044
 4583SOL    HW125385   3.298   3.573  15.372 -0.2378 -0.6125  0.0466
 4583SOL    HW225386   3.390   3.672  15.437 -1.0543  0.9897 -0.7209
 4584SOL     OW25387   0.880   3.649   8.205 -0.6759 -0.0526 -0.0161
 4584SOL    HW125388   0.839   3.595   8.273 -2.7897  0.2896 -1.0258
 4584SOL    HW225389   0.806   3.701   8.175  0.4327  1.7852  0.4428
 4585SOL     OW25390   2.349   4.198   4.904  0.0576  0.2842 -0.3600
 4585SOL    HW125391   2.379   4.251   4.831  1.7307 -1.1928 -0.7349
 4585SOL    HW225392   2.429   4.185   4.954  0.4384  0.9452 -0.8016
 4586SOL     OW25393   1.401   3.641   6.071  0.5598  0.4436 -0.1200
 4586SOL    HW125394   1.477   3.637   6.012 -0.3982 -2.1118 -1.1832
 4586SOL    HW225395   1.420   3.557   6.114  1.8208 -0.5329 -2.5594
 4587SOL     OW25396   0.558   1.768   8.052  0.4402  0.1707  0.4958
 4587SOL    HW125397   0.635   1.712   8.048  0.3690  0.2008 -1.0088
 4587SOL    HW225398   0.532   1.746   8.142  0.7729  0.5978  0.6965
 4588SOL     OW25399   4.620   1.723   6.254  0.8935 -0.2672  0.6924
 4588SOL    HW125400   4.564   1.779   6.201 -0.0436 -3.1835 -1.4099
 4588SOL    HW225401   4.597   1.742   6.345  0.3857  0.4799  0.4057
 4589SOL     OW25402   1.511   4.186   9.672  0.2539 -0.2472  0.5165
 4589SOL    HW125403   1.445   4.192   9.602  1.0390 -1.5787 -0.3302
 4589SOL    HW225404   1.591   4.163   9.625 -1.3574 -1.1468 -1.7816
 4590SOL     OW25405   3.740   4.599   5.337 -0.0596  0.3847 -0.3159
 4590SOL    HW125406   3.685   4.665   5.294  0.5779  0.1893 -1.4488
 4590SOL    HW225407   3.682   4.523   5.342  1.3253 -0.5604  1.5348
 4591SOL     OW25408   0.880   4.601   2.403  0.3827  0.6921  0.6676
 4591SOL    HW125409   0.961   4.563   2.435 -0.0214 -1.1409 -0.4986
 4591SOL    HW225410   0.817   4.536   2.433  0.8146  1.3700  3.0784
 4592SOL     OW25411   0.915   4.579   6.065  0.1348  0.0040 -0.3232
 4592SOL    HW125412   0.978   4.517   6.101 -2.2738 -3.1254 -1.4681
 4592SOL    HW225413   0.966   4.635   6.006  1.2167 -0.3314  0.3074
 4593SOL     OW25414   0.957   4.308  17.361 -0.2878  0.4517 -0.2993
 4593SOL    HW125415   1.015   4.338  17.431 -1.8919 -1.1468  1.7531
 4593SOL    HW225416   0.925   4.396  17.341  2.6444  2.0579  2.1123
 4594SOL     OW25417   2.590   2.130   8.119 -0.5014 -0.3564  0.0690
 4594SOL    HW125418   2.597   2.136   8.214 -2.5763  1.6511  0.0885
 4594SOL    HW225419   2.504   2.094   8.098 -1.0409  0.1301  1.5050
 4595SOL     OW25420   1.266   1.598  12.627  0.3834 -0.4753  0.1477
 4595SOL    HW125421   1.235   1.518  12.584 -0.2511  0.2856 -0.7915
 4595SOL    HW225422   1.327   1.557  12.689  1.5574 -0.3861 -0.9515
 4596SOL     OW25423   1.447   2.769   9.285 -0.6265 -0.1102 -0.6492
 4596SOL    HW125424   1.440   2.677   9.312  1.5647 -0.2636 -0.5802
 4596SOL    HW225425   1.357   2.802   9.280  0.6693  3.3879 -0.3869
 4597SOL     OW25426   1.226   1.922   3.139  0.4046  0.1399  0.3168
 4597SOL    HW125427   1.243   1.984   3.068  1.7052 -3.1258 -2.2558
 4597SOL    HW225428   1.288   1.937   3.209  1.1080 -0.8694 -0.0833
 4598SOL     OW25429   2.443   0.066   4.035  0.0594  0.5222  0.7602
 4598SOL    HW125430   2.439   0.043   4.128  0.6106  0.8981  0.8731
 4598SOL    HW225431   2.353   0.093   4.014 -0.1014 -1.1757 -0.7348
 4599SOL     OW25432   2.333   1.371   4.426 -0.6436  0.2677  0.1521
 4599SOL    HW125433   2.375   1.325   4.498  1.2914  0.3198 -0.9217
 4599SOL    HW225434   2.252   1.324   4.405 -0.2950 -0.2269 -0.1002
 4600SOL     OW25435   2.115   3.583   4.103  0.8417  0.1235  0.1115
 4600SOL    HW125436   2.091   3.490   4.100  0.1540  0.3229 -0.3806
 4600SOL    HW225437   2.188   3.587   4.041 -0.5504 -0.2266 -1.5557
 4601SOL     OW25438   1.827   1.618  12.497 -0.2082 -0.0786 -0.1810
 4601SOL    HW125439   1.824   1.580  12.410 -0.5762 -1.1233  0.2867
 4601SOL    HW225440   1.897   1.684  12.493 -0.0238 -0.1254  2.3899
 4602SOL     OW25441   3.751   0.113   7.436 -0.6900  0.0337 -0.1176
 4602SOL    HW125442   3.674   0.057   7.443 -1.8086  1.5120 -0.4960
 4602SOL    HW225443   3.773   0.081   7.348 -0.6790 -0.1368 -0.0519
 4603SOL     OW25444   0.727   1.821   7.582  0.0070 -0.4385 -0.2665
 4603SOL    HW125445   0.725   1.725   7.579  0.4147 -0.5141  1.7383
 4603SOL    HW225446   0.634   1.839   7.574 -0.1188 -0.7329  0.5340
 4604SOL     OW25447   2.960   3.206   3.517  0.4117 -0.5009  0.0692
 4604SOL    HW125448   2.881   3.258   3.505  1.0822 -0.1487 -2.9746
 4604SOL    HW225449   2.959   3.151   3.438  0.4659 -1.2009  0.5483
 4605SOL     OW25450   0.402   3.217   3.742  0.5747 -0.5660 -0.1587
 4605SOL    HW125451   0.426   3.125   3.730  0.2162 -0.5774 -0.8171
 4605SOL    HW225452   0.380   3.241   3.652  1.6994 -1.9516 -0.8078
 4606SOL     OW25453   0.502   2.320  10.914 -0.0869 -0.1516  0.0607
 4606SOL    HW125454   0.585   2.340  10.869  0.0442 -1.2397 -0.1809
 4606SOL    HW225455   0.517   2.370  10.994 -1.1067 -0.5250  0.4755
 4607SOL     OW25456   1.031   3.534  13.030 -0.3308  0.2816 -0.2666
 4607SOL    HW125457   1.081   3.603  12.987 -0.6093  1.2154  0.9076
 4607SOL    HW225458   0.996   3.495  12.950  0.8406 -0.8442 -0.2273
 4608SOL     OW25459   1.095   4.421   2.816 -0.1431  0.3538  0.0381
 4608SOL    HW125460   1.047   4.504   2.821  1.1431  1.0972  0.1211
 4608SOL    HW225461   1.136   4.419   2.903  1.2739 -2.0999 -0.6972
 4609SOL     OW25462   2.670   1.920  13.746 -0.5776 -0.0672 -0.5166
 4609SOL    HW125463   2.609   1.891  13.813 -2.3487  4.2971 -0.2178
 4609SOL    HW225464   2.662   1.857  13.674  2.0993  1.0367 -1.8030
 4610SOL     OW25465   4.152   4.120  14.828 -0.0060 -0.1636 -0.4461
 4610SOL    HW125466   4.094   4.109  14.753 -1.8904 -1.1726  1.1483
 4610SOL    HW225467   4.098   4.072  14.892  0.1613 -0.5244 -0.5722
 4611SOL     OW25468   2.826   3.817   7.182  0.3034 -0.3912  0.2339
 4611SOL    HW125469   2.910   3.840   7.222 -0.1274  0.0894  0.8528
 4611SOL    HW225470   2.862   3.816   7.093  0.9739  0.8890  0.4904
 4612SOL     OW25471   4.598   1.341   8.768  0.2837 -0.1889 -0.0479
 4612SOL    HW125472   4.526   1.381   8.719  0.8317  2.3389  1.1880
 4612SOL    HW225473   4.580   1.248   8.754 -0.7255  0.0723 -0.5167
 4613SOL     OW25474   2.299   2.768   7.138 -0.0290  0.7103  0.4971
 4613SOL    HW125475   2.253   2.851   7.129  0.9364  1.4017  2.0026
 4613SOL    HW225476   2.341   2.784   7.222  0.2841  1.2198  0.2443
 4614SOL     OW25477   1.958   1.989  12.983  0.1973 -0.0306  0.1386
 4614SOL    HW125478   1.983   1.977  13.074  0.3929 -0.3037  0.0473
 4614SOL    HW225479   1.908   2.071  12.991 -0.5057 -0.2277 -2.2831
 4615SOL     OW25480   2.531   2.185  13.458  0.1347 -1.1500 -0.2820
 4615SOL    HW125481   2.581   2.146  13.530  0.4877 -1.6057 -0.7822
 4615SOL    HW225482   2.447   2.140  13.460 -1.1234  1.3703  3.2311
 4616SOL     OW25483   0.452   1.900   7.532  0.7475  0.0573  0.3760
 4616SOL    HW125484   0.406   1.816   7.522 -1.8169  1.1651  2.7057
 4616SOL    HW225485   0.418   1.948   7.456 -0.7646 -1.1134  0.3043
 4617SOL     OW25486   0.979   0.399   5.705  0.0817  0.2970  0.2656
 4617SOL    HW125487   0.960   0.483   5.745 -1.0135 -0.0572  0.4734
 4617SOL    HW225488   0.926   0.403   5.626 -0.7410  2.5767  0.9437
 4618SOL     OW25489   4.707   1.724   5.685 -0.2643  0.2170 -0.2164
 4618SOL    HW125490   4.689   1.744   5.777  0.9533  0.4736 -0.0292
 4618SOL    HW225491   0.014   1.805   5.662 -0.0352 -0.1506 -1.0758
 4619SOL     OW25492   1.582   4.112   6.439 -0.5061 -0.2158  1.0448
 4619SOL    HW125493   1.570   4.022   6.409 -0.0654  0.1687 -0.3012
 4619SOL    HW225494   1.572   4.099   6.533  0.3219 -1.0020  1.0283
 4620SOL     OW25495   2.739   3.015   4.798  0.1298 -0.2716  0.7677
 4620SOL    HW125496   2.732   2.983   4.708  0.9620 -0.1183  0.6470
 4620SOL    HW225497   2.717   3.107   4.782 -2.0575 -0.5647  2.0787
 4621SOL     OW25498   4.188   3.437  13.104 -0.5964 -0.0589 -0.1994
 4621SOL    HW125499   4.134   3.485  13.167 -0.5372 -0.6660  0.3110
 4621SOL    HW225500   4.196   3.349  13.142  1.9764 -0.0408 -0.7065
 4622SOL     OW25501   3.198   3.977   3.566  0.0933  0.0502  0.1556
 4622SOL    HW125502   3.172   4.025   3.645  0.8450 -0.3975  0.6678
 4622SOL    HW225503   3.181   4.039   3.494  0.3842 -0.8326 -0.6745
 4623SOL     OW25504   2.837   0.417  11.422 -0.2235  0.3843  0.2912
 4623SOL    HW125505   2.918   0.465  11.441  1.5458 -1.4884 -2.4415
 4623SOL    HW225506   2.790   0.439  11.502  2.1223  0.8159  1.5699
 4624SOL     OW25507   3.164   2.527   7.251 -0.6376  0.2137 -0.3968
 4624SOL    HW125508   3.199   2.509   7.164 -0.4836 -0.0554 -0.2814
 4624SOL    HW225509   3.236   2.497   7.308 -0.5074 -0.6037 -0.9876
 4625SOL     OW25510   3.827   0.686   2.825 -0.2458 -0.9653  0.7588
 4625SOL    HW125511   3.762   0.674   2.895 -0.9864 -0.0162  0.2356
 4625SOL    HW225512   3.789   0.642   2.749 -1.2723  1.0487  0.0984
 4626SOL     OW25513   1.366   0.121   3.005 -0.0531  0.5205  0.2938
 4626SOL    HW125514   1.327   0.034   3.019 -2.0753  1.3188 -0.3868
 4626SOL    HW225515   1.328   0.160   2.926  1.9626 -0.4815 -1.1805
 4627SOL     OW25516   0.661   1.775   6.769 -0.2673  0.0804 -0.6991
 4627SOL    HW125517   0.594   1.712   6.743 -1.7968  0.3018  2.7371
 4627SOL    HW225518   0.742   1.725   6.778 -0.8757 -1.0850 -1.6729
 4628SOL     OW25519   0.148   0.487  12.498 -0.1071 -0.2693 -0.2921
 4628SOL    HW125520   0.116   0.448  12.417 -0.4283 -0.5735 -0.0208
 4628SOL    HW225521   0.146   0.579  12.472  0.4397  0.1297  1.0698
 4629SOL     OW25522   4.140   0.079  14.690 -0.0917  0.0561 -0.4569
 4629SOL    HW125523   4.082   0.097  14.764  0.2284  1.4518 -0.5550
 4629SOL    HW225524   4.082   0.098  14.615 -0.5550 -1.9687 -0.6221
 4630SOL     OW25525   1.815   2.194   8.773  0.6971  0.2083  0.5794
 4630SOL    HW125526   1.837   2.128   8.707 -1.8786  0.8837 -0.9449
 4630SOL    HW225527   1.792   2.264   8.711  4.0272 -1.1665 -2.1863
 4631SOL     OW25528   0.212   2.698   9.329  0.1986  0.7642  0.0558
 4631SOL    HW125529   0.251   2.643   9.396  1.3905  1.2793 -0.2067
 4631SOL    HW225530   0.123   2.664   9.334  0.2088  0.7559  0.1767
 4632SOL     OW25531   0.594   0.509   2.909 -0.1298  0.2169  0.2316
 4632SOL    HW125532   0.620   0.417   2.897 -0.5052  0.4244 -2.1350
 4632SOL    HW225533   0.670   0.537   2.960  0.5802 -2.2962  0.5569
 4633SOL     OW25534   4.424   2.746   6.180  0.5593  0.1549  0.1570
 4633SOL    HW125535   4.503   2.798   6.165 -0.3959  1.5425 -0.1311
 4633SOL    HW225536   4.462   2.679   6.235 -0.8473 -0.3122  0.5534
 4634SOL     OW25537   3.597   3.916   2.203  0.2226  0.8196  0.4814
 4634SOL    HW125538   3.526   3.864   2.165 -0.9854  1.7538  1.4605
 4634SOL    HW225539   3.557   4.002   2.189 -2.7994 -0.7529 -0.5758
 4635SOL     OW25540   3.550   4.007   3.525 -0.1076 -0.3253  0.0678
 4635SOL    HW125541   3.499   4.083   3.498  1.0154 -0.0295 -1.2373
 4635SOL    HW225542   3.578   3.973   3.440  0.1882  0.5766 -0.1986
 4636SOL     OW25543   1.644   2.270   8.425  0.0636 -0.3688 -0.0867
 4636SOL    HW125544   1.601   2.311   8.350 -1.0138 -0.0189  0.7084
 4636SOL    HW225545   1.675   2.343   8.479 -0.4098 -0.1087 -0.1637
 4637SOL     OW25546   0.424   3.996   8.034 -0.6531  0.2153 -0.3199
 4637SOL    HW125547   0.519   3.994   8.037 -0.6692 -1.3691 -0.7253
 4637SOL    HW225548   0.409   3.965   7.944 -1.9761 -0.9503  0.2945
 4638SOL     OW25549   4.402   4.351   6.491  0.0480  0.1143 -0.0520
 4638SOL    HW125550   4.384   4.442   6.466 -0.1459 -0.1275 -0.8081
 4638SOL    HW225551   4.348   4.338   6.569 -2.5169 -1.2898 -2.0385
 4639SOL     OW25552   0.407   2.010   2.249 -0.2468 -0.0406 -0.1225
 4639SOL    HW125553   0.405   2.100   2.218  2.6462  0.7656  2.0618
 4639SOL    HW225554   0.492   1.984   2.213 -0.7895 -0.0236 -1.3856
 4640SOL     OW25555   2.539   4.633  17.410  0.5147  0.1867 -0.5432
 4640SOL    HW125556   2.488   4.554  17.399  1.3936 -0.6746  1.4799
 4640SOL    HW225557   2.622   4.585  17.420  0.5618  0.8525  2.5043
 4641SOL     OW25558   3.289   1.590   6.747  0.5865 -0.1212 -0.3115
 4641SOL    HW125559   3.302   1.629   6.661  0.0319 -0.0030 -0.3440
 4641SOL    HW225560   3.263   1.670   6.793  1.1750  1.6369 -3.0560
 4642SOL     OW25561   1.712   2.771  12.040  0.3288 -0.2365  0.6135
 4642SOL    HW125562   1.731   2.677  12.042  0.1368 -0.2706  0.7221
 4642SOL    HW225563   1.707   2.787  12.134 -0.1439  2.9707  0.0331
 4643SOL     OW25564   3.882   0.904   4.287 -0.3534 -0.6585 -0.3601
 4643SOL    HW125565   3.836   0.935   4.365 -0.9179 -1.1998 -0.4705
 4643SOL    HW225566   3.824   0.836   4.252 -0.5382 -0.1140 -1.0902
 4644SOL     OW25567   0.305   1.062   4.477 -0.1994 -0.1408 -0.6207
 4644SOL    HW125568   0.311   1.125   4.549 -0.5137  0.9176 -1.5115
 4644SOL    HW225569   0.303   0.984   4.531 -1.3034  0.9439  0.9127
 4645SOL     OW25570   3.170   4.509   2.368  0.0503  0.4465  0.5389
 4645SOL    HW125571   3.086   4.466   2.386  0.3015 -0.5376 -0.6252
 4645SOL    HW225572   3.146   4.589   2.414  3.4187  0.0319  3.0067
 4646SOL     OW25573   4.049   4.304   7.773  0.2292  0.2527  0.3957
 4646SOL    HW125574   4.019   4.363   7.842  2.1539  1.6001  0.0865
 4646SOL    HW225575   4.130   4.272   7.813 -0.1434  1.9851  2.5398
 4647SOL     OW25576   4.648   1.418   8.406  0.1183  0.0741 -0.2111
 4647SOL    HW125577   4.592   1.481   8.451  0.2108 -0.4185  0.6107
 4647SOL    HW225578   4.575   1.358   8.393 -0.5062  0.4462  1.5048
 4648SOL     OW25579   0.326   1.277  17.438 -0.0485  0.4147  0.6270
 4648SOL    HW125580   0.256   1.340  17.460  2.5255  3.3794  0.3655
 4648SOL    HW225581   0.313   1.218  17.512  1.9974 -0.7764  0.0258
 4649SOL     OW25582   1.614   0.832   3.565 -0.4064 -0.7575 -0.4550
 4649SOL    HW125583   1.546   0.791   3.511 -0.4038 -0.9024 -0.3497
 4649SOL    HW225584   1.627   0.761   3.628  1.0575  0.4045  0.5527
 4650SOL     OW25585   1.287   3.999   6.863 -0.0060 -0.5080 -0.0448
 4650SOL    HW125586   1.199   4.026   6.890 -0.3454  0.6542 -2.3335
 4650SOL    HW225587   1.316   3.982   6.953 -0.6272  1.7469  0.5874
 4651SOL     OW25588   3.208   2.321   8.521  0.2094 -0.7817 -0.1098
 4651SOL    HW125589   3.141   2.289   8.581 -1.1051  1.5219 -0.3554
 4651SOL    HW225590   3.273   2.356   8.583 -0.8688 -1.0966  1.1886
 4652SOL     OW25591   2.326   1.055   8.325 -0.4916  0.5463  0.0852
 4652SOL    HW125592   2.342   0.974   8.275  1.4409  1.6134 -1.0420
 4652SOL    HW225593   2.392   1.044   8.394 -1.1055  2.2629  0.9280
 4653SOL     OW25594   0.256   3.018   1.078 -0.3640 -0.1694 -0.5128
 4653SOL    HW125595   0.226   3.077   1.148  0.7352 -1.6277  1.1876
 4653SOL    HW225596   0.348   3.026   1.105 -0.5973 -1.7088  0.7521
 4654SOL     OW25597   2.722   1.911   0.558  0.3114 -0.2323  0.1990
 4654SOL    HW125598   2.646   1.872   0.601  0.6956  0.4476  1.4884
 4654SOL    HW225599   2.755   1.834   0.511 -0.6545 -0.3845 -0.2279
 4655SOL     OW25600   3.330   1.915  17.660  0.0250  0.0360  0.3008
 4655SOL    HW125601   3.352   1.904  17.753  0.7772 -0.3943  0.0639
 4655SOL    HW225602   3.404   1.868  17.624 -0.8793 -0.5111 -0.8265
 4656SOL     OW25603   0.630   0.613   4.577  0.1686  0.1070  0.0981
 4656SOL    HW125604   0.564   0.641   4.513  1.8721  1.1677 -1.1892
 4656SOL    HW225605   0.613   0.522   4.603 -0.0625  0.5709  1.5349
 4657SOL     OW25606   1.639   1.457   3.930 -0.2168  0.4729  0.7062
 4657SOL    HW125607   1.567   1.477   3.990 -1.9340  0.2113 -1.2683
 4657SOL    HW225608   1.667   1.378   3.975 -1.1971 -1.1638 -1.5285
 4658SOL     OW25609   3.760   1.063   4.484  0.0684  0.4891  0.2911
 4658SOL    HW125610   3.744   1.137   4.426  0.7005 -0.1525 -0.7060
 4658SOL    HW225611   3.671   1.037   4.508  0.1205  0.6119  0.6199
 4659SOL     OW25612   2.897   2.114   7.666 -0.1717 -0.3689 -0.2906
 4659SOL    HW125613   2.984   2.088   7.698 -0.8856 -1.0081  1.1159
 4659SOL    HW225614   2.855   2.033   7.639 -0.1372 -1.1660  2.0152
 4660SOL     OW25615   2.949   4.089  11.252  0.3666  0.7978  0.1849
 4660SOL    HW125616   3.006   4.055  11.183 -1.7533 -0.3854 -1.0173
 4660SOL    HW225617   2.906   4.156  11.199 -0.7677  1.8300  2.3929
 4661SOL     OW25618   4.228   0.339  13.899 -0.1666  0.2907 -0.6234
 4661SOL    HW125619   4.232   0.310  13.808  0.3666 -2.9075  0.4241
 4661SOL    HW225620   4.309   0.388  13.916  0.4582 -0.5244 -1.2536
 4662SOL     OW25621   4.214   0.945  15.214  0.7413 -0.0328 -0.5840
 4662SOL    HW125622   4.160   1.012  15.256 -0.3056 -2.5578  2.0980
 4662SOL    HW225623   4.217   0.886  15.289  0.4937 -1.8260 -1.9935
 4663SOL     OW25624   1.819   2.815  13.861  0.3812  0.0749 -0.3851
 4663SOL    HW125625   1.726   2.812  13.884  0.3567 -0.5091 -0.5530
 4663SOL    HW225626   1.857   2.830  13.947  1.8814 -0.1517 -1.0079
 4664SOL     OW25627   0.360   2.439  15.885  0.6280 -0.4485 -0.1794
 4664SOL    HW125628   0.407   2.357  15.871  0.4021 -0.1343 -2.8178
 4664SOL    HW225629   0.416   2.481  15.951  1.4836 -0.2286 -1.0351
 4665SOL     OW25630   1.626   3.277   1.162 -0.5982  0.4035  0.4496
 4665SOL    HW125631   1.690   3.344   1.140 -0.8270  0.7477  0.8265
 4665SOL    HW225632   1.662   3.236   1.241 -3.1243 -1.5106  0.6121
 4666SOL     OW25633   0.097   0.603   7.763 -0.2838  0.0094  0.1902
 4666SOL    HW125634   0.136   0.568   7.843  0.1176 -1.7079 -0.7611
 4666SOL    HW225635   0.063   0.528   7.715 -3.0361  1.5975 -0.3422
 4667SOL     OW25636   1.837   2.157   0.438  0.3374  0.2140 -0.6709
 4667SOL    HW125637   1.771   2.221   0.410  0.1909  0.0892 -0.6119
 4667SOL    HW225638   1.838   2.082   0.378 -0.7627  0.5590 -1.1289
 4668SOL     OW25639   3.642   2.441   5.184 -0.5402  0.3143  0.6137
 4668SOL    HW125640   3.666   2.504   5.116 -1.2111 -0.2490 -0.1451
 4668SOL    HW225641   3.546   2.438   5.181 -0.4535 -0.6625 -1.3572
 4669SOL     OW25642   0.978   1.366   8.760 -0.6381  0.2250  0.8861
 4669SOL    HW125643   0.929   1.311   8.700 -1.2144  1.2342  0.4325
 4669SOL    HW225644   0.952   1.453   8.729 -0.8851 -0.9761 -2.2127
 4670SOL     OW25645   2.136   3.456   6.755 -0.4409  0.2154 -0.7700
 4670SOL    HW125646   2.077   3.532   6.757 -0.0984  0.4343  0.8838
 4670SOL    HW225647   2.136   3.439   6.849  2.2597 -0.9059 -0.9649
 4671SOL     OW25648   0.204   2.518   6.809  0.1988  0.2905 -0.2624
 4671SOL    HW125649   0.194   2.601   6.762 -1.1819  0.7487  0.8696
 4671SOL    HW225650   0.189   2.456   6.737  2.0201 -0.3853 -0.0548
 4672SOL     OW25651   0.279   1.235   8.634  0.5045 -0.3988  0.0280
 4672SOL    HW125652   0.233   1.313   8.666  1.5729 -0.6646  2.2075
 4672SOL    HW225653   0.207   1.174   8.620 -0.3170  0.2355  1.5380
 4673SOL     OW25654   1.399   2.349   6.304 -0.3335  0.0233  0.1652
 4673SOL    HW125655   1.319   2.398   6.324 -0.3561 -0.0170  0.1739
 4673SOL    HW225656   1.364   2.261   6.299  1.1951 -0.5743 -0.0506
 4674SOL     OW25657   4.544   0.821   1.667 -0.3093 -0.1660  0.1100
 4674SOL    HW125658   4.626   0.867   1.682 -0.9925  0.4572  1.9420
 4674SOL    HW225659   4.572   0.743   1.620  0.7911 -0.2318  0.9093
 4675SOL     OW25660   3.588   1.201   7.049 -0.0444  0.3703  0.6636
 4675SOL    HW125661   3.563   1.269   7.112 -0.8431  0.4577  0.2585
 4675SOL    HW225662   3.523   1.134   7.071 -1.2126  1.0595 -0.6919
 4676SOL     OW25663   4.465   2.619   3.799  0.0932  0.1808 -0.0157
 4676SOL    HW125664   4.421   2.550   3.749 -1.7127  0.7750  0.7321
 4676SOL    HW225665   4.552   2.589   3.825 -0.2819  0.6611  1.8430
 4677SOL     OW25666   4.437   2.118   7.718 -0.0640  0.2898  0.0971
 4677SOL    HW125667   4.346   2.087   7.719 -0.3038  0.9785 -0.4154
 4677SOL    HW225668   4.421   2.179   7.790  2.6384 -0.0315  0.9858
 4678SOL     OW25669   3.647   1.562   3.400 -0.3638  0.4123 -0.8923
 4678SOL    HW125670   3.719   1.515   3.442 -1.7606 -1.6437 -0.8269
 4678SOL    HW225671   3.580   1.556   3.467  0.9961  0.5477  0.4864
 4679SOL     OW25672   4.460   0.485   5.007 -0.1476  0.2124  0.0784
 4679SOL    HW125673   4.471   0.520   5.096  1.0715  0.9283 -0.3517
 4679SOL    HW225674   4.390   0.420   5.004 -0.5864  0.7588 -1.8565
 4680SOL     OW25675   3.730   2.944   7.125  0.4947  0.3791 -0.3434
 4680SOL    HW125676   3.811   2.974   7.083 -0.1417  0.7453 -1.2909
 4680SOL    HW225677   3.673   2.971   7.054  0.6536  1.4159 -0.0801
 4681SOL     OW25678   4.264   2.401   9.338  0.4340  0.2386 -0.5316
 4681SOL    HW125679   4.256   2.479   9.284 -0.5891  0.0764 -0.6038
 4681SOL    HW225680   4.356   2.386   9.314  1.6576  2.7825  2.6194
 4682SOL     OW25681   4.257   1.455  16.488  0.1516  0.8530  0.8800
 4682SOL    HW125682   4.197   1.381  16.482  0.9983  0.0827  1.9328
 4682SOL    HW225683   4.215   1.527  16.441 -0.9032 -1.5656 -1.9177
 4683SOL     OW25684   1.656   2.975   3.946 -0.1669  0.2443  0.6579
 4683SOL    HW125685   1.736   2.933   3.914 -0.6021  1.0902 -1.5404
 4683SOL    HW225686   1.613   2.898   3.984 -0.9131 -0.6967 -2.0932
 4684SOL     OW25687   1.252   1.324   8.615  0.7052 -0.2327 -0.7057
 4684SOL    HW125688   1.168   1.326   8.660  0.9518  0.8215 -0.2935
 4684SOL    HW225689   1.303   1.263   8.669  0.2627 -0.1857 -0.2376
 4685SOL     OW25690   1.606   1.860  12.623  0.2604 -0.4391  0.4910
 4685SOL    HW125691   1.610   1.955  12.606  1.8709 -0.7749 -1.0131
 4685SOL    HW225692   1.690   1.859  12.670  1.3990 -3.2994 -1.6501
 4686SOL     OW25693   2.149   3.893  10.770  0.3618  0.2681 -0.1605
 4686SOL    HW125694   2.176   3.802  10.757 -0.2678  0.2542 -1.3287
 4686SOL    HW225695   2.165   3.904  10.864 -1.3195  0.5648  0.0948
 4687SOL     OW25696   3.799   4.370   7.115  0.1945  0.5357  0.1847
 4687SOL    HW125697   3.709   4.340   7.104  0.6781 -0.6862 -0.3721
 4687SOL    HW225698   3.851   4.291   7.127  0.0958  0.0326 -2.7954
 4688SOL     OW25699   4.196   2.030  11.573 -0.3097  0.1179 -0.5109
 4688SOL    HW125700   4.246   2.066  11.500 -1.9362  1.6394 -0.8890
 4688SOL    HW225701   4.246   1.954  11.602 -2.6147 -1.1350  0.1991
 4689SOL     OW25702   1.262   1.146   7.946  0.1440  0.2451 -0.9589
 4689SOL    HW125703   1.353   1.137   7.917 -0.1597  1.1109 -2.1403
 4689SOL    HW225704   1.276   1.172   8.038  1.1011 -0.4762 -0.8898
 4690SOL     OW25705   1.838   3.341  10.746  0.0790 -0.2039  0.4169
 4690SOL    HW125706   1.911   3.399  10.769 -0.2657 -0.1178  1.2870
 4690SOL    HW225707   1.822   3.298  10.830 -0.0266  1.9783  1.5092
 4691SOL     OW25708   1.342   4.281   9.463  0.0169 -0.5026 -0.2198
 4691SOL    HW125709   1.349   4.242   9.375 -1.1045  0.9411 -0.9546
 4691SOL    HW225710   1.250   4.309   9.463  0.3612  0.5880  1.0351
 4692SOL     OW25711   3.932   2.573   8.617  0.2015 -0.3035 -0.9018
 4692SOL    HW125712   3.885   2.497   8.582  0.0604  0.6540 -2.7727
 4692SOL    HW225713   3.910   2.572   8.710  1.2394  1.7100 -0.6312
 4693SOL     OW25714   3.449   2.708   3.300  0.3787  0.1678 -0.0441
 4693SOL    HW125715   3.472   2.721   3.392 -0.0554 -0.5511  0.1682
 4693SOL    HW225716   3.515   2.768   3.265  1.8976 -1.6575 -0.2768
 4694SOL     OW25717   2.868   4.261   8.598  0.7557  0.3295  0.1587
 4694SOL    HW125718   2.844   4.339   8.549 -1.3163  0.3970  1.2807
 4694SOL    HW225719   2.782   4.241   8.635 -0.0088  0.9582 -1.3168
 4695SOL     OW25720   0.769   1.096   5.155 -0.8482 -0.1484 -0.4463
 4695SOL    HW125721   0.854   1.120   5.119 -0.5802  0.0554  0.3258
 4695SOL    HW225722   0.720   1.171   5.122 -1.2746 -0.7798 -1.2734
 4696SOL     OW25723   2.778   3.402  11.823  0.0573  0.3235 -0.0587
 4696SOL    HW125724   2.833   3.480  11.809  0.5617  0.2686  1.6229
 4696SOL    HW225725   2.831   3.339  11.871 -1.5140 -0.7444  0.2600
 4697SOL     OW25726   4.568   1.428   0.411  0.9642  0.5886 -0.4496
 4697SOL    HW125727   4.489   1.444   0.464  0.6364  0.2745 -0.8409
 4697SOL    HW225728   4.544   1.355   0.354  0.2543 -0.1365  0.7827
 4698SOL     OW25729   0.866   3.516  11.274 -1.0622  0.6568  0.0344
 4698SOL    HW125730   0.777   3.531  11.242 -0.8662  1.4973 -0.1293
 4698SOL    HW225731   0.911   3.535  11.192  1.9839 -0.3895  1.4630
 4699SOL     OW25732   2.724   1.354   4.006 -0.5189 -0.4934  0.5923
 4699SOL    HW125733   2.718   1.423   4.073 -1.0051 -0.3562  0.4138
 4699SOL    HW225734   2.816   1.359   3.983 -0.5465  1.4627  0.8826
 4700SOL     OW25735   1.568   2.337  10.675 -0.1389  0.0626 -0.3385
 4700SOL    HW125736   1.532   2.264  10.725  2.0251 -2.0360 -1.8090
 4700SOL    HW225737   1.649   2.327  10.724  0.1049  0.6279 -0.6263
 4701SOL     OW25738   4.655   4.289   2.579 -0.7983  0.1491 -0.1339
 4701SOL    HW125739   0.001   4.269   2.619 -0.4280  1.1019 -0.4403
 4701SOL    HW225740   4.593   4.247   2.638  0.5534 -0.2507  1.0171
 4702SOL     OW25741   3.038   1.899   5.241  0.6503  0.6747  0.4363
 4702SOL    HW125742   3.133   1.891   5.229  0.9677  0.2546  3.1636
 4702SOL    HW225743   2.994   1.816   5.261  1.5435  0.2786  0.7514
 4703SOL     OW25744   3.327   1.299   5.028 -0.5843  0.1557 -0.7350
 4703SOL    HW125745   3.324   1.301   4.933 -0.4425  0.6654 -0.7255
 4703SOL    HW225746   3.315   1.390   5.052 -0.3227 -0.2346  0.8983
 4704SOL     OW25747   1.021   4.147   2.753  0.9876  0.6694 -0.0901
 4704SOL    HW125748   1.058   4.235   2.759  0.7488  0.7404  0.3707
 4704SOL    HW225749   0.969   4.157   2.834 -2.3495  1.5046 -2.3189
 4705SOL     OW25750   4.709   2.332   8.723 -0.1902  0.6547 -0.3296
 4705SOL    HW125751   4.684   2.391   8.652  0.6711  1.4416  0.0141
 4705SOL    HW225752   0.063   2.331   8.704 -0.5013 -0.6456 -1.7762
 4706SOL     OW25753   4.662   4.529   6.345  0.4407 -0.0803 -0.0464
 4706SOL    HW125754   4.733   4.593   6.353  0.0573  0.4453 -0.9735
 4706SOL    HW225755   4.591   4.590   6.325  0.3061  0.2152  1.3390
 4707SOL     OW25756   3.974   4.733   8.482  0.0498  0.2217  0.0116
 4707SOL    HW125757   4.031   4.720   8.406 -0.0634  0.3019 -0.0881
 4707SOL    HW225758   3.889   4.724   8.439 -0.9679  0.3885  1.9801
 4708SOL     OW25759   1.089   0.869   6.287  0.1237 -0.2898  0.2214
 4708SOL    HW125760   1.024   0.799   6.277 -0.6857  0.5901 -0.6712
 4708SOL    HW225761   1.158   0.837   6.228  2.3922  1.2739  2.0425
 4709SOL     OW25762   1.759   4.597  16.681  0.7428  0.0453 -0.0394
 4709SOL    HW125763   1.845   4.556  16.666  0.0378 -1.4115 -0.0450
 4709SOL    HW225764   1.736   4.551  16.762 -1.5630 -0.7054 -1.1183
 4710SOL     OW25765   3.757   0.857   2.294 -0.6328 -1.1828  0.4099
 4710SOL    HW125766   3.790   0.944   2.269 -0.2613 -1.4080  0.1207
 4710SOL    HW225767   3.825   0.826   2.354 -0.6393 -0.9335  0.5460
 4711SOL     OW25768   2.935   2.553   7.969  0.1637  0.6586  0.0504
 4711SOL    HW125769   2.956   2.462   7.948  0.2731  0.5844  0.4848
 4711SOL    HW225770   3.025   2.576   7.991  0.1474 -0.7748  1.6065
 4712SOL     OW25771   0.324   3.618   7.421  0.2774  0.4868  0.0947
 4712SOL    HW125772   0.237   3.633   7.385 -0.5335  0.7507  2.1506
 4712SOL    HW225773   0.378   3.609   7.342 -0.7884 -0.4711 -0.5101
 4713SOL     OW25774   1.543   0.133  16.629  0.0769  0.0853 -0.7101
 4713SOL    HW125775   1.571   0.056  16.679 -1.1483 -0.0282 -0.1958
 4713SOL    HW225776   1.526   0.194  16.701  2.1558  0.2521 -0.3695
 4714SOL     OW25777   3.771   1.366   3.558 -0.0612 -0.2318 -0.0332
 4714SOL    HW125778   3.776   1.316   3.640 -1.4482  1.2915  0.9790
 4714SOL    HW225779   3.696   1.324   3.516 -0.2620 -1.6490  1.7378
 4715SOL     OW25780   2.929   0.776   6.724  0.1237 -0.1507 -0.2069
 4715SOL    HW125781   2.903   0.799   6.813  1.5289  1.8093 -0.2895
 4715SOL    HW225782   2.855   0.724   6.695  1.4916 -2.3723  0.3171
 4716SOL     OW25783   0.174   2.079  17.580  0.3416 -0.3122 -0.3661
 4716SOL    HW125784   0.220   2.063  17.498 -0.9479  0.2195 -1.1981
 4716SOL    HW225785   0.125   2.159  17.561  1.4846  0.1504 -1.3176
 4717SOL     OW25786   1.269   2.179   1.552 -0.1457 -0.1227  0.1260
 4717SOL    HW125787   1.327   2.208   1.481  0.8759  0.1258  1.0622
 4717SOL    HW225788   1.197   2.134   1.507 -0.9074  0.3889  0.8450
 4718SOL     OW25789   3.431   2.404   0.186  0.0481  0.2466  0.3952
 4718SOL    HW125790   3.456   2.427   0.276 -0.5393  0.1664  0.5767
 4718SOL    HW225791   3.361   2.343   0.209 -1.1760  0.5636 -2.5494
 4719SOL     OW25792   3.212   3.436   3.295 -0.3190 -0.2189 -0.3297
 4719SOL    HW125793   3.222   3.394   3.210  0.7525  0.7604 -0.6744
 4719SOL    HW225794   3.298   3.417   3.333  0.3039 -1.0002 -2.1612
 4720SOL     OW25795   1.876   2.075   1.894  0.7248 -0.1127 -0.0345
 4720SOL    HW125796   1.839   1.991   1.867  0.2849 -0.1260  0.6158
 4720SOL    HW225797   1.814   2.139   1.860 -0.1582  0.3122  2.3608
 4721SOL     OW25798   0.728   2.006  12.935  0.2505 -0.4821 -0.3186
 4721SOL    HW125799   0.716   1.989  13.028 -0.1883 -1.1244 -0.4928
 4721SOL    HW225800   0.749   1.918  12.902 -0.4661 -0.6343 -0.3771
 4722SOL     OW25801   2.298   1.581   7.419  1.1998 -0.2033 -0.1467
 4722SOL    HW125802   2.325   1.513   7.357  3.2262  0.9297 -0.4819
 4722SOL    HW225803   2.338   1.658   7.378 -0.2595  0.8200  0.3662
 4723SOL     OW25804   2.532   4.679   7.211  0.2755 -0.5242  0.0792
 4723SOL    HW125805   2.440   4.692   7.187  0.0689  0.3317  1.3167
 4723SOL    HW225806   2.531   4.689   7.306 -0.4296  2.3286 -0.2221
 4724SOL     OW25807   0.815   4.383   9.362  0.3994 -0.0830 -0.2444
 4724SOL    HW125808   0.732   4.389   9.409  1.2173 -0.6698  1.2711
 4724SOL    HW225809   0.798   4.310   9.303  1.2105 -1.1959  0.8878
 4725SOL     OW25810   1.859   3.914   2.331  0.4525 -0.1945 -0.4939
 4725SOL    HW125811   1.881   3.947   2.244 -0.5668  2.0655  0.1193
 4725SOL    HW225812   1.863   3.820   2.313  1.4988  0.3873 -3.2006
 4726SOL     OW25813   3.483   3.557   6.861 -0.6019 -0.5509 -0.5630
 4726SOL    HW125814   3.509   3.620   6.928  0.1685 -1.6270  0.1299
 4726SOL    HW225815   3.397   3.596   6.842 -0.2380  0.0318 -1.0264
 4727SOL     OW25816   0.116   4.447   2.024 -0.0632 -0.1169 -0.0375
 4727SOL    HW125817   0.030   4.490   2.019 -1.2167 -2.1699  2.2308
 4727SOL    HW225818   0.170   4.515   1.984 -0.3253 -1.0747 -2.0505
 4728SOL     OW25819   2.158   1.587  12.074  0.4175  0.1583  0.0590
 4728SOL    HW125820   2.252   1.604  12.072  0.5755 -0.8222 -0.9191
 4728SOL    HW225821   2.118   1.674  12.068 -1.9654 -0.8975  0.5465
 4729SOL     OW25822   1.955   1.802   2.345  0.2336  0.5402  0.2679
 4729SOL    HW125823   2.025   1.866   2.335 -2.1268  2.8799 -1.4373
 4729SOL    HW225824   1.943   1.777   2.253  1.6390  1.7934 -0.2503
 4730SOL     OW25825   0.896   0.902   8.459  0.0320  0.0774  0.0596
 4730SOL    HW125826   0.865   0.814   8.437 -0.2905  0.5450 -1.3719
 4730SOL    HW225827   0.942   0.934   8.382  2.9072  0.9689  2.1310
 4731SOL     OW25828   0.892   0.514  17.181 -0.0001  0.1589  0.2187
 4731SOL    HW125829   0.912   0.483  17.093 -1.4177  0.9492 -0.3885
 4731SOL    HW225830   0.892   0.608  17.161 -0.7943  0.3286  1.0461
 4732SOL     OW25831   0.019   4.278   4.979  0.5733 -0.3710  0.2019
 4732SOL    HW125832   0.096   4.314   4.935  0.2793 -2.1901 -1.7890
 4732SOL    HW225833   4.713   4.357   5.007  0.3224 -0.1134 -0.9143
 4733SOL     OW25834   0.823   2.421   4.050 -0.3031 -0.2844 -0.1956
 4733SOL    HW125835   0.900   2.449   4.000 -2.2954  1.5050 -2.2197
 4733SOL    HW225836   0.851   2.416   4.142  2.7007  1.0125 -1.0264
 4734SOL     OW25837   4.727   3.216   4.468 -0.0014 -0.0038 -0.3014
 4734SOL    HW125838   4.719   3.310   4.449  0.7785  0.2424  0.5832
 4734SOL    HW225839   0.064   3.199   4.413  1.1604 -0.6888  1.5099
 4735SOL     OW25840   4.592   3.406   7.630  0.1970  0.3077 -0.1554
 4735SOL    HW125841   4.520   3.467   7.644  0.9273  1.0606  0.2860
 4735SOL    HW225842   4.660   3.451   7.681  0.1098  0.3469 -0.0728
 4736SOL     OW25843   3.977   2.406  10.488  0.6577 -0.5281  0.3483
 4736SOL    HW125844   3.994   2.348  10.563 -0.7366 -0.8909  0.3928
 4736SOL    HW225845   3.960   2.495  10.518 -2.2103 -1.3778  1.3201
 4737SOL     OW25846   1.498   1.436   3.366  0.0745  0.3695 -0.6036
 4737SOL    HW125847   1.574   1.467   3.415 -0.1140 -1.4132  0.8234
 4737SOL    HW225848   1.422   1.473   3.410 -0.5896  0.0410 -1.4642
 4738SOL     OW25849   1.599   1.067   8.976  0.1000 -0.2681  0.5814
 4738SOL    HW125850   1.687   1.102   8.992 -0.0508  0.2212  0.3381
 4738SOL    HW225851   1.604   0.980   9.015  0.8106 -0.0495  0.9740
 4739SOL     OW25852   1.096   3.563   4.857  0.0971  0.4958 -0.8765
 4739SOL    HW125853   1.189   3.547   4.867  0.2534  1.8303 -0.1982
 4739SOL    HW225854   1.077   3.579   4.764  0.4891 -1.5488 -1.3030
 4740SOL     OW25855   1.537   1.297   8.096  0.0307 -0.1496 -0.1233
 4740SOL    HW125856   1.474   1.237   8.135  0.5143  0.0221  0.9340
 4740SOL    HW225857   1.599   1.313   8.168 -1.8711  2.8131  0.8668
 4741SOL     OW25858   2.769   2.685   6.627 -0.2648 -0.3975  0.2446
 4741SOL    HW125859   2.846   2.685   6.683 -0.7050  0.9347  0.8529
 4741SOL    HW225860   2.817   2.709   6.547 -0.3070 -2.7829 -0.5175
 4742SOL     OW25861   2.682   1.832   2.203 -1.0344 -0.1809 -0.2083
 4742SOL    HW125862   2.743   1.880   2.148 -0.2396 -0.9108  0.0184
 4742SOL    HW225863   2.732   1.752   2.220  2.1753  1.8684 -0.1542
 4743SOL     OW25864   1.017   4.509   8.682 -0.2432 -0.1106 -0.0695
 4743SOL    HW125865   1.083   4.510   8.613 -1.1723 -0.6230 -0.9518
 4743SOL    HW225866   0.980   4.421   8.681  2.3968 -1.2178 -0.0712
 4744SOL     OW25867   0.729   2.937   8.972  0.2619 -0.7510  0.1925
 4744SOL    HW125868   0.805   2.992   8.951 -1.2070  0.4138 -2.1093
 4744SOL    HW225869   0.663   2.980   8.917  0.0527 -0.9131  0.3202
 4745SOL     OW25870   4.112   4.672   5.878 -0.0376 -0.4024 -0.1061
 4745SOL    HW125871   4.119   0.025   5.905 -1.5930 -0.3601  0.1829
 4745SOL    HW225872   4.018   4.665   5.864  0.1977 -0.5450 -1.5741
 4746SOL     OW25873   3.852   3.083  14.674 -0.7022  0.0074 -0.3550
 4746SOL    HW125874   3.906   3.159  14.699  0.1765 -0.8583  0.3910
 4746SOL    HW225875   3.787   3.107  14.740 -2.4658 -0.5157 -1.9236
 4747SOL     OW25876   2.854   1.405   0.768  0.6239 -0.0730  0.0904
 4747SOL    HW125877   2.795   1.479   0.780 -0.2370 -0.4791 -1.5473
 4747SOL    HW225878   2.864   1.415   0.673  0.5224 -0.1561  0.0707
 4748SOL     OW25879   3.131   0.739   5.896 -0.5710  0.4773 -0.0630
 4748SOL    HW125880   3.077   0.801   5.946 -1.1854  0.3384 -0.5595
 4748SOL    HW225881   3.213   0.775   5.931 -0.0996  0.2613 -0.9548
 4749SOL     OW25882   3.184   0.920   1.555  0.4056 -0.4929 -0.5592
 4749SOL    HW125883   3.252   0.857   1.528 -0.1925 -0.5947 -1.8211
 4749SOL    HW225884   3.147   0.941   1.469  1.2886  0.1458 -0.7856
 4750SOL     OW25885   4.032   4.337  14.574 -0.3026 -0.0202 -0.5663
 4750SOL    HW125886   4.086   4.286  14.515  0.3778  0.0444 -0.0029
 4750SOL    HW225887   4.086   4.398  14.625 -0.3499  1.9089 -2.8306
 4751SOL     OW25888   0.254   2.575  16.844  0.0600  0.5985  0.1305
 4751SOL    HW125889   0.344   2.562  16.872  0.6307  2.7097 -0.7364
 4751SOL    HW225890   0.218   2.536  16.924  0.7234 -0.6525 -0.1729
 4752SOL     OW25891   2.042   0.318   7.156  0.3835 -0.1306  0.0798
 4752SOL    HW125892   1.976   0.250   7.143  2.1491 -2.1995  1.9813
 4752SOL    HW225893   2.079   0.291   7.240  1.0270  1.0481  0.1704
 4753SOL     OW25894   0.196   2.357   4.092 -0.0604 -1.1309 -0.0088
 4753SOL    HW125895   0.117   2.410   4.086 -0.7165 -2.4044 -2.4234
 4753SOL    HW225896   0.241   2.353   4.008  0.9629  1.0105  0.4496
 4754SOL     OW25897   4.435   3.400   1.054 -0.8449 -0.4668  0.3103
 4754SOL    HW125898   4.507   3.460   1.034 -1.5539 -0.0312 -0.9339
 4754SOL    HW225899   4.467   3.320   1.013  1.2882  0.9802 -0.8624
 4755SOL     OW25900   2.987   1.151  11.044  0.5781 -0.0634 -0.3580
 4755SOL    HW125901   2.944   1.073  11.009 -1.7246 -0.0768  2.5106
 4755SOL    HW225902   2.927   1.174  11.115  1.5471  1.7147 -0.1033
 4756SOL     OW25903   2.740   0.249   1.563 -0.1347  0.1153 -0.4547
 4756SOL    HW125904   2.827   0.223   1.534 -0.9292 -2.2865 -0.6734
 4756SOL    HW225905   2.737   0.331   1.514  3.7149  1.5430  1.7292
 4757SOL     OW25906   3.005   0.236   2.713  0.2356  0.1290 -0.2093
 4757SOL    HW125907   2.998   0.244   2.808 -0.6939  1.4651 -0.3963
 4757SOL    HW225908   2.922   0.272   2.684  1.0235  1.0121 -1.3689
 4758SOL     OW25909   0.816   0.288  14.227 -0.2116 -0.1865  0.2667
 4758SOL    HW125910   0.730   0.312  14.262 -0.6220  0.9408 -1.4995
 4758SOL    HW225911   0.864   0.371  14.232 -1.1457  0.2991  1.4368
 4759SOL     OW25912   3.503   1.014   1.445 -0.3327 -0.2671  0.3955
 4759SOL    HW125913   3.568   1.065   1.494 -1.3332  3.9808 -2.7284
 4759SOL    HW225914   3.464   1.076   1.383  0.5759 -1.3485 -1.2746
 4760SOL     OW25915   3.069   0.077   4.919 -0.1580 -0.1146  0.0630
 4760SOL    HW125916   3.114   0.008   4.871  0.6829  1.0317 -0.8218
 4760SOL    HW225917   2.997   0.102   4.861 -0.7764  0.0663  0.9083
 4761SOL     OW25918   4.166   1.396  14.867 -0.0239 -0.1653  0.6185
 4761SOL    HW125919   4.253   1.427  14.843  0.1912 -1.9988 -0.9450
 4761SOL    HW225920   4.186   1.312  14.909  0.5224  0.3599  1.4106
 4762SOL     OW25921   0.054   0.881  16.071  0.5639 -0.4955  0.6173
 4762SOL    HW125922   0.022   0.864  16.160  0.3134  0.6054  0.7349
 4762SOL    HW225923   4.726   0.942  16.041  0.7338  0.1272  1.4739
 4763SOL     OW25924   4.333   1.099   4.500 -0.2657  0.2610  0.7015
 4763SOL    HW125925   4.254   1.056   4.467  2.1237 -1.0767 -3.3755
 4763SOL    HW225926   4.407   1.056   4.458 -1.5467 -0.0712 -1.2295
 4764SOL     OW25927   0.026   2.001   5.001  0.2223 -0.8505  0.2139
 4764SOL    HW125928   4.729   1.938   4.939  1.8099 -0.4138 -1.1310
 4764SOL    HW225929   0.085   2.044   4.940  0.0452  2.7784  2.5479
 4765SOL     OW25930   3.612   4.266  15.463  0.1435 -0.0527  0.3133
 4765SOL    HW125931   3.629   4.318  15.542  1.7850  0.3423 -0.2945
 4765SOL    HW225932   3.571   4.337  15.413  1.0737  0.3001  0.0440
 4766SOL     OW25933   0.818   3.788   4.075 -0.0055  0.1436 -0.6634
 4766SOL    HW125934   0.821   3.697   4.106 -2.8536  0.3623  0.2386
 4766SOL    HW225935   0.725   3.808   4.073  0.4255  2.2791  1.5077
 4767SOL     OW25936   3.704   3.167  16.593 -0.4023 -0.4520 -0.9100
 4767SOL    HW125937   3.742   3.250  16.621 -0.4387 -0.5696 -0.4987
 4767SOL    HW225938   3.681   3.193  16.504 -0.7273  0.5115 -0.5449
 4768SOL     OW25939   4.517   3.090   8.966  0.5856  0.0104 -0.2659
 4768SOL    HW125940   4.471   3.007   8.952  0.3163  0.0851  0.2122
 4768SOL    HW225941   4.601   3.054   8.937  1.0233  2.2482 -1.7987
 4769SOL     OW25942   3.533   1.073   1.766 -0.4992  0.1073  0.5462
 4769SOL    HW125943   3.572   1.097   1.850  0.9615 -1.3059  0.2528
 4769SOL    HW225944   3.444   1.109   1.774 -1.1184 -1.2767 -0.0552
 4770SOL     OW25945   0.080   3.983   8.989 -0.0599 -0.7164 -0.0004
 4770SOL    HW125946   0.060   3.898   9.030  0.7530 -0.8620  0.0946
 4770SOL    HW225947   0.051   4.047   9.054  0.5755  0.2167 -0.6483
 4771SOL     OW25948   2.668   3.059   2.764 -0.0727  0.2808 -0.3266
 4771SOL    HW125949   2.591   3.018   2.725  0.6183  1.3164 -2.7791
 4771SOL    HW225950   2.733   3.061   2.693 -1.0842 -1.4561 -1.3003
 4772SOL     OW25951   2.589   3.398   3.102  0.0507  0.3978  0.3716
 4772SOL    HW125952   2.684   3.405   3.115 -0.1745 -0.3889  2.3852
 4772SOL    HW225953   2.587   3.305   3.080 -0.5608  0.6806 -0.7766
 4773SOL     OW25954   1.288   0.301  10.854 -0.1895 -0.3092 -0.0782
 4773SOL    HW125955   1.232   0.369  10.892  0.9987  1.0697 -0.8153
 4773SOL    HW225956   1.322   0.351  10.780 -1.5335 -0.3466 -0.7206
 4774SOL     OW25957   1.246   3.903   1.306 -0.4535  0.7294  0.3019
 4774SOL    HW125958   1.166   3.933   1.349 -1.4275 -0.4453 -0.7046
 4774SOL    HW225959   1.299   3.982   1.313  0.1382  0.1439  2.1730
 4775SOL     OW25960   4.667   0.083   3.109  0.4179 -0.2528  0.2271
 4775SOL    HW125961   4.607   0.019   3.147 -1.9693  1.4954 -0.5784
 4775SOL    HW225962   4.641   0.169   3.141 -3.1840 -1.2902  0.0195
 4776SOL     OW25963   1.082   2.796   8.419 -0.2822  0.2658 -0.0481
 4776SOL    HW125964   1.066   2.876   8.369 -0.0288 -0.3214 -1.0767
 4776SOL    HW225965   0.999   2.795   8.466  0.7550  2.1913  1.8275
 4777SOL     OW25966   4.080   4.650   7.315  0.0767  0.2890 -0.6330
 4777SOL    HW125967   3.987   4.665   7.297 -0.5912 -0.0799  2.4638
 4777SOL    HW225968   4.080   4.577   7.377 -3.2249 -0.4673 -1.5586
 4778SOL     OW25969   3.558   4.447   3.576  0.2720  0.6352  0.2854
 4778SOL    HW125970   3.583   4.521   3.520  3.7113 -0.3024  0.5899
 4778SOL    HW225971   3.632   4.391   3.550  1.1531  2.5947 -1.4412
 4779SOL     OW25972   3.025   2.037   4.556 -0.7406  0.1745  0.8832
 4779SOL    HW125973   3.067   1.985   4.625  1.4613  0.3085 -0.3696
 4779SOL    HW225974   3.028   2.124   4.597 -3.6318  0.2255  0.9949
 4780SOL     OW25975   0.771   1.480  10.326  0.2290  0.2099  0.5873
 4780SOL    HW125976   0.818   1.413  10.277  0.6201  2.0609 -1.6088
 4780SOL    HW225977   0.699   1.495  10.264  0.9658  0.7868 -0.1352
 4781SOL     OW25978   1.297   3.528  12.075  0.6368 -0.5757  0.0831
 4781SOL    HW125979   1.370   3.564  12.125  0.0208 -0.1109  0.6599
 4781SOL    HW225980   1.323   3.534  11.984  0.7971 -2.3696  0.0105
 4782SOL     OW25981   0.331   0.378  10.463  0.5835  0.9025  0.1459
 4782SOL    HW125982   0.382   0.439  10.410 -1.0207  1.4101 -0.7951
 4782SOL    HW225983   0.402   0.364  10.526  0.8588 -2.3472 -0.8786
 4783SOL     OW25984   1.498   2.541   3.187 -0.8327 -0.1152  0.4950
 4783SOL    HW125985   1.574   2.492   3.219  0.1905  0.7374 -0.6391
 4783SOL    HW225986   1.429   2.507   3.243  0.1144 -2.4789  0.2580
 4784SOL     OW25987   3.518   0.808  10.000 -0.0866  0.9294  0.2335
 4784SOL    HW125988   3.565   0.823   9.918 -2.3627 -0.1785 -1.2618
 4784SOL    HW225989   3.593   0.786  10.056  1.5217 -0.9536 -2.6873
 4785SOL     OW25990   1.957   2.800   7.098  0.2201  0.3194 -0.0610
 4785SOL    HW125991   1.985   2.790   7.189  0.6329 -0.5420 -0.2801
 4785SOL    HW225992   2.007   2.877   7.072  1.6317 -0.9957 -1.2798
 4786SOL     OW25993   0.611   0.279  13.150  0.5341  0.0228  0.0662
 4786SOL    HW125994   0.596   0.322  13.234  1.2869 -2.7508  1.6077
 4786SOL    HW225995   0.705   0.265  13.162  0.3917 -1.3994 -0.5412
 4787SOL     OW25996   0.631   0.743  16.934  0.3478 -0.1328 -0.4277
 4787SOL    HW125997   0.692   0.706  16.869  1.9985 -0.5400  1.3513
 4787SOL    HW225998   0.668   0.825  16.966 -0.6354  0.2428 -0.2773
 4788SOL     OW25999   2.919   0.712   3.877  0.0226 -0.2704  0.2806
 4788SOL    HW126000   2.910   0.624   3.914 -2.2172 -0.9915 -1.9985
 4788SOL    HW226001   2.946   0.694   3.787 -0.7802 -2.7573  0.5138
 4789SOL     OW26002   3.438   3.613  11.762  0.2952  0.2225 -0.0888
 4789SOL    HW126003   3.511   3.560  11.731  0.1588 -0.8993  1.5194
 4789SOL    HW226004   3.394   3.617  11.677 -0.0614  1.0643  0.1250
 4790SOL     OW26005   1.412   0.615   9.257  0.0218  0.1785 -0.6665
 4790SOL    HW126006   1.411   0.657   9.171 -0.3905  1.2482 -0.1356
 4790SOL    HW226007   1.468   0.673   9.309  1.0284 -1.8747  0.5590
 4791SOL     OW26008   3.074   1.159   3.292  0.4200  0.0560  0.1150
 4791SOL    HW126009   3.040   1.247   3.313 -1.8775 -0.9198  0.5064
 4791SOL    HW226010   3.064   1.116   3.376 -0.8407 -0.1582 -0.1434
 4792SOL     OW26011   0.473   0.438   8.270 -0.7068  0.6320 -0.2852
 4792SOL    HW126012   0.417   0.507   8.307 -2.8035 -0.6381 -1.0804
 4792SOL    HW226013   0.507   0.394   8.348  0.0826  1.4432 -0.1676
 4793SOL     OW26014   2.884   1.428   0.466 -0.4991  0.1464  0.6021
 4793SOL    HW126015   2.864   1.403   0.376  1.1313  0.6154  0.0989
 4793SOL    HW226016   2.834   1.510   0.461  0.6450  0.8064 -0.0178
 4794SOL     OW26017   4.583   1.246   2.655 -0.1165  0.5689  0.6823
 4794SOL    HW126018   4.672   1.243   2.620 -0.2238 -0.1743  0.4638
 4794SOL    HW226019   4.556   1.163   2.614 -0.0931  1.6955 -1.6013
 4795SOL     OW26020   3.142   0.765   5.008  0.0746 -0.4591  0.2704
 4795SOL    HW126021   3.149   0.674   4.980  2.6804  0.6534 -2.6499
 4795SOL    HW226022   3.228   0.803   5.023  0.4118  0.2381 -3.5539
 4796SOL     OW26023   2.527   2.738   8.894  0.3869 -0.3967 -0.2391
 4796SOL    HW126024   2.614   2.750   8.930  1.1330 -0.3737 -2.0674
 4796SOL    HW226025   2.463   2.748   8.965 -0.1929 -0.5905 -0.7316
 4797SOL     OW26026   3.049   1.302   4.482 -0.4226  0.4693 -0.5666
 4797SOL    HW126027   3.033   1.397   4.484  2.0257  0.8686  0.6930
 4797SOL    HW226028   3.141   1.325   4.496 -0.5493 -0.1058  1.2688
 4798SOL     OW26029   1.515   1.953   9.248  0.3105  0.1104 -0.3152
 4798SOL    HW126030   1.474   2.004   9.177 -0.4309  2.0228  1.4884
 4798SOL    HW226031   1.604   1.985   9.233  0.2078  1.0038  0.9669
 4799SOL     OW26032   2.357   0.814  10.890  0.2768 -0.2980 -0.5841
 4799SOL    HW126033   2.374   0.725  10.857 -2.0175  0.3590 -3.4893
 4799SOL    HW226034   2.435   0.868  10.877 -1.7677  2.8429  0.3129
 4800SOL     OW26035   2.057   4.235   4.961  0.1731  0.6190  0.8922
 4800SOL    HW126036   2.150   4.238   4.938  0.3752 -0.7950  1.5465
 4800SOL    HW226037   2.017   4.312   4.921  3.8381  2.0040 -0.0347
 4801SOL     OW26038   0.109   2.166   0.735  0.1833 -0.0750  0.5555
 4801SOL    HW126039   0.163   2.143   0.659  2.7980 -1.2474  2.7939
 4801SOL    HW226040   0.021   2.162   0.698  0.3309  0.6407  0.1281
 4802SOL     OW26041   2.761   3.322   4.386  0.2763 -0.6395 -0.0978
 4802SOL    HW126042   2.785   3.398   4.438 -2.7450  0.4983 -0.3949
 4802SOL    HW226043   2.694   3.280   4.441 -0.6690 -1.4132 -1.8326
 4803SOL     OW26044   1.250   2.125   7.995  0.1747 -0.1624  0.3887
 4803SOL    HW126045   1.280   2.035   8.011  0.4063 -0.0730  0.4540
 4803SOL    HW226046   1.192   2.136   8.070 -3.6244 -2.6334 -2.1838
 4804SOL     OW26047   3.551   1.304   6.408 -0.4042  0.0621 -0.1989
 4804SOL    HW126048   3.609   1.242   6.452  1.2050 -0.1806 -2.6712
 4804SOL    HW226049   3.602   1.382   6.385  0.0918 -0.0677  0.4406
 4805SOL     OW26050   3.539   0.876   5.580  0.2544 -0.3844  0.2239
 4805SOL    HW126051   3.473   0.911   5.520  3.5729 -1.0356 -3.8074
 4805SOL    HW226052   3.504   0.794   5.614 -1.8443  0.3797 -0.0888
 4806SOL     OW26053   0.428   3.824   5.005  0.4770 -0.0451  0.2207
 4806SOL    HW126054   0.522   3.811   5.012  0.8359  3.0567  1.4842
 4806SOL    HW226055   0.402   3.839   5.096 -1.9098  0.6674 -0.5582
 4807SOL     OW26056   2.511   2.430  13.824  0.0493  0.8071 -0.8611
 4807SOL    HW126057   2.572   2.361  13.798 -0.7712  0.0915 -0.8891
 4807SOL    HW226058   2.461   2.391  13.896 -0.1274  1.0555 -0.8502
 4808SOL     OW26059   0.135   3.964   7.021  0.1700  0.1193  0.1539
 4808SOL    HW126060   0.096   4.012   6.947  1.2660  0.3490 -0.2675
 4808SOL    HW226061   0.087   3.885   7.045 -0.3302  0.0781 -0.9722
 4809SOL     OW26062   0.431   3.603  12.951 -0.2269  0.2781 -0.0447
 4809SOL    HW126063   0.523   3.576  12.959 -0.1273  0.7944  0.5469
 4809SOL    HW226064   0.410   3.576  12.861 -0.0111  0.0553 -0.0274
 4810SOL     OW26065   3.897   1.199   8.817  0.0576  0.2669  0.0723
 4810SOL    HW126066   3.960   1.127   8.814 -1.6274 -1.1907  0.0308
 4810SOL    HW226067   3.854   1.178   8.900 -0.2644  1.8910  0.3056
 4811SOL     OW26068   4.442   0.875   1.281 -0.1764 -0.5867  0.2599
 4811SOL    HW126069   4.432   0.905   1.371  1.2047  0.1041  0.1830
 4811SOL    HW226070   4.425   0.951   1.225  2.0527 -0.0709  0.2918
 4812SOL     OW26071   4.252   0.497   8.790 -0.0909 -0.2157 -0.1300
 4812SOL    HW126072   4.249   0.454   8.876 -0.9566 -0.2782 -0.1932
 4812SOL    HW226073   4.163   0.489   8.756 -0.6957  1.0936  1.1290
 4813SOL     OW26074   2.712   3.848  11.558  0.0603  0.0799  0.2878
 4813SOL    HW126075   2.656   3.906  11.610  0.6115  1.0557 -0.2190
 4813SOL    HW226076   2.701   3.759  11.592  0.3940  0.3943  1.2201
 4814SOL     OW26077   1.847   2.894   6.857 -0.3420 -0.2387 -0.1789
 4814SOL    HW126078   1.873   2.823   6.914 -0.8801 -0.7742 -0.6006
 4814SOL    HW226079   1.892   2.969   6.895 -0.7895 -0.3106  0.4965
 4815SOL     OW26080   1.467   0.230   1.942 -0.1162 -0.1169  0.5131
 4815SOL    HW126081   1.415   0.154   1.966  1.1481 -2.0764 -2.9047
 4815SOL    HW226082   1.393   0.291   1.942 -0.2883 -0.3203 -0.4970
 4816SOL     OW26083   1.860   1.572   0.411  0.3952 -0.2667  0.1117
 4816SOL    HW126084   1.893   1.482   0.414 -1.7122 -1.1534 -3.3699
 4816SOL    HW226085   1.827   1.586   0.500  0.1728 -2.1019  0.3183
 4817SOL     OW26086   2.746   1.049   2.856 -0.2033 -0.3117  0.0228
 4817SOL    HW126087   2.710   1.012   2.776  0.2503 -0.5530 -0.0709
 4817SOL    HW226088   2.830   1.082   2.822  1.7335 -1.3199  3.7465
 4818SOL     OW26089   1.297   0.926   3.505 -0.9423  0.8329  0.2531
 4818SOL    HW126090   1.370   0.893   3.453 -1.2890 -0.2059  0.4192
 4818SOL    HW226091   1.286   1.012   3.464  0.0419  0.8120 -0.0541
 4819SOL     OW26092   0.559   1.331   1.123  0.2805  0.4833 -0.1014
 4819SOL    HW126093   0.566   1.250   1.174  2.3837 -0.0472 -1.2269
 4819SOL    HW226094   0.600   1.400   1.174 -0.8168 -0.1908  1.7160
 4820SOL     OW26095   1.919   2.154   5.486  0.3192  0.3384  0.1667
 4820SOL    HW126096   1.893   2.074   5.531 -0.9586  0.7171  0.1243
 4820SOL    HW226097   1.964   2.210   5.549 -0.5773  0.7534  0.4428
 4821SOL     OW26098   3.620   2.268   3.142 -0.4159  0.1106  0.4723
 4821SOL    HW126099   3.684   2.196   3.141  0.5464  0.9809 -2.2226
 4821SOL    HW226100   3.676   2.345   3.148 -1.3406  0.9602 -1.7511
 4822SOL     OW26101   0.718   4.112  13.427 -0.0969  0.2422  0.1078
 4822SOL    HW126102   0.798   4.117  13.375 -0.6865 -0.1201 -0.8248
 4822SOL    HW226103   0.744   4.076  13.512  0.1048  0.8884  0.3194
 4823SOL     OW26104   1.330   2.977   9.099  0.4446  0.6888 -0.3278
 4823SOL    HW126105   1.319   3.046   9.165 -0.2714 -0.3655  0.6464
 4823SOL    HW226106   1.340   3.029   9.019 -0.8260 -0.7979 -1.4275
 4824SOL     OW26107   2.387   3.160   7.600  0.4021 -0.1993 -0.0138
 4824SOL    HW126108   2.334   3.222   7.650 -0.4110  1.8634 -3.3911
 4824SOL    HW226109   2.375   3.082   7.654  0.4737  0.7623  1.3893
 4825SOL     OW26110   2.205   4.656   4.543  0.6443 -0.7307  0.3163
 4825SOL    HW126111   2.157   4.678   4.463  1.5007  0.2683  0.0706
 4825SOL    HW226112   2.183   4.729   4.601  0.9084  0.3466 -0.9176
 4826SOL     OW26113   4.269   1.578  10.277 -0.1226  0.3130 -0.1694
 4826SOL    HW126114   4.330   1.613  10.212 -1.5630 -0.5213 -1.9979
 4826SOL    HW226115   4.244   1.496  10.233  2.3002 -0.7418  0.4544
 4827SOL     OW26116   0.125   0.719   5.572  0.0877  0.0510 -0.5634
 4827SOL    HW126117   0.181   0.796   5.579  0.6006 -0.7134  3.6558
 4827SOL    HW226118   0.182   0.651   5.538 -0.6050 -0.5102 -0.5921
 4828SOL     OW26119   0.149   2.636   8.803 -0.1271 -0.2311 -0.5480
 4828SOL    HW126120   0.211   2.585   8.750  0.2579 -1.3009  0.9344
 4828SOL    HW226121   0.200   2.712   8.831  1.3059 -0.6818 -1.8832
 4829SOL     OW26122   3.565   0.420   9.396  0.4444 -0.0440  0.2960
 4829SOL    HW126123   3.522   0.505   9.392 -0.7714 -0.7735 -1.9784
 4829SOL    HW226124   3.545   0.397   9.487  0.3671  0.9771  0.5357
 4830SOL     OW26125   0.911   0.982   2.496 -0.0815 -0.1362 -0.2052
 4830SOL    HW126126   0.955   1.030   2.426 -2.4530  1.5710 -0.5391
 4830SOL    HW226127   0.830   0.957   2.451 -0.7637  1.5979  0.0733
 4831SOL     OW26128   2.815   1.082   3.627 -0.2136 -0.3484 -0.0848
 4831SOL    HW126129   2.760   1.158   3.607 -1.0281 -0.9420 -0.0639
 4831SOL    HW226130   2.750   1.031   3.674  0.8768  0.3566  2.2265
 4832SOL     OW26131   1.595   2.067   4.937  0.6562 -0.0997 -0.3944
 4832SOL    HW126132   1.653   1.991   4.944  1.6594  0.7177  0.1645
 4832SOL    HW226133   1.565   2.053   4.847  1.8026  0.2721 -0.8366
 4833SOL     OW26134   2.051   3.773   5.743 -0.2290  0.5450 -0.1067
 4833SOL    HW126135   2.073   3.680   5.749  2.1263  0.9676 -1.9807
 4833SOL    HW226136   2.090   3.789   5.828  2.3997  0.6892 -1.3418
 4834SOL     OW26137   1.413   3.710   8.488  0.0256  0.4287 -0.3784
 4834SOL    HW126138   1.357   3.722   8.565  0.1184 -0.8930 -0.0981
 4834SOL    HW226139   1.410   3.800   8.458  2.8394  0.7596  0.3867
 4835SOL     OW26140   3.395   1.019   0.271 -0.0389  0.3003 -0.3015
 4835SOL    HW126141   3.343   0.985   0.199 -0.2072 -2.0687  0.9414
 4835SOL    HW226142   3.483   1.034   0.238  0.0985  1.9685  0.7995
 4836SOL     OW26143   0.584   4.294   3.625  0.3070 -0.2538 -0.3097
 4836SOL    HW126144   0.625   4.352   3.561  0.0717 -1.9657 -2.0267
 4836SOL    HW226145   0.631   4.316   3.705  1.0561 -1.1270 -0.5074
 4837SOL     OW26146   3.108   0.969   2.014  0.0042 -0.2260 -0.4928
 4837SOL    HW126147   3.142   1.052   1.980  1.8341 -0.9763 -0.4754
 4837SOL    HW226148   3.037   0.954   1.951 -0.7910 -0.3408  0.4256
 4838SOL     OW26149   4.636   3.488  13.280 -0.4848 -0.1288  0.3067
 4838SOL    HW126150   4.587   3.422  13.330  0.3334 -1.8902 -1.2133
 4838SOL    HW226151   4.564   3.536  13.240 -1.3095  1.0893  3.2882
 4839SOL     OW26152   0.663   3.202   2.149 -0.8744  0.2363 -0.4006
 4839SOL    HW126153   0.744   3.253   2.155 -0.9676  0.3119  0.1794
 4839SOL    HW226154   0.596   3.269   2.162 -1.9820 -0.7134 -1.2310
 4840SOL     OW26155   2.216   3.699   5.394  0.2541  0.0900 -0.1586
 4840SOL    HW126156   2.137   3.657   5.429  0.0407 -0.6357 -1.5141
 4840SOL    HW226157   2.204   3.784   5.435 -1.6200  0.1690 -0.8435
 4841SOL     OW26158   1.083   0.040  16.535 -0.6157  0.8607 -0.0931
 4841SOL    HW126159   1.134   0.121  16.543  1.3017 -0.0702 -2.6894
 4841SOL    HW226160   1.135   4.727  16.597 -0.3102  1.7337  0.3919
 4842SOL     OW26161   4.590   3.139   8.682 -0.4798 -0.2500 -0.3413
 4842SOL    HW126162   4.514   3.084   8.661  1.1533 -1.5803 -2.6469
 4842SOL    HW226163   4.658   3.079   8.652 -0.6137 -0.8532  0.5755
 4843SOL     OW26164   4.550   0.451   4.731 -0.5737 -0.3014 -0.3718
 4843SOL    HW126165   4.512   0.483   4.813 -0.5612 -0.3733 -0.3380
 4843SOL    HW226166   4.627   0.407   4.767 -0.6585  1.9871  2.5522
 4844SOL     OW26167   3.212   1.090   5.160 -0.1277  0.1183 -0.5373
 4844SOL    HW126168   3.260   1.018   5.118  0.7616 -0.1331  0.9014
 4844SOL    HW226169   3.249   1.172   5.126  0.1754 -0.9456 -2.7882
 4845SOL     OW26170   2.696   4.371   1.319  0.0866 -0.3098 -0.2255
 4845SOL    HW126171   2.675   4.302   1.382  0.9481  0.3301  0.7578
 4845SOL    HW226172   2.695   4.317   1.240 -1.2975 -0.0249 -0.3888
 4846SOL     OW26173   4.615   3.845   2.384 -0.6125 -0.1418  0.6593
 4846SOL    HW126174   4.610   3.751   2.367  0.5325 -0.4408  1.9514
 4846SOL    HW226175   4.575   3.856   2.470 -1.2069  1.4595  0.1770
 4847SOL     OW26176   0.958   1.223   7.904 -0.2028  0.3838 -0.4507
 4847SOL    HW126177   0.951   1.274   7.985 -1.3820  0.6754 -0.7445
 4847SOL    HW226178   1.036   1.168   7.917  1.2365  2.9247  1.7989
 4848SOL     OW26179   0.064   2.676   2.946 -0.4374 -0.8148  0.2691
 4848SOL    HW126180   0.087   2.585   2.929 -0.3453 -1.0495  1.6680
 4848SOL    HW226181   0.001   2.681   2.874  0.9584  0.5756 -0.8376
 4849SOL     OW26182   0.757   1.742   1.318 -0.2771 -0.1372 -0.0632
 4849SOL    HW126183   0.834   1.702   1.360 -0.1980  1.1624  1.0115
 4849SOL    HW226184   0.721   1.797   1.387  0.8185 -0.9798  1.1985
 4850SOL     OW26185   3.015   0.166  13.146  0.1710  0.1827  0.3430
 4850SOL    HW126186   3.109   0.156  13.132 -0.2375 -2.6427 -0.3157
 4850SOL    HW226187   2.990   0.232  13.081 -2.6041 -0.8728  0.3444
 4851SOL     OW26188   1.956   0.742   3.026  0.7379 -0.0339  0.1704
 4851SOL    HW126189   1.877   0.797   3.029  0.8533  0.1593 -0.3492
 4851SOL    HW226190   1.919   0.668   3.074  1.2804 -0.0682  0.5356
 4852SOL     OW26191   0.717   2.011   8.880  0.1424  0.1954  0.3556
 4852SOL    HW126192   0.650   2.051   8.935  0.8264  0.6506  0.8672
 4852SOL    HW226193   0.775   1.975   8.947 -0.2683 -1.0934  0.0216
 4853SOL     OW26194   1.795   4.572  15.700  0.4756  0.0997 -0.3416
 4853SOL    HW126195   1.836   4.486  15.689  2.3558  0.9598 -0.1831
 4853SOL    HW226196   1.764   4.568  15.791  0.1852  1.5058 -0.3843
 4854SOL     OW26197   3.014   2.136   2.048 -0.2751  0.1754 -0.5571
 4854SOL    HW126198   3.083   2.141   1.981 -1.2392  0.8671 -1.5001
 4854SOL    HW226199   3.028   2.219   2.092 -1.2086  0.2026 -0.3189
 4855SOL     OW26200   3.687   2.809  11.347  0.4919 -0.8553  0.1444
 4855SOL    HW126201   3.669   2.724  11.307  3.9598 -1.0240 -1.1320
 4855SOL    HW226202   3.736   2.842  11.272 -2.2767  0.2447 -1.1398
 4856SOL     OW26203   4.718   3.604   4.784  0.2857  0.1177  0.6369
 4856SOL    HW126204   4.690   3.694   4.767  1.1287  0.4219  0.8956
 4856SOL    HW226205   0.003   3.612   4.876  1.8570  0.7626  0.1565
 4857SOL     OW26206   1.265   2.906  10.132  0.0257  0.2741 -0.4393
 4857SOL    HW126207   1.211   2.828  10.116  1.2828 -0.2376 -2.1270
 4857SOL    HW226208   1.205   2.978  10.111  0.8261  0.3464 -2.4746
 4858SOL     OW26209   3.145   0.313   8.725 -0.0899 -0.1781 -0.0357
 4858SOL    HW126210   3.050   0.314   8.735  0.1323  0.9053  1.9813
 4858SOL    HW226211   3.183   0.293   8.810  0.3294  0.8924  0.0363
 4859SOL     OW26212   4.359   2.050  14.872 -0.7016  0.1191  0.4609
 4859SOL    HW126213   4.343   2.016  14.784  1.1836 -1.3790  0.6762
 4859SOL    HW226214   4.286   2.017  14.925 -1.3405  0.3616 -0.2772
 4860SOL     OW26215   2.169   4.433   5.331 -0.2699 -0.1349 -0.3297
 4860SOL    HW126216   2.178   4.458   5.239  1.6838 -1.0845 -0.4033
 4860SOL    HW226217   2.234   4.490   5.372 -1.4592 -0.1051  1.4975
 4861SOL     OW26218   1.789   4.684   7.370  0.2779  0.2306  0.1225
 4861SOL    HW126219   1.842   4.668   7.448 -0.3383  1.5424  0.8164
 4861SOL    HW226220   1.705   4.719   7.399  0.1423 -1.5397  1.9272
 4862SOL     OW26221   2.286   4.401  10.012  0.1419  0.3346 -0.2362
 4862SOL    HW126222   2.194   4.375  10.005  0.7155 -1.9775  0.7593
 4862SOL    HW226223   2.321   4.349   9.940 -0.5426  2.3278 -2.0076
 4863SOL     OW26224   0.926   1.912   8.735 -0.1794 -0.3665  0.1515
 4863SOL    HW126225   0.859   1.958   8.786 -0.8009 -0.6260 -0.4237
 4863SOL    HW226226   0.995   1.973   8.760 -2.2288  1.9555  0.0400
 4864SOL     OW26227   0.003   1.722   3.122 -0.2012 -0.0988  0.5463
 4864SOL    HW126228   4.718   1.772   3.044 -0.0163 -0.4293  0.2753
 4864SOL    HW226229   0.049   1.794   3.165 -1.3411  1.3659 -0.6975
 4865SOL     OW26230   0.001   1.160   4.528 -0.4365  0.2194 -0.2895
 4865SOL    HW126231   0.063   1.088   4.523 -1.2501 -0.2638 -3.3525
 4865SOL    HW226232   4.693   1.169   4.445 -0.9987  0.2406  0.0267
 4866SOL     OW26233   4.302   4.616   6.509 -0.6790 -0.0131  0.0097
 4866SOL    HW126234   4.321   4.693   6.563  0.6822 -1.2091  1.2439
 4866SOL    HW226235   4.210   4.638   6.499 -0.3326  2.2564  1.5570
 4867SOL     OW26236   1.028   3.524   4.423 -0.4359 -0.0929  0.7720
 4867SOL    HW126237   0.973   3.555   4.351  0.8250  0.0352 -0.1316
 4867SOL    HW226238   1.052   3.610   4.458 -0.0166  0.2039 -0.2412
 4868SOL     OW26239   1.940   3.535  12.521  0.2255 -0.1169  0.5770
 4868SOL    HW126240   1.869   3.567  12.577 -0.1467 -0.7802  0.4867
 4868SOL    HW226241   2.015   3.540  12.580  0.4937  0.4417  0.1770
 4869SOL     OW26242   1.428   3.703   4.530  0.2298  0.3522 -0.5226
 4869SOL    HW126243   1.337   3.712   4.500  0.3614  0.2487 -0.9488
 4869SOL    HW226244   1.488   3.738   4.465 -0.4171  3.3524  0.4888
 4870SOL     OW26245   3.126   1.231   2.450  0.0139 -0.4182 -0.4977
 4870SOL    HW126246   3.181   1.214   2.374 -0.2549  0.1067 -0.8042
 4870SOL    HW226247   3.181   1.205   2.525 -0.6330  1.7310  0.7134
 4871SOL     OW26248   4.476   2.737   9.148  0.1724 -0.3075  0.7153
 4871SOL    HW126249   4.546   2.685   9.110  0.0058 -0.7303  0.9951
 4871SOL    HW226250   4.436   2.759   9.064  2.1152 -0.9705 -0.3740
 4872SOL     OW26251   0.638   3.530   1.531 -0.2552 -0.3125  0.1880
 4872SOL    HW126252   0.699   3.507   1.461 -0.3849  2.1063 -0.7278
 4872SOL    HW226253   0.615   3.621   1.514  2.9169  0.7139  1.4252
 4873SOL     OW26254   1.068   1.701   3.530 -0.3496 -0.2069 -0.3264
 4873SOL    HW126255   1.044   1.685   3.622  1.1160 -3.2709 -0.4615
 4873SOL    HW226256   1.125   1.777   3.545 -1.4747  0.3525  1.1199
 4874SOL     OW26257   1.486   0.515   3.572  0.7394 -0.5276 -0.1945
 4874SOL    HW126258   1.443   0.575   3.633  2.2464  1.5899 -1.2191
 4874SOL    HW226259   1.475   0.432   3.619  1.7182 -0.5231  0.0234
 4875SOL     OW26260   4.325   3.192   6.135 -0.0053 -0.0825 -0.1733
 4875SOL    HW126261   4.325   3.128   6.064 -2.8992 -0.5405  0.2313
 4875SOL    HW226262   4.263   3.251   6.093 -0.8055 -1.8331 -1.4235
 4876SOL     OW26263   4.468   3.034  11.680 -0.2236 -0.5229 -0.0487
 4876SOL    HW126264   4.564   3.030  11.681  0.0364  4.4821 -3.1647
 4876SOL    HW226265   4.453   3.047  11.773 -0.6308  2.1976 -0.4932
 4877SOL     OW26266   1.769   1.472   7.827  0.1995  0.2948 -0.2228
 4877SOL    HW126267   1.693   1.511   7.784 -0.0118 -2.7642 -2.6856
 4877SOL    HW226268   1.832   1.470   7.754 -1.5758  1.5860 -1.8041
 4878SOL     OW26269   1.829   3.742  12.099 -0.2491 -1.0231  1.0898
 4878SOL    HW126270   1.887   3.711  12.029  0.3005  3.2918 -0.3550
 4878SOL    HW226271   1.828   3.663  12.152  0.8281 -1.4408  0.4915
 4879SOL     OW26272   1.080   2.518   2.712 -0.1812  0.6156 -0.6354
 4879SOL    HW126273   1.104   2.438   2.759  0.6067  0.8307 -0.6553
 4879SOL    HW226274   1.035   2.475   2.640 -2.4711  1.8939  0.0449
 4880SOL     OW26275   2.522   2.574   2.985  0.6815  0.0869  0.2368
 4880SOL    HW126276   2.472   2.581   2.904 -2.3385  2.0124  2.2512
 4880SOL    HW226277   2.472   2.505   3.028 -1.5243 -0.2539 -2.8421
 4881SOL     OW26278   0.700   3.725   5.608  0.0325  0.0286  0.6622
 4881SOL    HW126279   0.787   3.763   5.601 -0.2351  1.0060  2.5007
 4881SOL    HW226280   0.639   3.774   5.553 -0.2879 -1.9469 -0.7534
 4882SOL     OW26281   1.133   3.282  16.476  0.2224 -0.0245 -0.5548
 4882SOL    HW126282   1.116   3.191  16.498 -1.7443 -0.1650 -2.5964
 4882SOL    HW226283   1.067   3.329  16.527  0.3692  0.5811 -0.9115
 4883SOL     OW26284   3.804   2.072   7.558 -0.0868  0.4090 -0.2940
 4883SOL    HW126285   3.739   2.032   7.615 -0.0163  1.2807  0.4056
 4883SOL    HW226286   3.881   2.015   7.560  0.1951  0.7817 -0.4725
 4884SOL     OW26287   4.217   2.718   5.261  0.6546  0.2251  0.2678
 4884SOL    HW126288   4.174   2.638   5.231 -0.4538  1.2494 -0.8211
 4884SOL    HW226289   4.308   2.688   5.253  1.0299  0.8075  2.3038
 4885SOL     OW26290   4.462   4.193   3.513 -0.3145  0.8294  0.0451
 4885SOL    HW126291   4.374   4.168   3.542 -0.7721 -0.0323 -2.1115
 4885SOL    HW226292   4.503   4.209   3.598  0.1645 -1.7495  0.2940
 4886SOL     OW26293   3.005   3.569   9.110 -0.4368  0.1554  0.0789
 4886SOL    HW126294   2.928   3.526   9.147 -0.6783  2.0211  1.7621
 4886SOL    HW226295   3.069   3.505   9.077 -0.5182  0.0221  0.1779
 4887SOL     OW26296   0.383   0.652   2.425 -0.2239 -0.1076  0.1510
 4887SOL    HW126297   0.383   0.556   2.416 -0.8118 -0.1326  0.4070
 4887SOL    HW226298   0.458   0.660   2.367  1.0786 -1.2586  1.6534
 4888SOL     OW26299   1.103   0.444   4.353  0.1258  0.0337  0.2479
 4888SOL    HW126300   1.022   0.482   4.387 -0.5615  0.7152 -2.1472
 4888SOL    HW226301   1.132   0.500   4.282 -0.6328 -0.9093 -0.8079
 4889SOL     OW26302   1.045   1.986   7.183  0.6770 -0.3855  0.8183
 4889SOL    HW126303   0.965   1.961   7.230 -0.2194  0.8553 -0.0329
 4889SOL    HW226304   1.046   1.922   7.112 -1.2964  0.2457  0.2249
 4890SOL     OW26305   2.622   2.885   1.385  0.1368  0.5078  0.2696
 4890SOL    HW126306   2.600   2.811   1.328 -3.0566  1.8707 -0.2841
 4890SOL    HW226307   2.576   2.855   1.464  0.5648 -0.9681 -0.0336
 4891SOL     OW26308   1.742   2.932  13.022 -0.5003  0.2263 -0.4378
 4891SOL    HW126309   1.671   2.996  13.025 -1.3588 -0.6636 -1.8307
 4891SOL    HW226310   1.802   2.959  13.092 -0.9984  0.2125 -0.0099
 4892SOL     OW26311   4.138   4.473   0.969 -0.2674  0.0256 -0.2206
 4892SOL    HW126312   4.073   4.529   0.929 -0.3457 -0.7505 -1.1644
 4892SOL    HW226313   4.105   4.388   0.942  2.2336 -1.4386  1.3107
 4893SOL     OW26314   3.461   4.170   5.413 -0.3503  0.3292  0.3866
 4893SOL    HW126315   3.554   4.173   5.438  0.0206 -2.0782 -0.7314
 4893SOL    HW226316   3.421   4.156   5.499 -0.2087 -0.0460  0.3897
 4894SOL     OW26317   4.115   1.330   5.777  0.0405  0.0578  0.0286
 4894SOL    HW126318   4.137   1.308   5.687  0.8690  0.2412  0.1863
 4894SOL    HW226319   4.062   1.408   5.759 -0.3089  0.2035  1.6943
 4895SOL     OW26320   2.544   1.624  12.765  0.7412 -0.0212 -0.3578
 4895SOL    HW126321   2.497   1.661  12.840 -0.1147  1.9075 -1.8340
 4895SOL    HW226322   2.598   1.699  12.739 -2.3231  2.5223  0.6022
 4896SOL     OW26323   2.210   3.934   4.427  0.1524 -0.5802  0.1989
 4896SOL    HW126324   2.208   3.900   4.338  1.4675  1.8141 -0.7643
 4896SOL    HW226325   2.117   3.944   4.444 -0.3708 -1.1642 -2.4077
 4897SOL     OW26326   4.433   3.205   1.842 -0.1047 -0.3485  0.4880
 4897SOL    HW126327   4.478   3.233   1.762 -1.0162  0.4255  0.2567
 4897SOL    HW226328   4.439   3.279   1.903  0.1138  0.8723 -1.0213
 4898SOL     OW26329   0.574   3.395   8.809  0.1142 -0.0312  0.3937
 4898SOL    HW126330   0.482   3.416   8.828 -0.6811 -0.8874 -2.3437
 4898SOL    HW226331   0.604   3.379   8.898  3.6319  2.9443 -0.2852
 4899SOL     OW26332   2.576   4.648  16.285  0.2346  0.2305  0.0906
 4899SOL    HW126333   2.518   4.709  16.238  2.7395  0.9470 -2.0740
 4899SOL    HW226334   2.595   4.688  16.370 -0.4140  2.9903 -1.0434
 4900SOL     OW26335   2.900   3.787   6.923 -0.1230 -0.0353  0.4114
 4900SOL    HW126336   2.804   3.785   6.921 -0.1028 -0.7606  0.0052
 4900SOL    HW226337   2.920   3.744   6.840  0.5696  2.6555 -0.8270
 4901SOL     OW26338   1.212   3.709   5.867 -0.6284 -0.3304 -0.0284
 4901SOL    HW126339   1.282   3.723   5.804 -1.8287  0.7226 -1.1233
 4901SOL    HW226340   1.267   3.671   5.935 -0.7507  0.7849  0.6947
 4902SOL     OW26341   1.353   2.512   4.368  0.0997 -0.5983 -0.6870
 4902SOL    HW126342   1.436   2.532   4.410  0.2029 -1.5902 -0.4185
 4902SOL    HW226343   1.292   2.540   4.436  0.4577  0.6690 -0.8755
 4903SOL     OW26344   3.420   1.416  10.707  0.0562  0.1929 -0.0690
 4903SOL    HW126345   3.371   1.453  10.633 -0.6525 -2.1699 -0.7959
 4903SOL    HW226346   3.365   1.442  10.780 -0.4053 -0.5427 -0.1498
 4904SOL     OW26347   1.468   4.670   3.656 -0.7912  0.2145  0.4558
 4904SOL    HW126348   1.511   4.604   3.602  1.1674  1.0445  0.9898
 4904SOL    HW226349   1.420   4.623   3.724  1.2616 -0.9193  1.1081
 4905SOL     OW26350   3.936   3.084   4.577  0.3655  0.2674  0.2801
 4905SOL    HW126351   3.930   3.000   4.531  0.8468  1.8931 -2.7451
 4905SOL    HW226352   4.001   3.132   4.525  0.8964 -0.2715  0.4429
 4906SOL     OW26353   3.240   4.294   3.089 -0.0069 -0.2154 -0.3435
 4906SOL    HW126354   3.297   4.334   3.023  0.3734  0.0393  0.1388
 4906SOL    HW226355   3.294   4.216   3.105  0.0422 -0.3734 -1.2545
 4907SOL     OW26356   1.602   2.333   6.854  0.3414 -0.1352  0.3553
 4907SOL    HW126357   1.581   2.294   6.769  1.9034 -1.0955  0.4085
 4907SOL    HW226358   1.647   2.258   6.893  0.1639  0.2554  1.3083
 4908SOL     OW26359   0.441   0.505   6.375  0.0533 -0.2243  0.1697
 4908SOL    HW126360   0.490   0.425   6.392  0.0852 -0.5522 -1.4695
 4908SOL    HW226361   0.368   0.501   6.436  1.0092 -0.5314  1.2902
 4909SOL     OW26362   2.914   2.429   6.228  0.5910 -0.1702 -0.4008
 4909SOL    HW126363   2.897   2.420   6.134  1.5259 -2.4362 -0.3630
 4909SOL    HW226364   2.849   2.495   6.250  1.1231  0.5646 -1.0218
 4910SOL     OW26365   0.919   2.594   2.923  0.1237  0.2915 -0.2631
 4910SOL    HW126366   0.975   2.564   2.852  0.4628  1.3987 -0.4519
 4910SOL    HW226367   0.977   2.644   2.980  0.2489 -1.5592  1.2282
 4911SOL     OW26368   2.151   1.969   2.900 -0.0957 -0.3159 -0.2635
 4911SOL    HW126369   2.190   1.908   2.963 -1.5034 -0.0120  0.9155
 4911SOL    HW226370   2.209   1.954   2.826 -1.7916 -0.7915 -1.5032
 4912SOL     OW26371   2.224   4.700  10.451 -0.1511  0.0179 -0.2594
 4912SOL    HW126372   2.250   0.053  10.447  0.6149 -0.1649  0.4042
 4912SOL    HW226373   2.243   4.673  10.361 -2.4340 -0.5865 -0.5527
 4913SOL     OW26374   4.724   2.470  15.366 -0.2898  0.3959 -0.4237
 4913SOL    HW126375   4.630   2.473  15.385 -0.2251  0.2918 -0.0765
 4913SOL    HW226376   0.021   2.426  15.443  3.3281 -0.5620 -2.6814
 4914SOL     OW26377   2.750   3.400   7.690 -0.1535 -0.4378  0.0910
 4914SOL    HW126378   2.702   3.322   7.718 -0.8775  0.0935  0.3314
 4914SOL    HW226379   2.720   3.458   7.761 -4.3222 -0.6307 -1.4916
 4915SOL     OW26380   1.899   3.811   5.291 -0.7192 -0.2564  0.3456
 4915SOL    HW126381   1.873   3.893   5.333  0.8952  0.1465  0.5587
 4915SOL    HW226382   1.988   3.843   5.280 -0.5772 -1.1550 -1.0136
 4916SOL     OW26383   2.725   1.205   7.966 -0.3277 -0.1430  0.2013
 4916SOL    HW126384   2.675   1.168   7.893 -1.0326  1.9459 -0.3754
 4916SOL    HW226385   2.817   1.183   7.951 -0.6558 -1.1007 -0.3993
 4917SOL     OW26386   0.708   4.547   1.633 -0.1764  0.1078 -0.0144
 4917SOL    HW126387   0.640   4.482   1.619 -0.4431  1.0623 -3.1514
 4917SOL    HW226388   0.787   4.495   1.619  0.7010  1.4950 -0.2824
 4918SOL     OW26389   2.665   1.754   8.122  0.0918 -0.2890 -0.7462
 4918SOL    HW126390   2.694   1.839   8.155 -0.9745  0.0968 -0.7702
 4918SOL    HW226391   2.677   1.759   8.027  3.2199  0.4086 -0.3139
 4919SOL     OW26392   1.317   1.850   8.833  0.4729 -0.6306  0.4829
 4919SOL    HW126393   1.297   1.835   8.741  2.7308 -0.1432 -0.0777
 4919SOL    HW226394   1.287   1.776   8.886 -0.9590  0.3998  1.0865
 4920SOL     OW26395   0.678   1.143   1.631 -0.1810 -0.1400  0.0769
 4920SOL    HW126396   0.650   1.206   1.696 -0.5032  1.7008 -1.8662
 4920SOL    HW226397   0.614   1.073   1.642 -0.3863 -0.0308 -0.4391
 4921SOL     OW26398   1.150   1.726  15.273 -0.1175 -0.0635  0.1619
 4921SOL    HW126399   1.099   1.676  15.338 -0.7594 -0.4149 -0.5982
 4921SOL    HW226400   1.140   1.817  15.300  2.0059 -0.6518  2.9539
 4922SOL     OW26401   4.626   2.924   7.382  1.1013 -0.3964  0.1924
 4922SOL    HW126402   4.616   2.861   7.453 -1.5929 -1.1757 -0.8621
 4922SOL    HW226403   4.693   2.878   7.331  2.0756  0.9662  0.2617
 4923SOL     OW26404   1.265   4.589   7.052  0.1036 -0.5325 -0.3977
 4923SOL    HW126405   1.271   4.685   7.056  1.9234 -0.6904  0.6604
 4923SOL    HW226406   1.310   4.581   6.968  0.3428 -1.9414 -0.1359
 4924SOL     OW26407   1.315   1.993   7.310 -0.6010 -0.1283  0.2893
 4924SOL    HW126408   1.265   2.043   7.373 -0.1508  1.2933 -0.4854
 4924SOL    HW226409   1.250   1.963   7.246 -0.5001 -0.3057  0.2697
 4925SOL     OW26410   0.304   1.756   5.638 -0.1749  0.6778 -0.5481
 4925SOL    HW126411   0.382   1.812   5.641 -0.2176  0.7754 -1.0730
 4925SOL    HW226412   0.356   1.676   5.629 -0.9427 -0.0326  1.4369
 4926SOL     OW26413   3.201   3.737   8.019 -0.5134 -0.0390  0.8829
 4926SOL    HW126414   3.155   3.816   7.990 -0.1212 -0.2651 -0.3749
 4926SOL    HW226415   3.161   3.715   8.103 -0.4780  1.3035  1.2434
 4927SOL     OW26416   3.804   4.429   5.606 -0.3199 -0.1616  0.2202
 4927SOL    HW126417   3.727   4.485   5.611  0.7617  1.2464  0.9645
 4927SOL    HW226418   3.819   4.412   5.513  0.2003 -1.9377  0.6218
 4928SOL     OW26419   2.385   1.606   1.428  1.0878 -0.3393  0.2131
 4928SOL    HW126420   2.408   1.697   1.448  0.7002 -0.4884  1.3429
 4928SOL    HW226421   2.337   1.568   1.502 -0.5413 -1.2071 -1.2837
 4929SOL     OW26422   4.004   1.164   6.771 -0.0145 -0.4595  1.0744
 4929SOL    HW126423   3.964   1.224   6.707  0.6441 -0.7360  0.4024
 4929SOL    HW226424   3.970   1.203   6.851 -1.5756 -2.9944  1.6299
 4930SOL     OW26425   2.929   0.135  14.078 -0.3566  0.1382  0.0564
 4930SOL    HW126426   3.024   0.128  14.091 -0.4087 -1.3890 -0.3059
 4930SOL    HW226427   2.896   0.182  14.154  0.6961 -2.1379  1.9306
 4931SOL     OW26428   2.880   0.541   0.835 -0.4094  0.7839 -1.0339
 4931SOL    HW126429   2.823   0.597   0.783 -2.9440  0.4631  1.4164
 4931SOL    HW226430   2.814   0.473   0.848  1.9442 -1.2286  0.3054
 4932SOL     OW26431   0.832   4.248   2.924 -0.1122 -0.3042  0.7676
 4932SOL    HW126432   0.743   4.271   2.895  0.7343  1.3723 -0.5342
 4932SOL    HW226433   0.844   4.320   2.986 -1.4061  0.0615  0.6064
 4933SOL     OW26434   0.241   3.135  11.629 -0.3787 -0.0887  0.2490
 4933SOL    HW126435   0.309   3.185  11.675 -1.3522  2.0797 -0.6520
 4933SOL    HW226436   0.279   3.123  11.542  0.1182 -2.3767  0.7744
 4934SOL     OW26437   0.435   0.190   8.174 -0.4242 -0.3360 -0.6047
 4934SOL    HW126438   0.526   0.165   8.185 -0.6074 -0.6479  0.2437
 4934SOL    HW226439   0.444   0.281   8.203 -0.9740 -0.6837  0.6690
 4935SOL     OW26440   0.657   3.754   6.344 -0.0967 -0.3056  0.6759
 4935SOL    HW126441   0.675   3.810   6.420 -0.7789 -0.9813  1.3358
 4935SOL    HW226442   0.743   3.759   6.303  0.5294 -1.6744  1.8117
 4936SOL     OW26443   0.293   2.204   2.873 -0.4292 -0.1583  0.1257
 4936SOL    HW126444   0.303   2.109   2.864  1.2285  0.2761 -2.6498
 4936SOL    HW226445   0.385   2.231   2.867  0.1001 -1.7432  0.8727
 4937SOL     OW26446   3.771   0.031  11.235  0.0271 -0.1231  0.1011
 4937SOL    HW126447   3.837   4.705  11.258  0.1646  0.6541  1.8784
 4937SOL    HW226448   3.833   0.099  11.208 -1.8565  1.1776 -0.9955
 4938SOL     OW26449   1.751   4.225   0.830 -0.1158 -0.3353 -0.3487
 4938SOL    HW126450   1.842   4.238   0.802 -0.1030 -0.2957 -0.2885
 4938SOL    HW226451   1.707   4.285   0.769  0.7807  2.3667  1.6610
 4939SOL     OW26452   0.537   1.389   7.561 -0.0370 -0.2960  0.0779
 4939SOL    HW126453   0.607   1.419   7.618 -0.7965  1.3329  0.1810
 4939SOL    HW226454   0.463   1.391   7.622  0.5302 -1.6885  0.7871
 4940SOL     OW26455   3.966   0.409  13.942 -0.0958 -0.5357  0.0860
 4940SOL    HW126456   4.054   0.397  13.978 -1.0931 -0.5398  2.5639
 4940SOL    HW226457   3.956   0.340  13.876 -0.7171 -0.1901 -0.1790
 4941SOL     OW26458   3.131   4.482   1.410 -0.0366  0.6566 -0.0764
 4941SOL    HW126459   3.203   4.454   1.354 -1.5654 -1.1043 -1.1935
 4941SOL    HW226460   3.080   4.403   1.429  1.5039  0.4155  3.0063
 4942SOL     OW26461   3.944   0.813  12.619  0.2400  0.6174 -0.2172
 4942SOL    HW126462   4.039   0.812  12.605  0.1340  1.3192 -1.0309
 4942SOL    HW226463   3.929   0.903  12.588  1.6668  1.3595  1.2313
 4943SOL     OW26464   2.138   2.716   1.778 -0.2622  0.6243 -0.3954
 4943SOL    HW126465   2.092   2.634   1.761  1.0443  0.1560 -1.6427
 4943SOL    HW226466   2.098   2.762   1.704 -1.3513  1.4323  0.6887
 4944SOL     OW26467   4.658   2.714   1.799  0.0298 -0.2123  0.3711
 4944SOL    HW126468   4.682   2.635   1.849 -0.9150 -0.6643  0.1159
 4944SOL    HW226469   4.734   2.765   1.825 -0.4935  0.6009  0.2893
 4945SOL     OW26470   0.820   2.162   2.706 -0.0267 -0.2687 -0.2740
 4945SOL    HW126471   0.750   2.225   2.722  0.1804  0.3296 -1.7261
 4945SOL    HW226472   0.888   2.203   2.652 -0.8274 -1.3019 -2.0680
 4946SOL     OW26473   3.901   2.293   3.773  0.2556  0.0122  0.0872
 4946SOL    HW126474   3.810   2.266   3.779  0.8083 -1.2468  2.9712
 4946SOL    HW226475   3.894   2.380   3.813  0.3576  1.1941 -2.4577
 4947SOL     OW26476   1.541   2.383  11.964  0.0433  0.0287 -0.3331
 4947SOL    HW126477   1.455   2.426  11.964  0.1294  0.2208 -2.3418
 4947SOL    HW226478   1.516   2.291  11.960  2.5282 -0.6694  0.5454
 4948SOL     OW26479   0.144   2.961   8.114  0.0958 -0.1666 -0.3084
 4948SOL    HW126480   0.175   2.872   8.132  0.9363  0.4777  1.4270
 4948SOL    HW226481   0.073   2.968   8.178 -0.4280 -0.4713 -0.8577
 4949SOL     OW26482   0.060   0.358   5.934  0.0624  0.7033  0.2803
 4949SOL    HW126483   0.083   0.447   5.959 -0.8318  1.4335 -1.4976
 4949SOL    HW226484   4.736   0.381   5.866 -0.4702 -0.8385  0.2391
 4950SOL     OW26485   1.364   0.234   7.661 -0.1589  0.4189  0.3720
 4950SOL    HW126486   1.320   0.313   7.692  0.7388  0.4345  1.6212
 4950SOL    HW226487   1.446   0.274   7.630 -0.1041 -0.8475 -1.1549
 4951SOL     OW26488   2.622   0.744  15.766 -0.0997  0.1531  0.2379
 4951SOL    HW126489   2.592   0.821  15.719 -0.4684 -0.0288  0.1718
 4951SOL    HW226490   2.553   0.741  15.832  1.0739  0.3284  1.4903
 4952SOL     OW26491   4.067   1.675  10.006  0.1723 -0.2542 -0.1080
 4952SOL    HW126492   4.092   1.727  10.082  0.9679  0.8796 -1.1448
 4952SOL    HW226493   4.028   1.743   9.951  1.5571  0.9022  0.3507
 4953SOL     OW26494   4.449   3.693   7.044  0.9052 -1.2127  0.1235
 4953SOL    HW126495   4.363   3.707   7.084  0.4069  0.6218 -1.5651
 4953SOL    HW226496   4.430   3.706   6.951  1.7822 -0.4411  0.0519
 4954SOL     OW26497   4.348   0.036  16.738 -0.3229  0.3490  0.2129
 4954SOL    HW126498   4.322   4.696  16.785 -0.8532  0.2722 -0.1954
 4954SOL    HW226499   4.340   0.013  16.645  0.2317 -1.0344  0.5100
 4955SOL     OW26500   4.671   1.334   6.894  0.3624 -0.6362  0.0265
 4955SOL    HW126501   4.629   1.416   6.922  1.4084 -0.1502  0.1551
 4955SOL    HW226502   0.021   1.343   6.928  0.1093 -0.8674  0.7607
 4956SOL     OW26503   0.294   2.164   3.161  0.4529  0.4875 -0.4339
 4956SOL    HW126504   0.278   2.245   3.209 -0.5157  0.8447 -1.3486
 4956SOL    HW226505   0.279   2.187   3.069 -1.1152  1.3272  0.0239
 4957SOL     OW26506   2.908   4.530  13.533  0.3950 -0.3327  0.5441
 4957SOL    HW126507   2.959   4.470  13.479 -1.9178 -1.3532 -0.5201
 4957SOL    HW226508   2.923   4.615  13.490 -0.5906 -0.2092  0.4425
 4958SOL     OW26509   2.873   0.680   3.086  0.2412 -0.0649 -0.0630
 4958SOL    HW126510   2.969   0.680   3.088  0.1897  0.2922  2.2115
 4958SOL    HW226511   2.854   0.596   3.127  2.5076 -0.4298  0.2764
 4959SOL     OW26512   0.319   2.160   9.521  0.5017  0.3318  0.1360
 4959SOL    HW126513   0.366   2.076   9.520  0.6084  0.3997 -1.0471
 4959SOL    HW226514   0.228   2.128   9.520  0.6608 -0.1060 -0.5382
 4960SOL     OW26515   2.502   0.801   5.594  0.0473 -0.3092 -0.1820
 4960SOL    HW126516   2.458   0.820   5.511  0.3294 -1.7040 -0.6566
 4960SOL    HW226517   2.477   0.876   5.647  3.5211  0.3097  0.5995
 4961SOL     OW26518   2.473   0.550  11.318  0.1377  0.3462 -0.1156
 4961SOL    HW126519   2.429   0.466  11.303 -0.1983  0.7175 -1.1913
 4961SOL    HW226520   2.454   0.603  11.241 -0.2361  0.3915  0.0078
 4962SOL     OW26521   1.351   3.320   5.077  0.3849 -0.8814  0.8599
 4962SOL    HW126522   1.394   3.404   5.066 -0.0694 -0.5783  1.4160
 4962SOL    HW226523   1.329   3.292   4.988 -0.8081  0.8383  0.6324
 4963SOL     OW26524   4.711   1.715   7.837 -0.8946 -0.4255  0.0576
 4963SOL    HW126525   0.053   1.719   7.886 -0.4614  0.7264 -0.7375
 4963SOL    HW226526   0.001   1.653   7.770 -0.1955  0.7255 -0.7064
 4964SOL     OW26527   3.391   1.255  15.029  0.8436  0.2237  0.3099
 4964SOL    HW126528   3.300   1.266  15.055  0.4238 -1.0270 -0.6610
 4964SOL    HW226529   3.373   1.260  14.936 -0.0642  0.0425  0.4796
 4965SOL     OW26530   4.109   2.213   7.449  0.6522 -0.2535 -0.5911
 4965SOL    HW126531   4.055   2.269   7.505  0.6369 -2.1810  1.3451
 4965SOL    HW226532   4.166   2.277   7.407  2.2366  0.2430  2.3184
 4966SOL     OW26533   3.494   2.632   8.386 -0.3725 -0.0837 -0.0546
 4966SOL    HW126534   3.455   2.703   8.436 -0.1460 -1.8634  2.6888
 4966SOL    HW226535   3.584   2.627   8.418 -0.4647 -0.8147  0.0994
 4967SOL     OW26536   0.717   1.545   2.113  0.0294 -0.1263 -0.2385
 4967SOL    HW126537   0.703   1.615   2.050  2.4317 -0.6570 -1.3464
 4967SOL    HW226538   0.708   1.467   2.059  0.2829 -0.3428  0.0270
 4968SOL     OW26539   1.040   0.733   2.261  0.2377  0.4325 -0.7913
 4968SOL    HW126540   1.078   0.739   2.349 -3.0845  6.0347  0.2970
 4968SOL    HW226541   0.993   0.816   2.254 -2.9219 -1.3421 -1.1084
 4969SOL     OW26542   3.430   2.955   4.501  0.2684  0.0378 -0.0563
 4969SOL    HW126543   3.412   2.905   4.582 -0.0474 -0.5857 -0.5088
 4969SOL    HW226544   3.389   2.899   4.435  1.2343  0.1480 -0.7422
 4970SOL     OW26545   3.157   1.345  17.336  0.0660 -0.0123 -0.1477
 4970SOL    HW126546   3.137   1.384  17.251 -0.9838  1.4998  0.8041
 4970SOL    HW226547   3.068   1.357  17.370  0.1733  1.8090 -0.5180
 4971SOL     OW26548   0.619   2.024   6.683  0.1489 -0.2046 -0.2598
 4971SOL    HW126549   0.631   2.031   6.588 -1.6992 -0.8203 -0.5265
 4971SOL    HW226550   0.663   1.943   6.707 -0.9950 -1.0756 -1.1192
 4972SOL     OW26551   3.977   3.459   2.756 -0.0912  0.4008 -0.1675
 4972SOL    HW126552   4.061   3.476   2.798 -0.1568 -0.6903  0.4046
 4972SOL    HW226553   3.936   3.545   2.755  0.8972  0.8789 -0.2287
 4973SOL     OW26554   0.931   3.229   6.490 -0.2708 -0.3148  0.4773
 4973SOL    HW126555   0.983   3.157   6.526 -2.4741 -1.7292  0.8613
 4973SOL    HW226556   0.845   3.233   6.532 -1.3493 -0.5250 -1.7369
 4974SOL     OW26557   3.404   0.114   3.593  0.3151 -0.0885  0.5605
 4974SOL    HW126558   3.470   0.088   3.657  0.5329 -0.0412  0.3529
 4974SOL    HW226559   3.455   0.094   3.515 -1.0670 -3.1137  0.4402
 4975SOL     OW26560   3.038   0.918   6.092 -0.1862 -0.2794 -0.5206
 4975SOL    HW126561   2.952   0.924   6.132 -0.8597  1.3589 -2.1996
 4975SOL    HW226562   3.087   0.963   6.161  1.6050 -0.6108 -1.5675
 4976SOL     OW26563   1.740   1.846   4.918  0.0741  0.3610  0.2918
 4976SOL    HW126564   1.724   1.765   4.965  0.6661  0.1593  0.1482
 4976SOL    HW226565   1.836   1.845   4.915  0.1296  3.2078  0.7450
 4977SOL     OW26566   0.341   2.301  17.189 -0.1379  0.1300 -0.5256
 4977SOL    HW126567   0.432   2.328  17.178  0.0755  0.3890  2.0122
 4977SOL    HW226568   0.352   2.216  17.147  0.6425 -1.2547  2.5271
 4978SOL     OW26569   2.300   2.599   5.613 -0.0455  0.6003 -0.8419
 4978SOL    HW126570   2.258   2.667   5.560  1.5132  0.3659 -2.4060
 4978SOL    HW226571   2.382   2.649   5.616 -0.3219  1.1009 -1.5582
 4979SOL     OW26572   2.501   0.510  11.731  0.5748 -0.2952 -0.3378
 4979SOL    HW126573   2.425   0.456  11.710 -0.1209  0.7771 -0.5689
 4979SOL    HW226574   2.568   0.453  11.768 -0.3444 -2.5425 -2.1222
 4980SOL     OW26575   4.571   3.046  14.257 -0.6891 -0.6861  0.0567
 4980SOL    HW126576   4.631   3.021  14.186  1.1756 -0.2723  1.4938
 4980SOL    HW226577   4.631   3.077  14.325 -2.5557  3.7999 -0.3245
 4981SOL     OW26578   3.148   0.961   3.837  0.0212  0.3839  0.5020
 4981SOL    HW126579   3.090   1.036   3.849  1.6500  1.6759  0.2743
 4981SOL    HW226580   3.235   0.996   3.819  0.1102 -0.7559 -1.2580
 4982SOL     OW26581   2.314   1.651   7.059 -0.1116 -0.2082  0.1815
 4982SOL    HW126582   2.347   1.565   7.086 -1.2985 -0.3339  1.2685
 4982SOL    HW226583   2.221   1.636   7.076 -0.0892 -1.0024 -0.4188
 4983SOL     OW26584   1.220   2.520   5.943  0.6527  0.4632  0.2398
 4983SOL    HW126585   1.291   2.470   5.983  0.9902  0.6582 -0.1164
 4983SOL    HW226586   1.147   2.458   5.934  2.0842 -1.6167  2.9293
 4984SOL     OW26587   1.534   0.241   5.220 -0.2918  0.0045 -0.2827
 4984SOL    HW126588   1.519   0.149   5.241 -0.4080 -0.4130 -2.1495
 4984SOL    HW226589   1.596   0.266   5.289  0.1458 -1.5376 -0.1125
 4985SOL     OW26590   0.153   0.776  11.095  0.0202 -0.2899 -0.4335
 4985SOL    HW126591   0.090   0.728  11.149 -0.6059  0.0217 -0.8904
 4985SOL    HW226592   0.090   0.844  11.074  0.3560 -0.3341 -1.5863
 4986SOL     OW26593   0.829   4.072   5.355 -0.2699  0.1328  0.0186
 4986SOL    HW126594   0.902   4.132   5.340  0.4725 -1.5518 -3.1824
 4986SOL    HW226595   0.749   4.121   5.338 -0.0579  0.3808 -0.2597
 4987SOL     OW26596   2.243   1.083  10.021  0.0732  0.4398 -0.5096
 4987SOL    HW126597   2.155   1.102  10.056  0.9845 -0.4886  2.2993
 4987SOL    HW226598   2.299   1.112  10.094 -0.3676  1.8479 -0.7334
 4988SOL     OW26599   0.567   2.685  12.837 -0.0726  0.1962 -0.1658
 4988SOL    HW126600   0.643   2.628  12.840 -0.9079 -0.9663 -0.9405
 4988SOL    HW226601   0.601   2.765  12.796 -0.7929  1.3532  1.4782
 4989SOL     OW26602   1.110   3.441   6.795  0.6586 -0.1781  0.7106
 4989SOL    HW126603   1.185   3.386   6.815  1.7278  1.0670  0.1183
 4989SOL    HW226604   1.161   3.521   6.803 -0.5255  0.9829 -3.0551
 4990SOL     OW26605   4.039   3.018   6.067  0.1547 -0.2860 -0.0573
 4990SOL    HW126606   4.021   2.924   6.080  0.7710 -0.3370  0.4309
 4990SOL    HW226607   4.130   3.022   6.041 -0.0040 -1.1068 -0.7348
 4991SOL     OW26608   2.082   1.216   5.049 -0.1391  0.0775  0.1268
 4991SOL    HW126609   2.086   1.136   5.101 -2.3126 -0.6432 -0.8138
 4991SOL    HW226610   2.155   1.264   5.089  0.2112  0.5412 -1.0584
 4992SOL     OW26611   0.521   1.163   3.774 -0.5654  0.1097 -0.0167
 4992SOL    HW126612   0.473   1.085   3.801  1.6244 -1.2808 -0.0781
 4992SOL    HW226613   0.452   1.229   3.782 -1.1423 -0.7165  1.8133
 4993SOL     OW26614   0.010   2.849   0.111  0.1007  0.3016 -0.2116
 4993SOL    HW126615   0.096   2.855   0.153  0.7495 -0.9459 -1.3562
 4993SOL    HW226616   0.012   2.768   0.060 -0.3586 -0.5540  1.1268
 4994SOL     OW26617   3.233   1.396   3.766  0.5997  0.5507 -0.0299
 4994SOL    HW126618   3.256   1.312   3.727 -0.5940 -0.9575  2.4797
 4994SOL    HW226619   3.311   1.412   3.818  0.9903  0.8201 -0.7018
 4995SOL     OW26620   4.270   0.355   8.329 -0.6991  0.2883  0.0975
 4995SOL    HW126621   4.355   0.363   8.374  0.3537 -0.6659 -1.6991
 4995SOL    HW226622   4.302   0.334   8.241 -3.5085 -1.6941 -0.4214
 4996SOL     OW26623   1.104   3.451  17.375  0.1519 -0.3745  0.2539
 4996SOL    HW126624   1.080   3.457  17.282 -0.9363 -1.8577  0.4295
 4996SOL    HW226625   1.131   3.360  17.386  0.3370 -0.5463 -1.6024
 4997SOL     OW26626   4.282   4.055   7.982 -0.0685  0.1147 -0.1794
 4997SOL    HW126627   4.189   4.046   8.002  0.2994 -1.7889  0.7327
 4997SOL    HW226628   4.296   4.136   7.934  2.4470 -1.6249 -2.3431
 4998SOL     OW26629   3.814   0.201  15.153  0.0141 -0.0444 -0.1469
 4998SOL    HW126630   3.818   0.107  15.137  1.6669  0.0837 -0.4829
 4998SOL    HW226631   3.722   0.216  15.174  0.2585  0.6249  0.4757
 4999SOL     OW26632   4.457   2.780   3.142  0.2645 -0.3706  0.7806
 4999SOL    HW126633   4.457   2.870   3.111 -1.2056 -0.1858  1.3308
 4999SOL    HW226634   4.363   2.761   3.143  0.2823 -0.5114 -1.4204
 5000SOL     OW26635   3.822   3.653   2.688  0.6825  1.0889  0.0339
 5000SOL    HW126636   3.742   3.702   2.709 -0.1916 -0.5493  0.5053
 5000SOL    HW226637   3.844   3.673   2.597 -0.2442 -1.5065 -0.7403
 5001SOL     OW26638   2.678   0.459   0.007 -0.6306 -0.3584  0.2407
 5001SOL    HW126639   2.724   0.499   0.080  2.6140 -1.5570 -1.1488
 5001SOL    HW226640   2.735   0.498  17.695  0.3038 -1.9025  0.1387
 5002SOL     OW26641   1.874   0.760   8.531  0.2184 -0.8159  0.3584
 5002SOL    HW126642   1.837   0.780   8.617 -0.5264  0.3203 -0.2180
 5002SOL    HW226643   1.957   0.807   8.528 -0.2211  0.0727  2.0216
 5003SOL     OW26644   2.272   2.403   2.997 -0.4956 -0.4480 -0.1667
 5003SOL    HW126645   2.234   2.363   2.919 -0.0537  1.8007 -1.5208
 5003SOL    HW226646   2.266   2.331   3.060  0.6468  1.0803  1.6936
 5004SOL     OW26647   4.621   3.638   4.105  0.0358  0.5113 -0.2100
 5004SOL    HW126648   4.658   3.565   4.056 -0.1417  0.5423 -0.3885
 5004SOL    HW226649   4.539   3.600   4.135  0.6896 -0.1869  0.7067
 5005SOL     OW26650   1.701   2.083   1.510 -0.2826 -0.4412  0.2529
 5005SOL    HW126651   1.634   2.030   1.553  0.8153 -0.6770  1.6772
 5005SOL    HW226652   1.649   2.158   1.482 -0.2477 -0.4902  0.0605
 5006SOL     OW26653   3.970   3.671  10.182 -0.4527 -0.8255  0.3183
 5006SOL    HW126654   3.988   3.590  10.230 -1.1581 -1.1046  0.1165
 5006SOL    HW226655   4.014   3.658  10.098  0.1904 -1.3708  0.7358
 5007SOL     OW26656   0.107   2.637   4.172 -0.0434 -0.1926  0.1532
 5007SOL    HW126657   0.192   2.658   4.211 -0.4421  0.2520  0.7884
 5007SOL    HW226658   0.082   2.728   4.156 -0.4414 -0.1870  0.8208
 5008SOL     OW26659   2.479   1.489  11.152 -0.0651 -0.6596 -0.2866
 5008SOL    HW126660   2.393   1.527  11.136  0.0369 -1.3240 -2.3275
 5008SOL    HW226661   2.516   1.468  11.066 -0.5433 -1.7278 -0.2299
 5009SOL     OW26662   0.640   2.908   5.574 -0.0870 -0.3895  0.1235
 5009SOL    HW126663   0.657   2.849   5.501 -0.2445  0.4597 -0.5994
 5009SOL    HW226664   0.646   2.997   5.540  1.5644 -1.1683 -1.6235
 5010SOL     OW26665   4.344   1.213  10.120 -0.3486  0.2500  0.2814
 5010SOL    HW126666   4.255   1.230  10.087 -0.6720 -0.4632  0.7853
 5010SOL    HW226667   4.342   1.125  10.158  0.1857 -0.6420 -1.7190
 5011SOL     OW26668   1.137   3.481   5.184 -0.4596 -0.1210  0.9010
 5011SOL    HW126669   1.072   3.454   5.120  0.6455  0.1655 -0.3300
 5011SOL    HW226670   1.209   3.428   5.149 -1.9232 -0.9807 -0.7990
 5012SOL     OW26671   1.042   0.725   5.512  0.5182  0.4389  0.0410
 5012SOL    HW126672   1.118   0.779   5.529  0.5737  0.5576 -0.5746
 5012SOL    HW226673   0.976   0.787   5.541  3.1224  3.1208  0.1797
 5013SOL     OW26674   4.197   1.499   0.800 -0.3665 -0.7071 -0.8532
 5013SOL    HW126675   4.168   1.543   0.720 -0.0086 -0.6665 -0.9604
 5013SOL    HW226676   4.253   1.427   0.772  1.6402 -0.1966  1.9005
 5014SOL     OW26677   4.198   2.265   4.722  0.3685 -0.2767  0.0264
 5014SOL    HW126678   4.145   2.319   4.779 -1.4331  0.2898 -2.1794
 5014SOL    HW226679   4.238   2.207   4.787  1.3220  2.3806  1.8158
 5015SOL     OW26680   1.367   0.491   7.316 -0.1054  0.2803 -0.1515
 5015SOL    HW126681   1.461   0.505   7.309 -0.2597  0.2941 -1.9685
 5015SOL    HW226682   1.340   0.547   7.390 -0.1604  0.1838 -0.0974
 5016SOL     OW26683   3.270   1.947  11.828 -0.3921  0.4087 -0.4243
 5016SOL    HW126684   3.245   1.991  11.908  1.7775  1.1152 -0.1505
 5016SOL    HW226685   3.360   1.979  11.821 -0.4523  1.6906  5.2269
 5017SOL     OW26686   2.344   3.426   2.146  0.1193 -0.7615 -0.5294
 5017SOL    HW126687   2.251   3.445   2.156 -0.0500 -1.2373 -1.1868
 5017SOL    HW226688   2.349   3.424   2.050  1.2606 -0.9204 -0.4637
 5018SOL     OW26689   1.101   1.162   4.854  0.8396  0.0348 -0.1646
 5018SOL    HW126690   1.029   1.219   4.879 -0.2959 -2.3351  1.9896
 5018SOL    HW226691   1.062   1.076   4.840 -4.0315  2.2785 -0.2382
 5019SOL     OW26692   0.560   3.911   5.447  0.0305  0.0643  0.0457
 5019SOL    HW126693   0.539   3.998   5.413  0.8534 -0.5851 -2.1601
 5019SOL    HW226694   0.486   3.864   5.407 -0.2251 -0.0531  0.6557
 5020SOL     OW26695   2.127   4.391  16.387 -0.1112  0.5075 -0.0173
 5020SOL    HW126696   2.192   4.325  16.365 -1.2264 -0.2011 -1.1765
 5020SOL    HW226697   2.127   4.457  16.318  1.0811 -1.1183 -1.5567
 5021SOL     OW26698   3.160   3.503   2.248  0.0754 -0.7572 -0.0600
 5021SOL    HW126699   3.086   3.529   2.303 -1.4682 -2.0622 -1.5491
 5021SOL    HW226700   3.119   3.471   2.168  2.0901  1.0671 -1.8163
 5022SOL     OW26701   0.829   0.321  15.909  0.0983 -0.1729 -0.1647
 5022SOL    HW126702   0.846   0.236  15.870  0.9726 -0.0100 -0.1390
 5022SOL    HW226703   0.735   0.317  15.929 -0.0722 -1.0812 -1.1488
 5023SOL     OW26704   3.683   2.803  10.663 -0.3484  0.2101  0.3244
 5023SOL    HW126705   3.592   2.790  10.689  0.1861 -1.2791  1.4279
 5023SOL    HW226706   3.734   2.790  10.743 -2.4191  2.1754  1.9377
 5024SOL     OW26707   0.163   0.427   7.974 -0.3834  0.1997  1.1281
 5024SOL    HW126708   0.165   0.333   7.992 -1.7169 -0.4368 -1.9735
 5024SOL    HW226709   0.255   0.442   7.991  0.9611 -3.3988 -3.0156
 5025SOL     OW26710   1.742   4.168   3.941 -0.0982 -0.1751 -0.0211
 5025SOL    HW126711   1.762   4.260   3.959  0.3746  0.0264 -1.5473
 5025SOL    HW226712   1.764   4.160   3.848  0.4322 -2.2884  0.2917
 5026SOL     OW26713   3.840   3.964  10.709 -0.6349 -0.2877  0.5269
 5026SOL    HW126714   3.786   4.024  10.658 -0.5307 -0.1473  0.5849
 5026SOL    HW226715   3.882   3.916  10.638 -1.7265  0.4593 -0.6208
 5027SOL     OW26716   3.323   0.610  15.426  0.2158 -0.4223 -0.6854
 5027SOL    HW126717   3.310   0.701  15.401  0.5765 -0.3115 -0.4704
 5027SOL    HW226718   3.277   0.610  15.510 -0.2507  0.6992 -0.9378
 5028SOL     OW26719   4.035   0.198   5.961 -0.1268 -0.0448 -0.0625
 5028SOL    HW126720   4.005   0.264   5.898 -2.4607  0.2700  1.3799
 5028SOL    HW226721   3.971   0.207   6.031  0.5556 -0.0284  0.5570
 5029SOL     OW26722   0.330   3.488   6.944 -0.1962 -0.1776 -0.4713
 5029SOL    HW126723   0.299   3.491   6.853  2.8887  0.9642 -1.5029
 5029SOL    HW226724   0.262   3.434   6.983  0.5901 -1.5244 -0.9794
 5030SOL     OW26725   3.417   4.614   6.996  0.2400 -0.0983  0.5611
 5030SOL    HW126726   3.452   4.696   7.031 -0.0390  0.8484 -1.3620
 5030SOL    HW226727   3.472   4.602   6.918  1.4490  0.2034  1.3709
 5031SOL     OW26728   3.388   3.677   9.099 -0.3672  0.3254 -0.2297
 5031SOL    HW126729   3.303   3.695   9.058  0.0518  0.5474 -0.9985
 5031SOL    HW226730   3.378   3.670   9.194 -0.2116  1.0667 -0.1540
 5032SOL     OW26731   2.890   2.814   2.732  0.2346 -0.3426 -0.3278
 5032SOL    HW126732   2.903   2.898   2.776  1.3782  0.9080 -3.0640
 5032SOL    HW226733   2.883   2.753   2.805 -0.3778  0.1097 -0.0175
 5033SOL     OW26734   3.438   0.755   2.124  0.1095  0.4832  0.2435
 5033SOL    HW126735   3.378   0.686   2.154  0.0537  0.3253 -0.2239
 5033SOL    HW226736   3.397   0.790   2.045 -3.2529 -0.7621  1.4212
 5034SOL     OW26737   3.974   1.105  14.849  0.4600  0.2252 -0.0612
 5034SOL    HW126738   3.974   1.039  14.919 -1.2854 -0.7875 -1.0141
 5034SOL    HW226739   4.007   1.055  14.774 -3.3293 -0.4324 -1.3062
 5035SOL     OW26740   3.796   2.254   6.651 -1.4349 -1.0797  0.8047
 5035SOL    HW126741   3.724   2.239   6.589 -0.2784 -0.1711 -0.7664
 5035SOL    HW226742   3.867   2.278   6.592  0.8426 -2.0846  3.1451
 5036SOL     OW26743   0.815   0.301   0.601  0.3004 -0.1576 -0.2985
 5036SOL    HW126744   0.875   0.323   0.672  1.6177 -2.5511 -0.6625
 5036SOL    HW226745   0.864   0.299   0.518 -1.0962  3.2360 -1.1840
 5037SOL     OW26746   0.181   3.185   0.468  0.8278 -0.4063  0.3761
 5037SOL    HW126747   0.199   3.099   0.505 -0.4688 -0.3243  1.2225
 5037SOL    HW226748   0.147   3.163   0.381  1.9475 -2.4076  0.4483
 5038SOL     OW26749   3.773   0.937   3.820  0.2556  0.0503 -0.2552
 5038SOL    HW126750   3.687   0.897   3.836  0.8661 -1.1545  0.0105
 5038SOL    HW226751   3.826   0.888   3.882  0.1823 -0.7149 -0.7964
 5039SOL     OW26752   2.035   1.729   7.611  0.1451  0.2186  0.1278
 5039SOL    HW126753   1.986   1.782   7.548 -0.3089 -1.0530 -0.6031
 5039SOL    HW226754   2.025   1.786   7.687 -1.0257  1.0892 -0.6618
 5040SOL     OW26755   3.304   0.671  13.681 -0.1668  0.2528  0.0763
 5040SOL    HW126756   3.320   0.698  13.771 -0.4172  0.2797  0.1128
 5040SOL    HW226757   3.374   0.607  13.666  1.5410  2.4284 -1.2277
 5041SOL     OW26758   2.137   1.688   8.964  0.0295 -0.3919  0.0443
 5041SOL    HW126759   2.173   1.678   8.876 -3.2608 -1.5576 -1.1706
 5041SOL    HW226760   2.054   1.734   8.949 -0.0210 -0.3850  0.3471
 5042SOL     OW26761   3.115   4.301   5.375 -0.0614  0.0190  0.0551
 5042SOL    HW126762   3.124   4.217   5.420  0.6647 -0.3120 -0.6876
 5042SOL    HW226763   3.190   4.352   5.404  0.4591  0.2652 -1.7050
 5043SOL     OW26764   2.506   3.966   0.483 -0.3463  0.4417 -0.0922
 5043SOL    HW126765   2.416   3.998   0.487 -1.2473 -2.1179  0.0463
 5043SOL    HW226766   2.550   4.032   0.538  1.6951 -1.2260  0.2807
 5044SOL     OW26767   0.565   0.131   7.249  0.6979  0.7390 -0.2135
 5044SOL    HW126768   0.507   0.163   7.318  1.1195 -0.0757  0.5272
 5044SOL    HW226769   0.632   0.198   7.254  2.5647 -1.2666  1.7329
 5045SOL     OW26770   2.226   0.282   8.458 -0.3148 -0.4897  0.1481
 5045SOL    HW126771   2.302   0.233   8.428  0.5346  0.0540  1.4110
 5045SOL    HW226772   2.271   0.351   8.507  0.7739  0.5467 -2.2768
 5046SOL     OW26773   3.768   2.661   3.244 -0.1202  0.1686  0.2318
 5046SOL    HW126774   3.859   2.635   3.231 -0.5551 -0.3975 -1.7137
 5046SOL    HW226775   3.759   2.699   3.332  0.8700  1.7750 -0.3643
 5047SOL     OW26776   2.764   0.935   6.148  0.1245  0.0568  0.3063
 5047SOL    HW126777   2.743   1.028   6.155  1.3322  0.3334  0.0779
 5047SOL    HW226778   2.681   0.899   6.115  0.8767 -1.4126  0.0428
 5048SOL     OW26779   3.507   3.266   8.782 -0.1729  0.5022  0.5881
 5048SOL    HW126780   3.423   3.292   8.820 -1.5642 -0.0223 -2.0697
 5048SOL    HW226781   3.536   3.346   8.738 -1.8744  0.0751 -1.3679
 5049SOL     OW26782   0.241   1.412   7.998  0.0253 -0.6043  0.1114
 5049SOL    HW126783   0.158   1.384   8.038  0.1576 -1.4192 -0.1994
 5049SOL    HW226784   0.272   1.478   8.061 -0.4758  0.7165 -1.0206
 5050SOL     OW26785   4.566   1.733  14.163  0.2945  0.3287  0.3966
 5050SOL    HW126786   4.483   1.686  14.153 -0.1040  1.3538 -1.1675
 5050SOL    HW226787   4.604   1.725  14.075  2.1914 -2.6606  1.4862
 5051SOL     OW26788   1.382   4.042  14.638 -0.3003  0.4201  0.1857
 5051SOL    HW126789   1.432   4.011  14.714  0.3082 -2.1750 -1.2753
 5051SOL    HW226790   1.446   4.041  14.567  1.7561 -1.1377  2.0731
 5052SOL     OW26791   3.001   2.734   5.438 -0.6970  0.1895  0.0009
 5052SOL    HW126792   2.931   2.765   5.497 -1.4670 -0.5583 -0.5310
 5052SOL    HW226793   2.953   2.744   5.357  2.6864  0.5213 -1.9604
 5053SOL     OW26794   1.077   3.266   4.662 -0.4415  0.3109 -0.1773
 5053SOL    HW126795   1.096   3.245   4.571  0.5149  1.2144 -0.1791
 5053SOL    HW226796   1.040   3.354   4.659 -0.2549  0.4179  0.4954
 5054SOL     OW26797   2.007   4.359   5.819 -0.4932  0.2627  0.2693
 5054SOL    HW126798   1.930   4.415   5.824  0.2916  1.2732  1.0819
 5054SOL    HW226799   2.076   4.426   5.815  0.6512 -0.8273  1.4685
 5055SOL     OW26800   1.867   0.926  11.044  0.7103  0.2672  0.1675
 5055SOL    HW126801   1.942   0.955  11.096 -1.1151  0.8313  2.5047
 5055SOL    HW226802   1.900   0.850  10.996 -1.7462 -0.3217 -0.6138
 5056SOL     OW26803   2.871   2.307   7.163 -0.0164 -0.1972  0.0323
 5056SOL    HW126804   2.797   2.263   7.121 -0.4776  2.0519 -1.4944
 5056SOL    HW226805   2.849   2.399   7.155 -1.5840 -0.4555  1.5101
 5057SOL     OW26806   2.339   0.257   7.316 -0.2244 -0.3608  0.5255
 5057SOL    HW126807   2.389   0.306   7.381  0.7485 -0.0128 -0.4868
 5057SOL    HW226808   2.407   0.267   7.249 -2.8584  2.3279 -1.7528
 5058SOL     OW26809   0.929   1.173   5.726 -0.2775 -0.3148  0.1730
 5058SOL    HW126810   0.834   1.165   5.718 -0.3916 -0.1652  1.3465
 5058SOL    HW226811   0.947   1.185   5.820  1.0239  1.4491 -0.3012
 5059SOL     OW26812   4.068   2.184  15.329 -0.1414  0.0127 -0.3278
 5059SOL    HW126813   4.001   2.129  15.288  0.2619 -0.9473  0.2856
 5059SOL    HW226814   4.100   2.227  15.250 -1.1668  0.7180 -0.3448
 5060SOL     OW26815   0.413   3.733   2.289  0.9334  0.7256 -0.1750
 5060SOL    HW126816   0.466   3.801   2.332 -1.2937  1.8437  0.7883
 5060SOL    HW226817   0.365   3.687   2.358  1.9293  1.9385  1.3405
 5061SOL     OW26818   2.423   3.329   2.486 -0.0715 -0.0676 -0.1281
 5061SOL    HW126819   2.477   3.326   2.564 -1.4185 -1.9164  0.7395
 5061SOL    HW226820   2.376   3.247   2.503  1.7542 -1.2805 -0.9738
 5062SOL     OW26821   4.723   1.560   4.341 -0.7810 -0.9884  0.5196
 5062SOL    HW126822   0.029   1.604   4.413 -2.4349 -0.9368  1.5157
 5062SOL    HW226823   0.056   1.558   4.278 -0.1906  0.2701  1.1411
 5063SOL     OW26824   3.116   4.110   4.999  0.4967  0.5275 -0.4047
 5063SOL    HW126825   3.113   4.206   4.998  2.9843  0.6204  0.4070
 5063SOL    HW226826   3.211   4.097   5.001  0.2505 -1.2936 -0.8165
 5064SOL     OW26827   3.658   4.361   1.365 -0.7123  0.5043 -0.1302
 5064SOL    HW126828   3.642   4.288   1.424  0.7372 -0.0934 -0.4691
 5064SOL    HW226829   3.616   4.431   1.415  2.2171  1.6433  0.7832
 5065SOL     OW26830   4.018   2.883   7.562 -0.3724  0.1317 -0.2904
 5065SOL    HW126831   3.980   2.858   7.478 -2.3041  1.8959  0.0574
 5065SOL    HW226832   4.110   2.857   7.558 -0.5726 -0.2859 -2.4747
 5066SOL     OW26833   1.825   4.289   8.486  0.0770  0.1221 -0.4125
 5066SOL    HW126834   1.873   4.357   8.533  0.0556  0.2157 -0.5275
 5066SOL    HW226835   1.808   4.226   8.557  1.4617 -0.0102 -0.2076
 5067SOL     OW26836   4.422   2.362   4.618  0.1028 -0.2503 -0.2237
 5067SOL    HW126837   4.481   2.288   4.635 -0.3744 -0.2199  1.5363
 5067SOL    HW226838   4.341   2.336   4.661 -0.6714 -0.4364 -1.7997
 5068SOL     OW26839   4.251   3.749   5.600 -0.4779 -0.2283 -0.0212
 5068SOL    HW126840   4.179   3.691   5.623  0.7796 -1.1517  1.5806
 5068SOL    HW226841   4.230   3.832   5.644  2.6984  1.5849 -1.8426
 5069SOL     OW26842   0.452   1.986  12.391  0.2611 -0.5813 -0.3121
 5069SOL    HW126843   0.493   2.009  12.474  0.8898  2.5739 -1.4936
 5069SOL    HW226844   0.363   1.965  12.418  0.5127  0.4175  1.2983
 5070SOL     OW26845   0.702   3.521   4.905  0.3925 -0.3930  0.0612
 5070SOL    HW126846   0.781   3.493   4.859  0.0288 -2.8737  0.9034
 5070SOL    HW226847   0.632   3.483   4.852 -1.6074  2.7334  0.4647
 5071SOL     OW26848   4.294   1.649   6.400 -0.6679 -0.2456  0.0422
 5071SOL    HW126849   4.237   1.572   6.401 -1.7169  0.4972 -1.7806
 5071SOL    HW226850   4.305   1.639   6.494  2.1733 -3.8061 -0.6736
 5072SOL     OW26851   2.457   0.034  15.175 -0.1322  0.8039  0.1916
 5072SOL    HW126852   2.364   0.026  15.153  0.5266 -3.4419 -1.0192
 5072SOL    HW226853   2.498   4.703  15.125 -0.5441  0.6527  0.0693
 5073SOL     OW26854   2.612   0.282  17.404  0.0771 -0.0273  0.3796
 5073SOL    HW126855   2.657   0.281  17.319  0.0507 -1.9372  0.3882
 5073SOL    HW226856   2.677   0.239  17.459  1.9073  1.9665 -0.1983
 5074SOL     OW26857   0.715   4.575   7.503  0.5556  0.2825  0.1550
 5074SOL    HW126858   0.762   4.637   7.558  1.0459  1.2881 -1.3911
 5074SOL    HW226859   0.642   4.547   7.560  0.9743  0.7019  0.8947
 5075SOL     OW26860   1.107   2.514   8.428  0.4383 -0.3199 -0.1792
 5075SOL    HW126861   1.050   2.515   8.505  1.3250  1.7346  0.4607
 5075SOL    HW226862   1.130   2.604   8.405 -0.6177  0.3143  1.1851
 5076SOL     OW26863   2.151   3.145  16.129  0.2461 -0.6732  0.0761
 5076SOL    HW126864   2.055   3.147  16.125  0.2475  0.9430  0.8571
 5076SOL    HW226865   2.174   3.132  16.037 -1.6805 -3.6477  0.0175
 5077SOL     OW26866   2.076   0.251   2.506 -0.2155  0.0730 -0.1767
 5077SOL    HW126867   2.068   0.302   2.586  0.5893  0.3314 -0.2655
 5077SOL    HW226868   1.986   0.222   2.493  0.2124 -1.4200  0.2329
 5078SOL     OW26869   1.180   0.679   5.832  0.0914  0.1166  0.3399
 5078SOL    HW126870   1.094   0.640   5.813  0.7187 -0.6004 -1.0143
 5078SOL    HW226871   1.159   0.756   5.885  2.0933 -0.7726  2.4089
 5079SOL     OW26872   1.135   0.696  12.150 -0.2810 -0.3971 -0.5088
 5079SOL    HW126873   1.189   0.747  12.089 -0.3279 -0.4949 -0.6333
 5079SOL    HW226874   1.068   0.762  12.167 -1.3643 -1.7179  0.3278
 5080SOL     OW26875   0.953   1.945  10.323  0.9243  0.2510 -0.4336
 5080SOL    HW126876   0.859   1.960  10.323  1.1501  1.6451 -0.6782
 5080SOL    HW226877   0.963   1.851  10.339  1.0392  0.4118  0.4755
 5081SOL     OW26878   0.832   0.670   2.106  0.1221  0.0366 -0.2709
 5081SOL    HW126879   0.871   0.630   2.029  1.5000 -1.3124  1.1243
 5081SOL    HW226880   0.913   0.677   2.156 -0.6145  1.0153  0.8081
 5082SOL     OW26881   4.556   2.500   6.379 -0.0534  0.7549 -0.3769
 5082SOL    HW126882   4.618   2.559   6.422  0.8618 -0.3941 -0.1385
 5082SOL    HW226883   4.498   2.506   6.455 -0.3858 -0.6980 -0.5189
 5083SOL     OW26884   1.774   4.559  10.695  0.1930  0.3763 -0.4555
 5083SOL    HW126885   1.732   4.562  10.609 -0.7770 -2.3814 -0.0794
 5083SOL    HW226886   1.857   4.596  10.665  0.7827  0.4580  1.2719
 5084SOL     OW26887   0.768   3.712   2.602 -0.1794  0.1167 -0.1740
 5084SOL    HW126888   0.680   3.748   2.610 -0.9238 -1.7344  0.0863
 5084SOL    HW226889   0.797   3.748   2.519  1.9499 -2.4276 -0.5464
 5085SOL     OW26890   4.158   2.076   4.298 -0.4789  0.5856  0.1165
 5085SOL    HW126891   4.086   2.112   4.350  0.3991  2.7657 -0.1812
 5085SOL    HW226892   4.195   2.016   4.364 -1.4677  0.4399  0.5427
 5086SOL     OW26893   0.096   4.254   8.680  0.0655 -0.6125  0.6885
 5086SOL    HW126894   0.076   4.317   8.749  4.3248  1.2160  0.2598
 5086SOL    HW226895   0.124   4.177   8.729 -0.6052 -1.8321 -0.8580
 5087SOL     OW26896   3.858   4.171   6.826 -0.5472  0.2340 -0.1363
 5087SOL    HW126897   3.817   4.093   6.862 -0.1631  1.4042  2.8295
 5087SOL    HW226898   3.783   4.199   6.774 -0.6212 -1.9015 -1.1567
 5088SOL     OW26899   4.580   4.045   8.060 -0.8204 -0.5529 -0.5247
 5088SOL    HW126900   4.579   3.984   8.134 -0.3008 -0.9087 -0.8118
 5088SOL    HW226901   4.488   4.064   8.044 -0.5995 -1.2834 -2.6474
 5089SOL     OW26902   3.957   4.565   7.018  0.4958 -0.8139 -0.3673
 5089SOL    HW126903   3.891   4.499   7.038 -1.1514  1.0651  0.4271
 5089SOL    HW226904   4.036   4.527   7.059  0.7800  1.1698  0.9495
 5090SOL     OW26905   4.599   3.912   2.095 -0.4910 -0.2993  0.6728
 5090SOL    HW126906   4.610   3.870   2.180  2.3748 -1.2467 -0.1413
 5090SOL    HW226907   4.650   3.993   2.107 -0.1225 -0.8801  3.0377
 5091SOL     OW26908   2.204   2.980   6.698 -0.1684 -0.6132  0.2792
 5091SOL    HW126909   2.167   3.055   6.651  1.9942  0.9496  1.0389
 5091SOL    HW226910   2.166   2.980   6.786  1.0449 -3.3537  0.7958
 5092SOL     OW26911   3.755   0.113   4.385  0.0996  0.5552  0.2618
 5092SOL    HW126912   3.816   0.157   4.445 -0.2613 -0.7571  1.5981
 5092SOL    HW226913   3.666   0.118   4.419  0.4519 -0.1228  1.2990
 5093SOL     OW26914   1.330   2.613  15.542  0.3351 -0.3732  0.1898
 5093SOL    HW126915   1.283   2.552  15.600 -0.2884 -0.7823 -0.7465
 5093SOL    HW226916   1.271   2.688  15.533  2.2513  1.2240  0.8803
 5094SOL     OW26917   2.477   3.444  14.100  0.3287  0.0441  0.6572
 5094SOL    HW126918   2.551   3.504  14.093 -0.1564  0.5414 -0.1764
 5094SOL    HW226919   2.492   3.392  14.021  3.5625  1.2115  0.4982
 5095SOL     OW26920   1.851   1.271   0.406  0.1239 -0.0363 -0.6081
 5095SOL    HW126921   1.890   1.188   0.381 -0.5236 -0.0995 -1.4008
 5095SOL    HW226922   1.764   1.264   0.367  0.1524 -0.9989 -0.4999
 5096SOL     OW26923   1.745   1.244  14.576 -0.4325  0.1019  0.2278
 5096SOL    HW126924   1.651   1.228  14.586 -0.2760 -1.4980 -0.7855
 5096SOL    HW226925   1.778   1.183  14.643  1.4326  0.4186 -0.4072
 5097SOL     OW26926   3.382   0.338  16.925  0.0140  0.4045  0.7036
 5097SOL    HW126927   3.353   0.247  16.924  1.8837 -0.1822  1.2883
 5097SOL    HW226928   3.410   0.331  16.834  0.1605 -0.1857  0.7963
 5098SOL     OW26929   0.335   1.277   4.625  0.2887 -0.7847  0.3510
 5098SOL    HW126930   0.322   1.340   4.695 -0.2619 -0.1908 -0.2816
 5098SOL    HW226931   0.321   1.338   4.552 -1.8779  0.9038  2.1755
 5099SOL     OW26932   1.764   0.582   4.995 -0.3802 -0.0038 -0.5315
 5099SOL    HW126933   1.798   0.614   5.078 -1.9423  1.3726 -0.4066
 5099SOL    HW226934   1.716   0.504   5.023  2.3749 -1.4138  0.2532
 5100SOL     OW26935   0.428   0.098  10.541  0.2902  0.2442  0.3161
 5100SOL    HW126936   0.498   0.086  10.606 -0.1436 -1.9422  0.3671
 5100SOL    HW226937   0.360   0.136  10.596  0.7759 -0.4134  1.3615
 5101SOL     OW26938   1.405   4.485   2.859 -0.7660 -0.1615  0.2310
 5101SOL    HW126939   1.420   4.397   2.892 -4.2790 -1.4011 -1.6016
 5101SOL    HW226940   1.496   4.516   2.863  0.4487 -3.6334 -0.5084
 5102SOL     OW26941   0.725   0.745  10.307 -0.0297  0.1904 -0.3072
 5102SOL    HW126942   0.771   0.794  10.376 -1.3588  0.4899  0.3568
 5102SOL    HW226943   0.793   0.731  10.241 -1.1703  0.3573 -1.5047
 5103SOL     OW26944   2.250   2.529  12.711  0.1124 -0.2024 -0.0789
 5103SOL    HW126945   2.224   2.534  12.803 -1.2340 -0.3048 -0.4542
 5103SOL    HW226946   2.167   2.569  12.683 -0.2640 -1.8004 -1.3114
 5104SOL     OW26947   1.523   1.422  16.651 -0.5147 -0.0699  0.0551
 5104SOL    HW126948   1.543   1.455  16.738 -2.3674  1.8693 -0.2621
 5104SOL    HW226949   1.611   1.408  16.616 -1.3113 -1.0048 -1.6140
 5105SOL     OW26950   2.258   4.142   5.179 -0.1711  0.5605 -0.1119
 5105SOL    HW126951   2.316   4.082   5.226 -1.4964 -0.0104  0.7884
 5105SOL    HW226952   2.296   4.157   5.092 -0.7996 -2.2472 -0.8912
 5106SOL     OW26953   3.206   3.974   4.158  0.3625 -0.2564 -0.5781
 5106SOL    HW126954   3.226   3.882   4.173 -0.3217 -0.5945 -1.6897
 5106SOL    HW226955   3.167   3.966   4.071  1.0495  0.8436 -0.9861
 5107SOL     OW26956   0.604   4.443   5.665 -0.2650 -0.0122 -0.6336
 5107SOL    HW126957   0.522   4.477   5.702 -0.2311  0.7723 -1.2676
 5107SOL    HW226958   0.575   4.428   5.574 -0.1909  2.2468 -1.0367
 5108SOL     OW26959   1.817   4.410   4.019 -0.1096  0.3856  0.5808
 5108SOL    HW126960   1.859   4.493   3.996  0.8183 -0.6208 -1.3798
 5108SOL    HW226961   1.738   4.435   4.066 -1.3018 -1.8509 -0.2116
 5109SOL     OW26962   4.298   1.965   2.939  0.3042  0.0575  0.2459
 5109SOL    HW126963   4.357   1.985   2.866  0.4923 -0.6024  0.2164
 5109SOL    HW226964   4.347   1.986   3.018  1.6343  1.6074 -0.9799
 5110SOL     OW26965   1.779   0.773   1.419 -0.2682  0.0636  0.5498
 5110SOL    HW126966   1.739   0.687   1.410  2.3668 -1.0574 -0.3253
 5110SOL    HW226967   1.841   0.760   1.491 -0.2484 -3.8423 -0.2137
 5111SOL     OW26968   0.562   3.129   7.746  0.3579  0.2250  0.2701
 5111SOL    HW126969   0.549   3.125   7.841  0.3943 -0.2823  0.2571
 5111SOL    HW226970   0.651   3.162   7.744  0.7483 -0.7640  1.2403
 5112SOL     OW26971   4.252   4.186   7.117  0.6173  0.8705  0.1510
 5112SOL    HW126972   4.247   4.202   7.022 -1.4895 -3.0407 -0.3792
 5112SOL    HW226973   4.340   4.148   7.123  0.0975  0.2390  3.5767
 5113SOL     OW26974   3.373   2.381  15.121  0.2167  0.1769 -0.1308
 5113SOL    HW126975   3.421   2.328  15.057 -0.2102 -1.2374  0.7079
 5113SOL    HW226976   3.286   2.342  15.109 -0.0501  0.7832 -0.1322
 5114SOL     OW26977   2.306   3.566  14.620  0.7141 -0.1832 -0.2188
 5114SOL    HW126978   2.296   3.650  14.664 -0.4870 -0.4954  0.0921
 5114SOL    HW226979   2.231   3.514  14.649  1.2236 -0.9398 -0.2583
 5115SOL     OW26980   0.564   2.908  14.294  0.7598  0.3203 -0.0231
 5115SOL    HW126981   0.573   2.922  14.200  0.8481  0.9801  0.0797
 5115SOL    HW226982   0.538   2.990  14.336  0.9603 -0.2105  1.1593
 5116SOL     OW26983   4.309   4.425  12.784 -0.2420 -0.0809 -0.0276
 5116SOL    HW126984   4.315   4.346  12.839  2.9033  0.5364  0.5284
 5116SOL    HW226985   4.262   4.477  12.850  0.7605 -1.2419  1.6073
 5117SOL     OW26986   3.835   4.606   1.634 -0.4524 -0.4644  0.5772
 5117SOL    HW126987   3.769   4.579   1.570  0.6262 -2.1437  0.1735
 5117SOL    HW226988   3.880   4.522   1.637 -0.8427 -0.5813  3.0414
 5118SOL     OW26989   1.512   1.444   5.715  0.1630  0.3198  0.0267
 5118SOL    HW126990   1.521   1.422   5.622 -1.6243  1.3534 -0.3938
 5118SOL    HW226991   1.536   1.361   5.755 -0.5251  0.0822 -0.0498
 5119SOL     OW26992   1.517   3.246   1.840 -0.9123  0.2598  0.2966
 5119SOL    HW126993   1.575   3.320   1.851 -0.2514 -0.4985  1.9220
 5119SOL    HW226994   1.578   3.173   1.853  0.4595  1.2147 -0.8095
 5120SOL     OW26995   4.092   4.214  16.386 -0.0159 -0.3144 -0.1905
 5120SOL    HW126996   4.121   4.170  16.466  1.0705 -1.3244 -1.1430
 5120SOL    HW226997   4.147   4.168  16.323 -1.2961 -0.9485 -0.8514
 5121SOL     OW26998   4.196   3.609   2.843  0.2465 -0.5198  0.1992
 5121SOL    HW126999   4.262   3.644   2.783 -0.5673  0.4234 -0.1413
 5121SOL    HW227000   4.149   3.688   2.869  2.3799  0.6238  0.5487
 5122SOL     OW27001   3.128   4.236  10.646 -0.0065 -0.0722 -0.1115
 5122SOL    HW127002   3.166   4.185  10.574  4.6542  0.8752  1.6657
 5122SOL    HW227003   3.131   4.323  10.607 -2.2613 -0.7246 -1.6920
 5123SOL     OW27004   0.656   3.447   5.652 -0.1301 -0.3177 -0.0069
 5123SOL    HW127005   0.677   3.539   5.641 -0.3137 -0.2650  0.0781
 5123SOL    HW227006   0.597   3.448   5.577 -1.5750 -0.6331  1.1097
 5124SOL     OW27007   0.899   0.001  11.391 -0.7890 -0.3661 -0.4374
 5124SOL    HW127008   0.936   4.662  11.350 -0.4848 -0.7214  0.5202
 5124SOL    HW227009   0.870   4.705  11.475 -1.3082  0.4382 -0.2792
 5125SOL     OW27010   3.640   2.271   3.818  0.0466  0.4951  0.5056
 5125SOL    HW127011   3.673   2.193   3.862  0.8810  0.1919 -0.6436
 5125SOL    HW227012   3.588   2.225   3.752  1.0279  0.2811 -0.1107
 5126SOL     OW27013   3.051   1.929  13.491  0.3487 -0.1304 -0.2959
 5126SOL    HW127014   3.048   1.834  13.481  1.5274 -0.0882 -1.0296
 5126SOL    HW227015   3.056   1.937  13.586 -1.6852 -1.4044 -0.0806
 5127SOL     OW27016   3.599   0.116   7.775  0.4918 -0.2311  0.5480
 5127SOL    HW127017   3.634   0.189   7.723 -0.3364 -0.3699 -0.2038
 5127SOL    HW227018   3.520   0.096   7.725  1.2583 -1.7827 -0.0293
 5128SOL     OW27019   0.855   0.519   3.134  0.0214  0.7405 -0.0447
 5128SOL    HW127020   0.911   0.444   3.153  1.6660  1.6618 -1.3237
 5128SOL    HW227021   0.929   0.578   3.121 -1.8309  2.0979 -4.1362
 5129SOL     OW27022   3.010   4.663   4.193 -0.6317 -0.1679  0.1649
 5129SOL    HW127023   3.054   4.685   4.275 -0.9668 -1.5224  0.7090
 5129SOL    HW227024   3.051   4.726   4.134  2.0458 -1.7967  0.2684
 5130SOL     OW27025   1.463   3.937   5.414  0.1853  0.1645 -0.4618
 5130SOL    HW127026   1.510   3.863   5.375 -3.2153 -0.6270 -3.0663
 5130SOL    HW227027   1.511   4.018   5.401 -0.4180  0.8003  1.2106
 5131SOL     OW27028   0.543   2.686  14.441  0.4820  0.2609  0.1594
 5131SOL    HW127029   0.463   2.710  14.488  0.3649  0.6302 -0.2232
 5131SOL    HW227030   0.572   2.768  14.400  1.5893  0.9593  2.3269
 5132SOL     OW27031   3.732   2.125  15.019  0.2180 -0.2679  0.0979
 5132SOL    HW127032   3.647   2.102  15.057 -0.0021 -0.3197 -0.4355
 5132SOL    HW227033   3.747   2.073  14.940 -0.7461 -0.0862 -0.1991
 5133SOL     OW27034   1.540   2.400   5.498 -0.2890  0.4757  0.5516
 5133SOL    HW127035   1.582   2.315   5.489 -2.8776 -0.6405 -1.2440
 5133SOL    HW227036   1.567   2.441   5.416 -2.4351  1.9717  0.5834
 5134SOL     OW27037   3.984   4.710   1.184 -0.1380  0.0909 -0.0367
 5134SOL    HW127038   3.950   4.624   1.209 -0.7799  0.5674  0.7050
 5134SOL    HW227039   3.985   4.700   1.089  0.2183 -0.6744  0.0464
 5135SOL     OW27040   2.092   4.548   1.385  0.5850  0.1378 -0.3827
 5135SOL    HW127041   2.152   4.477   1.407  0.9042  0.4146 -0.3677
 5135SOL    HW227042   2.134   4.573   1.303  2.3094 -0.2439  0.3855
 5136SOL     OW27043   2.412   0.939   5.367 -0.3911  0.0249  0.1193
 5136SOL    HW127044   2.443   1.026   5.390  0.8743 -0.3606 -0.1244
 5136SOL    HW227045   2.470   0.922   5.292 -1.5420  1.0391 -0.9985
 5137SOL     OW27046   3.862   1.060   7.827 -1.0151  0.1273 -0.1366
 5137SOL    HW127047   3.780   1.083   7.783 -1.1161 -0.5809 -0.3101
 5137SOL    HW227048   3.900   0.999   7.764 -1.1212  2.0924 -2.0934
 5138SOL     OW27049   1.650   2.391   9.026  0.2436  0.2821  0.1932
 5138SOL    HW127050   1.736   2.349   9.031  0.3163  0.6426  2.0901
 5138SOL    HW227051   1.667   2.450   8.952  0.9768  0.0249  0.1585
 5139SOL     OW27052   2.506   3.372   0.970  0.2350 -0.1247 -0.0292
 5139SOL    HW127053   2.526   3.306   1.036 -0.2916  0.8010  1.0633
 5139SOL    HW227054   2.459   3.323   0.902  3.4183 -1.9418 -0.9179
 5140SOL     OW27055   2.404   3.934   6.154  0.1273  0.8588 -0.8366
 5140SOL    HW127056   2.322   3.902   6.116  0.8432  1.0178 -2.5398
 5140SOL    HW227057   2.383   4.022   6.185 -0.2506 -0.3324  2.2627
 5141SOL     OW27058   0.190   3.131   5.866  0.2860 -0.3708 -0.4177
 5141SOL    HW127059   0.168   3.219   5.897  1.3283 -0.5354  0.8249
 5141SOL    HW227060   0.257   3.157   5.804  1.1468  0.5474  0.8883
 5142SOL     OW27061   1.748   2.245   7.888 -0.4846  0.4165 -0.3907
 5142SOL    HW127062   1.654   2.225   7.889 -0.0107 -1.7203  0.5133
 5142SOL    HW227063   1.745   2.331   7.929  1.5988 -0.2997  1.2550
 5143SOL     OW27064   1.161   4.178   6.462  0.1043  0.7213  0.3338
 5143SOL    HW127065   1.225   4.235   6.420  2.3349 -1.3421  0.9385
 5143SOL    HW227066   1.182   4.088   6.436 -1.1236  1.0256 -1.6910
 5144SOL     OW27067   4.021   4.724  16.907 -0.0865 -0.3337 -0.4515
 5144SOL    HW127068   4.085   4.663  16.943 -0.1557  0.7321  1.5134
 5144SOL    HW227069   4.054   0.074  16.917 -0.1534 -0.3419 -0.1319
 5145SOL     OW27070   1.758   1.673   2.686  0.3624  0.5608  0.5939
 5145SOL    HW127071   1.724   1.584   2.683 -0.2719  0.7992  0.5865
 5145SOL    HW227072   1.839   1.648   2.730  0.6414 -1.0759 -0.8541
 5146SOL     OW27073   4.460   3.960  14.826 -0.1024  0.1246  0.1199
 5146SOL    HW127074   4.424   3.928  14.909  0.3420  1.4854  0.8372
 5146SOL    HW227075   4.396   4.029  14.808 -0.4648  0.0201  0.9990
 5147SOL     OW27076   2.905   1.588   6.689 -0.2787 -0.1896  0.5269
 5147SOL    HW127077   2.896   1.656   6.623 -0.7929  0.0340  0.8260
 5147SOL    HW227078   2.982   1.635   6.720  1.8232 -4.0805  1.1656
 5148SOL     OW27079   0.649   4.044   0.292  0.5592 -0.6634 -0.0657
 5148SOL    HW127080   0.701   4.123   0.306 -1.8611  0.7463  0.9858
 5148SOL    HW227081   0.638   4.008   0.380  0.8481 -2.1628 -0.6373
 5149SOL     OW27082   1.177   1.763  11.527  0.6562  0.4472  0.2399
 5149SOL    HW127083   1.152   1.826  11.594 -0.6965  0.0899  0.0708
 5149SOL    HW227084   1.105   1.770  11.465  1.0677 -2.2642 -0.5450
 5150SOL     OW27085   0.956   1.220   5.990 -0.2655 -0.5553 -0.7346
 5150SOL    HW127086   1.037   1.244   6.034 -0.8534 -1.0207  0.6129
 5150SOL    HW227087   0.916   1.150   6.042 -1.4532  0.9458  0.3862
 5151SOL     OW27088   4.320   2.858   3.733  0.1581  0.0113  0.0076
 5151SOL    HW127089   4.369   2.777   3.745  1.6644  1.0523  0.9858
 5151SOL    HW227090   4.344   2.864   3.640  2.5155 -0.3215  0.5913
 5152SOL     OW27091   2.023   0.724  13.800 -0.2930 -0.1227 -0.0227
 5152SOL    HW127092   2.095   0.691  13.853 -1.5296 -0.4197  1.4646
 5152SOL    HW227093   2.001   0.637  13.765 -1.0813 -0.3548  1.0296
 5153SOL     OW27094   0.311   2.488   2.294  0.5739 -0.4577  0.3207
 5153SOL    HW127095   0.363   2.564   2.321  0.9546  0.0382 -1.7792
 5153SOL    HW227096   0.226   2.515   2.329 -0.0427  0.1165 -1.6237
 5154SOL     OW27097   3.510   0.732   1.197 -0.5796 -0.1823 -0.1439
 5154SOL    HW127098   3.420   0.764   1.207 -0.8070 -0.7234 -0.4479
 5154SOL    HW227099   3.523   0.765   1.108 -3.8401  3.0852  0.5531
 5155SOL     OW27100   3.113   1.820   3.465 -0.4482  0.1880 -1.2629
 5155SOL    HW127101   3.176   1.749   3.479  0.2030  1.3163  1.4900
 5155SOL    HW227102   3.034   1.775   3.494  0.0452 -0.4435 -0.8685
 5156SOL     OW27103   3.608   3.083  11.370 -0.3366 -0.3080 -0.5443
 5156SOL    HW127104   3.551   3.051  11.301 -0.5385  1.1693 -1.0751
 5156SOL    HW227105   3.649   3.005  11.407  0.9643 -0.1970 -1.7612
 5157SOL     OW27106   0.129   1.867  16.660  0.0357 -0.4095 -0.2804
 5157SOL    HW127107   0.138   1.820  16.577 -0.0742 -1.1125  0.1059
 5157SOL    HW227108   0.037   1.889  16.672  0.1861 -0.1887  0.4314
 5158SOL     OW27109   4.462   3.717  15.027 -0.5078 -0.2686  0.1373
 5158SOL    HW127110   4.494   3.718  15.117  1.1450 -0.7507 -0.4409
 5158SOL    HW227111   4.547   3.719  14.983 -0.2770  0.8096  0.6274
 5159SOL     OW27112   3.919   0.540   1.777  1.1535  0.2435 -0.1004
 5159SOL    HW127113   3.857   0.614   1.774 -0.7651 -1.3519  0.0912
 5159SOL    HW227114   3.899   0.490   1.698 -1.3323 -0.9353  1.2749
 5160SOL     OW27115   3.503   1.392   1.248 -0.2536  0.0259 -0.1187
 5160SOL    HW127116   3.483   1.471   1.198  1.4380  0.9303  0.6472
 5160SOL    HW227117   3.442   1.337   1.198 -0.3552 -2.3204  2.5388
 5161SOL     OW27118   4.732   3.414  17.324  0.6485  0.6794  0.1729
 5161SOL    HW127119   0.053   3.398  17.252  1.0360 -0.2777  0.7095
 5161SOL    HW227120   4.686   3.331  17.341  0.6750  0.9450  1.5663
 5162SOL     OW27121   0.367   4.033   4.850 -0.5041  0.3940  0.8835
 5162SOL    HW127122   0.272   4.031   4.860 -0.7461  1.2344 -1.1147
 5162SOL    HW227123   0.389   3.960   4.908 -1.8265  0.0852  0.9898
 5163SOL     OW27124   3.856   3.983   3.272  0.1392  0.1925 -0.0626
 5163SOL    HW127125   3.931   3.950   3.322 -0.5363  0.2091  0.9562
 5163SOL    HW227126   3.876   3.966   3.180  4.4568 -0.8809  1.0825
 5164SOL     OW27127   3.583   3.073  15.296  0.2573 -0.3692 -0.5061
 5164SOL    HW127128   3.525   3.149  15.301  1.1756  0.4814 -2.7664
 5164SOL    HW227129   3.533   3.020  15.233 -0.6999  1.6811 -1.4629
 5165SOL     OW27130   1.354   4.682   1.615 -0.1023  0.0388  0.7746
 5165SOL    HW127131   1.405   0.019   1.589 -3.2766  2.4401  1.6049
 5165SOL    HW227132   1.419   4.612   1.619 -1.5809 -1.3489  0.3126
 5166SOL     OW27133   0.728   1.107   6.362  0.5613 -0.3153  0.3327
 5166SOL    HW127134   0.672   1.030   6.351  1.2947 -0.8253  0.2039
 5166SOL    HW227135   0.681   1.175   6.313 -1.1041 -1.2477  0.6563
 5167SOL     OW27136   4.246   3.296   7.377 -0.3140 -0.7683  0.0738
 5167SOL    HW127137   4.306   3.230   7.342  0.4735  1.0616 -1.9957
 5167SOL    HW227138   4.165   3.272   7.334  1.0377 -2.4606 -1.5529
 5168SOL     OW27139   0.989   2.804  11.169 -0.4797 -0.0356 -0.2485
 5168SOL    HW127140   0.914   2.824  11.113 -1.2131 -1.9051  0.0724
 5168SOL    HW227141   1.005   2.712  11.147  1.3346 -0.1544  1.5392
 5169SOL     OW27142   2.592   0.471   1.054 -0.5264  0.2403  0.5416
 5169SOL    HW127143   2.576   0.565   1.040  1.7383  0.0800 -3.1189
 5169SOL    HW227144   2.517   0.430   1.009 -0.7598  0.1813  0.9881
 5170SOL     OW27145   1.220   4.364   7.639  0.1223  0.2027 -0.4347
 5170SOL    HW127146   1.309   4.348   7.609 -0.9172 -3.0760 -1.7778
 5170SOL    HW227147   1.193   4.446   7.597  0.8181  0.9069  0.4949
 5171SOL     OW27148   4.197   3.613   7.260  0.7390 -0.6706 -0.2544
 5171SOL    HW127149   4.171   3.601   7.352  1.0158 -0.7431 -0.1863
 5171SOL    HW227150   4.248   3.535   7.239  2.5328  0.4355  0.0408
 5172SOL     OW27151   3.091   3.873   7.291 -0.3599  0.0176 -0.0447
 5172SOL    HW127152   3.121   3.792   7.251 -0.2813  0.1703 -0.2935
 5172SOL    HW227153   3.133   3.869   7.377  1.7445 -0.9071 -1.1324
 5173SOL     OW27154   4.679   2.392  11.371 -0.6008  0.3159 -0.4328
 5173SOL    HW127155   4.583   2.386  11.372 -0.5644 -0.0857  0.9791
 5173SOL    HW227156   4.708   2.301  11.380 -2.1569 -0.4119 -2.8246
 5174SOL     OW27157   2.045   4.227   1.191 -0.4383 -0.4489 -0.2324
 5174SOL    HW127158   2.138   4.221   1.210 -0.5204 -0.2668  0.2356
 5174SOL    HW227159   2.009   4.145   1.225 -1.0866 -0.8591 -1.8948
 5175SOL     OW27160   3.510   1.798   4.198  0.2067  0.1767  0.4286
 5175SOL    HW127161   3.508   1.887   4.162  4.4445  0.1746  0.1835
 5175SOL    HW227162   3.447   1.766   4.132  2.8523 -0.9301 -1.5592
 5176SOL     OW27163   4.001   1.968   5.904  0.4048  0.2657  0.1942
 5176SOL    HW127164   4.066   1.938   5.840  0.3142 -0.8640  0.6388
 5176SOL    HW227165   3.949   1.888   5.902 -1.1379  1.3072 -1.9815
 5177SOL     OW27166   0.722   1.484  15.694 -0.0364 -0.4859 -0.5878
 5177SOL    HW127167   0.773   1.430  15.634 -1.8435 -2.6384 -0.2110
 5177SOL    HW227168   0.743   1.575  15.673 -1.6920  0.2214  0.8234
 5178SOL     OW27169   2.126   3.208   8.512 -0.4356 -0.0875 -0.5658
 5178SOL    HW127170   2.085   3.201   8.426 -0.8927 -1.7115 -0.2057
 5178SOL    HW227171   2.072   3.280   8.545 -0.9026 -0.4639 -0.5051
 5179SOL     OW27172   3.821   3.019   2.662  0.0679 -0.1025  0.1481
 5179SOL    HW127173   3.769   3.007   2.741  2.0999  0.9923  1.6521
 5179SOL    HW227174   3.765   3.088   2.626  1.1107 -0.7300 -2.6257
 5180SOL     OW27175   1.064   3.010   4.795  0.3657  0.4081  0.5909
 5180SOL    HW127176   1.062   3.085   4.736  1.0019  0.4572  0.6259
 5180SOL    HW227177   1.057   2.936   4.735  0.4395  0.3385  0.6679
 5181SOL     OW27178   4.347   0.613   8.134  0.8032  0.5095 -0.0289
 5181SOL    HW127179   4.377   0.522   8.142 -0.7696  0.0723  0.8575
 5181SOL    HW227180   4.420   0.665   8.099  0.2525  1.9430  0.9592
 5182SOL     OW27181   4.044   2.611   3.261 -0.1092  0.0118 -0.2366
 5182SOL    HW127182   4.125   2.608   3.210 -1.1631  2.6189 -2.0602
 5182SOL    HW227183   4.053   2.690   3.315  1.3095 -0.4498  0.1996
 5183SOL     OW27184   4.083   1.669   4.254 -0.4232 -0.0348 -0.3764
 5183SOL    HW127185   4.143   1.732   4.214  1.7751 -1.0685  1.3127
 5183SOL    HW227186   4.132   1.590   4.229 -0.4572  0.1327 -0.9870
 5184SOL     OW27187   1.661   2.853  15.395  0.1201  0.0546  0.4985
 5184SOL    HW127188   1.645   2.943  15.366 -1.2902 -1.0614 -2.1529
 5184SOL    HW227189   1.643   2.860  15.489  1.2275 -0.1129  0.7309
 5185SOL     OW27190   2.176   2.241  11.806 -0.1243  0.4868 -0.6008
 5185SOL    HW127191   2.169   2.146  11.798 -0.2104  0.6490 -2.4621
 5185SOL    HW227192   2.102   2.262  11.748 -0.1278  2.4162  0.1012
 5186SOL     OW27193   1.184   0.581  16.433  0.8755 -0.0137 -0.2097
 5186SOL    HW127194   1.266   0.602  16.388  0.5404 -0.9470 -1.2526
 5186SOL    HW227195   1.120   0.616  16.370 -1.0175  0.1257  1.7773
 5187SOL     OW27196   3.425   3.849   1.545 -0.0584 -0.4264  0.3573
 5187SOL    HW127197   3.422   3.939   1.579 -0.5052 -0.5356  0.6042
 5187SOL    HW227198   3.378   3.799   1.611 -1.2204  2.1369  1.4438
 5188SOL     OW27199   1.732   1.606   5.785 -1.0676 -0.1343 -0.6770
 5188SOL    HW127200   1.654   1.553   5.803 -2.0856  1.0753 -1.5637
 5188SOL    HW227201   1.751   1.585   5.693  0.0623  1.5148 -0.8181
 5189SOL     OW27202   1.656   2.588   9.496  0.2119  0.2708  0.0349
 5189SOL    HW127203   1.604   2.628   9.565  0.5970 -1.4227  1.2983
 5189SOL    HW227204   1.695   2.508   9.532 -0.3731 -0.1298 -0.2156
 5190SOL     OW27205   2.455   3.102   9.303 -0.5360  0.5949 -0.0040
 5190SOL    HW127206   2.549   3.106   9.320 -0.0307 -0.2388 -2.5553
 5190SOL    HW227207   2.456   3.136   9.213 -0.5942 -1.6317 -0.8564
 5191SOL     OW27208   2.747   2.797   7.315 -0.1251 -0.3700  0.4044
 5191SOL    HW127209   2.724   2.878   7.270 -0.9831  0.5038  2.4114
 5191SOL    HW227210   2.840   2.791   7.291 -0.2303  4.0206 -1.1164
 5192SOL     OW27211   0.709   1.144   7.998  0.3217  0.0966 -0.2551
 5192SOL    HW127212   0.646   1.216   7.996 -0.7119 -0.8407 -1.4613
 5192SOL    HW227213   0.791   1.185   7.971  0.8515 -0.4294  0.5263
 5193SOL     OW27214   1.513   4.257   0.644 -0.0042  0.5281 -0.6654
 5193SOL    HW127215   1.490   4.350   0.653  0.9130  0.5525  1.2678
 5193SOL    HW227216   1.562   4.252   0.562 -0.2187 -4.7556 -0.4765
 5194SOL     OW27217   4.378   3.534   4.190  0.1833 -0.2641 -0.1131
 5194SOL    HW127218   4.305   3.595   4.201  0.3565 -0.1031  0.1401
 5194SOL    HW227219   4.337   3.463   4.141  2.0828 -2.4504  1.5069
 5195SOL     OW27220   0.607   2.286   5.170  0.2609 -0.2833 -0.0382
 5195SOL    HW127221   0.561   2.292   5.254 -1.2405  3.2051 -1.1417
 5195SOL    HW227222   0.641   2.375   5.162 -1.3999  0.2963 -0.5284
 5196SOL     OW27223   2.123   1.209   8.419  0.6386 -0.4117 -0.7016
 5196SOL    HW127224   2.151   1.299   8.400  1.6884 -0.8594 -1.3174
 5196SOL    HW227225   2.188   1.163   8.365  0.9411 -0.5456 -0.2226
 5197SOL     OW27226   1.032   3.181   8.618  0.4578 -0.5406 -0.4860
 5197SOL    HW127227   0.997   3.184   8.529  1.5732  0.0982 -0.9023
 5197SOL    HW227228   1.032   3.276   8.633 -0.6425 -0.2460 -2.3820
 5198SOL     OW27229   2.924   1.155  14.087  0.1146  0.3820 -0.7891
 5198SOL    HW127230   2.858   1.224  14.083 -1.3613 -1.0437 -0.8660
 5198SOL    HW227231   2.870   1.088  14.128  1.9618 -0.0600  0.9464
 5199SOL     OW27232   3.001   2.338   4.639 -0.5389 -0.7469  0.1253
 5199SOL    HW127233   3.085   2.360   4.681 -1.9006  0.4458  2.2145
 5199SOL    HW227234   3.005   2.363   4.546 -0.4089  0.2265  0.3911
 5200SOL     OW27235   0.015   4.153   9.509 -0.2256  0.2560  0.7318
 5200SOL    HW127236   0.077   4.083   9.533  0.2155  1.1408  2.1427
 5200SOL    HW227237   0.077   4.205   9.457  0.4142  0.1230  1.3626
 5201SOL     OW27238   4.016   0.426   2.220 -0.5072  0.0346  0.0957
 5201SOL    HW127239   4.039   0.439   2.128  1.3793 -0.4890  0.5027
 5201SOL    HW227240   4.099   0.443   2.265 -0.1864  0.9996 -0.8446
 5202SOL     OW27241   2.466   2.859   5.157 -0.3585 -0.3097 -0.1517
 5202SOL    HW127242   2.393   2.873   5.216 -0.6846 -0.9297 -0.4082
 5202SOL    HW227243   2.447   2.767   5.137  0.4986 -0.6842  0.7542
 5203SOL     OW27244   3.477   3.209  13.347  0.0376 -0.0837  0.1605
 5203SOL    HW127245   3.485   3.210  13.251  0.5451 -1.8824  0.1823
 5203SOL    HW227246   3.483   3.302  13.368 -1.0135 -0.0905  0.4846
 5204SOL     OW27247   2.619   0.092  11.487 -0.4945  0.3702  0.1770
 5204SOL    HW127248   2.560   0.073  11.560 -0.4979 -0.0928  0.0548
 5204SOL    HW227249   2.676   0.015  11.484 -0.8861  0.1576 -1.5009
 5205SOL     OW27250   4.386   3.047  15.834  0.1063 -0.3654  0.0764
 5205SOL    HW127251   4.391   3.107  15.908  2.5921  0.9931 -1.2233
 5205SOL    HW227252   4.411   3.095  15.755  0.1053 -0.7006 -0.1305
 5206SOL     OW27253   0.784   2.671  17.485  0.8403 -0.0927 -0.6180
 5206SOL    HW127254   0.817   2.682  17.574  2.8568  1.1787 -1.5153
 5206SOL    HW227255   0.729   2.594  17.499 -2.8842  2.4275 -1.3641
 5207SOL     OW27256   1.330   2.892   2.465  0.6841 -0.6724  0.0444
 5207SOL    HW127257   1.243   2.855   2.448  0.2636  0.5884 -0.5310
 5207SOL    HW227258   1.351   2.924   2.377  0.1836  0.4020  0.3192
 5208SOL     OW27259   0.164   3.685   8.606 -0.0819  0.3462 -0.7702
 5208SOL    HW127260   0.111   3.762   8.627 -3.0900 -1.4614 -1.7871
 5208SOL    HW227261   0.166   3.691   8.510 -2.5521  0.8160 -0.7797
 5209SOL     OW27262   4.085   2.074   5.168  0.5179  0.5048 -0.8465
 5209SOL    HW127263   4.017   2.139   5.183  1.3973  0.9929  1.0846
 5209SOL    HW227264   4.160   2.112   5.213 -0.3578 -1.0322  1.9066
 5210SOL     OW27265   3.692   3.352   3.573  0.2718 -0.0767 -0.2926
 5210SOL    HW127266   3.736   3.274   3.607  0.0716 -0.4723 -0.9283
 5210SOL    HW227267   3.731   3.378   3.490 -0.3856  0.9417 -0.2796
 5211SOL     OW27268   2.146   1.267   7.479 -0.3998  1.0607 -0.9272
 5211SOL    HW127269   2.181   1.353   7.459  0.4814  0.7151 -0.9159
 5211SOL    HW227270   2.221   1.210   7.458 -0.7211  0.8133 -1.3979
 5212SOL     OW27271   1.810   2.814   4.253  0.7300 -0.1882  0.2318
 5212SOL    HW127272   1.857   2.895   4.234  0.5409  0.1098  1.0228
 5212SOL    HW227273   1.792   2.826   4.346 -0.4307  0.2962 -0.0473
 5213SOL     OW27274   0.999   2.880  16.681 -0.3974 -0.6331  0.3925
 5213SOL    HW127275   1.026   2.940  16.611 -0.3464 -1.0564  0.0441
 5213SOL    HW227276   0.905   2.898  16.687 -0.2725  0.3487 -0.5767
 5214SOL     OW27277   1.763   0.221   4.725 -0.6119 -0.1028 -0.3302
 5214SOL    HW127278   1.748   0.267   4.808  0.1955 -1.1778  0.4189
 5214SOL    HW227279   1.671   0.194   4.713 -0.4870 -0.6675 -0.0159
 5215SOL     OW27280   3.543   4.461   5.918 -0.6436 -0.3651 -0.1043
 5215SOL    HW127281   3.608   4.486   5.983 -0.9336 -0.2045  0.1221
 5215SOL    HW227282   3.546   4.520   5.842  1.8898 -0.7797 -0.3270
 5216SOL     OW27283   3.777   2.963   2.027  0.3033 -0.2044  0.2317
 5216SOL    HW127284   3.735   3.048   2.017 -1.6172 -1.3613 -1.4995
 5216SOL    HW227285   3.714   2.911   1.977 -1.7968  2.8295 -0.2661
 5217SOL     OW27286   2.341   4.344   3.777 -0.6954 -0.4555 -0.1261
 5217SOL    HW127287   2.346   4.280   3.707  0.3742 -1.6851  1.0814
 5217SOL    HW227288   2.309   4.421   3.729 -1.4178 -0.0216  1.0309
 5218SOL     OW27289   2.583   4.199   1.901 -0.1452  0.0248  0.1852
 5218SOL    HW127290   2.524   4.250   1.845  0.7305 -2.5101 -3.0521
 5218SOL    HW227291   2.594   4.125   1.841  0.3141 -0.9329  1.4686
 5219SOL     OW27292   1.792   2.565  13.135  0.1025 -0.8535  0.0226
 5219SOL    HW127293   1.844   2.513  13.075  0.5020  1.0976 -1.2986
 5219SOL    HW227294   1.818   2.656  13.124  1.1122 -1.0960  0.4463
 5220SOL     OW27295   0.302   4.708   2.183  0.0914 -0.3524  0.0958
 5220SOL    HW127296   0.223   4.693   2.132 -0.1351  2.3935 -0.3593
 5220SOL    HW227297   0.356   0.030   2.132  1.1214 -2.1359 -0.9419
 5221SOL     OW27298   1.313   1.173   8.249  0.3402  0.2935 -0.3878
 5221SOL    HW127299   1.297   1.266   8.265 -1.1063 -0.0299  0.0631
 5221SOL    HW227300   1.292   1.135   8.334  0.7826  0.9921  0.0330
 5222SOL     OW27301   3.555   0.457   8.415 -0.4523  0.0780 -0.1118
 5222SOL    HW127302   3.572   0.459   8.510 -0.6660 -0.5289 -0.0568
 5222SOL    HW227303   3.623   0.517   8.386  0.9878 -0.0710  2.9168
 5223SOL     OW27304   1.940   1.910  14.874  0.2805  0.2507  0.5704
 5223SOL    HW127305   1.972   1.847  14.809 -1.3881 -0.5794  0.5267
 5223SOL    HW227306   1.967   1.991  14.832  1.3724 -0.2710  0.2776
 5224SOL     OW27307   3.360   0.925   4.988 -0.1794 -0.1220  0.0896
 5224SOL    HW127308   3.433   0.922   5.050 -2.5631  0.9506  2.9581
 5224SOL    HW227309   3.383   0.981   4.914  1.7894 -0.1049  0.7139
 5225SOL     OW27310   3.166   0.528  14.522 -0.4417 -0.7142  0.1214
 5225SOL    HW127311   3.118   0.554  14.443 -0.1367  0.0245  0.1744
 5225SOL    HW227312   3.178   0.435  14.506  0.1931 -0.9184  1.8082
 5226SOL     OW27313   4.521   0.920  15.522 -0.3857  0.2564 -0.0617
 5226SOL    HW127314   4.579   0.846  15.542  0.5212  0.7431 -0.8941
 5226SOL    HW227315   4.555   0.984  15.584 -2.1667  1.9397 -0.8362
 5227SOL     OW27316   1.597   3.972   9.127  0.2275 -0.2585  0.5835
 5227SOL    HW127317   1.674   3.983   9.071 -1.3802 -0.0753 -1.6271
 5227SOL    HW227318   1.635   3.911   9.190  1.1866 -0.5161 -0.2394
 5228SOL     OW27319   1.741   0.359   9.459  0.1060  0.0318 -0.9013
 5228SOL    HW127320   1.668   0.354   9.397  1.7306 -0.2171 -2.8118
 5228SOL    HW227321   1.723   0.277   9.504  1.1581 -0.5817 -1.5933
 5229SOL     OW27322   0.271   0.184  14.515 -0.2029  0.5991 -0.4440
 5229SOL    HW127323   0.336   0.224  14.572 -1.8341  2.0561  0.3919
 5229SOL    HW227324   0.239   0.260  14.465 -2.5604 -1.7481 -2.4674
 5230SOL     OW27325   4.217   3.902  10.809 -0.0840  0.2335  0.4480
 5230SOL    HW127326   4.313   3.907  10.805 -0.2315 -0.4318 -3.9263
 5230SOL    HW227327   4.199   3.911  10.715  0.6068 -0.8807  0.2052
 5231SOL     OW27328   4.374   2.731   8.610 -0.0586  0.1489  0.3760
 5231SOL    HW127329   4.464   2.734   8.642 -0.0848 -1.7197  0.5777
 5231SOL    HW227330   4.346   2.643   8.635  2.3961 -0.3815  1.2510
 5232SOL     OW27331   3.358   3.017   3.177  0.6555 -0.3943  0.0235
 5232SOL    HW127332   3.451   2.996   3.188  0.4265 -0.9718  0.8768
 5232SOL    HW227333   3.335   2.963   3.102  0.0252  1.1326 -0.8811
 5233SOL     OW27334   3.585   4.033   8.768 -0.3241 -0.2828 -0.2368
 5233SOL    HW127335   3.576   3.960   8.829 -3.0025 -2.0206 -2.7316
 5233SOL    HW227336   3.623   4.098   8.827 -0.8271 -0.8058  0.6565
 5234SOL     OW27337   3.235   4.080   4.577 -0.0309  0.2083 -0.0655
 5234SOL    HW127338   3.263   4.065   4.487  3.7243  2.8248  0.6601
 5234SOL    HW227339   3.142   4.100   4.565 -0.2341 -0.3370  0.5615
 5235SOL     OW27340   0.443   3.197  16.098  1.1716 -0.1615  0.2356
 5235SOL    HW127341   0.433   3.118  16.045  3.1892 -1.8283  2.3029
 5235SOL    HW227342   0.485   3.263  16.044 -0.0897 -1.0364 -1.7975
 5236SOL     OW27343   3.106   1.319  15.060  0.1522 -0.1804 -0.0571
 5236SOL    HW127344   3.077   1.244  15.008  1.1977  0.6958 -1.9202
 5236SOL    HW227345   3.029   1.332  15.114  0.9148 -1.1622  1.2422
 5237SOL     OW27346   2.859   3.186   6.477 -0.2465 -0.4182 -0.4113
 5237SOL    HW127347   2.879   3.121   6.545 -1.2058  0.4020  0.6804
 5237SOL    HW227348   2.895   3.146   6.398  2.6945  0.4581  0.5064
 5238SOL     OW27349   1.089   4.372   9.389 -0.0185 -0.1583  0.0887
 5238SOL    HW127350   0.997   4.362   9.413  1.0221 -1.6083  3.5048
 5238SOL    HW227351   1.097   4.457   9.345 -2.7658 -0.3723 -0.8536
 5239SOL     OW27352   2.132   0.193  17.090 -0.1151 -0.2448  0.8722
 5239SOL    HW127353   2.076   0.143  17.149  0.4697 -1.8355  0.1056
 5239SOL    HW227354   2.143   0.137  17.013  2.0947  0.2263  0.8422
 5240SOL     OW27355   1.759   1.058   9.233  0.3785 -0.0499 -0.1482
 5240SOL    HW127356   1.776   1.036   9.324  0.7627  1.1813  0.0872
 5240SOL    HW227357   1.664   1.049   9.236  0.4479 -0.4719  0.8715
 5241SOL     OW27358   4.254   3.424  10.171 -0.1513 -0.4786  0.4460
 5241SOL    HW127359   4.166   3.452  10.198 -1.3060 -2.7364 -0.9811
 5241SOL    HW227360   4.254   3.341  10.218 -1.1667 -0.3489  0.6739
 5242SOL     OW27361   3.559   3.723   1.355  0.4240  0.0608 -0.2390
 5242SOL    HW127362   3.505   3.768   1.420 -0.4998 -0.9653 -0.2948
 5242SOL    HW227363   3.647   3.760   1.366  0.7010 -0.7366  0.2260
 5243SOL     OW27364   0.784   4.644   8.097 -0.7732  0.0200 -0.2000
 5243SOL    HW127365   0.857   4.611   8.149 -0.9849 -0.1104  0.0128
 5243SOL    HW227366   0.818   4.628   8.009  2.5663 -1.9992  1.4652
 5244SOL     OW27367   2.104   3.566   1.536 -0.5277  0.7070 -0.1278
 5244SOL    HW127368   2.008   3.564   1.536 -0.5272  0.6679 -0.5941
 5244SOL    HW227369   2.113   3.482   1.492  3.5204  1.3803 -0.6203
 5245SOL     OW27370   0.389   2.078   1.922  0.3179  0.0285 -0.7907
 5245SOL    HW127371   0.334   2.138   1.972  0.1401 -2.2900  1.7887
 5245SOL    HW227372   0.310   2.033   1.892 -0.9421  1.1873  0.8037
 5246SOL     OW27373   0.995   4.171   4.147 -0.0807 -0.2270  0.3642
 5246SOL    HW127374   0.966   4.260   4.129  0.4658 -0.0890  0.1524
 5246SOL    HW227375   0.917   4.119   4.130 -0.1402  0.3270 -1.0570
 5247SOL     OW27376   0.272   3.705   3.367 -0.2328  0.3733 -0.0391
 5247SOL    HW127377   0.220   3.761   3.425 -2.1054 -1.4887  0.1009
 5247SOL    HW227378   0.230   3.619   3.374 -1.5125  1.0731  0.8853
 5248SOL     OW27379   2.241   1.410  14.490 -0.0269  0.1227 -0.0881
 5248SOL    HW127380   2.273   1.320  14.487 -0.1652 -0.0377  2.9112
 5248SOL    HW227381   2.149   1.403  14.463  0.2183 -1.9051 -0.3935
 5249SOL     OW27382   3.279   0.408   5.662 -0.2683 -0.2045  0.3258
 5249SOL    HW127383   3.194   0.452   5.662  0.0182  0.3310 -1.3159
 5249SOL    HW227384   3.270   0.355   5.741 -0.5473 -0.9846 -0.2361
 5250SOL     OW27385   2.764   1.459   3.592  0.1024  0.0591 -0.1044
 5250SOL    HW127386   2.699   1.415   3.538 -1.5507  3.2046 -0.6838
 5250SOL    HW227387   2.725   1.455   3.679  0.9693 -1.5264  0.2068
 5251SOL     OW27388   0.957   1.434   5.367 -0.1794  0.4126 -0.1351
 5251SOL    HW127389   1.038   1.415   5.415 -0.9091 -0.9900  0.5409
 5251SOL    HW227390   0.980   1.505   5.307  1.0409  0.9867  1.0088
 5252SOL     OW27391   1.171   3.938   4.927 -0.3839 -0.0234 -0.2853
 5252SOL    HW127392   1.262   3.959   4.950 -1.2984 -0.1544  3.5493
 5252SOL    HW227393   1.182   3.937   4.832 -0.0792  0.3226 -0.2511
 5253SOL     OW27394   0.867   0.010   4.305  0.0532 -0.3933  0.4959
 5253SOL    HW127395   0.934   0.053   4.252 -1.3186 -1.4053 -2.0989
 5253SOL    HW227396   0.917   4.678   4.345  1.0518 -0.6073 -1.1252
 5254SOL     OW27397   0.095   0.193   5.616  0.2567 -0.4228 -0.1510
 5254SOL    HW127398   0.150   0.233   5.683 -1.1439  0.1847  0.6425
 5254SOL    HW227399   0.020   0.252   5.619 -0.3942 -1.2449 -0.4392
 5255SOL     OW27400   4.060   1.716   3.481 -0.6687  0.0906  0.1176
 5255SOL    HW127401   3.995   1.705   3.550  1.4882 -1.0017  1.9561
 5255SOL    HW227402   4.138   1.683   3.525  0.7377 -1.3616 -3.4837
 5256SOL     OW27403   4.281   3.283   4.032 -0.5784 -0.4193  0.0417
 5256SOL    HW127404   4.287   3.231   4.112  0.4508 -0.5216 -0.1012
 5256SOL    HW227405   4.260   3.207   3.977  0.8815  1.1513 -2.6755
 5257SOL     OW27406   4.596   2.592   2.464 -0.1669  0.0211 -0.2988
 5257SOL    HW127407   4.510   2.629   2.483 -0.6240 -1.4496  0.4958
 5257SOL    HW227408   4.570   2.503   2.442  0.3101 -0.6727  1.9982
 5258SOL     OW27409   2.717   2.050   5.447  0.1132  0.1130  0.1534
 5258SOL    HW127410   2.730   2.117   5.515  1.4620  0.5118 -0.4903
 5258SOL    HW227411   2.775   1.985   5.487 -1.8180 -2.6873 -1.6936
 5259SOL     OW27412   0.788   0.986  14.283 -0.3168  0.0933 -0.5339
 5259SOL    HW127413   0.714   1.029  14.240 -2.0954 -0.5048  1.9151
 5259SOL    HW227414   0.763   0.968  14.374 -0.5389  0.2511 -0.5626
 5260SOL     OW27415   1.080   3.656  14.843  0.0761  0.9566 -0.5848
 5260SOL    HW127416   1.108   3.565  14.855  1.6602  1.8025  1.9527
 5260SOL    HW227417   1.152   3.712  14.869  1.1640 -0.4405 -0.5712
 5261SOL     OW27418   3.263   2.615  16.594 -0.2055  0.0010 -0.1594
 5261SOL    HW127419   3.258   2.640  16.501  1.5176 -0.2748 -0.3111
 5261SOL    HW227420   3.174   2.582  16.610 -0.5762  1.5953  1.0506
 5262SOL     OW27421   0.578   2.991   5.980  0.6323 -0.2875 -0.2117
 5262SOL    HW127422   0.630   2.935   5.923 -2.0965 -0.7843 -2.2501
 5262SOL    HW227423   0.586   3.080   5.945  2.0286 -1.2156 -2.2197
 5263SOL     OW27424   0.235   2.926   6.445 -0.5005 -0.3990 -0.4091
 5263SOL    HW127425   0.268   3.013   6.467  2.9327 -1.5806 -0.8539
 5263SOL    HW227426   0.161   2.948   6.387 -0.1457 -0.5593 -0.9244
 5264SOL     OW27427   3.620   0.421   2.853 -0.0059 -0.0091  0.0039
 5264SOL    HW127428   3.543   0.429   2.797 -0.6935  1.6110  1.1954
 5264SOL    HW227429   3.612   0.330   2.879  2.8139 -0.2561 -0.0032
 5265SOL     OW27430   0.643   3.815   7.522  0.1948  0.6568  0.1083
 5265SOL    HW127431   0.719   3.809   7.464  0.0458 -1.1454  0.1296
 5265SOL    HW227432   0.628   3.728   7.558  1.4010 -0.5159 -2.2495
 5266SOL     OW27433   1.849   0.453   5.758 -0.0089 -0.4583 -0.0158
 5266SOL    HW127434   1.801   0.438   5.840  0.8212  2.5198  1.0143
 5266SOL    HW227435   1.781   0.511   5.723  0.9736 -1.2160 -3.1626
 5267SOL     OW27436   1.799   4.384  14.440 -0.3479  0.4514  0.4378
 5267SOL    HW127437   1.705   4.381  14.459  0.1451 -4.2889  2.1531
 5267SOL    HW227438   1.799   4.462  14.384 -2.3021 -1.2480 -1.9637
 5268SOL     OW27439   0.995   1.965  16.184  0.0025  0.3175 -0.3716
 5268SOL    HW127440   0.902   1.976  16.164 -0.1889 -1.5390 -0.4177
 5268SOL    HW227441   0.993   1.894  16.247  3.2737  0.5736 -0.0031
 5269SOL     OW27442   3.915   4.364   4.540  0.2965  0.4820 -0.0422
 5269SOL    HW127443   3.892   4.443   4.491  0.8183  0.0757 -0.9358
 5269SOL    HW227444   3.881   4.291   4.489  0.0981  0.0311  0.7342
 5270SOL     OW27445   0.626   2.752   1.006  0.0476  0.2990  0.2496
 5270SOL    HW127446   0.604   2.743   0.913  2.3314  0.0779 -0.2602
 5270SOL    HW227447   0.655   2.665   1.035  5.1636  2.5788  1.8779
 5271SOL     OW27448   3.617   3.744   8.593  0.3965 -0.2745 -0.1008
 5271SOL    HW127449   3.536   3.767   8.548 -0.6573 -0.3184  1.7984
 5271SOL    HW227450   3.567   3.714   8.668  1.4480  2.9017  1.8449
 5272SOL     OW27451   0.028   0.749  11.774 -0.7280 -0.5345 -0.2309
 5272SOL    HW127452   0.021   0.684  11.705  0.0824 -1.1428  0.2595
 5272SOL    HW227453   4.703   0.727  11.841 -1.8384 -0.5805 -1.3086
 5273SOL     OW27454   2.726   3.119   1.529  0.7210  0.4580  0.3335
 5273SOL    HW127455   2.639   3.107   1.489  0.9318  2.0810 -0.6369
 5273SOL    HW227456   2.779   3.153   1.456 -0.3412 -0.0989 -0.7095
 5274SOL     OW27457   3.596   4.626  11.017 -0.0530  0.0420  0.7473
 5274SOL    HW127458   3.674   4.595  10.971  0.6074  0.9383  1.2571
 5274SOL    HW227459   3.621   4.680  11.092  0.7516  0.4221  0.1951
 5275SOL     OW27460   3.309   2.797   6.886  0.5839 -0.1995 -0.9850
 5275SOL    HW127461   3.337   2.801   6.977  2.9676 -1.7792 -1.6332
 5275SOL    HW227462   3.311   2.889   6.861 -1.8942  0.5264  1.5661
 5276SOL     OW27463   3.943   1.911  12.591 -0.5347  0.4538  0.3376
 5276SOL    HW127464   4.023   1.928  12.541 -0.7206  1.6110  0.4251
 5276SOL    HW227465   3.901   1.849  12.532  1.8457 -0.3572 -0.5071
 5277SOL     OW27466   0.284   1.439   4.418 -0.8415  0.6618  0.4475
 5277SOL    HW127467   0.294   1.369   4.354  0.3869 -0.5553  1.9685
 5277SOL    HW227468   0.299   1.510   4.356 -1.7123  0.5580  0.1053
 5278SOL     OW27469   3.265   3.523   5.404  0.8034  0.4440  0.4670
 5278SOL    HW127470   3.172   3.515   5.385  0.9002 -1.1408  0.6961
 5278SOL    HW227471   3.298   3.442   5.365 -0.9957  1.0007 -2.1979
 5279SOL     OW27472   2.819   1.294   8.365  0.7888 -0.0044  0.3557
 5279SOL    HW127473   2.798   1.275   8.457  2.6804 -0.3163  0.7165
 5279SOL    HW227474   2.738   1.261   8.325  0.3561  0.0731  1.1639
 5280SOL     OW27475   0.211   2.947  12.444 -0.3299  0.0708 -0.1733
 5280SOL    HW127476   0.183   3.019  12.500 -0.0756  2.3926 -3.0767
 5280SOL    HW227477   0.288   2.914  12.490 -0.4805 -1.0555 -0.7125
 5281SOL     OW27478   4.260   2.987   5.038 -0.6090  0.2015  0.2123
 5281SOL    HW127479   4.211   2.906   5.055 -0.0203 -0.5364 -1.6889
 5281SOL    HW227480   4.203   3.064   5.041  1.8650  1.9730  2.2240
 5282SOL     OW27481   3.461   3.738   8.818  0.0593 -0.2077 -0.1244
 5282SOL    HW127482   3.408   3.817   8.814 -2.1739 -1.7580 -0.8459
 5282SOL    HW227483   3.488   3.732   8.910  1.6271  2.3012 -0.3991
 5283SOL     OW27484   2.936   3.416   2.523  0.1898  0.0279  0.0126
 5283SOL    HW127485   2.969   3.506   2.523 -0.9898  0.4627  0.9022
 5283SOL    HW227486   2.880   3.421   2.601  0.0952 -1.4122  0.0368
 5284SOL     OW27487   3.546   0.963   5.248  1.0546 -0.2214  0.1419
 5284SOL    HW127488   3.568   1.053   5.224  1.7333  0.0015  1.5716
 5284SOL    HW227489   3.626   0.913   5.231  1.8255  1.2607 -0.6373
 5285SOL     OW27490   4.516   3.185   9.253 -0.3870 -0.2380 -0.2606
 5285SOL    HW127491   4.525   3.172   9.159  2.3411 -0.7000  0.0817
 5285SOL    HW227492   4.527   3.097   9.289  0.1248 -0.2704 -0.4999
 5286SOL     OW27493   0.422   0.497   8.012  0.1926  0.0595 -0.0514
 5286SOL    HW127494   0.506   0.527   7.977  1.1233 -1.1198  1.1716
 5286SOL    HW227495   0.442   0.492   8.105 -2.3297  0.0964  0.4769
 5287SOL     OW27496   0.488   1.105   9.094 -0.2387  0.1570 -0.2634
 5287SOL    HW127497   0.444   1.079   9.175  1.6366  0.4044  0.8319
 5287SOL    HW227498   0.418   1.149   9.047  0.5657  1.6865 -0.0436
 5288SOL     OW27499   1.136   0.395   3.693  0.0105  0.1034  0.0866
 5288SOL    HW127500   1.199   0.337   3.651  1.3924  0.9052  1.0388
 5288SOL    HW227501   1.056   0.343   3.686  0.5604 -0.6716 -0.2978
 5289SOL     OW27502   0.212   1.399   6.498 -0.1890 -0.3142 -0.2827
 5289SOL    HW127503   0.264   1.460   6.446  1.6442 -0.2256  1.6696
 5289SOL    HW227504   0.123   1.434   6.493 -0.2474 -0.6491 -1.7018
 5290SOL     OW27505   4.141   3.209  13.244 -0.0174 -0.3102  0.9869
 5290SOL    HW127506   4.173   3.146  13.309  0.9282  0.8654  1.6582
 5290SOL    HW227507   4.064   3.235  13.295  0.2371  1.5909  0.3835
 5291SOL     OW27508   3.955   2.722   6.043 -0.5641 -0.0712 -0.7110
 5291SOL    HW127509   3.889   2.720   6.113  0.9177  1.1179  0.7292
 5291SOL    HW227510   3.910   2.762   5.969  0.1858  0.7207 -0.7388
 5292SOL     OW27511   2.154   4.069   9.397 -0.3663  0.2669  0.4490
 5292SOL    HW127512   2.112   3.984   9.386 -1.0044  1.0957 -3.5877
 5292SOL    HW227513   2.083   4.119   9.436 -1.0365 -0.8784  0.6774
 5293SOL     OW27514   4.255   2.874   4.080 -0.1085 -0.9955  0.1039
 5293SOL    HW127515   4.269   2.948   4.021 -0.1305 -0.2329  1.0600
 5293SOL    HW227516   4.262   2.924   4.162 -1.6662  0.9672 -0.9351
 5294SOL     OW27517   3.044   0.066   8.019  0.2521  0.3855  0.2902
 5294SOL    HW127518   3.089   4.721   8.018 -2.1251 -0.9062  0.6021
 5294SOL    HW227519   3.063   0.100   8.106  1.9576  1.0332 -0.3307
 5295SOL     OW27520   4.358   1.162   3.059  0.1109 -0.0099  0.3181
 5295SOL    HW127521   4.315   1.150   3.143 -0.9355  0.8475 -0.0889
 5295SOL    HW227522   4.394   1.075   3.045  0.4337  0.2933 -0.7484
 5296SOL     OW27523   1.467   3.555   2.067  0.4404 -0.2713 -0.0116
 5296SOL    HW127524   1.379   3.557   2.030 -0.0734  2.4838  1.3881
 5296SOL    HW227525   1.507   3.625   2.015 -1.0643  0.0096 -0.7945
 5297SOL     OW27526   2.376   0.508   2.139 -0.4058 -0.2316  0.2407
 5297SOL    HW127527   2.308   0.444   2.161  0.2871 -1.6278 -1.7693
 5297SOL    HW227528   2.452   0.453   2.155 -0.2931 -0.8868 -2.5221
 5298SOL     OW27529   3.433   1.827   7.715  0.6329 -0.4342  0.1761
 5298SOL    HW127530   3.376   1.859   7.645 -0.1484 -6.1621 -1.8072
 5298SOL    HW227531   3.403   1.881   7.788  2.9085  0.3895  0.5227
 5299SOL     OW27532   1.298   4.577   4.335 -0.5719  0.6111  0.2457
 5299SOL    HW127533   1.252   4.509   4.286  0.3907  1.0835 -1.3130
 5299SOL    HW227534   1.390   4.566   4.312 -0.0698  2.4055  1.3606
 5300SOL     OW27535   3.659   1.536  13.323 -0.0382 -0.2772 -0.6398
 5300SOL    HW127536   3.612   1.561  13.243 -0.6242  0.0969 -0.1789
 5300SOL    HW227537   3.617   1.453  13.346  1.8424 -0.6977  1.3041
 5301SOL     OW27538   3.542   0.333   4.276 -0.5059  0.7547 -0.8009
 5301SOL    HW127539   3.549   0.256   4.333  0.8307  0.0716 -1.8730
 5301SOL    HW227540   3.484   0.388   4.328  1.9947  1.1854  1.5233
 5302SOL     OW27541   2.600   4.658   1.854  0.6149  0.0381  0.6681
 5302SOL    HW127542   2.557   4.605   1.921 -3.0460  1.1852 -0.7445
 5302SOL    HW227543   2.567   4.616   1.775 -1.0371 -0.4111  1.6002
 5303SOL     OW27544   1.503   3.462   5.437 -0.1476  0.4365  0.0131
 5303SOL    HW127545   1.426   3.427   5.392  0.8126 -0.0132 -1.2681
 5303SOL    HW227546   1.480   3.554   5.428 -0.9818  0.2752  0.4488
 5304SOL     OW27547   4.084   3.096  14.056  0.0474  0.0422 -0.1536
 5304SOL    HW127548   4.083   3.083  14.151 -1.4719 -1.0464 -0.3278
 5304SOL    HW227549   3.999   3.133  14.036  0.7658  0.9257 -1.5166
 5305SOL     OW27550   2.899   1.969   4.169 -1.1317  0.3089 -0.3983
 5305SOL    HW127551   2.826   2.030   4.182  0.2298  1.9458 -0.3686
 5305SOL    HW227552   2.897   1.957   4.074  0.9020 -1.7565 -0.1577
 5306SOL     OW27553   2.501   3.510   5.701 -0.3122 -0.0387  0.6191
 5306SOL    HW127554   2.474   3.602   5.691  0.0460 -0.1148 -1.1174
 5306SOL    HW227555   2.445   3.464   5.638  1.5175 -0.1357 -0.9128
 5307SOL     OW27556   0.361   1.717  11.565 -0.2013  0.4645  0.0494
 5307SOL    HW127557   0.364   1.657  11.640 -1.3478  0.1385 -0.1735
 5307SOL    HW227558   0.372   1.660  11.489 -0.2877 -0.2377  0.5615
 5308SOL     OW27559   0.465   2.246   6.470 -0.1206 -0.4630 -0.3903
 5308SOL    HW127560   0.473   2.338   6.443 -1.3702 -0.4221 -0.6205
 5308SOL    HW227561   0.384   2.250   6.521 -0.4179  1.2025 -0.9827
 5309SOL     OW27562   0.361   3.974   9.025  0.1941 -0.3863 -0.1920
 5309SOL    HW127563   0.368   4.058   8.981  2.5544  0.5122  1.8993
 5309SOL    HW227564   0.269   3.949   9.018 -0.1836  1.0111 -0.1421
 5310SOL     OW27565   0.321   2.959  10.700 -0.1296  0.4143 -0.2014
 5310SOL    HW127566   0.402   2.983  10.656  0.2155 -1.0529 -0.3639
 5310SOL    HW227567   0.284   3.043  10.725 -0.0359  1.2191 -2.7614
 5311SOL     OW27568   4.249   4.704   4.903 -0.1262  0.1275 -0.6457
 5311SOL    HW127569   4.303   4.726   4.827 -0.6964 -0.8052 -1.3246
 5311SOL    HW227570   4.315   4.654   4.951 -0.4859  0.7705  0.5130
 5312SOL     OW27571   4.210   1.010   4.117  0.6375 -0.5885 -0.4551
 5312SOL    HW127572   4.176   1.008   4.206  0.9996  2.3158 -0.2633
 5312SOL    HW227573   4.231   0.916   4.116  1.4488 -0.4406  2.2312
 5313SOL     OW27574   3.023   3.404  14.566 -0.2934 -0.0656 -0.3063
 5313SOL    HW127575   3.085   3.333  14.586  1.1070  1.3011  0.1975
 5313SOL    HW227576   2.941   3.371  14.603  0.1972 -1.3060 -0.3063
 5314SOL     OW27577   1.437   3.804   2.380 -0.0949  0.1968  0.7313
 5314SOL    HW127578   1.499   3.792   2.452  1.9510 -1.7121 -1.3462
 5314SOL    HW227579   1.368   3.754   2.425 -0.0366 -0.2766  0.2879
 5315SOL     OW27580   1.721   1.656   6.732 -0.0907 -0.5663  0.1790
 5315SOL    HW127581   1.773   1.727   6.692 -1.2979  0.2163  0.0101
 5315SOL    HW227582   1.630   1.679   6.713 -0.4412 -2.1830 -0.0975
 5316SOL     OW27583   3.153   1.710   4.695  0.0297 -0.3398  0.0665
 5316SOL    HW127584   3.233   1.686   4.742  0.1652  0.0799  0.0485
 5316SOL    HW227585   3.140   1.794   4.738  2.1198 -0.3780  0.7780
 5317SOL     OW27586   3.866   4.519  15.378  0.4302 -0.1932 -0.6981
 5317SOL    HW127587   3.774   4.514  15.354 -0.0522  2.6472  0.5397
 5317SOL    HW227588   3.912   4.477  15.305  2.3088  2.2995 -0.9674
 5318SOL     OW27589   0.953   3.423   7.595  0.0201 -0.0464  0.5819
 5318SOL    HW127590   0.994   3.362   7.533 -1.4423 -0.3709 -0.0638
 5318SOL    HW227591   1.006   3.501   7.605  0.4575 -0.2181 -0.3698
 5319SOL     OW27592   1.934   1.850   8.884 -0.1864  0.5182 -0.3699
 5319SOL    HW127593   1.840   1.854   8.906 -0.0661 -0.8241  0.4376
 5319SOL    HW227594   1.926   1.866   8.790  0.5375 -0.3813 -0.5837
 5320SOL     OW27595   4.472   0.864   6.949 -0.0589 -0.1808  0.0321
 5320SOL    HW127596   4.495   0.940   6.896 -1.4455  0.1876 -0.0524
 5320SOL    HW227597   4.440   0.916   7.023  0.6616 -0.3811  0.4846
 5321SOL     OW27598   2.303   4.719   7.499 -0.5229 -0.1074  0.1647
 5321SOL    HW127599   2.394   4.691   7.494 -0.8149 -1.1338  0.4762
 5321SOL    HW227600   2.314   0.069   7.530 -0.5031 -0.0895  0.1061
 5322SOL     OW27601   4.480   1.931   5.240  0.0482  0.4732 -0.0928
 5322SOL    HW127602   4.464   1.858   5.300 -3.0993  0.7486 -0.6140
 5322SOL    HW227603   4.575   1.932   5.232  0.0529 -0.6982 -0.2585
 5323SOL     OW27604   1.124   0.042   6.245  0.0482  0.5479 -0.0732
 5323SOL    HW127605   1.150   4.705   6.194 -4.4828  0.1531 -1.7568
 5323SOL    HW227606   1.037   0.056   6.208 -0.0545 -0.2396 -0.1282
 5324SOL     OW27607   1.866   2.353  14.682 -0.4595 -0.1622  0.6944
 5324SOL    HW127608   1.774   2.375  14.673 -0.6907 -0.5631  2.1062
 5324SOL    HW227609   1.915   2.413  14.626  0.0979  0.5677  1.9353
 5325SOL     OW27610   0.700   4.168   4.298 -0.2066  0.1559 -0.7006
 5325SOL    HW127611   0.657   4.244   4.258 -2.2718 -0.5564  0.2047
 5325SOL    HW227612   0.790   4.198   4.312  0.4380 -2.4610  0.6957
 5326SOL     OW27613   3.779   2.130  11.802 -0.8339 -0.0998 -0.1272
 5326SOL    HW127614   3.874   2.142  11.808 -0.6077 -0.1367 -3.6679
 5326SOL    HW227615   3.748   2.220  11.797 -2.0597 -0.3774  2.2440
 5327SOL     OW27616   0.628   0.378  16.211 -0.2180  0.1274  0.4609
 5327SOL    HW127617   0.669   0.296  16.241 -0.7937  0.5727  2.5220
 5327SOL    HW227618   0.678   0.451  16.249  0.2575  0.6126 -1.1086
 5328SOL     OW27619   3.108   3.766   2.094 -0.5020  0.7931 -0.2066
 5328SOL    HW127620   3.169   3.805   2.032 -0.6523  0.3504 -0.6231
 5328SOL    HW227621   3.086   3.679   2.063  1.8642  0.4567 -0.8938
 5329SOL     OW27622   1.523   2.350  16.062  0.4809 -0.1793  0.4856
 5329SOL    HW127623   1.562   2.292  15.996  1.3049  2.9749 -1.8036
 5329SOL    HW227624   1.430   2.351  16.040  0.6950 -0.7642 -0.4694
 5330SOL     OW27625   4.693   0.408  14.748  0.7049  0.4751 -0.1911
 5330SOL    HW127626   4.600   0.432  14.741  0.6928  1.0622  1.9523
 5330SOL    HW227627   4.718   0.401  14.656 -1.3181  0.6108 -0.7691
 5331SOL     OW27628   3.151   3.112   8.921 -0.3261 -0.1618 -0.2013
 5331SOL    HW127629   3.178   3.201   8.946 -2.5340  0.8457 -1.4456
 5331SOL    HW227630   3.082   3.130   8.857  0.4685  0.6395 -0.8347
 5332SOL     OW27631   4.150   4.451   3.722 -0.1724  0.4276  0.1419
 5332SOL    HW127632   4.100   4.374   3.751 -2.7521  2.1807  0.3664
 5332SOL    HW227633   4.198   4.488   3.796 -0.4593 -0.9337  1.0145
 5333SOL     OW27634   0.097   3.125   8.380  0.7993 -0.6918 -0.9462
 5333SOL    HW127635   0.117   3.063   8.450 -0.3437 -0.2568 -0.2298
 5333SOL    HW227636   0.016   3.085   8.348  0.3999 -0.1693 -0.5894
 5334SOL     OW27637   3.196   3.972  12.771  0.3295 -0.8960  0.1528
 5334SOL    HW127638   3.131   4.022  12.721  0.5162 -1.7534 -0.9419
 5334SOL    HW227639   3.261   3.966  12.701 -0.4616 -3.1925 -0.3981
 5335SOL     OW27640   4.476   4.122   7.625 -0.0730  0.0726 -0.2141
 5335SOL    HW127641   4.423   4.051   7.660  0.5790 -0.6399 -0.6700
 5335SOL    HW227642   4.530   4.075   7.561 -0.3333  1.4899 -1.4688
 5336SOL     OW27643   1.924   2.114  16.761 -0.4126  0.9312  0.1441
 5336SOL    HW127644   1.957   2.069  16.839 -0.4887  0.6215  0.0003
 5336SOL    HW227645   1.843   2.066  16.741 -0.7237  2.5887 -2.5066
 5337SOL     OW27646   0.020   1.067   2.986 -0.3483 -0.0338  0.4667
 5337SOL    HW127647   0.105   1.033   3.014 -0.2005 -0.8033 -0.9319
 5337SOL    HW227648   0.022   1.034   2.897 -0.3293 -1.0736  0.8597
 5338SOL     OW27649   2.772   1.696   4.808  0.5653 -0.1321  0.4475
 5338SOL    HW127650   2.733   1.747   4.737  0.1416  0.0533  0.8119
 5338SOL    HW227651   2.718   1.724   4.882 -0.5564  0.7518 -0.7040
 5339SOL     OW27652   0.245   0.424   3.372  0.0889 -0.9146 -0.4372
 5339SOL    HW127653   0.305   0.436   3.298  1.5133 -0.1307  0.8597
 5339SOL    HW227654   0.164   0.433   3.322 -1.2638 -1.4302  1.6897
 5340SOL     OW27655   4.688   4.251   4.688  0.3143 -0.2177  0.3260
 5340SOL    HW127656   0.020   4.187   4.685 -0.8992 -1.4435 -3.1663
 5340SOL    HW227657   4.630   4.230   4.761  1.5755 -1.1131  1.0782
 5341SOL     OW27658   3.852   2.938  16.592 -0.2482 -0.1473 -0.7698
 5341SOL    HW127659   3.939   2.978  16.584 -1.4965  3.1184  1.7588
 5341SOL    HW227660   3.794   3.001  16.550 -0.5013  0.8963  1.1245
 5342SOL     OW27661   3.238   4.677  13.012 -0.2135  0.3678  0.7417
 5342SOL    HW127662   3.148   4.650  13.028 -0.6933  1.2304 -0.4386
 5342SOL    HW227663   3.216   0.027  12.986  1.9592  0.5936 -0.3371
 5343SOL     OW27664   2.072   3.312   1.460  0.6578 -0.3083 -1.1265
 5343SOL    HW127665   2.044   3.287   1.372 -1.2362  1.0927 -0.9263
 5343SOL    HW227666   2.005   3.282   1.521  2.1095  1.9765  1.6131
 5344SOL     OW27667   1.900   1.039  10.673 -0.4042  0.6450  0.1872
 5344SOL    HW127668   1.980   1.064  10.719 -1.3648 -1.1560  2.8343
 5344SOL    HW227669   1.898   0.947  10.701  1.0399  0.2105 -1.1236
 5345SOL     OW27670   2.334   0.850  15.215 -0.0083  0.5873 -0.6655
 5345SOL    HW127671   2.279   0.926  15.230 -0.7634  0.2048 -1.5188
 5345SOL    HW227672   2.420   0.891  15.224  1.2341 -1.4359 -3.1096
 5346SOL     OW27673   0.421   4.398  14.875  0.3554  0.3331 -0.0719
 5346SOL    HW127674   0.501   4.348  14.890 -1.1716 -1.5279  1.9326
 5346SOL    HW227675   0.364   4.336  14.829  0.6357 -0.9051  1.2633
 5347SOL     OW27676   3.284   3.407   8.847 -0.0320 -0.2204  0.5169
 5347SOL    HW127677   3.233   3.416   8.927  0.5679  0.6289  0.8054
 5347SOL    HW227678   3.299   3.499   8.823  0.0380 -0.3030  0.2484
 5348SOL     OW27679   1.286   4.093   1.772 -0.2539 -0.0867 -0.1113
 5348SOL    HW127680   1.307   4.070   1.862 -1.1495 -2.9533 -0.6299
 5348SOL    HW227681   1.236   4.013   1.755 -1.3711  0.1732  1.9950
 5349SOL     OW27682   4.541   2.477  14.582 -0.0782  0.9601 -0.3220
 5349SOL    HW127683   4.454   2.437  14.594  1.2129 -1.6607  0.2659
 5349SOL    HW227684   4.573   2.446  14.497  1.5766 -0.2513  0.7409
 5350SOL     OW27685   3.481   3.544   5.613  0.5469 -0.3012 -0.1286
 5350SOL    HW127686   3.408   3.565   5.554 -0.2335  1.7324  1.5884
 5350SOL    HW227687   3.441   3.566   5.697  0.9734 -0.0758  0.0136
 5351SOL     OW27688   0.182   3.416   4.721 -0.5175  0.6103  0.0247
 5351SOL    HW127689   0.117   3.486   4.731 -0.1300  0.8009  1.2052
 5351SOL    HW227690   0.126   3.341   4.741 -0.4092  0.2697 -0.9461
 5352SOL     OW27691   2.689   2.409   1.329  0.0395  0.2128 -0.3407
 5352SOL    HW127692   2.751   2.444   1.393  0.0680 -0.7422  0.1531
 5352SOL    HW227693   2.631   2.353   1.382  0.7070  0.8216  1.0478
 5353SOL     OW27694   3.142   0.687  16.196  0.2598  0.3314 -0.4503
 5353SOL    HW127695   3.237   0.699  16.203  0.1310  0.6751  0.7734
 5353SOL    HW227696   3.114   0.733  16.275  0.0406  0.1394 -0.4162
 5354SOL     OW27697   1.201   3.316  10.699  0.5168 -0.2619  0.1183
 5354SOL    HW127698   1.287   3.306  10.740  0.7986  0.0948 -0.3919
 5354SOL    HW227699   1.228   3.357  10.617 -0.5959  0.9226  0.3401
 5355SOL     OW27700   4.258   3.829   5.329  0.5804 -0.1516 -0.3381
 5355SOL    HW127701   4.265   3.750   5.384 -2.5063 -1.5398 -1.9599
 5355SOL    HW227702   4.210   3.896   5.378 -0.6888 -2.6324  1.8771
 5356SOL     OW27703   1.330   1.372  14.633 -0.2613 -0.1294 -0.2046
 5356SOL    HW127704   1.246   1.337  14.664 -0.5483 -1.0947 -2.0776
 5356SOL    HW227705   1.398   1.306  14.651 -0.4314 -0.5572 -1.1347
 5357SOL     OW27706   1.198   2.054  14.471 -0.1136  0.2784  0.7489
 5357SOL    HW127707   1.141   2.131  14.466 -2.3099 -1.4077 -0.0282
 5357SOL    HW227708   1.235   2.073  14.384 -2.4046  1.1459 -0.0412
 5358SOL     OW27709   2.430   4.076   3.314 -0.9110 -0.8219  0.0453
 5358SOL    HW127710   2.451   4.003   3.256  0.7393 -0.3574  0.0392
 5358SOL    HW227711   2.478   4.041   3.390 -0.7689 -0.1718  0.2523
 5359SOL     OW27712   4.701   1.340   5.591 -0.0453 -0.0257 -0.2048
 5359SOL    HW127713   0.021   1.358   5.519  0.3201 -0.8680 -0.1247
 5359SOL    HW227714   0.016   1.293   5.655  0.0783  1.2419  0.6164
 5360SOL     OW27715   3.565   4.427   1.933  0.3707 -0.2362  0.1405
 5360SOL    HW127716   3.637   4.366   1.915  1.7230  1.4740 -0.1797
 5360SOL    HW227717   3.486   4.373   1.921 -0.3540  0.5336  1.5365
 5361SOL     OW27718   1.449   0.582   1.043 -0.3705 -0.8125 -0.4750
 5361SOL    HW127719   1.462   0.675   1.023  0.4380 -1.1368 -1.4796
 5361SOL    HW227720   1.380   0.583   1.109  1.7102  1.7727  1.6502
 5362SOL     OW27721   0.915   0.033   1.669  0.2740 -0.0410  0.1600
 5362SOL    HW127722   0.847   0.043   1.602 -1.2648  1.4382  1.9138
 5362SOL    HW227723   0.973   4.715   1.618 -0.0128  1.2141 -1.5936
 5363SOL     OW27724   0.485   2.328   6.818  0.5267  0.7100 -0.3623
 5363SOL    HW127725   0.548   2.264   6.784 -0.7757 -0.3000 -0.8407
 5363SOL    HW227726   0.416   2.326   6.753  0.3355 -3.4902 -0.0722
 5364SOL     OW27727   1.030   4.275   1.850 -0.1105 -0.2190 -0.4516
 5364SOL    HW127728   1.002   4.364   1.828  1.9770  1.1443  2.3041
 5364SOL    HW227729   1.107   4.260   1.795 -0.4892 -2.2895 -0.4067
 5365SOL     OW27730   4.126   4.212  13.386 -0.3473 -0.0193  0.0503
 5365SOL    HW127731   4.080   4.281  13.433 -0.1690 -0.4271  0.8286
 5365SOL    HW227732   4.077   4.207  13.304  0.3142 -1.3118 -0.2710
 5366SOL     OW27733   0.873   3.050  17.603 -0.4381 -0.3289 -0.0593
 5366SOL    HW127734   0.813   3.123  17.585 -0.3489 -0.8130 -2.3181
 5366SOL    HW227735   0.832   3.002  17.674  3.6443 -2.6773  0.6498
 5367SOL     OW27736   3.403   2.482   1.932  0.2680  0.3451  0.2519
 5367SOL    HW127737   3.449   2.437   2.003  0.1556 -0.8580 -0.4283
 5367SOL    HW227738   3.462   2.481   1.857 -0.1873  0.1781 -0.1057
 5368SOL     OW27739   3.478   0.098   4.465 -0.6845  0.0744 -0.0745
 5368SOL    HW127740   3.441   0.056   4.543  0.6882  1.8252  1.5356
 5368SOL    HW227741   3.407   0.102   4.401 -1.6139  1.6654  1.0413
 5369SOL     OW27742   4.078   3.325  17.684  0.1447 -0.2266  0.2824
 5369SOL    HW127743   4.096   3.342  17.591 -1.5427  0.9274  0.1683
 5369SOL    HW227744   4.081   3.414  17.717 -2.4999 -0.6012  1.5362
 5370SOL     OW27745   4.456   4.508   9.838 -0.3722 -0.2880 -0.0586
 5370SOL    HW127746   4.440   4.565   9.763  0.4434 -0.3164 -0.2436
 5370SOL    HW227747   4.403   4.432   9.814 -0.3064 -0.2338 -0.3795
 5371SOL     OW27748   0.997   1.807   6.997 -0.3723 -0.0792  0.2980
 5371SOL    HW127749   0.990   1.776   6.907 -5.6288 -0.4489  0.8577
 5371SOL    HW227750   0.934   1.742   7.029 -0.3945 -0.4183 -0.4350
 5372SOL     OW27751   0.234   0.830   2.570 -0.8770 -0.2521 -0.4918
 5372SOL    HW127752   0.292   0.766   2.528 -0.3711  0.2058 -0.4960
 5372SOL    HW227753   0.265   0.913   2.536  2.9235 -2.1419 -1.6426
 5373SOL     OW27754   0.103   1.839   4.107  0.1230  0.2301  0.2348
 5373SOL    HW127755   0.132   1.843   4.016  0.0900 -2.1781  0.1033
 5373SOL    HW227756   0.082   1.747   4.126  2.8115 -0.4608 -0.2154
 5374SOL     OW27757   2.980   2.574   9.424 -0.0342  0.0793 -0.6472
 5374SOL    HW127758   2.903   2.518   9.434 -0.8411  1.1665 -0.6926
 5374SOL    HW227759   3.040   2.513   9.382 -0.4819  1.8310 -3.8434
 5375SOL     OW27760   1.037   0.047   3.100 -0.6610  0.8617 -0.2118
 5375SOL    HW127761   1.113   4.734   3.126  0.0004  1.6471 -0.5907
 5375SOL    HW227762   1.006   4.737   3.024  1.0918  0.6683 -0.8071
 5376SOL     OW27763   3.932   0.229  13.304  0.5924  0.3446  0.4508
 5376SOL    HW127764   3.869   0.300  13.287  1.1095  0.1508 -2.2954
 5376SOL    HW227765   4.013   0.279  13.308  1.9423 -1.6989 -1.3646
 5377SOL     OW27766   1.104   0.098  15.863  0.0976  0.2564  0.8502
 5377SOL    HW127767   1.011   0.087  15.882  0.1449 -0.3268  0.7132
 5377SOL    HW227768   1.126   0.187  15.891 -2.4163  1.9933 -2.7151
 5378SOL     OW27769   2.868   0.613  15.888  0.0447  0.3148 -0.9291
 5378SOL    HW127770   2.896   0.566  15.810 -0.5437 -2.6165  0.6367
 5378SOL    HW227771   2.803   0.672  15.850  0.2453 -0.4689 -2.4549
 5379SOL     OW27772   3.394   1.272   6.188  0.5684 -0.7861 -0.4474
 5379SOL    HW127773   3.438   1.290   6.272 -0.1188 -0.3319 -0.1806
 5379SOL    HW227774   3.446   1.195   6.165 -0.0468 -1.8198  1.6256
 5380SOL     OW27775   0.812   1.306   8.542  0.0299  0.3222  0.0630
 5380SOL    HW127776   0.726   1.264   8.533  1.0196 -1.6013 -0.4556
 5380SOL    HW227777   0.781   1.390   8.576 -0.8631  0.1499 -0.3101
 5381SOL     OW27778   0.453   4.175   2.207 -0.0023  0.6241 -0.1384
 5381SOL    HW127779   0.378   4.212   2.253  0.4028  0.7189  0.4356
 5381SOL    HW227780   0.472   4.253   2.155 -1.4009  1.6009  0.8335
 5382SOL     OW27781   3.057   0.671   2.593  0.2107  1.1080 -0.0509
 5382SOL    HW127782   3.124   0.739   2.588  2.9790 -1.5398  1.2945
 5382SOL    HW227783   3.051   0.645   2.685 -0.8542  2.0508  0.1513
 5383SOL     OW27784   3.327   4.026  11.649 -0.0413  0.0982  0.4704
 5383SOL    HW127785   3.382   4.000  11.574  0.9096  0.6226  0.9851
 5383SOL    HW227786   3.255   4.049  11.590  1.4837  1.5200 -0.8364
 5384SOL     OW27787   3.573   4.059   4.573  0.4731 -0.3674  0.0682
 5384SOL    HW127788   3.501   4.036   4.515  0.5645 -2.3435  0.7123
 5384SOL    HW227789   3.528   4.039   4.655 -1.1939  0.1564 -0.7232
 5385SOL     OW27790   1.038   2.220  17.040  0.2898  0.6871 -0.0536
 5385SOL    HW127791   1.014   2.215  17.133 -2.2056 -3.6285 -0.9315
 5385SOL    HW227792   1.100   2.147  17.045 -2.7799 -1.8907  0.5846
 5386SOL     OW27793   2.765   2.712   0.817  0.1240  0.2508 -0.1066
 5386SOL    HW127794   2.741   2.621   0.796 -1.1858  0.6243 -0.2021
 5386SOL    HW227795   2.752   2.703   0.912 -1.0027 -0.9308 -0.3706
 5387SOL     OW27796   0.684   1.204   2.946 -0.0439 -0.2967 -0.4748
 5387SOL    HW127797   0.647   1.229   3.031  1.0779 -0.3203  0.0208
 5387SOL    HW227798   0.772   1.241   2.952 -0.2940  0.3110 -0.5379
 5388SOL     OW27799   1.187   4.418  15.443  0.9705  0.2891  0.1047
 5388SOL    HW127800   1.158   4.328  15.431  0.4678  0.1489  2.4500
 5388SOL    HW227801   1.273   4.416  15.399  0.7450 -1.2550 -0.2696
 5389SOL     OW27802   3.845   1.304  10.606 -0.2524  0.0969  0.0563
 5389SOL    HW127803   3.768   1.344  10.566 -0.2199 -0.1816 -0.2815
 5389SOL    HW227804   3.828   1.313  10.700  1.7845 -1.3406  0.5648
 5390SOL     OW27805   4.473   2.850   6.506  0.2949  0.4227 -0.5492
 5390SOL    HW127806   4.393   2.827   6.553 -1.4135  1.8063 -2.7649
 5390SOL    HW227807   4.524   2.878   6.581  0.3822  0.1264 -0.4957
 5391SOL     OW27808   0.006   3.770   0.218 -0.0162  0.5911  0.3472
 5391SOL    HW127809   0.063   3.831   0.265  2.3822 -2.1161  0.9631
 5391SOL    HW227810   4.678   3.825   0.178 -0.5173 -0.1722  0.1337
 5392SOL     OW27811   2.044   2.203  13.285  0.2419  0.2157 -0.3489
 5392SOL    HW127812   2.105   2.263  13.328 -0.7332  0.9226  0.0289
 5392SOL    HW227813   2.104   2.132  13.260  0.9857  0.6295  0.2705
 5393SOL     OW27814   2.376   1.301   2.969 -0.1663  0.6896  0.1921
 5393SOL    HW127815   2.390   1.215   2.930 -0.6796  1.1554 -1.0008
 5393SOL    HW227816   2.457   1.347   2.952  0.7963 -1.1585 -0.2780
 5394SOL     OW27817   0.599   2.318  11.171  0.0992  0.1677  0.0343
 5394SOL    HW127818   0.595   2.405  11.211  1.3182  0.0283  0.4754
 5394SOL    HW227819   0.694   2.311  11.159 -0.0313  0.4470 -1.2053
 5395SOL     OW27820   0.589   3.922   3.782  0.0371  0.1227 -0.3590
 5395SOL    HW127821   0.593   3.970   3.699  0.0127 -0.3499 -0.6335
 5395SOL    HW227822   0.678   3.886   3.791 -0.0075  0.5868  1.9673
 5396SOL     OW27823   0.968   2.931   0.119 -0.4248  0.5371 -0.7120
 5396SOL    HW127824   1.009   3.009   0.081 -1.7511  2.2652  1.4065
 5396SOL    HW227825   0.893   2.979   0.155 -0.9423 -0.6901 -0.1786
 5397SOL     OW27826   3.051   1.917  15.853 -0.1171  0.3303 -0.5928
 5397SOL    HW127827   2.985   1.865  15.899  0.8415 -0.2306  0.1461
 5397SOL    HW227828   3.055   1.884  15.764  1.7421 -0.4982 -0.2065
 5398SOL     OW27829   1.521   3.744   4.791 -0.2706  0.1469  0.3438
 5398SOL    HW127830   1.499   3.832   4.822  0.9340  1.5149 -2.6874
 5398SOL    HW227831   1.510   3.747   4.696 -0.0920 -1.1137  0.2767
 5399SOL     OW27832   3.927   0.324   5.713  0.7023  0.2681 -0.2391
 5399SOL    HW127833   3.842   0.341   5.672  0.8787  0.5277 -0.5069
 5399SOL    HW227834   3.992   0.322   5.643 -1.1280 -1.3008 -1.8995
 5400SOL     OW27835   0.041   2.553  14.362  0.1086 -0.1084  0.2582
 5400SOL    HW127836   0.092   2.503  14.425  0.6333 -1.1115 -0.9690
 5400SOL    HW227837   4.728   2.487  14.317 -0.1676  0.6913 -0.5985
 5401SOL     OW27838   3.593   3.504   5.964 -0.1314  0.0295  0.5063
 5401SOL    HW127839   3.507   3.539   5.942 -0.1254 -0.3649 -0.1518
 5401SOL    HW227840   3.591   3.432   5.901  1.4579 -1.1718  1.8174
 5402SOL     OW27841   0.115   4.526   8.724 -0.0911 -0.2920  0.3780
 5402SOL    HW127842   0.186   4.556   8.780 -0.8670 -0.3094  1.3583
 5402SOL    HW227843   0.167   4.479   8.660  1.7272  1.6923  0.4024
 5403SOL     OW27844   0.650   2.065   6.404  0.4163 -0.0096 -0.2482
 5403SOL    HW127845   0.579   2.123   6.431  0.5407 -1.0235  2.2464
 5403SOL    HW227846   0.680   2.118   6.330  1.0439 -0.6275 -0.4450
 5404SOL     OW27847   3.669   1.493   1.957  0.4145 -0.1137  0.2742
 5404SOL    HW127848   3.691   1.586   1.954  0.8691 -0.2307  0.0038
 5404SOL    HW227849   3.575   1.485   1.973  0.7795 -0.9871  2.0175
 5405SOL     OW27850   2.506   4.674  14.133 -0.1092 -0.4752 -0.8010
 5405SOL    HW127851   2.552   4.659  14.050  0.6886  0.7224 -0.5670
 5405SOL    HW227852   2.447   4.600  14.117  1.0295 -1.5027 -0.2921
 5406SOL     OW27853   3.150   3.652   8.871 -0.0632 -0.1133  0.3845
 5406SOL    HW127854   3.068   3.697   8.893  0.5519  1.4093 -0.3960
 5406SOL    HW227855   3.127   3.564   8.843  0.3912  0.2492 -1.1296
 5407SOL     OW27856   1.415   0.762  14.075  0.0565  0.1021  0.2947
 5407SOL    HW127857   1.379   0.676  14.055  2.4148 -0.3794 -1.9163
 5407SOL    HW227858   1.362   0.810  14.011 -0.8530 -1.0419  0.2076
 5408SOL     OW27859   0.526   1.048  16.100  0.8694  0.5181 -0.1279
 5408SOL    HW127860   0.540   0.964  16.055  0.3730 -0.0829  0.8344
 5408SOL    HW227861   0.431   1.059  16.092  0.3798 -2.4443  1.4102
 5409SOL     OW27862   3.701   3.466   9.695 -0.2215  0.0632  0.1854
 5409SOL    HW127863   3.787   3.479   9.655  0.7794 -2.8183  1.4013
 5409SOL    HW227864   3.735   3.397   9.752  0.3201  0.9621  0.9492
 5410SOL     OW27865   3.783   3.775   8.949 -0.3637  0.2244 -0.8036
 5410SOL    HW127866   3.796   3.798   8.857 -1.5416  0.9409 -0.7910
 5410SOL    HW227867   3.765   3.856   8.997 -0.6103  0.6501 -1.6143
 5411SOL     OW27868   2.715   0.417   8.426  0.2087  0.7367  0.2017
 5411SOL    HW127869   2.655   0.491   8.414 -0.9335  0.0850  1.9886
 5411SOL    HW227870   2.798   0.460   8.404  0.1012  0.1554 -1.3659
 5412SOL     OW27871   2.365   1.322   6.194 -0.0195 -0.1709  0.2358
 5412SOL    HW127872   2.332   1.236   6.222 -0.8743  0.1287  0.1502
 5412SOL    HW227873   2.291   1.344   6.138  0.5812 -0.4939 -0.6761
 5413SOL     OW27874   3.808   1.606   1.466 -0.1241 -0.1596  0.2608
 5413SOL    HW127875   3.878   1.568   1.412 -0.7707 -1.6020  0.4566
 5413SOL    HW227876   3.752   1.529   1.467  2.9916 -2.4997 -2.4079
 5414SOL     OW27877   2.563   1.461   4.691 -0.0691  0.0773 -0.2791
 5414SOL    HW127878   2.654   1.432   4.682 -0.6843 -0.6855 -3.8209
 5414SOL    HW227879   2.579   1.555   4.707  2.3523 -0.6677  1.8748
 5415SOL     OW27880   1.717   4.380  14.080 -0.1399 -0.0820 -0.1559
 5415SOL    HW127881   1.737   4.456  14.134  1.7453 -0.4235 -0.3452
 5415SOL    HW227882   1.789   4.398  14.019 -1.1412  0.5205 -1.1675
 5416SOL     OW27883   2.110   4.720   4.279  0.5602 -0.1874  0.0065
 5416SOL    HW127884   2.200   0.003   4.304  0.6898 -2.3386  1.4800
 5416SOL    HW227885   2.124   4.735   4.185 -3.8436  0.2011 -0.5653
 5417SOL     OW27886   1.286   3.348  11.599 -0.4638 -0.2584  0.1886
 5417SOL    HW127887   1.349   3.277  11.594 -2.6007 -2.2490  1.5850
 5417SOL    HW227888   1.225   3.323  11.669 -1.7357  1.1463 -0.4114
 5418SOL     OW27889   1.017   4.718   0.492 -0.3070  0.3614 -0.2956
 5418SOL    HW127890   1.015   0.075   0.491  0.5423  0.3694 -1.0159
 5418SOL    HW227891   1.082   4.693   0.426  0.0537 -0.5449  0.4147
 5419SOL     OW27892   3.878   3.341   3.957 -0.4836  0.2170  0.2291
 5419SOL    HW127893   3.933   3.302   3.889 -0.6544 -2.3207  1.5529
 5419SOL    HW227894   3.833   3.410   3.908  0.5458  1.7936  1.5192
 5420SOL     OW27895   3.319   3.610   7.483  0.2121 -0.8655  0.5578
 5420SOL    HW127896   3.245   3.666   7.506 -0.5086 -1.1741 -1.0772
 5420SOL    HW227897   3.338   3.572   7.569 -0.7821 -0.1871  1.0714
 5421SOL     OW27898   3.913   3.285  12.644 -0.0947 -0.3049 -0.3358
 5421SOL    HW127899   4.001   3.318  12.622  0.4275  0.9933  3.6723
 5421SOL    HW227900   3.893   3.343  12.717 -1.9269 -0.2342 -0.9181
 5422SOL     OW27901   1.681   2.018   2.151 -0.2081 -0.0765 -0.3570
 5422SOL    HW127902   1.734   2.058   2.082 -1.6561  1.4624 -0.5598
 5422SOL    HW227903   1.685   1.929   2.116  0.5022 -0.0360 -0.3819
 5423SOL     OW27904   1.763   0.108   8.365  0.0778 -0.1578 -0.2074
 5423SOL    HW127905   1.813   0.122   8.285  1.5546 -0.3871  0.6742
 5423SOL    HW227906   1.815   0.163   8.424  1.7498 -1.0440 -0.8584
 5424SOL     OW27907   2.441   1.622  10.389 -0.0846  0.0484  0.0126
 5424SOL    HW127908   2.416   1.713  10.374 -3.5455 -1.0084 -0.7933
 5424SOL    HW227909   2.514   1.613  10.328  0.0725 -1.3538  0.4101
 5425SOL     OW27910   1.918   0.386   3.537 -0.1681 -0.1775 -0.0286
 5425SOL    HW127911   1.839   0.345   3.574 -0.6415  1.5875  0.9144
 5425SOL    HW227912   1.884   0.473   3.516 -0.3211 -0.2503 -0.0806
 5426SOL     OW27913   3.795   0.783   5.466 -0.2557 -0.0280 -0.8683
 5426SOL    HW127914   3.814   0.816   5.379  0.6178  0.8194 -0.3612
 5426SOL    HW227915   3.726   0.839   5.501  2.5011  2.7497  0.1075
 5427SOL     OW27916   3.868   0.608   7.637 -0.1948  0.1713  0.3844
 5427SOL    HW127917   3.939   0.580   7.579  0.3968  1.1477  0.6392
 5427SOL    HW227918   3.796   0.546   7.620 -0.2175 -0.0738  1.3840
 5428SOL     OW27919   1.128   2.292  11.088 -0.1633 -0.2433 -0.0978
 5428SOL    HW127920   1.168   2.283  11.175  1.1149  0.1853 -0.6349
 5428SOL    HW227921   1.187   2.240  11.032 -0.2959 -0.4668 -0.0312
 5429SOL     OW27922   2.352   2.816   1.925 -0.0700  0.1233  0.2342
 5429SOL    HW127923   2.286   2.772   1.871  0.8137  0.9817 -1.5558
 5429SOL    HW227924   2.325   2.901   1.890  1.1004  0.6169  0.5167
 5430SOL     OW27925   4.081   3.981   3.886  0.6816  0.7150 -0.1767
 5430SOL    HW127926   4.053   4.013   3.971 -0.4151  3.6101 -1.6238
 5430SOL    HW227927   4.003   3.939   3.850  1.0852 -1.6452  1.7083
 5431SOL     OW27928   2.438   0.446  17.149 -0.2204 -0.2919  0.2473
 5431SOL    HW127929   2.426   0.528  17.101  2.6025 -1.0721 -1.7990
 5431SOL    HW227930   2.347   0.440  17.176 -0.7451  0.1734 -1.3913
 5432SOL     OW27931   4.392   3.079   7.314  0.3665 -0.2208 -0.0737
 5432SOL    HW127932   4.426   3.120   7.235  0.3534  0.7924  0.4525
 5432SOL    HW227933   4.474   3.033   7.336  0.6059 -0.0573 -0.6335
 5433SOL     OW27934   1.271   3.752   7.901  0.0215 -0.2453 -0.1643
 5433SOL    HW127935   1.216   3.766   7.823  0.5150  2.2688 -0.0497
 5433SOL    HW227936   1.220   3.707   7.968  1.6208 -2.6520 -0.5931
 5434SOL     OW27937   2.252   3.206  11.427  0.0916 -0.2245  0.3241
 5434SOL    HW127938   2.217   3.293  11.412 -1.0062 -0.4143  1.8815
 5434SOL    HW227939   2.269   3.209  11.521 -1.1056 -0.9830  0.5544
 5435SOL     OW27940   1.207   0.776   4.476 -0.3684  0.5021 -0.3102
 5435SOL    HW127941   1.231   0.764   4.384  1.5317 -0.1045  0.2628
 5435SOL    HW227942   1.213   0.871   4.477 -1.5701  0.5673 -0.3700
 5436SOL     OW27943   4.570   3.865   5.358 -0.4528  0.2241 -0.3478
 5436SOL    HW127944   4.482   3.865   5.319  0.4178  1.0526 -2.2874
 5436SOL    HW227945   4.561   3.926   5.431  2.6484  0.5231 -0.2204
 5437SOL     OW27946   1.350   1.905   8.319  0.0739  0.3781 -0.1521
 5437SOL    HW127947   1.441   1.920   8.293  0.1393  1.0056  0.4509
 5437SOL    HW227948   1.365   1.865   8.404 -3.8585 -1.4808 -0.3613
 5438SOL     OW27949   3.341   1.076   8.800 -0.6641 -0.6834  0.4777
 5438SOL    HW127950   3.406   1.145   8.814 -0.0467 -1.2523  0.4367
 5438SOL    HW227951   3.362   1.023   8.877  0.4721  0.7001  1.1194
 5439SOL     OW27952   4.220   1.875   8.551 -0.3352 -0.0707  0.1519
 5439SOL    HW127953   4.191   1.966   8.555  0.2286  0.1964 -1.7257
 5439SOL    HW227954   4.278   1.889   8.477  0.3186 -3.2268  0.0849
 5440SOL     OW27955   3.789   0.801   0.224  0.4154 -0.4964  0.1082
 5440SOL    HW127956   3.883   0.789   0.208  0.2596 -1.9202  0.2755
 5440SOL    HW227957   3.757   0.818   0.136  0.3116  1.8036  0.5863
 5441SOL     OW27958   3.018   0.928   6.509  0.2474  0.4846 -0.2066
 5441SOL    HW127959   2.998   0.890   6.595  0.3347 -3.4367 -1.8871
 5441SOL    HW227960   2.969   0.864   6.457  0.0443 -0.0095  0.5796
 5442SOL     OW27961   1.525   1.535   5.120 -0.2319  0.0456 -0.2607
 5442SOL    HW127962   1.488   1.454   5.085  1.7510 -1.0484  0.2032
 5442SOL    HW227963   1.612   1.517   5.155  0.2489 -1.1740 -2.1123
 5443SOL     OW27964   1.144   3.486   6.289  0.4031 -0.7532 -0.3535
 5443SOL    HW127965   1.083   3.497   6.361  0.7947  2.9655 -0.6221
 5443SOL    HW227966   1.085   3.493   6.214 -0.0243 -2.3519 -0.1705
 5444SOL     OW27967   2.993   1.620   1.335 -0.6470  0.6486 -0.3590
 5444SOL    HW127968   2.902   1.608   1.364 -0.1806 -0.0531  0.7890
 5444SOL    HW227969   2.992   1.640   1.241 -1.5914  0.8703 -0.3046
 5445SOL     OW27970   2.127   3.692   2.012  0.3676 -0.5797  0.3868
 5445SOL    HW127971   2.214   3.718   2.043 -1.2889  0.9810  3.7343
 5445SOL    HW227972   2.113   3.634   2.087 -2.0623 -1.8053 -1.0063
 5446SOL     OW27973   1.509   3.620   8.258 -0.0404  0.2448  0.6666
 5446SOL    HW127974   1.473   3.662   8.337  2.6015  0.5898  1.6818
 5446SOL    HW227975   1.526   3.689   8.195 -3.8194 -0.0482 -0.7086
 5447SOL     OW27976   2.620   1.952   7.147 -0.0436  0.4383 -0.2296
 5447SOL    HW127977   2.610   1.957   7.242  0.6409  0.2605 -0.1510
 5447SOL    HW227978   2.682   2.023   7.133  0.6300  0.3871  2.4360
 5448SOL     OW27979   1.346   3.212   4.089 -0.1106 -0.0790 -0.1994
 5448SOL    HW127980   1.303   3.222   4.173  0.1636 -0.3063 -0.0325
 5448SOL    HW227981   1.408   3.286   4.087 -2.4953  1.9145 -0.4922
 5449SOL     OW27982   0.098   4.110   3.464  0.4465  0.3278 -0.2025
 5449SOL    HW127983   0.060   4.023   3.448  2.7303 -0.7616  0.2121
 5449SOL    HW227984   0.164   4.124   3.397  2.7593 -1.5919  1.6254
 5450SOL     OW27985   2.911   3.684   4.308  0.3816 -0.1992 -0.4358
 5450SOL    HW127986   2.961   3.638   4.240  0.6326 -2.3224  1.1663
 5450SOL    HW227987   2.820   3.692   4.280  0.4850 -1.8365 -1.2686
 5451SOL     OW27988   2.124   0.377   6.781  0.3865 -0.2150 -0.7456
 5451SOL    HW127989   2.203   0.413   6.741  0.4017 -0.9038 -1.3230
 5451SOL    HW227990   2.165   0.373   6.868  1.0268  1.9758 -0.9329
 5452SOL     OW27991   1.510   2.935  10.079 -0.8091 -0.2697  0.0739
 5452SOL    HW127992   1.427   2.912  10.122 -0.0907 -1.4953  0.7989
 5452SOL    HW227993   1.534   3.025  10.102 -0.6228  0.2441 -2.1209
 5453SOL     OW27994   3.723   0.852   9.253 -0.4025 -0.3004  0.5915
 5453SOL    HW127995   3.757   0.773   9.295  1.5595 -0.6909 -1.7015
 5453SOL    HW227996   3.747   0.841   9.160  0.3556  1.6170  0.5668
 5454SOL     OW27997   1.296   0.449   0.250 -0.4493 -0.1299 -0.0689
 5454SOL    HW127998   1.338   0.476   0.168  0.6671 -0.8098  0.2849
 5454SOL    HW227999   1.211   0.490   0.232  0.2185  0.5134 -1.7824
 5455SOL     OW28000   4.179   2.409   8.355  0.3995  0.3666 -0.0492
 5455SOL    HW128001   4.144   2.416   8.266  2.0145  0.9756 -0.6309
 5455SOL    HW228002   4.163   2.495   8.393  0.7970 -0.6216  2.3092
 5456SOL     OW28003   3.677   3.657   5.408  0.2640  0.5324  0.9406
 5456SOL    HW128004   3.605   3.685   5.464 -0.7006 -0.9095  0.4195
 5456SOL    HW228005   3.701   3.569   5.438 -1.5581  0.5396  2.3940
 5457SOL     OW28006   1.690   0.330   6.669 -0.6620 -0.2822 -0.1472
 5457SOL    HW128007   1.716   0.242   6.694  0.4903  0.2265  0.3980
 5457SOL    HW228008   1.598   0.326   6.697 -0.2992  0.1553  1.1029
 5458SOL     OW28009   0.068   3.745   9.091 -0.1139 -0.0237 -0.3270
 5458SOL    HW128010   0.011   3.674   9.062  1.5158 -1.3943 -0.2070
 5458SOL    HW228011   0.153   3.707   9.069  1.3436  2.4672  0.9763
 5459SOL     OW28012   1.723   3.101   5.470  0.4223  0.6152  0.5296
 5459SOL    HW128013   1.745   3.045   5.544 -0.0779  0.9978  0.9706
 5459SOL    HW228014   1.631   3.077   5.456  0.1896  0.2597  2.7406
 5460SOL     OW28015   0.434   3.034   5.211 -0.0951 -0.5496  0.6685
 5460SOL    HW128016   0.471   3.112   5.169  0.2529 -0.2825  1.4705
 5460SOL    HW228017   0.362   3.070   5.263  0.9027  1.9661  0.2746
 5461SOL     OW28018   0.724   0.287  12.887 -0.2846 -0.4084 -0.1344
 5461SOL    HW128019   0.657   0.273  12.954 -1.2984  0.1329 -1.0375
 5461SOL    HW228020   0.727   0.204  12.840  0.0991  0.3121 -1.3924
 5462SOL     OW28021   3.732   0.835   7.582  0.0285 -0.3528  0.1372
 5462SOL    HW128022   3.755   0.762   7.639  1.1009 -0.5024 -0.4953
 5462SOL    HW228023   3.798   0.827   7.514 -0.5552 -2.6086 -0.1662
 5463SOL     OW28024   4.583   0.518   6.330 -0.0237  0.3352 -0.1110
 5463SOL    HW128025   4.526   0.584   6.369 -1.2176  0.7359 -2.5244
 5463SOL    HW228026   4.554   0.510   6.239  1.0763 -0.3614 -0.4014
 5464SOL     OW28027   1.874   1.602   5.529 -0.2568 -0.3718  0.0312
 5464SOL    HW128028   1.962   1.635   5.511 -1.1612  1.5103 -0.9957
 5464SOL    HW228029   1.829   1.602   5.445  1.2275  0.0934 -0.7593
 5465SOL     OW28030   2.513   4.634   4.529 -0.1521  0.0697 -0.0367
 5465SOL    HW128031   2.559   4.698   4.583 -0.2063 -0.5463  0.7392
 5465SOL    HW228032   2.440   4.614   4.588  1.4855 -1.0046  1.6257
 5466SOL     OW28033   1.208   1.538   7.520  0.0906 -0.2021 -0.2484
 5466SOL    HW128034   1.211   1.610   7.582  0.4979  1.0457 -1.7372
 5466SOL    HW228035   1.217   1.464   7.581  1.3593  0.2732  0.1281
 5467SOL     OW28036   4.726   0.112  15.880  0.0681  0.3196  0.5558
 5467SOL    HW128037   4.644   0.090  15.835  0.4752  1.4916 -0.7778
 5467SOL    HW228038   0.048   0.041  15.863  1.0409  1.0091  1.1910
 5468SOL     OW28039   4.261   1.241   3.995 -0.1886  0.2596 -0.3399
 5468SOL    HW128040   4.263   1.288   4.079  2.4980 -1.1839  0.4033
 5468SOL    HW228041   4.224   1.156   4.018 -2.2065  1.0901 -0.5274
 5469SOL     OW28042   1.383   2.602  16.100  0.3679  0.1195  0.1288
 5469SOL    HW128043   1.445   2.657  16.052 -1.1578 -0.1330 -2.0985
 5469SOL    HW228044   1.438   2.577  16.174 -1.1461  0.1676  1.2712
 5470SOL     OW28045   4.650   2.373   3.204 -0.0497 -0.1105 -0.1775
 5470SOL    HW128046   4.677   2.398   3.292 -0.0002  0.8028 -0.4513
 5470SOL    HW228047   4.657   2.457   3.159  2.3207  0.3093  0.9437
 5471SOL     OW28048   1.083   1.907  11.751 -0.0203 -0.0768  0.0064
 5471SOL    HW128049   0.996   1.923  11.787  0.6656  1.2139  1.0751
 5471SOL    HW228050   1.129   1.983  11.787 -1.9896  1.4432 -0.7320
 5472SOL     OW28051   4.154   2.405  11.358 -0.0487 -0.9184  0.6189
 5472SOL    HW128052   4.120   2.343  11.293  0.1419  0.7018 -1.0269
 5472SOL    HW228053   4.095   2.398  11.433  0.4537  0.7139  1.1758
 5473SOL     OW28054   2.033   2.812   4.768  0.2207  0.1176 -0.0285
 5473SOL    HW128055   2.055   2.836   4.858 -0.7771 -0.7420  0.4557
 5473SOL    HW228056   1.938   2.800   4.767 -0.0671  2.4893 -0.7197
 5474SOL     OW28057   3.716   2.297   2.747 -0.9311  0.6464  0.0417
 5474SOL    HW128058   3.639   2.303   2.803  1.0585  0.5264  2.7760
 5474SOL    HW228059   3.778   2.261   2.809 -1.1690  0.0519 -0.0681
 5475SOL     OW28060   2.795   0.444   3.164  0.1845 -0.7675  0.6750
 5475SOL    HW128061   2.809   0.382   3.236  1.4363 -0.0877  1.0248
 5475SOL    HW228062   2.702   0.441   3.144  0.0876  2.4255  0.7671
 5476SOL     OW28063   0.522   4.457   7.695 -0.4456  0.0350 -0.1685
 5476SOL    HW128064   0.450   4.512   7.662 -1.1675 -0.2188  1.0101
 5476SOL    HW228065   0.481   4.371   7.706  0.5738 -0.2898  1.0005
 5477SOL     OW28066   4.413   3.733  17.704  0.4216 -0.4799  0.2971
 5477SOL    HW128067   4.505   3.715  17.725  0.2353 -0.0623  1.4379
 5477SOL    HW228068   4.403   3.805   0.012  0.4422  1.5013 -1.9497
 5478SOL     OW28069   2.139   0.949  10.810 -0.0748  0.4634  0.1823
 5478SOL    HW128070   2.180   1.035  10.821 -2.1290  1.2705  1.4532
 5478SOL    HW228071   2.217   0.898  10.835 -0.4262 -0.6404 -0.9574
 5479SOL     OW28072   2.864   1.793   6.217  0.8796  0.5417 -0.5784
 5479SOL    HW128073   2.862   1.806   6.312 -0.0289 -0.2311 -0.4882
 5479SOL    HW228074   2.957   1.774   6.207  1.2676  1.5826  1.0981
 5480SOL     OW28075   1.232   0.895  11.974  0.0093 -0.4680 -0.0161
 5480SOL    HW128076   1.275   0.979  11.952  0.5762 -0.9466 -0.7530
 5480SOL    HW228077   1.144   0.927  11.954  1.3220  3.1505 -0.1037
 5481SOL     OW28078   2.226   4.582   6.583 -0.5270  0.1557 -0.8580
 5481SOL    HW128079   2.161   4.511   6.582  0.0176 -0.3508 -0.5649
 5481SOL    HW228080   2.219   4.609   6.675 -1.2452  2.1159 -1.4978
 5482SOL     OW28081   2.344   2.848   8.549 -0.1790  0.5476 -0.3371
 5482SOL    HW128082   2.435   2.864   8.574  0.0456  1.2176 -1.5759
 5482SOL    HW228083   2.294   2.903   8.610  0.5414 -0.3148  1.0310
 5483SOL     OW28084   4.053   3.280   3.747  0.2480  0.2557  0.0476
 5483SOL    HW128085   4.020   3.235   3.669 -1.4626  2.0598 -0.2552
 5483SOL    HW228086   4.120   3.338   3.711  0.2541  0.8160  0.9505
 5484SOL     OW28087   2.364   2.838  15.214  0.1223 -0.2202  0.6364
 5484SOL    HW128088   2.276   2.867  15.239  0.3214 -0.6832  1.8967
 5484SOL    HW228089   2.383   2.772  15.280 -1.5432 -1.5025 -0.1866
 5485SOL     OW28090   4.211   1.263   8.174 -0.3581  0.5372  0.4117
 5485SOL    HW128091   4.231   1.310   8.254  1.9985  0.2759 -0.0328
 5485SOL    HW228092   4.138   1.206   8.201  1.4713 -2.6076 -1.3227
 5486SOL     OW28093   2.602   2.568   2.435  0.1744 -0.1087 -0.1042
 5486SOL    HW128094   2.559   2.530   2.512 -1.6265  1.0332 -0.5470
 5486SOL    HW228095   2.633   2.654   2.461 -0.2764  0.0927 -0.2245
 5487SOL     OW28096   2.362   3.701   5.969 -0.0222  0.6253  0.0391
 5487SOL    HW128097   2.453   3.697   5.997 -0.2019 -0.2321  0.5014
 5487SOL    HW228098   2.314   3.781   5.991 -1.0897  0.1154 -0.4126
 5488SOL     OW28099   1.642   2.797   6.147  0.0832 -0.2082  0.0053
 5488SOL    HW128100   1.612   2.760   6.230  2.4184 -1.8761  0.0926
 5488SOL    HW228101   1.561   2.836   6.115  0.3489  2.4822  2.5850
 5489SOL     OW28102   2.005   1.914   7.810  0.1648 -0.0748 -0.4775
 5489SOL    HW128103   1.918   1.953   7.802  1.0006  1.4584 -2.1181
 5489SOL    HW228104   2.059   1.993   7.806 -3.4060  2.3915  0.2612
 5490SOL     OW28105   3.582   4.648   8.802 -0.1641 -0.3257 -0.7624
 5490SOL    HW128106   3.648   4.606   8.858 -1.6427  0.7309  1.7885
 5490SOL    HW228107   3.518   4.577   8.793  0.1679 -0.9413  1.5996
 5491SOL     OW28108   3.058   2.103   6.372  0.0107  0.3672  0.4680
 5491SOL    HW128109   3.066   2.199   6.377  1.0419  0.2584  0.8933
 5491SOL    HW228110   3.015   2.096   6.287 -0.4991  1.6796  0.6150
 5492SOL     OW28111   2.844   3.764   7.520 -0.0813 -0.0861 -0.5495
 5492SOL    HW128112   2.785   3.833   7.489  0.4088  0.3752 -0.4710
 5492SOL    HW228113   2.855   3.707   7.444 -3.0616 -1.0577 -0.2628
 5493SOL     OW28114   2.513   1.707   2.895 -0.5006  0.2442  0.0962
 5493SOL    HW128115   2.563   1.710   2.813 -0.0720  1.5211  0.4061
 5493SOL    HW228116   2.527   1.797   2.924  0.4268  0.2701 -0.3979
 5494SOL     OW28117   1.231   3.508   2.590 -0.4335 -0.0190 -0.6466
 5494SOL    HW128118   1.144   3.488   2.624  1.3588 -0.2123  3.7862
 5494SOL    HW228119   1.281   3.484   2.668 -2.2456  0.8676  0.7990
 5495SOL     OW28120   1.314   2.428   1.988 -0.2257  0.9022  0.4652
 5495SOL    HW128121   1.280   2.456   2.072 -1.6978 -1.1648  0.5491
 5495SOL    HW228122   1.235   2.430   1.935 -0.8445 -0.9452  1.3234
 5496SOL     OW28123   1.473   0.164  15.769 -0.0343 -0.7270 -0.9343
 5496SOL    HW128124   1.477   0.222  15.692  0.0715  1.7238  0.9057
 5496SOL    HW228125   1.452   0.078  15.732 -0.1358 -0.7431 -0.8382
 5497SOL     OW28126   1.903   2.483  10.419  0.3355 -0.3382 -0.1893
 5497SOL    HW128127   1.831   2.505  10.360  0.2815 -1.9666 -0.7240
 5497SOL    HW228128   1.955   2.429  10.359  2.7502  2.9124 -1.0514
 5498SOL     OW28129   3.548   2.587   3.054 -0.8758 -0.0376 -0.5761
 5498SOL    HW128130   3.628   2.631   3.081 -0.5072  0.5476 -2.5998
 5498SOL    HW228131   3.502   2.593   3.138 -0.9877  0.9934 -0.7148
 5499SOL     OW28132   1.665   3.573   1.312  0.4183 -0.2255  0.9129
 5499SOL    HW128133   1.690   3.550   1.222 -0.1326 -0.3567  0.7972
 5499SOL    HW228134   1.605   3.644   1.292 -1.3971 -1.7348  1.0584
 5500SOL     OW28135   0.207   1.754   5.196  0.3825  0.2428 -0.4489
 5500SOL    HW128136   0.127   1.767   5.246  0.7240 -2.3207  0.7450
 5500SOL    HW228137   0.262   1.707   5.259 -0.4574 -1.4685 -0.9915
 5501SOL     OW28138   2.025   0.317   3.863  0.2073 -0.3027 -0.3045
 5501SOL    HW128139   1.955   0.381   3.880 -0.0410 -0.3094 -1.2933
 5501SOL    HW228140   1.966   0.243   3.846  0.1869 -0.5047  0.6720
 5502SOL     OW28141   1.174   2.761   8.724 -0.6492 -0.1836 -0.5267
 5502SOL    HW128142   1.129   2.778   8.641  1.1298  1.3715 -1.1550
 5502SOL    HW228143   1.123   2.816   8.784 -0.5272  0.2986 -0.8697
 5503SOL     OW28144   3.388   3.833   6.374  0.9210 -0.2479  0.1818
 5503SOL    HW128145   3.312   3.825   6.316  1.0302 -1.1324  0.1566
 5503SOL    HW228146   3.390   3.742   6.406  0.3682  0.0003  0.9239
 5504SOL     OW28147   3.777   0.611  15.652 -0.1667 -0.3717 -0.0291
 5504SOL    HW128148   3.831   0.593  15.728 -0.2703 -1.9218 -0.3178
 5504SOL    HW228149   3.811   0.549  15.586  0.8265  0.0077  0.1281
 5505SOL     OW28150   3.962   0.022  13.035  0.1594 -0.8257 -0.2638
 5505SOL    HW128151   3.896   0.036  12.966 -0.4839  0.8913  0.6867
 5505SOL    HW228152   3.964   0.116  13.054 -0.4682 -0.8023 -0.3058
 5506SOL     OW28153   3.261   3.564   1.051  0.1802  0.6432  0.2699
 5506SOL    HW128154   3.228   3.609   0.973 -1.5714 -0.0148  0.6154
 5506SOL    HW228155   3.200   3.491   1.058  0.3032  0.5997  0.9080
 5507SOL     OW28156   1.864   0.222  11.597  0.2765  0.0200  0.2950
 5507SOL    HW128157   1.861   0.230  11.502  0.8399 -0.2966  0.2491
 5507SOL    HW228158   1.801   0.152  11.615 -1.5677  1.8577  0.9357
 5508SOL     OW28159   4.357   2.079  11.307 -1.4424  0.4882  0.5984
 5508SOL    HW128160   4.424   2.144  11.284 -3.1464  0.7537 -3.5748
 5508SOL    HW228161   4.293   2.101  11.240  0.0510 -0.5021 -1.1606
 5509SOL     OW28162   1.251   3.035  15.282  0.5260 -0.5559 -0.6719
 5509SOL    HW128163   1.336   3.054  15.322  1.6147 -1.5953 -2.5003
 5509SOL    HW228164   1.242   2.943  15.308  0.6790 -0.0138  1.3101
 5510SOL     OW28165   1.495   1.453   8.527  0.5874 -0.3422  0.2669
 5510SOL    HW128166   1.406   1.421   8.546  1.1868 -1.8621  0.5484
 5510SOL    HW228167   1.476   1.546   8.514 -0.4643 -0.4381  1.0628
 5511SOL     OW28168   3.496   3.210   5.213  0.2214  0.3616  0.3641
 5511SOL    HW128169   3.401   3.208   5.223  0.0612 -2.3275 -1.9372
 5511SOL    HW228170   3.506   3.201   5.118 -1.3574 -0.5032  0.2885
 5512SOL     OW28171   4.679   3.319   2.460  0.0340 -0.0531 -0.0367
 5512SOL    HW128172   4.735   3.334   2.537 -0.7349 -1.1575  0.7339
 5512SOL    HW228173   4.682   3.223   2.456 -1.7592 -0.0689 -1.1835
 5513SOL     OW28174   2.539   0.689   8.436  0.3731 -0.3609  0.2129
 5513SOL    HW128175   2.578   0.758   8.381  0.2400 -1.6039 -1.4406
 5513SOL    HW228176   2.457   0.735   8.451  0.4650  0.1980 -0.9740
 5514SOL     OW28177   0.973   1.667  10.372  0.1081  0.8822  1.1404
 5514SOL    HW128178   1.043   1.604  10.351  0.0249  0.9718  0.5993
 5514SOL    HW228179   0.899   1.611  10.350 -0.0259  1.3481  0.4370
 5515SOL     OW28180   1.941   0.364   1.515 -0.0581  0.4730 -0.4855
 5515SOL    HW128181   1.991   0.380   1.435  1.6858 -0.0786  0.4985
 5515SOL    HW228182   1.986   0.422   1.577  0.5123 -0.8530  0.3354
 5516SOL     OW28183   2.125   2.206  16.278  0.0360 -0.1550 -0.1191
 5516SOL    HW128184   2.100   2.186  16.368  1.0564 -0.8112  0.0173
 5516SOL    HW228185   2.195   2.269  16.296  0.6631 -0.7964 -0.3436
 5517SOL     OW28186   0.018   0.631   3.974  0.2956 -0.4581 -0.2554
 5517SOL    HW128187   0.087   0.661   4.033 -1.6927 -1.9993  2.8547
 5517SOL    HW228188   4.674   0.655   4.014  0.8453 -0.1188  0.6764
 5518SOL     OW28189   1.625   4.364   5.689 -0.1192 -0.0828  0.1368
 5518SOL    HW128190   1.680   4.423   5.741 -0.0038  0.9830 -1.1828
 5518SOL    HW228191   1.534   4.393   5.698 -0.7366 -1.8067 -0.7018
 5519SOL     OW28192   1.499   0.245   8.852  0.1623 -0.5865 -0.3484
 5519SOL    HW128193   1.534   0.322   8.898 -1.9818  0.4541 -0.4765
 5519SOL    HW228194   1.436   0.295   8.799  1.3441 -1.7160 -2.8463
 5520SOL     OW28195   2.678   4.469   3.202 -0.6076 -0.0757 -0.3742
 5520SOL    HW128196   2.721   4.543   3.159 -1.9703  2.7883  3.2310
 5520SOL    HW228197   2.705   4.396   3.146 -0.6255 -0.7481  0.5050
 5521SOL     OW28198   3.711   4.633   4.096  0.1428 -0.0150  0.1850
 5521SOL    HW128199   3.661   4.556   4.066  2.7542 -0.8722 -2.0238
 5521SOL    HW228200   3.644   4.666   4.155 -0.0524  0.1951 -0.1533
 5522SOL     OW28201   3.925   1.769  13.324  0.1906 -0.5145 -0.4197
 5522SOL    HW128202   3.934   1.807  13.411  1.7452  0.3950 -0.9676
 5522SOL    HW228203   3.849   1.712  13.336 -0.4198  0.3135 -0.3394
 5523SOL     OW28204   0.304   1.462   4.830 -0.0705  0.0001 -0.3704
 5523SOL    HW128205   0.277   1.549   4.858  0.6246  0.2705 -0.5296
 5523SOL    HW228206   0.375   1.450   4.893 -2.3262  1.4817  2.4804
 5524SOL     OW28207   2.350   3.768   2.122 -0.4485 -0.0764  0.0230
 5524SOL    HW128208   2.402   3.832   2.073  0.7767 -0.1287  1.2576
 5524SOL    HW228209   2.423   3.732   2.173 -0.2554  2.2185  1.3541
 5525SOL     OW28210   0.898   4.355   1.580 -0.1000  0.1464 -0.5160
 5525SOL    HW128211   0.915   4.328   1.490  1.0907 -0.1551 -0.1986
 5525SOL    HW228212   0.959   4.294   1.623 -0.5781 -0.0948 -0.1780
 5526SOL     OW28213   3.738   4.549  11.676 -0.1230 -0.0142  0.3199
 5526SOL    HW128214   3.740   4.516  11.766 -1.5984 -1.8835 -0.3397
 5526SOL    HW228215   3.811   4.497  11.641 -0.3445 -0.8105  1.0435
 5527SOL     OW28216   2.069   2.008  12.640  0.0931 -0.0760 -0.2058
 5527SOL    HW128217   2.139   2.008  12.706 -0.6068 -2.9524  0.5397
 5527SOL    HW228218   2.064   2.103  12.637  1.8268  0.0987  1.7507
 5528SOL     OW28219   2.818   4.493   6.910 -0.0455 -0.3795  0.0835
 5528SOL    HW128220   2.800   4.570   6.964  0.1481  0.8709 -1.6415
 5528SOL    HW228221   2.835   4.423   6.974 -0.6375 -0.7747 -0.1941
 5529SOL     OW28222   3.459   1.008   7.190  0.2778  0.3519 -0.1365
 5529SOL    HW128223   3.483   0.923   7.154  1.4770  0.5107  0.2604
 5529SOL    HW228224   3.367   0.997   7.214  0.9257 -1.8503  1.3782
 5530SOL     OW28225   2.800   1.312  14.347 -0.1286 -0.2767 -0.1916
 5530SOL    HW128226   2.750   1.361  14.412  0.5860 -0.4285  0.4806
 5530SOL    HW228227   2.733   1.299  14.280  0.4303  1.6826 -1.1195
 5531SOL     OW28228   1.137   3.103  10.012  0.0110  0.1606  0.0667
 5531SOL    HW128229   1.221   3.143   9.993 -0.4913  0.7180 -1.0235
 5531SOL    HW228230   1.089   3.170  10.060 -1.1478  0.2441 -1.1921
 5532SOL     OW28231   3.151   0.980   8.396  0.9327  0.5063 -0.4140
 5532SOL    HW128232   3.079   0.951   8.453 -0.0791  0.3704 -1.7559
 5532SOL    HW228233   3.104   1.026   8.327  0.2734  0.3308 -0.0911
 5533SOL     OW28234   4.631   3.422   8.655 -0.5437  0.1897 -0.2787
 5533SOL    HW128235   4.621   3.327   8.653  0.6850  0.0453  0.7333
 5533SOL    HW228236   4.688   3.430   8.578  0.0805 -0.8969  0.0746
 5534SOL     OW28237   3.104   4.438   8.707  0.6817  0.2930  0.6889
 5534SOL    HW128238   3.033   4.493   8.739  0.5524 -0.8843  2.4320
 5534SOL    HW228239   3.054   4.356   8.705  1.2469 -0.0298 -0.4403
 5535SOL     OW28240   3.207   2.034   4.363  0.3834 -0.2498  0.1108
 5535SOL    HW128241   3.144   2.057   4.431  0.4932 -1.4036  0.6070
 5535SOL    HW228242   3.286   2.017   4.414 -0.6330 -0.4293  1.6114
 5536SOL     OW28243   1.167   0.479  17.104 -0.2070  0.2667 -0.2107
 5536SOL    HW128244   1.248   0.467  17.153  1.2449  0.8911 -2.5252
 5536SOL    HW228245   1.121   0.543  17.159 -1.6688  0.7878 -2.0496
 5537SOL     OW28246   3.764   3.495   6.911 -0.4719 -0.3711 -0.1359
 5537SOL    HW128247   3.711   3.575   6.911  0.8103  0.5010 -1.7127
 5537SOL    HW228248   3.813   3.522   6.833 -0.3191  0.9071  0.4007
 5538SOL     OW28249   4.671   1.976   5.843 -0.1699 -0.4487 -0.3026
 5538SOL    HW128250   4.648   2.049   5.900 -0.9911 -0.6589 -0.3690
 5538SOL    HW228251   4.692   2.022   5.761 -5.7030 -2.3544 -2.7501
 5539SOL     OW28252   2.417   3.579   5.224  0.2017  0.1584 -0.3487
 5539SOL    HW128253   2.344   3.626   5.265  0.0794 -1.2296  1.0178
 5539SOL    HW228254   2.486   3.644   5.235  0.0663  0.1746  0.4236
 5540SOL     OW28255   2.126   3.031   6.088  0.0006  0.1956  0.2098
 5540SOL    HW128256   2.052   2.970   6.086  0.6090 -0.6678  4.4728
 5540SOL    HW228257   2.120   3.071   6.175 -3.0292  0.2155 -0.0149
 5541SOL     OW28258   2.957   1.061   0.767  0.3397  0.2865 -0.2027
 5541SOL    HW128259   2.974   0.981   0.818 -0.2603  0.4479  0.2395
 5541SOL    HW228260   2.955   1.126   0.836 -1.6416  0.0943 -0.0830
 5542SOL     OW28261   1.423   1.087   4.654 -0.4633 -0.3874 -0.5271
 5542SOL    HW128262   1.408   1.172   4.695 -0.1365 -1.8929  2.7066
 5542SOL    HW228263   1.408   1.033   4.732 -0.9402  0.6967  0.1367
 5543SOL     OW28264   0.017   2.922   8.933  0.5399  0.2314 -0.0330
 5543SOL    HW128265   0.101   2.876   8.927  0.1096 -0.0146 -3.8038
 5543SOL    HW228266   0.024   2.946   9.026  0.3722 -0.7307  0.2291
 5544SOL     OW28267   1.594   0.024   6.038 -0.5554 -0.1269  0.2929
 5544SOL    HW128268   1.678   0.022   5.992 -0.5512 -2.0915  0.3925
 5544SOL    HW228269   1.521   0.024   5.976 -1.2546  1.7202  1.1271
 5545SOL     OW28270   4.687   0.121   6.017  0.3576  0.1789  0.1844
 5545SOL    HW128271   0.023   0.108   6.074  1.9255  0.4447 -1.8066
 5545SOL    HW228272   4.686   0.213   5.990 -1.4339 -0.6833 -2.7338
 5546SOL     OW28273   4.668   4.174   1.888 -0.2280  0.2255 -0.0714
 5546SOL    HW128274   0.008   4.166   1.941  0.7599 -1.3045 -1.7829
 5546SOL    HW228275   4.641   4.083   1.877  1.6548 -0.6686  2.6806
 5547SOL     OW28276   2.849   4.719   3.417 -0.2971  0.4910  0.1661
 5547SOL    HW128277   2.785   4.648   3.422 -0.4126  0.4579 -1.6146
 5547SOL    HW228278   2.881   4.722   3.327 -1.9763  0.4159 -0.4196
 5548SOL     OW28279   1.891   0.272   2.271 -0.4082  0.0935 -0.7186
 5548SOL    HW128280   1.846   0.271   2.356  1.1948 -3.4504  0.0932
 5548SOL    HW228281   1.856   0.192   2.231 -1.3914 -0.4488  1.1962
 5549SOL     OW28282   3.136   3.810   7.538  0.0818  0.5657 -0.4544
 5549SOL    HW128283   3.054   3.760   7.537 -0.1702  0.8780  2.0303
 5549SOL    HW228284   3.105   3.895   7.572  1.9847 -0.4371  3.8360
 5550SOL     OW28285   3.786   2.197   5.151 -0.8210 -0.0395  0.0575
 5550SOL    HW128286   3.820   2.204   5.061 -1.1100  1.4079  0.0541
 5550SOL    HW228287   3.722   2.268   5.157 -0.9018 -0.3046  2.2120
 5551SOL     OW28288   0.592   2.866   8.295 -0.5186 -0.3153 -0.3939
 5551SOL    HW128289   0.577   2.802   8.226  1.9121 -0.2475 -0.9922
 5551SOL    HW228290   0.514   2.922   8.297 -1.0095 -1.0378  0.2604
 5552SOL     OW28291   2.549   4.317   5.284  0.0586 -0.2647  0.4681
 5552SOL    HW128292   2.521   4.304   5.374  0.0281  2.1200  0.8133
 5552SOL    HW228293   2.554   4.413   5.285  1.0361 -0.2617 -2.8025
 5553SOL     OW28294   0.070   3.474   1.613  0.4884 -0.5301 -0.3751
 5553SOL    HW128295   0.125   3.531   1.667  0.6544 -1.3856  0.3569
 5553SOL    HW228296   0.015   3.539   1.569  0.4199  0.0305  0.5165
 5554SOL     OW28297   2.744   3.163   7.930  0.8834 -0.5138 -0.4049
 5554SOL    HW128298   2.661   3.203   7.956  0.8485 -0.0060 -1.2885
 5554SOL    HW228299   2.716   3.078   7.897 -2.3418  0.1684  0.6165
 5555SOL     OW28300   1.215   4.341   8.829 -0.4216  0.3845 -0.4091
 5555SOL    HW128301   1.237   4.409   8.765  0.7105 -0.0038 -0.4379
 5555SOL    HW228302   1.144   4.299   8.780 -0.2174  0.1106 -0.4670
 5556SOL     OW28303   1.420   1.749   2.804 -0.1012  0.5693  0.2858
 5556SOL    HW128304   1.467   1.691   2.744 -0.8648  0.7905 -0.5108
 5556SOL    HW228305   1.488   1.810   2.832 -0.5610  0.3167  1.9632
 5557SOL     OW28306   3.974   1.990   4.095  0.1956 -0.0998 -0.6193
 5557SOL    HW128307   4.041   2.005   4.161 -0.4504  0.3673 -0.0690
 5557SOL    HW228308   4.000   2.055   4.030  1.7870 -0.6095 -0.4849
 5558SOL     OW28309   0.716   0.251   5.834 -0.0975  0.3031 -0.1886
 5558SOL    HW128310   0.738   0.180   5.774 -2.3349  0.2236 -0.9225
 5558SOL    HW228311   0.652   0.310   5.793 -0.9354 -0.1428  0.4875
 5559SOL     OW28312   1.776   4.324   1.137  0.1900 -0.2888  0.0592
 5559SOL    HW128313   1.848   4.264   1.160  0.0702 -0.9142 -1.2069
 5559SOL    HW228314   1.762   4.316   1.043  0.2502 -0.9862  0.1075
 5560SOL     OW28315   3.419   1.329   5.909 -0.2456 -0.0507 -0.4534
 5560SOL    HW128316   3.406   1.299   5.999 -1.0749  1.5223 -0.0538
 5560SOL    HW228317   3.513   1.309   5.902 -0.2140 -0.1107  0.1349
 5561SOL     OW28318   4.267   2.927   6.783  0.3276 -0.0409 -0.0860
 5561SOL    HW128319   4.229   2.875   6.713  0.5999 -1.7132  1.0153
 5561SOL    HW228320   4.243   2.866   6.853  0.3139 -0.8590 -0.8038
 5562SOL     OW28321   1.579   3.020  15.719 -0.4189 -0.4556  0.5448
 5562SOL    HW128322   1.540   2.934  15.735  0.0362 -1.0437 -1.5748
 5562SOL    HW228323   1.647   3.033  15.785 -0.4279  0.7217  0.3084
 5563SOL     OW28324   3.671   0.515   0.300 -0.2139 -0.0448  0.4077
 5563SOL    HW128325   3.627   0.525   0.384  1.7339 -1.6631  1.6478
 5563SOL    HW228326   3.760   0.515   0.336  0.1543 -1.7377 -0.4985
 5564SOL     OW28327   0.638   2.127   4.752 -0.2552  0.5192  0.3022
 5564SOL    HW128328   0.615   2.100   4.841 -0.5885 -0.9852 -0.2560
 5564SOL    HW228329   0.730   2.148   4.771  0.1960  0.0160 -1.3035
 5565SOL     OW28330   4.011   1.678   2.686 -0.1234  0.3703 -0.0719
 5565SOL    HW128331   4.095   1.634   2.672 -0.8810 -0.2523 -2.6109
 5565SOL    HW228332   4.025   1.704   2.777  0.6326 -0.7594  0.1396
 5566SOL     OW28333   1.245   0.576  13.979 -0.4240 -0.4615 -0.0175
 5566SOL    HW128334   1.182   0.604  13.913  1.1104 -1.7717 -2.0305
 5566SOL    HW228335   1.308   0.523  13.931 -1.1620 -0.2406 -1.2052
 5567SOL     OW28336   1.036   3.921   8.808  0.2625  0.6481  0.1291
 5567SOL    HW128337   1.130   3.911   8.799  0.2828  0.6201  0.3914
 5567SOL    HW228338   1.021   3.963   8.723 -1.4251 -1.5196 -0.6573
 5568SOL     OW28339   3.274   2.783   7.760  0.3588  1.1551 -0.5967
 5568SOL    HW128340   3.348   2.725   7.742  0.1058  0.7497 -0.3269
 5568SOL    HW228341   3.203   2.745   7.708 -0.3567  2.5703 -0.6502
 5569SOL     OW28342   1.096   1.285   5.560 -0.0080  0.7632 -0.8408
 5569SOL    HW128343   1.021   1.245   5.603 -0.2470  1.4098 -0.6481
 5569SOL    HW228344   1.129   1.346   5.626  1.3930 -0.7833 -0.1437
 5570SOL     OW28345   3.710   4.065   3.741  0.1587 -0.6702  0.0604
 5570SOL    HW128346   3.763   3.986   3.752  0.0252 -0.2798  3.4531
 5570SOL    HW228347   3.646   4.039   3.675  0.9617  1.4758 -1.5557
 5571SOL     OW28348   3.514   4.462   5.275  0.0697  0.6185  0.1094
 5571SOL    HW128349   3.501   4.445   5.182 -0.8933 -0.4454  0.4376
 5571SOL    HW228350   3.512   4.371   5.305  0.9718  0.7551  0.5835
 5572SOL     OW28351   2.600   0.499   3.458 -0.5946 -0.8407 -0.5831
 5572SOL    HW128352   2.535   0.436   3.488  1.7979 -2.6339  0.7613
 5572SOL    HW228353   2.603   0.481   3.364  0.0946 -0.8947 -0.5509
 5573SOL     OW28354   1.636   3.442   3.167 -0.1813  0.5715 -0.0386
 5573SOL    HW128355   1.592   3.358   3.176  0.2442  0.4508  0.9690
 5573SOL    HW228356   1.606   3.462   3.078 -1.0715  0.4493  0.2339
 5574SOL     OW28357   1.373   0.240  14.884  0.5427  0.2120  0.6117
 5574SOL    HW128358   1.446   0.247  14.946 -0.1522  0.9617  1.3355
 5574SOL    HW228359   1.317   0.315  14.903  0.8673 -0.1799  3.0565
 5575SOL     OW28360   3.285   4.449  10.281 -0.3127 -0.4593  0.0404
 5575SOL    HW128361   3.335   4.379  10.238 -0.0456 -1.0575  1.3112
 5575SOL    HW228362   3.333   4.527  10.255 -1.6810 -0.3306 -2.0566
 5576SOL     OW28363   1.302   4.560   3.848  0.7687 -0.4238  0.7496
 5576SOL    HW128364   1.246   4.539   3.773 -0.3960  2.6131  0.7746
 5576SOL    HW228365   1.245   4.603   3.912  0.2922  0.6709 -0.4028
 5577SOL     OW28366   1.112   0.112   7.528 -0.1265  0.7021  0.4579
 5577SOL    HW128367   1.095   0.207   7.524  0.5841  0.9299  2.5529
 5577SOL    HW228368   1.172   0.107   7.603  2.2869 -1.0706 -1.5724
 5578SOL     OW28369   0.689   4.039   1.558  0.3946 -0.1106  0.1260
 5578SOL    HW128370   0.742   4.024   1.479  0.8439 -1.7424  0.7225
 5578SOL    HW228371   0.664   3.949   1.583 -1.2934  0.7374  1.4778
 5579SOL     OW28372   1.009   2.451  16.899 -0.1025  0.1548 -0.0298
 5579SOL    HW128373   1.103   2.433  16.897 -0.3023 -0.9411  0.8149
 5579SOL    HW228374   0.976   2.378  16.951  1.8393 -0.4267  0.3887
 5580SOL     OW28375   2.781   0.004  16.719 -0.5389 -0.3748 -0.2181
 5580SOL    HW128376   2.718   0.076  16.710 -0.7962 -0.3990  1.5552
 5580SOL    HW228377   2.809   4.728  16.628  2.6483 -0.8481  0.8517
 5581SOL     OW28378   0.417   0.991   7.058 -0.2931  0.0964  0.7098
 5581SOL    HW128379   0.499   0.946   7.038 -1.8244 -1.0624 -2.9470
 5581SOL    HW228380   0.402   0.949   7.143  0.5348  1.3534  1.4778
 5582SOL     OW28381   3.662   2.755  16.645 -0.1582 -0.2214  0.2734
 5582SOL    HW128382   3.737   2.813  16.639 -1.9760  2.1169  0.1820
 5582SOL    HW228383   3.583   2.809  16.641 -0.1230 -0.1552  0.5302
 5583SOL     OW28384   3.866   3.112   3.313  0.1759  0.1608 -0.2203
 5583SOL    HW128385   3.854   3.206   3.327  1.0222  0.4128 -1.2376
 5583SOL    HW228386   3.889   3.112   3.220 -1.1920  0.1089 -0.5648
 5584SOL     OW28387   2.518   0.085   0.496  0.3810 -0.3054 -0.8120
 5584SOL    HW128388   2.563   0.005   0.471 -1.4108 -1.9600  1.3291
 5584SOL    HW228389   2.441   0.064   0.443 -0.8992 -0.3259  1.0522
 5585SOL     OW28390   0.384   3.934   8.299 -0.0455  0.5339  0.5997
 5585SOL    HW128391   0.334   3.852   8.298 -0.6602  0.8722  3.4877
 5585SOL    HW228392   0.368   3.975   8.214 -0.7703 -1.3663 -0.1842
 5586SOL     OW28393   1.253   1.549   5.003 -0.4211 -0.0712 -0.1926
 5586SOL    HW128394   1.237   1.594   5.086 -0.6574 -0.1978 -0.1684
 5586SOL    HW228395   1.191   1.602   4.952 -0.4916 -0.8042 -0.8722
 5587SOL     OW28396   4.719   2.975   6.958 -0.0476 -0.1930 -0.3566
 5587SOL    HW128397   0.073   2.995   6.961 -0.5444  1.7500  2.4594
 5587SOL    HW228398   4.709   2.914   7.031  1.3523 -0.0438 -0.0414
 5588SOL     OW28399   4.288   4.187   4.109  0.0956  0.2460  0.5296
 5588SOL    HW128400   4.282   4.218   4.200  1.9983  1.1612  0.3505
 5588SOL    HW228401   4.326   4.100   4.120 -0.4198 -0.4480 -3.1034
 5589SOL     OW28402   2.797   0.551  15.626  0.4345 -0.5635  0.3963
 5589SOL    HW128403   2.817   0.625  15.569  0.9950  0.2819  1.6900
 5589SOL    HW228404   2.725   0.587  15.678  0.2434  0.1405 -0.3548
 5590SOL     OW28405   1.160   2.153   2.435  0.3295  0.3940 -0.2102
 5590SOL    HW128406   1.112   2.081   2.395  0.8960  0.0269 -0.2168
 5590SOL    HW228407   1.238   2.165   2.381  0.0400  0.8445 -0.5329
 5591SOL     OW28408   3.384   0.634   3.568 -0.5382 -0.1071 -0.4924
 5591SOL    HW128409   3.439   0.558   3.553  0.4201  0.2598  1.1656
 5591SOL    HW228410   3.333   0.611   3.645 -1.1952 -0.5355 -1.0546
 5592SOL     OW28411   1.735   2.970  12.619  0.2200 -0.5216 -0.6002
 5592SOL    HW128412   1.813   2.988  12.670  0.1186 -2.1509  0.1407
 5592SOL    HW228413   1.715   3.058  12.587 -1.7709 -1.1574 -1.1162
 5593SOL     OW28414   4.650   2.481   8.497 -0.7222  0.1383  0.4274
 5593SOL    HW128415   4.564   2.486   8.456  0.7087  1.8922 -2.2815
 5593SOL    HW228416   4.699   2.424   8.439  1.0208  0.8732  1.1772
 5594SOL     OW28417   2.546   0.107  16.480  0.1666  0.0901 -0.2375
 5594SOL    HW128418   2.563   0.182  16.537  2.1491 -1.1882  0.8473
 5594SOL    HW228419   2.513   0.045  16.546  0.2227 -0.3103 -0.5825
 5595SOL     OW28420   2.035   4.564   2.454 -0.1438  0.1074 -0.0587
 5595SOL    HW128421   1.995   4.512   2.523 -0.9240 -0.1616 -0.7245
 5595SOL    HW228422   2.025   4.508   2.378 -1.4413  0.1161  0.1084
 5596SOL     OW28423   0.242   1.317   1.991  0.2181 -0.3633 -0.3148
 5596SOL    HW128424   0.232   1.226   1.962 -0.1780 -0.9486  1.6618
 5596SOL    HW228425   0.242   1.308   2.086  1.1341  2.2609 -0.0671
 5597SOL     OW28426   1.923   4.019   7.285 -0.0416 -0.5230 -0.6329
 5597SOL    HW128427   2.011   4.035   7.319 -0.7118 -1.0887  1.3437
 5597SOL    HW228428   1.920   3.924   7.295  1.1421 -0.3320  1.4912
 5598SOL     OW28429   4.319   0.734  14.552  0.0852 -0.6025  0.1956
 5598SOL    HW128430   4.234   0.739  14.509  0.5754 -1.7127 -0.9181
 5598SOL    HW228431   4.372   0.783  14.489 -2.0340  0.9944 -0.3308
 5599SOL     OW28432   0.236   2.376  12.543  0.2893 -0.2162  0.1155
 5599SOL    HW128433   0.252   2.468  12.519 -2.2835  0.0051 -0.8059
 5599SOL    HW228434   0.145   2.392  12.567 -0.6102 -1.1684 -2.5894
 5600SOL     OW28435   3.796   1.582  12.992  0.5133 -1.0214  0.1588
 5600SOL    HW128436   3.770   1.522  12.923 -0.7224  0.6213 -0.7881
 5600SOL    HW228437   3.870   1.630  12.954 -0.3505  1.4062  1.5604
 5601SOL     OW28438   2.602   2.771   4.888 -0.2646 -0.0257 -0.6295
 5601SOL    HW128439   2.539   2.780   4.959  1.1333  1.8809  0.3644
 5601SOL    HW228440   2.586   2.861   4.859 -0.5770  0.4392  1.0262
 5602SOL     OW28441   3.081   1.089   6.285 -0.0633 -0.2824 -0.5889
 5602SOL    HW128442   3.045   1.047   6.363  1.2368 -0.7265 -0.2156
 5602SOL    HW228443   3.174   1.094   6.308  0.3110 -0.2226 -2.1462
 5603SOL     OW28444   3.193   3.195  14.624 -0.5878 -0.4798 -0.3549
 5603SOL    HW128445   3.189   3.101  14.645 -0.1936 -0.6153 -0.8957
 5603SOL    HW228446   3.287   3.211  14.633 -0.0471 -2.2564 -2.6553
 5604SOL     OW28447   1.017   0.195   4.194 -0.5540 -0.0151 -0.0999
 5604SOL    HW128448   1.049   0.241   4.272  1.5987 -1.2586 -0.2529
 5604SOL    HW228449   1.042   0.259   4.127 -0.1246 -0.4214 -0.3218
 5605SOL     OW28450   0.778   2.882   1.775  0.7856 -0.3648 -0.1215
 5605SOL    HW128451   0.764   2.890   1.680  3.2922  0.3584 -0.4345
 5605SOL    HW228452   0.694   2.918   1.802  0.3662 -0.3465 -1.4461
 5606SOL     OW28453   1.893   4.442   7.248 -0.1006 -0.2380  0.4533
 5606SOL    HW128454   1.973   4.434   7.299  0.8528 -1.0258 -1.1687
 5606SOL    HW228455   1.873   4.530   7.281  1.4806 -0.5906  2.3335
 5607SOL     OW28456   1.161   0.151  16.180 -0.2316  0.6290  0.0031
 5607SOL    HW128457   1.178   0.081  16.117 -0.0240  0.6164  0.0734
 5607SOL    HW228458   1.236   0.148  16.240 -0.7411  1.4258  0.6750
 5608SOL     OW28459   2.321   4.000   1.517 -0.2562  0.5720  0.1179
 5608SOL    HW128460   2.282   3.955   1.592  1.6352 -2.0781 -0.4903
 5608SOL    HW228461   2.245   4.026   1.465 -1.1461 -2.2142  0.0617
 5609SOL     OW28462   0.273   0.411   4.356  0.3234 -0.0277 -0.4477
 5609SOL    HW128463   0.325   0.360   4.418 -0.3393 -1.5225 -1.1240
 5609SOL    HW228464   0.212   0.341   4.333  0.1145 -0.8660  2.6699
 5610SOL     OW28465   4.400   1.618  16.239  0.2095  0.2073 -0.0013
 5610SOL    HW128466   4.348   1.682  16.287  0.3497  1.8724 -2.0567
 5610SOL    HW228467   4.483   1.662  16.226  0.9779 -1.6620 -1.4141
 5611SOL     OW28468   3.374   2.740   4.973 -0.3585  0.2412 -0.0523
 5611SOL    HW128469   3.323   2.820   4.987  0.5374  0.6130  1.0817
 5611SOL    HW228470   3.448   2.762   5.030  1.5508 -1.1184 -2.0471
 5612SOL     OW28471   2.219   2.870   9.504 -0.5108 -0.4885 -0.1693
 5612SOL    HW128472   2.301   2.826   9.525  0.2205  0.7725 -0.3953
 5612SOL    HW228473   2.238   2.963   9.514 -0.0962 -0.3785 -1.9496
 5613SOL     OW28474   0.480   3.440  10.587 -0.7548  0.0410 -0.0364
 5613SOL    HW128475   0.460   3.489  10.667 -1.9924  0.8696 -0.8503
 5613SOL    HW228476   0.408   3.473  10.533 -1.2094  0.2719  0.7101
 5614SOL     OW28477   2.170   3.898   6.018 -0.6065 -0.5234 -0.6043
 5614SOL    HW128478   2.129   3.905   6.104  0.5148  1.5952 -0.2396
 5614SOL    HW228479   2.145   3.986   5.990  3.0509  1.3400  1.9552
 5615SOL     OW28480   2.231   0.233  12.826  0.2176 -0.1176  0.4119
 5615SOL    HW128481   2.292   0.278  12.768  2.3407 -3.9873 -0.3889
 5615SOL    HW228482   2.160   0.217  12.764  1.3896 -1.5767 -0.5391
 5616SOL     OW28483   2.186   3.218   3.193  0.8333  0.1183 -0.0983
 5616SOL    HW128484   2.211   3.160   3.121 -2.4082  1.6520 -2.4424
 5616SOL    HW228485   2.183   3.155   3.266  0.5335  0.2444 -0.0012
 5617SOL     OW28486   1.459   0.592   4.020  0.1665 -0.2479 -0.4755
 5617SOL    HW128487   1.395   0.662   4.007 -0.5171 -1.0986 -1.6947
 5617SOL    HW228488   1.454   0.551   4.106 -0.2122  0.8479  0.0198
 5618SOL     OW28489   4.359   1.193   2.321  0.0787  0.8416 -0.6358
 5618SOL    HW128490   4.301   1.229   2.388  0.5665  0.5132 -0.0334
 5618SOL    HW228491   4.331   1.247   2.247 -1.3461  1.2371  0.1974
 5619SOL     OW28492   2.006   3.040   5.736  0.2512 -0.9496 -0.4125
 5619SOL    HW128493   2.035   2.962   5.784  0.5744 -1.0382 -0.7534
 5619SOL    HW228494   1.938   3.006   5.677 -0.1354  0.4271 -0.7446
 5620SOL     OW28495   1.236   0.858   3.046 -0.2790  0.0299  0.6828
 5620SOL    HW128496   1.198   0.946   3.048  0.7397  0.5153 -1.6348
 5620SOL    HW228497   1.325   0.883   3.020 -0.2990 -0.2914  0.3188
 5621SOL     OW28498   4.266   4.047  16.210  0.5774 -0.1076  0.5145
 5621SOL    HW128499   4.311   4.033  16.127  0.9629 -1.7365  1.0017
 5621SOL    HW228500   4.345   4.026  16.260  1.9511  2.9653 -0.3942
 5622SOL     OW28501   4.447   1.617   8.466 -0.0736 -0.4230 -0.2363
 5622SOL    HW128502   4.397   1.587   8.542  0.4303 -1.6180 -0.3822
 5622SOL    HW228503   4.493   1.689   8.510 -0.9993  0.5081 -0.7937
 5623SOL     OW28504   1.065   0.458   8.611 -0.0829 -0.8293 -0.5904
 5623SOL    HW128505   0.975   0.453   8.642 -0.1261  0.7436 -0.4430
 5623SOL    HW228506   1.056   0.541   8.565  2.5308  1.2053  2.5230
 5624SOL     OW28507   0.108   2.721  13.246  0.1226 -0.2443 -0.1293
 5624SOL    HW128508   0.041   2.788  13.235 -0.3493 -0.7158 -0.1130
 5624SOL    HW228509   0.180   2.777  13.216 -1.5483  1.6327 -0.5493
 5625SOL     OW28510   2.552   2.676   1.249 -0.2133 -0.0454  0.3746
 5625SOL    HW128511   2.563   2.590   1.288 -0.2861  0.4607  1.4922
 5625SOL    HW228512   2.503   2.647   1.172 -1.0494  0.3139  0.7737
 5626SOL     OW28513   1.146   4.275  12.865 -0.7415  0.2952 -1.1270
 5626SOL    HW128514   1.137   4.289  12.771 -1.3883 -0.3491 -1.1631
 5626SOL    HW228515   1.220   4.332  12.885 -3.8957  3.0967  2.4179
 5627SOL     OW28516   4.128   0.379   2.871 -0.1243 -0.4929  0.3811
 5627SOL    HW128517   4.137   0.384   2.776  1.4717  0.6304  0.5846
 5627SOL    HW228518   4.179   0.302   2.897  1.7687  0.2877 -1.0301
 5628SOL     OW28519   1.810   1.201   7.883  0.1091  0.4914 -0.1944
 5628SOL    HW128520   1.777   1.290   7.870  0.2471  0.3826 -1.3391
 5628SOL    HW228521   1.751   1.143   7.834  0.0369  2.1092 -2.0080
 5629SOL     OW28522   3.903   4.637  12.476  0.4055 -0.1068  0.3655
 5629SOL    HW128523   3.929   4.604  12.562 -3.8676  1.2616  2.1479
 5629SOL    HW228524   3.974   4.701  12.474  0.1007  0.2453  1.4237
 5630SOL     OW28525   1.549   4.213   5.481 -0.1762  0.0158  0.2532
 5630SOL    HW128526   1.592   4.259   5.553 -0.0684 -1.2318  0.9907
 5630SOL    HW228527   1.485   4.169   5.536 -0.3886  0.2725  0.2105
 5631SOL     OW28528   0.935   2.241   7.184 -0.3968  0.8570  0.0044
 5631SOL    HW128529   0.928   2.309   7.117 -1.7612 -1.0105 -1.7626
 5631SOL    HW228530   0.998   2.174   7.156 -3.0062 -0.9993 -1.4863
 5632SOL     OW28531   0.281   1.689  14.703 -0.0314 -0.2637  0.0183
 5632SOL    HW128532   0.360   1.723  14.745  0.2649  0.1310 -0.8383
 5632SOL    HW228533   0.210   1.747  14.730  1.5367  1.2903  0.8362
 5633SOL     OW28534   1.765   0.401   7.909  0.3318  0.7970  0.7437
 5633SOL    HW128535   1.742   0.493   7.913  1.7451  1.1409  0.9413
 5633SOL    HW228536   1.853   0.403   7.947  0.4246 -0.9995  0.6192
 5634SOL     OW28537   1.371   4.321   6.351 -0.1136  0.2751 -0.1990
 5634SOL    HW128538   1.399   4.304   6.261  1.0220 -1.5018  0.4970
 5634SOL    HW228539   1.445   4.294   6.404 -1.1597 -0.2962  0.9732
 5635SOL     OW28540   2.804   2.672   6.143  0.5660  0.0257  0.0837
 5635SOL    HW128541   2.724   2.692   6.192  0.1754  0.3169 -0.6780
 5635SOL    HW228542   2.778   2.682   6.052 -2.1037  0.8961  0.9391
 5636SOL     OW28543   3.840   4.361   3.547 -0.2767 -0.2597 -0.2748
 5636SOL    HW128544   3.885   4.443   3.528 -1.4142  1.1572  3.1318
 5636SOL    HW228545   3.835   4.326   3.458  0.2735 -0.6077 -0.1682
 5637SOL     OW28546   0.399   2.985   9.551 -0.0525 -0.4279 -0.3919
 5637SOL    HW128547   0.428   2.984   9.460 -1.7634  0.8798 -0.9691
 5637SOL    HW228548   0.478   3.026   9.585  0.0015 -1.3985  0.6399
 5638SOL     OW28549   1.986   2.640   5.866 -0.0162 -0.0919  0.2872
 5638SOL    HW128550   1.995   2.556   5.821  4.1030  0.5795 -0.1157
 5638SOL    HW228551   1.892   2.655   5.854  0.1899  2.5457  1.8421
 5639SOL     OW28552   1.706   0.394   7.032 -0.5355 -0.0648  0.1102
 5639SOL    HW128553   1.731   0.456   6.964  0.2066 -1.8422 -1.2341
 5639SOL    HW228554   1.684   0.462   7.096 -3.3304  0.9599 -1.9071
 5640SOL     OW28555   0.958   3.052   9.814 -0.1133 -0.4966  0.7257
 5640SOL    HW128556   0.905   3.051   9.893 -1.2417  0.5102 -0.0297
 5640SOL    HW228557   1.041   3.066   9.860 -2.3671 -2.2101  5.2034
 5641SOL     OW28558   2.447   0.995   7.115  0.2526  0.0100  0.1364
 5641SOL    HW128559   2.382   1.049   7.070 -1.8272 -0.5198  2.5731
 5641SOL    HW228560   2.388   0.926   7.144 -1.6478  0.8141 -1.7830
 5642SOL     OW28561   3.703   4.214   8.946  0.1156  0.0829  0.5232
 5642SOL    HW128562   3.663   4.295   8.979 -1.0666 -0.5185  0.5882
 5642SOL    HW228563   3.698   4.157   9.023  0.2447  1.4762  1.5556
 5643SOL     OW28564   3.421   3.456  10.461  0.4968 -0.0945 -0.1316
 5643SOL    HW128565   3.469   3.381  10.497 -1.4712 -0.5486  1.5653
 5643SOL    HW228566   3.391   3.489  10.546 -0.0785 -1.7332  0.3060
 5644SOL     OW28567   1.711   2.472   8.013  0.5004  0.1563 -0.5392
 5644SOL    HW128568   1.657   2.433   8.082 -0.9659 -2.3734 -3.0774
 5644SOL    HW228569   1.650   2.542   7.990 -0.9540 -1.3812 -1.4219
 5645SOL     OW28570   0.922   4.513  10.315 -0.2740 -0.7033  0.2800
 5645SOL    HW128571   0.918   4.608  10.322  0.8318 -0.8833  3.5419
 5645SOL    HW228572   1.014   4.501  10.340  0.2811  2.6252 -0.2588
 5646SOL     OW28573   0.988   4.684   2.796  0.6673  1.0991  0.0804
 5646SOL    HW128574   0.902   4.642   2.803  1.0091 -0.1040 -3.3262
 5646SOL    HW228575   0.964   0.029   2.756  1.3803  1.5524  0.6055
 5647SOL     OW28576   1.601   0.022   6.740  0.4282  0.3895 -1.0094
 5647SOL    HW128577   1.647   4.677   6.732  0.3360  0.0656  1.8644
 5647SOL    HW228578   1.679   0.076   6.752  0.2697  0.3282  0.3268
 5648SOL     OW28579   4.472   0.244   4.062 -0.2960 -0.2393  0.1958
 5648SOL    HW128580   4.469   0.336   4.087  0.3775  0.0403 -0.7664
 5648SOL    HW228581   4.557   0.228   4.103 -0.1078  0.0386 -0.0983
 5649SOL     OW28582   2.500   1.011   7.867  0.4164 -0.4295 -0.2027
 5649SOL    HW128583   2.427   0.986   7.924  0.2812  0.5119  0.0369
 5649SOL    HW228584   2.470   1.101   7.853  1.8306 -0.3044 -2.4028
 5650SOL     OW28585   3.172   2.029   7.248  0.4737 -0.0072  0.1695
 5650SOL    HW128586   3.136   2.000   7.331  0.1982  0.0188  0.0581
 5650SOL    HW228587   3.262   2.058   7.266 -0.3126  0.9122  2.5698
 5651SOL     OW28588   0.478   4.311  17.239 -0.0379  0.2117  0.7566
 5651SOL    HW128589   0.468   4.399  17.275 -0.4559  0.1077  0.8946
 5651SOL    HW228590   0.440   4.321  17.152  1.2844 -0.3741  0.1066
 5652SOL     OW28591   3.272   1.394   7.777 -0.3659 -0.1325 -0.4105
 5652SOL    HW128592   3.190   1.407   7.729 -0.7070  3.2712  1.0909
 5652SOL    HW228593   3.329   1.417   7.704  0.5276  0.5106  0.4812
 5653SOL     OW28594   0.846   4.159   7.815 -0.6945  0.8901  0.0849
 5653SOL    HW128595   0.850   4.158   7.719 -1.0741 -0.3950  0.0876
 5653SOL    HW228596   0.937   4.178   7.839 -0.7570 -0.9103  1.6931
 5654SOL     OW28597   2.921   3.276   2.297  0.2700 -0.2922  0.1415
 5654SOL    HW128598   2.843   3.316   2.259  1.1698  0.8882 -0.4313
 5654SOL    HW228599   2.951   3.332   2.369  2.1435 -0.1054 -0.7969
 5655SOL     OW28600   1.326   3.240   8.412  0.0544  0.2649  0.1735
 5655SOL    HW128601   1.331   3.145   8.401  0.6428 -0.1001  3.5719
 5655SOL    HW228602   1.395   3.270   8.354  1.4481 -1.6937  0.8512
 5656SOL     OW28603   4.076   0.994   8.718 -0.2537 -0.7514 -0.1768
 5656SOL    HW128604   4.027   0.943   8.654 -2.3009 -0.0444  0.8267
 5656SOL    HW228605   4.096   0.914   8.768  1.1422 -0.3786 -0.1139
 5657SOL     OW28606   2.442   1.471   8.493  0.3238 -0.6744  0.3901
 5657SOL    HW128607   2.517   1.516   8.453 -0.9493  0.4370 -0.7278
 5657SOL    HW228608   2.468   1.482   8.584 -1.1254 -1.4705  0.8863
 5658SOL     OW28609   0.536   3.703   5.834 -0.1659 -0.5057 -0.3906
 5658SOL    HW128610   0.597   3.655   5.891 -1.0524  1.6704  2.3662
 5658SOL    HW228611   0.592   3.722   5.759  0.1400  1.2708  0.2875
 5659SOL     OW28612   1.554   3.099  12.995 -0.1676  0.3242 -0.0938
 5659SOL    HW128613   1.502   3.076  12.918  0.7482 -3.3142  0.3978
 5659SOL    HW228614   1.483   3.097  13.059  0.5115  1.5538  0.6877
 5660SOL     OW28615   4.308   0.279   4.829  0.4535  0.6290  0.1817
 5660SOL    HW128616   4.342   0.218   4.763 -1.2228  0.3499 -0.4363
 5660SOL    HW228617   4.215   0.256   4.835  0.0399  2.2490 -0.1661
 5661SOL     OW28618   1.572   3.996   1.710  0.5311 -0.6016 -0.3087
 5661SOL    HW128619   1.611   4.037   1.633  0.3067 -0.3900 -0.3069
 5661SOL    HW228620   1.495   4.051   1.721  1.5064  1.0842 -1.9791
 5662SOL     OW28621   4.612   2.970   3.746 -0.2006  0.1878 -0.0837
 5662SOL    HW128622   4.542   3.024   3.711 -0.1176  0.4321  0.1266
 5662SOL    HW228623   4.560   2.892   3.762 -0.5881  0.5071  0.2264
 5663SOL     OW28624   1.700   3.284   3.660 -0.7466 -0.5505  0.5004
 5663SOL    HW128625   1.760   3.216   3.630 -0.4018 -0.3628  0.7595
 5663SOL    HW228626   1.641   3.221   3.700 -1.5125  0.6825  1.3284
 5664SOL     OW28627   2.679   2.930   1.775  0.1038  0.4081  0.0118
 5664SOL    HW128628   2.721   2.988   1.712 -0.9148  0.9182 -0.1856
 5664SOL    HW228629   2.719   2.966   1.855 -1.6809  0.1819  1.0004
 5665SOL     OW28630   0.672   2.447   8.613 -0.0916  0.9484 -0.4710
 5665SOL    HW128631   0.646   2.444   8.521  0.7460 -1.0635 -0.6420
 5665SOL    HW228632   0.598   2.482   8.662 -0.1360 -0.8397  0.7220
 5666SOL     OW28633   3.529   2.874  17.020  0.3795 -0.0502  0.1427
 5666SOL    HW128634   3.570   2.938  16.962  1.7554 -0.7325  0.3464
 5666SOL    HW228635   3.573   2.893  17.103 -0.0192  1.2171  0.0544
 5667SOL     OW28636   3.221   0.539   1.739 -0.0634 -0.0512 -0.2649
 5667SOL    HW128637   3.140   0.529   1.690  0.8172  0.7156 -1.8864
 5667SOL    HW228638   3.294   0.522   1.679 -0.5598 -0.8761 -0.6292
 5668SOL     OW28639   3.881   2.932   5.546 -0.0636 -0.2749 -0.7413
 5668SOL    HW128640   3.891   2.906   5.455 -2.4611 -1.3722 -0.6982
 5668SOL    HW228641   3.959   2.896   5.588 -1.5404 -0.8475  1.5348
 5669SOL     OW28642   1.252   2.561  17.622 -0.0803  0.3233 -0.3687
 5669SOL    HW128643   1.232   2.479  17.575  0.9051  0.1688 -0.5173
 5669SOL    HW228644   1.326   2.597  17.572  0.0669 -0.1221 -0.4741
 5670SOL     OW28645   2.374   4.469   3.494 -0.7812  0.2084 -0.0000
 5670SOL    HW128646   2.361   4.404   3.425 -1.1907 -0.1640  0.4211
 5670SOL    HW228647   2.469   4.480   3.496 -0.7406 -0.3879  1.2083
 5671SOL     OW28648   0.425   2.393   7.550  0.3322 -0.1405  0.0174
 5671SOL    HW128649   0.474   2.468   7.517  1.0988 -0.3663  0.6567
 5671SOL    HW228650   0.389   2.363   7.466  1.0167  0.0436 -0.3451
 5672SOL     OW28651   0.103   4.203  11.261 -0.5219  0.4332  0.8468
 5672SOL    HW128652   0.055   4.285  11.251  0.1395  0.9179  1.6874
 5672SOL    HW228653   0.171   4.207  11.194 -1.1439  2.3030  0.3345
 5673SOL     OW28654   2.972   1.240   2.781 -0.3184  0.1182 -0.0766
 5673SOL    HW128655   3.026   1.188   2.840  0.5938  1.2827  0.1294
 5673SOL    HW228656   3.044   1.292   2.745 -0.6521 -0.6980 -1.9343
 5674SOL     OW28657   3.978   1.274   2.421 -0.2966  0.1950  0.1725
 5674SOL    HW128658   4.069   1.300   2.433  0.1659 -1.7517  0.9559
 5674SOL    HW228659   3.935   1.358   2.402 -0.0960  0.0764 -0.7837
 5675SOL     OW28660   3.551   0.781  12.330 -0.2122 -0.0530 -0.4339
 5675SOL    HW128661   3.523   0.787  12.421  0.5440 -0.5081 -0.1712
 5675SOL    HW228662   3.467   0.766  12.286 -0.8143 -0.6229  0.8865
 5676SOL     OW28663   3.369   4.351   4.233  0.2865  0.2072 -0.3282
 5676SOL    HW128664   3.437   4.418   4.238  1.7016 -1.0454 -3.0569
 5676SOL    HW228665   3.297   4.403   4.268  0.8543  0.4277  0.5142
 5677SOL     OW28666   4.486   2.740  14.835 -0.0802  0.2938  0.3210
 5677SOL    HW128667   4.465   2.647  14.844 -0.8624  0.3141 -1.2393
 5677SOL    HW228668   4.540   2.736  14.756  1.2462 -1.7520  1.3205
 5678SOL     OW28669   1.167   1.274   6.137  0.1260 -0.5072  0.1234
 5678SOL    HW128670   1.174   1.364   6.170  2.3364  0.4191 -2.8952
 5678SOL    HW228671   1.158   1.223   6.217  1.3290  1.2479  1.3714
 5679SOL     OW28672   0.416   0.939  10.252  0.1874 -0.2333 -0.0683
 5679SOL    HW128673   0.406   0.963  10.344 -0.6803 -0.1203 -0.1886
 5679SOL    HW228674   0.322   0.926  10.235  0.5659 -1.6826 -1.0838
 5680SOL     OW28675   2.080   2.616   2.743 -0.7068  0.5834 -0.0555
 5680SOL    HW128676   1.996   2.572   2.758 -2.0253  2.8642 -0.8497
 5680SOL    HW228677   2.094   2.638   2.835 -0.1359 -0.9239  0.2240
 5681SOL     OW28678   3.627   3.617   9.443 -0.1143 -0.0203  0.1420
 5681SOL    HW128679   3.669   3.559   9.379  0.7451  0.1433  0.5609
 5681SOL    HW228680   3.646   3.563   9.520  2.2039  1.3657  0.5562
 5682SOL     OW28681   4.073   1.500   8.038 -0.2413  0.1811 -0.3607
 5682SOL    HW128682   4.131   1.453   8.098 -3.4085 -1.4426  1.4778
 5682SOL    HW228683   4.026   1.426   7.999  1.9180 -1.8142  0.8606
 5683SOL     OW28684   2.913   4.540  17.682 -0.1089 -0.4873  0.0003
 5683SOL    HW128685   2.979   4.587  17.733  1.5004 -3.4615  0.6817
 5683SOL    HW228686   2.879   4.488  17.754  0.9180  0.8000  1.4194
 5684SOL     OW28687   2.956   1.252   0.947 -0.1377 -0.1806  0.2952
 5684SOL    HW128688   3.026   1.304   0.986 -1.0593  1.0523  0.3186
 5684SOL    HW228689   2.935   1.306   0.871 -1.7558 -0.2663  0.6741
 5685SOL     OW28690   3.909   3.604   6.727  0.4388 -0.1039 -0.2237
 5685SOL    HW128691   3.916   3.637   6.638  0.7030  1.4771  0.3727
 5685SOL    HW228692   4.001   3.616   6.753  1.0086 -1.5917 -1.5992
 5686SOL     OW28693   3.274   3.062   3.440 -0.1225 -0.6111  0.0912
 5686SOL    HW128694   3.295   3.034   3.351  2.3486 -1.7156  1.0304
 5686SOL    HW228695   3.190   3.017   3.447 -1.7688  2.4256 -0.0856
 5687SOL     OW28696   0.754   1.514   5.797  0.3868 -0.0453  0.1634
 5687SOL    HW128697   0.830   1.482   5.846 -0.2166  0.7567  1.6272
 5687SOL    HW228698   0.735   1.602   5.829 -0.9874 -0.5314  0.7137
 5688SOL     OW28699   2.950   1.134   3.862  0.1568  0.4244  0.6961
 5688SOL    HW128700   2.910   1.058   3.904 -1.0537 -0.9430 -2.9946
 5688SOL    HW228701   2.892   1.144   3.787 -0.9381  0.2833  1.5202
 5689SOL     OW28702   2.973   2.875   1.975  0.6963 -0.2648  0.3740
 5689SOL    HW128703   3.053   2.913   2.012  0.8151 -0.4618  0.3236
 5689SOL    HW228704   3.011   2.791   1.950 -0.0325 -0.4293 -0.1504
 5690SOL     OW28705   3.285   0.065   8.869 -0.5137 -0.2107 -0.1677
 5690SOL    HW128706   3.334   4.722   8.875  0.4174  0.3850  0.3694
 5690SOL    HW228707   3.352   0.126   8.838  0.6291 -2.1091 -1.4314
 5691SOL     OW28708   3.403   2.580  14.860  0.3472  0.8965 -0.4250
 5691SOL    HW128709   3.473   2.527  14.898 -0.4387  0.4572  0.3965
 5691SOL    HW228710   3.325   2.529  14.882 -0.4410  1.5706 -1.6282
 5692SOL     OW28711   0.785   1.302   3.742 -0.5358  0.2862  0.1128
 5692SOL    HW128712   0.707   1.247   3.741  0.4508 -1.1343  1.2519
 5692SOL    HW228713   0.748   1.371   3.686 -0.9687  0.9015  1.1659
 5693SOL     OW28714   0.682   3.171   4.247 -0.2506 -0.1043 -0.2298
 5693SOL    HW128715   0.653   3.161   4.156 -0.5861 -0.1095 -0.1203
 5693SOL    HW228716   0.599   3.152   4.289 -0.1866  0.5899  0.2170
 5694SOL     OW28717   3.125   1.573   5.911  0.0573  0.1889  0.2958
 5694SOL    HW128718   3.141   1.510   5.981  1.9447 -0.0376 -0.3463
 5694SOL    HW228719   3.032   1.557   5.893 -0.2413  0.8531  1.2446
 5695SOL     OW28720   0.195   4.497   0.086  0.0292 -0.4807 -0.1238
 5695SOL    HW128721   0.135   4.423   0.094 -1.6572  0.9763  0.7226
 5695SOL    HW228722   0.229   4.474   0.000  0.4115 -2.2611  0.5204
 5696SOL     OW28723   2.532   3.024  15.062 -0.1803  0.6094 -0.3777
 5696SOL    HW128724   2.493   2.985  14.984 -0.8740  1.0919 -0.2708
 5696SOL    HW228725   2.477   2.970  15.119 -1.0082  2.3679  0.5055
 5697SOL     OW28726   3.362   0.423   2.732  0.0252 -0.0019 -0.2458
 5697SOL    HW128727   3.305   0.482   2.782 -0.3736  0.4778 -1.2870
 5697SOL    HW228728   3.339   0.333   2.754  1.4739 -0.2917  0.0818
 5698SOL     OW28729   2.550   3.290   2.245 -0.1179  0.2345  0.0327
 5698SOL    HW128730   2.471   3.322   2.201  0.1083  1.7442  0.7475
 5698SOL    HW228731   2.517   3.308   2.333 -0.0605  0.0611  0.0898
 5699SOL     OW28732   1.562   4.116   1.129  0.4201 -0.9711  0.3220
 5699SOL    HW128733   1.482   4.156   1.096  0.6387 -1.8016 -1.2396
 5699SOL    HW228734   1.603   4.198   1.157  1.3543 -1.5343  0.6272
 5700SOL     OW28735   1.000   4.439   9.027 -0.0786  0.0085 -0.2955
 5700SOL    HW128736   1.010   4.366   9.088 -3.5652 -0.1452  0.0921
 5700SOL    HW228737   1.059   4.408   8.958  0.3244 -0.7143  0.3851
 5701SOL     OW28738   3.066   3.190  13.697  0.1630 -0.4051 -0.6339
 5701SOL    HW128739   3.046   3.216  13.787  1.4887  1.7094 -0.9467
 5701SOL    HW228740   2.982   3.198  13.653  0.0507  3.6756  0.3280
 5702SOL     OW28741   3.476   0.395   6.107 -0.9172  0.0324 -0.0603
 5702SOL    HW128742   3.514   0.323   6.158  0.5866 -1.0113 -2.6458
 5702SOL    HW228743   3.552   0.434   6.062 -0.3388 -1.4235 -0.3465
 5703SOL     OW28744   1.460   3.904   6.092  0.6949  0.2659 -0.2670
 5703SOL    HW128745   1.554   3.919   6.102  0.6839 -0.2673  0.6193
 5703SOL    HW228746   1.447   3.810   6.105  0.1133  0.3483 -0.2718
 5704SOL     OW28747   1.782   1.223   4.574  0.0192 -0.1370  0.1221
 5704SOL    HW128748   1.823   1.206   4.659 -0.5112 -0.6538  0.2781
 5704SOL    HW228749   1.745   1.139   4.547 -2.6743  1.1809 -0.3234
 5705SOL     OW28750   3.623   0.692   4.574  0.4326  0.5191  0.4266
 5705SOL    HW128751   3.642   0.696   4.668 -0.0808  0.3057  0.5378
 5705SOL    HW228752   3.695   0.648   4.527 -0.5238 -2.2552  1.5687
 5706SOL     OW28753   3.888   3.373  16.637 -0.2187  0.2192  0.6636
 5706SOL    HW128754   3.930   3.458  16.622 -0.4811  0.4178  1.0336
 5706SOL    HW228755   3.922   3.354  16.725  1.7670 -2.2003 -0.6431
 5707SOL     OW28756   3.429   2.678   8.130 -0.2021 -0.1242 -0.4982
 5707SOL    HW128757   3.446   2.659   8.222 -1.6974 -0.3930 -0.2721
 5707SOL    HW228758   3.448   2.771   8.117  0.3383 -0.0967  0.5036
 5708SOL     OW28759   3.978   4.562   8.690  0.0733 -0.3206  0.5916
 5708SOL    HW128760   3.981   4.636   8.629 -0.2609  0.0898  1.0755
 5708SOL    HW228761   3.914   4.513   8.639 -1.2712 -0.6399  2.5884
 5709SOL     OW28762   1.685   0.085  13.826 -0.1888  0.3828 -0.2770
 5709SOL    HW128763   1.615   0.033  13.787  0.4053 -0.6813  0.0714
 5709SOL    HW228764   1.759   0.029  13.803  1.3077  2.3773 -0.3328
 5710SOL     OW28765   1.910   2.343   3.060 -0.3207  0.1061  0.0935
 5710SOL    HW128766   1.854   2.383   3.127 -0.0488  0.3583  0.1731
 5710SOL    HW228767   2.002   2.348   3.086 -0.3929  0.0973  0.3484
 5711SOL     OW28768   3.604   3.824   7.295  1.5069 -0.1437  0.2465
 5711SOL    HW128769   3.653   3.887   7.348  2.2334 -1.2085  0.8462
 5711SOL    HW228770   3.517   3.822   7.335  1.7709 -1.8724  0.7222
 5712SOL     OW28771   2.031   0.583   4.593  0.0263  0.0191  0.2601
 5712SOL    HW128772   1.946   0.543   4.610  0.2050 -0.0338  1.0229
 5712SOL    HW228773   2.046   0.563   4.501  2.2160  1.8627  0.1975
 5713SOL     OW28774   2.172   0.823   5.319 -0.0485 -0.9863 -0.0126
 5713SOL    HW128775   2.206   0.737   5.342  1.8716 -0.3433 -0.5059
 5713SOL    HW228776   2.256   0.869   5.323 -0.9330  0.5886  0.5021
 5714SOL     OW28777   2.343   4.642  10.158 -0.0728 -0.3208  0.1573
 5714SOL    HW128778   2.330   4.570  10.097 -1.6545  1.0184 -1.0696
 5714SOL    HW228779   2.294   4.702  10.102  0.1549 -0.5084 -0.2433
 5715SOL     OW28780   0.465   1.612   8.701 -0.5954  0.3322  0.2634
 5715SOL    HW128781   0.505   1.539   8.748 -0.4199 -0.5197 -1.1912
 5715SOL    HW228782   0.376   1.608   8.736 -0.3113 -0.0602  0.9414
 5716SOL     OW28783   0.621   3.147   4.937  0.0787  0.1631  0.2243
 5716SOL    HW128784   0.526   3.155   4.932 -0.1546 -2.3775  0.6339
 5716SOL    HW228785   0.648   3.162   4.846 -1.9434  1.5560 -0.1411
 5717SOL     OW28786   1.676   1.561   3.683  0.2746 -0.0681 -0.6549
 5717SOL    HW128787   1.657   1.547   3.775  2.3238  2.7941  0.2056
 5717SOL    HW228788   1.771   1.547   3.682  0.0877 -1.4676  1.9317
 5718SOL     OW28789   2.748   1.322   0.241 -0.1538 -0.5035  0.1202
 5718SOL    HW128790   2.701   1.246   0.275  1.5636 -1.7649 -0.2693
 5718SOL    HW228791   2.690   1.363   0.178  1.1162 -0.4551 -1.0340
 5719SOL     OW28792   2.865   0.528  11.144  0.0857 -0.6985  0.2151
 5719SOL    HW128793   2.801   0.533  11.214 -0.0191 -1.0699  0.1456
 5719SOL    HW228794   2.820   0.567  11.070 -0.8420 -2.3233 -0.0836
 5720SOL     OW28795   0.878   2.252  17.597 -0.6337  0.2679 -0.2627
 5720SOL    HW128796   0.808   2.198  17.634 -0.9230  0.1947 -0.9190
 5720SOL    HW228797   0.960   2.214  17.627 -1.1409  0.5640  1.5137
 5721SOL     OW28798   2.187   0.077  15.163 -0.1031 -0.9282 -0.2638
 5721SOL    HW128799   2.194   0.113  15.075 -0.9764 -0.7143 -0.2485
 5721SOL    HW228800   2.115   0.130  15.199 -0.6274 -1.2167 -0.8977
 5722SOL     OW28801   2.759   0.978   0.532 -0.6590  0.4577 -0.0046
 5722SOL    HW128802   2.824   1.021   0.587 -0.6611  1.5553 -0.8585
 5722SOL    HW228803   2.819   0.942   0.468  0.1086 -0.6237  1.3460
 5723SOL     OW28804   2.541   2.186   8.379  0.4245  0.2574  0.0679
 5723SOL    HW128805   2.506   2.270   8.408 -2.0247 -1.0508  0.8778
 5723SOL    HW228806   2.468   2.126   8.359  0.6147 -0.0443  0.2808
 5724SOL     OW28807   0.194   2.661  12.487 -0.1777  0.2351 -0.1018
 5724SOL    HW128808   0.116   2.712  12.467 -0.6769 -0.5853 -0.2533
 5724SOL    HW228809   0.259   2.725  12.516  0.6024 -1.6162  2.1831
 5725SOL     OW28810   1.620   4.218   2.825 -0.2300  0.4546 -0.0778
 5725SOL    HW128811   1.624   4.310   2.800 -1.5207  0.5456  0.0383
 5725SOL    HW228812   1.597   4.181   2.739  0.1141 -1.2113  0.5502
 5726SOL     OW28813   1.116   0.235   0.612 -0.0954 -0.0832  0.3042
 5726SOL    HW128814   1.165   0.299   0.561 -0.8812  1.5970  1.6732
 5726SOL    HW228815   1.185   0.206   0.673 -0.6442 -0.5816  0.6923
 5727SOL     OW28816   2.170   1.957  11.713 -0.7311  0.1716  0.2158
 5727SOL    HW128817   2.082   1.920  11.726 -0.9004  0.1996 -0.8466
 5727SOL    HW228818   2.206   1.915  11.636  0.4223  0.7198  0.4644
 5728SOL     OW28819   4.071   2.588   7.591 -0.0694  0.4681  0.0491
 5728SOL    HW128820   4.066   2.496   7.617  0.2723  0.3054 -0.4554
 5728SOL    HW228821   4.087   2.624   7.678  0.0293 -0.3576  0.3803
 5729SOL     OW28822   4.617   1.796   8.659 -0.5404  0.4833 -0.1120
 5729SOL    HW128823   4.623   1.863   8.591 -2.0362  1.1382  0.4141
 5729SOL    HW228824   4.684   1.736   8.627 -1.7520 -1.2907  0.7005
 5730SOL     OW28825   1.116   3.391   2.288 -0.1510  0.4000 -0.0769
 5730SOL    HW128826   1.209   3.394   2.269  0.0899 -2.0793  0.7993
 5730SOL    HW228827   1.103   3.480   2.322  0.5356  0.0326  1.1092
 5731SOL     OW28828   4.401   0.682   7.171  0.0089  0.3884 -0.1003
 5731SOL    HW128829   4.403   0.689   7.075  3.4046  0.5762 -0.0332
 5731SOL    HW228830   4.350   0.760   7.194  1.7694  1.1595  1.1861
 5732SOL     OW28831   3.556   3.924  11.108 -0.5055  0.2565  0.4719
 5732SOL    HW128832   3.534   3.996  11.050 -0.3995  0.8029  1.1047
 5732SOL    HW228833   3.649   3.914  11.086 -1.1944  0.2442 -2.4040
 5733SOL     OW28834   3.012   0.489   1.545  0.4070 -0.3473 -0.2612
 5733SOL    HW128835   3.024   0.402   1.508 -2.1607 -0.6439 -0.4543
 5733SOL    HW228836   3.051   0.535   1.471  1.5737 -1.4595 -0.3363
 5734SOL     OW28837   3.952   2.698  14.309  0.6222 -0.7322 -0.2600
 5734SOL    HW128838   3.897   2.773  14.287  0.0452 -1.2864 -0.7035
 5734SOL    HW228839   3.972   2.657  14.225  1.9653  0.8059 -0.6729
 5735SOL     OW28840   3.178   0.229   2.331  0.7307 -0.4979  0.1623
 5735SOL    HW128841   3.192   0.294   2.400  1.4690 -0.1812 -0.2837
 5735SOL    HW228842   3.155   0.153   2.384 -2.9598  0.6835  0.2607
 5736SOL     OW28843   4.700   4.535   7.209  0.3392  0.1957  0.3804
 5736SOL    HW128844   0.018   4.487   7.149  1.0665  0.6614  0.7057
 5736SOL    HW228845   4.679   4.612   7.157  0.2868  1.1193  1.7807
 5737SOL     OW28846   3.340   4.561   8.329  0.1059  0.1502  0.1560
 5737SOL    HW128847   3.321   4.618   8.404  1.8680  2.5678 -1.2242
 5737SOL    HW228848   3.380   4.491   8.379  2.0007  0.0173 -1.5682
 5738SOL     OW28849   2.419   1.797  11.742  0.0049  0.3113  0.3963
 5738SOL    HW128850   2.364   1.724  11.713  0.3842  0.1164  0.1651
 5738SOL    HW228851   2.356   1.861  11.774 -0.3001  1.0228 -1.6054
 5739SOL     OW28852   0.862   3.506   6.744 -0.2876  0.2534  0.4309
 5739SOL    HW128853   0.947   3.468   6.767  0.3624 -0.2333 -2.7964
 5739SOL    HW228854   0.812   3.424   6.747 -2.0011  1.3228  0.8586
 5740SOL     OW28855   3.000   4.190  14.817  0.1236  0.5916 -0.3184
 5740SOL    HW128856   2.945   4.150  14.884  0.7262  0.7353  0.2580
 5740SOL    HW228857   3.082   4.221  14.856  0.0914  0.0251  0.2011
 5741SOL     OW28858   3.313   1.403   4.509 -0.6556 -0.3572  0.3206
 5741SOL    HW128859   3.373   1.475   4.529 -0.0834 -0.2915 -1.6134
 5741SOL    HW228860   3.366   1.346   4.453  0.1082 -0.1882  0.8794
 5742SOL     OW28861   0.987   4.191   7.186  0.0680 -0.2523 -0.3894
 5742SOL    HW128862   1.010   4.284   7.181 -2.4078  0.3931  0.3545
 5742SOL    HW228863   0.892   4.199   7.180  0.1845  0.5641 -1.2965
 5743SOL     OW28864   3.754   0.543   5.226 -0.7147  0.2105 -0.1379
 5743SOL    HW128865   3.681   0.605   5.220 -0.0713  0.9437 -0.3273
 5743SOL    HW228866   3.823   0.591   5.181  0.4637 -2.4343 -1.1911
 5744SOL     OW28867   1.162   2.961   3.433 -0.4913 -0.1184  0.0103
 5744SOL    HW128868   1.196   3.029   3.374  0.7821 -0.4806  0.3246
 5744SOL    HW228869   1.196   2.974   3.521 -0.7067  0.1149  0.0588
 5745SOL     OW28870   2.321   3.674   6.744  0.0085  0.0644  0.0319
 5745SOL    HW128871   2.242   3.723   6.768 -0.0024  0.8481 -1.6388
 5745SOL    HW228872   2.279   3.589   6.727 -0.4536  0.1843  0.5579
 5746SOL     OW28873   0.202   0.095   6.128  0.4223  0.7055  0.0200
 5746SOL    HW128874   0.196   0.020   6.187 -0.8035  1.5278  0.9357
 5746SOL    HW228875   0.215   0.170   6.186  0.2871  0.7946 -0.0641
 5747SOL     OW28876   4.468   1.079  15.113  0.9981 -0.6864 -0.4605
 5747SOL    HW128877   4.499   1.154  15.164 -2.9918  0.1982  0.7000
 5747SOL    HW228878   4.446   1.020  15.185 -1.0782  0.3166 -0.2692
 5748SOL     OW28879   3.697   1.327   8.662  0.4408 -0.5495 -0.5508
 5748SOL    HW128880   3.657   1.289   8.740  0.7433 -0.6570 -0.4522
 5748SOL    HW228881   3.790   1.310   8.673  0.6899  1.4101  0.4448
 5749SOL     OW28882   2.138   1.927   8.129  0.0531 -0.2487 -0.0875
 5749SOL    HW128883   2.120   1.837   8.104 -1.2512  0.1504 -0.6108
 5749SOL    HW228884   2.195   1.961   8.060  0.4033  1.4925  1.0391
 5750SOL     OW28885   0.699   4.034   8.018  0.1889  0.2212  0.3253
 5750SOL    HW128886   0.782   3.995   8.045 -1.7421 -1.6482  3.5122
 5750SOL    HW228887   0.720   4.066   7.930 -3.2723 -1.2041 -1.0268
 5751SOL     OW28888   3.108   4.400   7.051 -0.3209  0.1792 -0.0289
 5751SOL    HW128889   3.201   4.376   7.052 -0.3325  0.2833  3.1756
 5751SOL    HW228890   3.060   4.332   7.098  0.6238  0.4138  1.2718
 5752SOL     OW28891   3.855   3.542  12.753  0.0688  0.0835  0.1466
 5752SOL    HW128892   3.767   3.576  12.766 -0.4913 -0.8527 -1.1529
 5752SOL    HW228893   3.914   3.617  12.759 -0.8344  0.7897  0.1580
 5753SOL     OW28894   2.311   0.367   8.079  0.1466 -0.0292  0.5852
 5753SOL    HW128895   2.362   0.293   8.046 -0.4408  0.2192 -0.8795
 5753SOL    HW228896   2.349   0.380   8.166 -0.3428  0.7035  0.6873
 5754SOL     OW28897   2.783   2.686  16.994  0.5848 -0.2640 -0.2736
 5754SOL    HW128898   2.845   2.755  16.971 -1.3114  0.7530 -2.3387
 5754SOL    HW228899   2.777   2.681  17.089  1.8907  2.5820 -0.0453
 5755SOL     OW28900   3.369   3.884   7.416 -0.2991  0.7239 -0.4477
 5755SOL    HW128901   3.342   3.798   7.448  2.9560  0.4437  1.4989
 5755SOL    HW228902   3.365   3.933   7.498 -1.9112 -0.6636  0.3078
 5756SOL     OW28903   4.138   3.757  13.962  0.2528 -0.0083 -0.9743
 5756SOL    HW128904   4.229   3.730  13.976 -0.1552 -0.6522  0.4415
 5756SOL    HW228905   4.152   3.848  13.935  0.3282  0.2918  0.0731
 5757SOL     OW28906   3.603   2.580   6.026 -0.3807 -0.2953  0.2499
 5757SOL    HW128907   3.555   2.526   6.088  1.0260 -0.0779  1.5219
 5757SOL    HW228908   3.605   2.665   6.070 -0.3751 -0.7062  1.0435
 5758SOL     OW28909   0.563   1.091   2.746  0.2553  0.3092 -0.1082
 5758SOL    HW128910   0.619   1.106   2.822 -0.4990  0.7914  0.3510
 5758SOL    HW228911   0.486   1.133   2.786 -0.9781  0.0025 -2.1818
 5759SOL     OW28912   3.051   1.946   4.822  0.0205 -0.4395 -0.2996
 5759SOL    HW128913   2.959   1.946   4.796 -0.0340  0.5663 -0.1072
 5759SOL    HW228914   3.047   1.962   4.916 -2.4963  0.6991 -0.5990
 5760SOL     OW28915   1.683   0.658   3.869  0.4860 -0.2059 -0.0614
 5760SOL    HW128916   1.598   0.620   3.889  1.0838 -1.0765  0.8190
 5760SOL    HW228917   1.683   0.737   3.923 -2.9461 -0.3832  0.1457
 5761SOL     OW28918   2.132   0.557   7.498 -0.3213 -0.0990 -0.7371
 5761SOL    HW128919   2.183   0.581   7.421 -0.7394 -0.4311 -1.1167
 5761SOL    HW228920   2.153   0.623   7.564 -0.6193 -0.2286 -0.5123
 5762SOL     OW28921   0.770   4.362   7.333  0.2630  0.4554 -0.2219
 5762SOL    HW128922   0.757   4.442   7.385  1.1485  0.6303 -0.2750
 5762SOL    HW228923   0.802   4.397   7.250 -0.8714 -0.3046 -0.9872
 5763SOL     OW28924   2.011   2.717   2.362  0.6715  0.4530  0.7207
 5763SOL    HW128925   2.014   2.622   2.348 -1.5705  0.5926 -0.5777
 5763SOL    HW228926   1.989   2.743   2.273  4.5923  1.2890 -0.0029
 5764SOL     OW28927   1.264   1.856   6.730 -0.0504 -0.1218  0.6016
 5764SOL    HW128928   1.205   1.826   6.661  1.2033 -0.9530 -0.1147
 5764SOL    HW228929   1.241   1.945   6.755  0.7718  0.5125 -0.8917
 5765SOL     OW28930   1.081   1.635   7.274 -0.7369  0.4410  0.2032
 5765SOL    HW128931   1.080   1.552   7.226 -0.8425  1.3904 -1.4455
 5765SOL    HW228932   1.121   1.604   7.355 -1.9026  0.5572  0.8245
 5766SOL     OW28933   4.625   3.868   5.710  0.2922  0.6113  0.0791
 5766SOL    HW128934   4.556   3.932   5.727  0.7308  1.1016  0.0389
 5766SOL    HW228935   4.691   3.915   5.761 -0.9974  2.3112  0.2019
 5767SOL     OW28936   3.772   2.546   8.192  0.7442  0.0885 -0.1035
 5767SOL    HW128937   3.766   2.613   8.259  1.9164  0.2552 -0.1680
 5767SOL    HW228938   3.745   2.467   8.239  0.6878 -0.9509 -1.8801
 5768SOL     OW28939   3.183   0.944  13.715  0.5191 -0.2655  0.2664
 5768SOL    HW128940   3.271   0.912  13.697  0.2323 -0.8830 -0.0558
 5768SOL    HW228941   3.128   0.874  13.679  1.7911 -0.9972 -0.2305
 5769SOL     OW28942   0.884   1.419  12.186  0.8508 -0.3509 -0.1415
 5769SOL    HW128943   0.947   1.384  12.249 -0.2039 -1.9008  0.0488
 5769SOL    HW228944   0.895   1.512  12.209  1.7061 -0.7432  1.0560
 5770SOL     OW28945   0.297   2.285   7.340 -0.1664  0.5161  0.3940
 5770SOL    HW128946   0.217   2.238   7.364 -0.6964  0.6949 -1.0422
 5770SOL    HW228947   0.271   2.370   7.305  0.9836  1.5126  1.9916
 5771SOL     OW28948   4.071   0.123   3.319  0.1396  0.3618 -0.2916
 5771SOL    HW128949   4.054   0.094   3.229  0.9355  1.0426 -0.6662
 5771SOL    HW228950   4.148   0.180   3.322  0.7216 -0.2328 -3.7205
 5772SOL     OW28951   0.648   2.555  11.288 -0.5818 -0.0787 -0.1689
 5772SOL    HW128952   0.651   2.620  11.358  0.0842  1.4457 -1.5825
 5772SOL    HW228953   0.685   2.590  11.206  0.2559  1.6642  0.9573
 5773SOL     OW28954   2.738   4.561   1.498 -0.0358 -0.5876  0.0909
 5773SOL    HW128955   2.669   4.546   1.563 -0.3791  0.4549 -0.0271
 5773SOL    HW228956   2.725   4.484   1.444 -2.1031  1.8803 -2.9731
 5774SOL     OW28957   1.532   4.673   7.461  0.1611 -0.6341 -0.4084
 5774SOL    HW128958   1.505   0.024   7.444  2.3342  0.0257 -0.3261
 5774SOL    HW228959   1.447   4.629   7.456 -0.8438  1.0414  2.2855
 5775SOL     OW28960   2.969   3.078  15.734  0.2602 -0.1648  0.1574
 5775SOL    HW128961   3.014   3.162  15.732  0.2739 -0.1829 -0.3745
 5775SOL    HW228962   2.944   3.077  15.641 -0.9778  0.2376  0.4835
 5776SOL     OW28963   3.890   2.608   7.930  0.0876 -0.0747 -0.3865
 5776SOL    HW128964   3.859   2.609   8.021  0.9803 -1.4768 -0.0629
 5776SOL    HW228965   3.817   2.639   7.876 -1.3558  0.9925  2.1945
 5777SOL     OW28966   2.203   3.252   5.819  0.0337  0.2536 -0.2442
 5777SOL    HW128967   2.262   3.245   5.744 -0.0911  1.3103 -0.4398
 5777SOL    HW228968   2.259   3.285   5.889  1.0288 -2.3309  0.1765
 5778SOL     OW28969   1.098   1.754   3.818  0.1961  0.6614 -0.3369
 5778SOL    HW128970   1.190   1.756   3.845 -0.1939  3.0449  0.9328
 5778SOL    HW228971   1.086   1.849   3.829 -0.4249  0.7599 -1.8847
 5779SOL     OW28972   0.983   2.544   8.058  0.3950  0.2782 -0.4363
 5779SOL    HW128973   0.951   2.457   8.032  0.3795  0.7905 -2.1497
 5779SOL    HW228974   0.931   2.597   7.998  0.3210  2.1002  1.2661
 5780SOL     OW28975   1.293   0.453   1.909 -0.7157 -0.4324 -0.3621
 5780SOL    HW128976   1.271   0.537   1.949 -1.2304  0.1073 -1.7967
 5780SOL    HW228977   1.375   0.472   1.864 -0.1906 -2.0509 -0.1128
 5781SOL     OW28978   0.672   0.402   4.987 -0.2941  0.2931  0.2408
 5781SOL    HW128979   0.686   0.400   4.892  0.2022  0.6494  0.3071
 5781SOL    HW228980   0.693   0.494   5.003 -0.1827  0.5038 -1.1346
 5782SOL     OW28981   2.007   2.130  14.746  0.9786  0.4374  0.0626
 5782SOL    HW128982   1.943   2.201  14.736 -0.7561 -1.2046 -0.3951
 5782SOL    HW228983   2.089   2.179  14.736  0.3429  1.2507 -1.0565
 5783SOL     OW28984   1.759   1.223  11.070  0.4251  0.0031  0.2292
 5783SOL    HW128985   1.673   1.228  11.028 -0.0149 -0.8841  1.0155
 5783SOL    HW228986   1.734   1.157  11.136  0.3538  0.9937  1.1895
 5784SOL     OW28987   1.030   0.777  16.262 -0.4710 -0.2763 -0.2399
 5784SOL    HW128988   0.978   0.799  16.185  0.2899  2.3300 -0.0159
 5784SOL    HW228989   1.107   0.833  16.255 -0.6900  0.3153  1.9502
 5785SOL     OW28990   0.060   3.040   3.921 -0.7396 -0.4334 -0.1481
 5785SOL    HW128991   0.124   2.973   3.945 -0.3243  0.1761  0.4662
 5785SOL    HW228992   0.004   2.994   3.859 -1.7177  0.2182  0.2502
 5786SOL     OW28993   0.015   2.460   3.715 -0.1386  0.5753  0.2367
 5786SOL    HW128994   0.070   2.385   3.736 -1.2210 -0.0157  0.9281
 5786SOL    HW228995   0.015   2.520   3.790  0.5896 -0.6623  1.2249
 5787SOL     OW28996   4.099   3.195   5.103  0.1494  0.2701  0.4803
 5787SOL    HW128997   4.153   3.272   5.089  0.2021 -0.1094 -1.4413
 5787SOL    HW228998   4.053   3.209   5.186  0.3515  1.5434  0.3703
 5788SOL     OW28999   3.690   1.107   3.207  0.5402 -0.1204  0.1962
 5788SOL    HW129000   3.601   1.139   3.220  0.2346 -1.7581  2.1864
 5788SOL    HW229001   3.695   1.045   3.280  0.3055  1.0556  1.2145
 5789SOL     OW29002   2.155   0.714   5.989  0.0514 -0.3713 -0.7445
 5789SOL    HW129003   2.069   0.717   6.031 -0.1560  1.8129 -1.3328
 5789SOL    HW229004   2.135   0.779   5.922 -0.4386 -0.1747 -0.4102
 5790SOL     OW29005   2.916   3.894   6.432 -0.1304 -0.0966  0.2168
 5790SOL    HW129006   2.889   3.805   6.457 -0.3810  0.0982  0.6499
 5790SOL    HW229007   2.852   3.951   6.475  2.1128  1.9198  0.8654
 5791SOL     OW29008   0.031   0.458   5.314 -0.6107 -0.4805  1.1183
 5791SOL    HW129009   0.101   0.471   5.378  0.9782  1.7285 -1.0297
 5791SOL    HW229010   0.017   0.547   5.282  1.0283 -1.6843 -3.0324
 5792SOL     OW29011   1.258   0.109   9.282  0.5754  0.0147  0.3506
 5792SOL    HW129012   1.169   0.120   9.246  0.6492 -3.6577 -0.9016
 5792SOL    HW229013   1.268   0.193   9.327  0.7808 -0.4914  1.2453
 5793SOL     OW29014   2.389   1.845   7.309 -0.6349 -0.0594  0.5514
 5793SOL    HW129015   2.319   1.888   7.259 -0.1412  1.6193  1.3261
 5793SOL    HW229016   2.458   1.878   7.251 -2.7705 -0.2772 -2.1434
 5794SOL     OW29017   1.246   4.692   0.058 -0.3094  0.0587  0.1560
 5794SOL    HW129018   1.299   4.616   0.031 -2.6864 -1.7985  0.6956
 5794SOL    HW229019   1.303   0.021   0.095  2.1365 -0.9943 -1.6626
 5795SOL     OW29020   3.669   1.362   0.593 -0.1464  0.0897 -0.2225
 5795SOL    HW129021   3.717   1.282   0.612 -0.9982 -0.7613 -1.6606
 5795SOL    HW229022   3.604   1.318   0.538  1.5287 -2.1611 -0.3870
 5796SOL     OW29023   2.841   4.248   5.522  0.4567  0.2508  0.0041
 5796SOL    HW129024   2.871   4.339   5.527  1.2935 -0.1558  2.2836
 5796SOL    HW229025   2.815   4.243   5.614 -0.4536 -0.5070 -0.3016
 5797SOL     OW29026   0.338   4.714   6.757 -0.3146  0.2157  0.0543
 5797SOL    HW129027   0.356   0.053   6.705  3.2058 -2.1146 -2.1503
 5797SOL    HW229028   0.417   4.661   6.761  0.8078  1.8511 -0.5135
 5798SOL     OW29029   0.524   3.631  11.473  0.0007  0.0042  0.0478
 5798SOL    HW129030   0.605   3.613  11.425  0.6296  0.6822  0.8475
 5798SOL    HW229031   0.504   3.719  11.441 -1.1228  0.2634  1.4657
 5799SOL     OW29032   2.036   1.076   0.322 -0.4755 -0.5251  0.5103
 5799SOL    HW129033   2.033   1.026   0.240 -1.4658  1.3622 -0.6192
 5799SOL    HW229034   2.090   1.012   0.368  0.3456 -0.8004 -0.8465
 5800SOL     OW29035   0.307   4.565   7.212 -0.1777 -0.4011 -0.4914
 5800SOL    HW129036   0.372   4.608   7.156 -0.9141 -1.0029 -1.8192
 5800SOL    HW229037   0.238   4.532   7.154  1.0428 -1.8686 -1.1020
 5801SOL     OW29038   0.968   3.516   6.491  0.9522 -0.3497  0.0440
 5801SOL    HW129039   0.979   3.421   6.489  2.3237 -0.1736 -0.3340
 5801SOL    HW229040   0.892   3.515   6.549  0.5637  0.6507 -0.4344
 5802SOL     OW29041   4.423   4.710   7.510 -0.4308 -0.3189 -0.4716
 5802SOL    HW129042   4.510   4.673   7.498  0.5244  1.1510  2.0679
 5802SOL    HW229043   4.389   4.693   7.422 -1.7015 -1.2601  0.1965
 5803SOL     OW29044   2.369   4.341   9.263  0.3457  0.3966 -0.3915
 5803SOL    HW129045   2.293   4.397   9.281  0.1217  0.4339 -1.4232
 5803SOL    HW229046   2.413   4.388   9.193 -1.8826 -1.1846 -2.8669
 5804SOL     OW29047   1.023   1.567   8.327 -0.2520  0.3424  0.6952
 5804SOL    HW129048   1.012   1.650   8.281 -2.7958 -0.3515  0.0675
 5804SOL    HW229049   0.964   1.577   8.402 -0.1365  2.9907  0.4176
 5805SOL     OW29050   1.004   0.267   1.784  0.0274 -0.2410  0.1941
 5805SOL    HW129051   1.071   0.261   1.717 -0.4123 -2.2327 -0.0790
 5805SOL    HW229052   0.957   0.187   1.760  0.0652 -0.7285  1.7095
 5806SOL     OW29053   2.669   2.345   5.296 -0.0081 -0.0918  0.4662
 5806SOL    HW129054   2.641   2.322   5.384  2.5089 -0.0560  1.2777
 5806SOL    HW229055   2.603   2.308   5.237  0.8381  1.8561 -1.7355
 5807SOL     OW29056   0.645   1.404   9.349  0.6594  0.6520 -0.1899
 5807SOL    HW129057   0.565   1.455   9.341 -1.0319 -1.8010  1.3061
 5807SOL    HW229058   0.696   1.431   9.272 -0.1885 -1.0229 -1.3567
 5808SOL     OW29059   2.515   4.471   1.643 -0.1635  0.2483  0.6222
 5808SOL    HW129060   2.438   4.483   1.588  1.4895 -0.9198 -1.9078
 5808SOL    HW229061   2.521   4.375   1.646 -0.2985  0.2449  0.7764
 5809SOL     OW29062   1.400   2.863   6.062  0.0794 -0.2681  1.0728
 5809SOL    HW129063   1.404   2.848   5.967 -1.0904 -0.5003  1.0512
 5809SOL    HW229064   1.326   2.923   6.076  0.6857  0.3899  1.4191
 5810SOL     OW29065   1.775   0.862   8.782 -0.2541  0.7683 -0.0369
 5810SOL    HW129066   1.818   0.940   8.817 -0.0052 -0.3170  2.0970
 5810SOL    HW229067   1.741   0.829   8.865  1.7708  2.4079  1.4526
 5811SOL     OW29068   2.824   3.435   3.796  0.0590 -0.2456  0.5624
 5811SOL    HW129069   2.877   3.377   3.851 -1.0908 -1.2086  0.6529
 5811SOL    HW229070   2.862   3.435   3.708 -0.7123  0.5161  0.2280
 5812SOL     OW29071   0.529   2.499   9.638  0.4624 -0.0048  0.0405
 5812SOL    HW129072   0.438   2.521   9.615 -0.5056 -1.7835  2.1980
 5812SOL    HW229073   0.514   2.423   9.694  0.6103 -0.5558 -0.6577
 5813SOL     OW29074   4.323   0.594   0.538  0.0603  0.5656  0.1703
 5813SOL    HW129075   4.313   0.655   0.611  0.0118  0.3383  0.3562
 5813SOL    HW229076   4.395   0.540   0.572 -1.9063 -0.4954  2.6494
 5814SOL     OW29077   0.910   4.037  14.619 -0.2745 -0.0362 -0.3648
 5814SOL    HW129078   0.904   4.048  14.713  1.2094  0.0995 -0.2862
 5814SOL    HW229079   0.997   3.999  14.609  0.3501  1.4532 -0.5580
 5815SOL     OW29080   4.645   1.168   7.356 -0.0652  0.3191 -0.8442
 5815SOL    HW129081   4.725   1.217   7.342 -0.7538  1.5470 -0.4715
 5815SOL    HW229082   4.575   1.211   7.307 -2.0474  0.5815  2.2134
 5816SOL     OW29083   2.615   1.574   9.187  0.2682  0.1618 -0.5767
 5816SOL    HW129084   2.690   1.529   9.226 -0.8794 -1.1911  0.0726
 5816SOL    HW229085   2.574   1.502   9.140 -0.1365  0.5602 -0.8318
 5817SOL     OW29086   0.023   3.973   7.854 -0.3106 -0.6542  0.1122
 5817SOL    HW129087   0.067   4.055   7.832 -2.3113  0.1924 -0.6779
 5817SOL    HW229088   4.677   3.994   7.892 -0.4693  0.4838 -0.8671
 5818SOL     OW29089   2.022   0.057   6.645 -0.3087 -0.0506 -0.0145
 5818SOL    HW129090   1.969   0.052   6.565 -0.3327 -1.5131  0.0969
 5818SOL    HW229091   1.952   0.081   6.706  0.4983 -2.4738  1.8461
 5819SOL     OW29092   2.684   2.917   4.483  0.4795  0.3793  0.2054
 5819SOL    HW129093   2.617   2.871   4.432 -1.5501  1.2133  2.1365
 5819SOL    HW229094   2.753   2.866   4.440  1.1773  0.8621  0.7624
 5820SOL     OW29095   2.287   1.186   6.929  0.1391 -0.5103 -0.5308
 5820SOL    HW129096   2.209   1.234   6.957 -0.3742 -0.9600 -1.1803
 5820SOL    HW229097   2.246   1.119   6.873  0.5154 -1.9442  0.9249
 5821SOL     OW29098   4.344   1.488   1.292  0.3770  0.5057 -0.2841
 5821SOL    HW129099   4.424   1.537   1.311 -2.1919  3.8756  1.9012
 5821SOL    HW229100   4.322   1.504   1.201 -1.9131  0.8169  0.3105
 5822SOL     OW29101   1.674   2.899  16.912 -0.4777 -0.0699 -0.0620
 5822SOL    HW129102   1.691   2.861  16.826  0.0394  0.2888 -0.1227
 5822SOL    HW229103   1.592   2.945  16.894 -0.4052 -0.0935 -0.4612
 5823SOL     OW29104   3.895   1.251  15.570 -0.2194  0.2348 -0.1549
 5823SOL    HW129105   3.847   1.215  15.644  1.0804 -0.7008  0.2377
 5823SOL    HW229106   3.920   1.174  15.519 -0.9904 -0.0582 -0.0927
 5824SOL     OW29107   1.380   4.484   0.522  0.2371 -0.0031  0.0555
 5824SOL    HW129108   1.449   4.494   0.456  0.4938  0.3133  0.3680
 5824SOL    HW229109   1.305   4.500   0.464  0.0758 -1.0766 -0.0312
 5825SOL     OW29110   1.791   0.880   5.889  0.3156  0.3929 -0.2680
 5825SOL    HW129111   1.837   0.862   5.971 -2.0088  0.9464  1.1600
 5825SOL    HW229112   1.810   0.796   5.847  0.1011  0.2043  0.0076
 5826SOL     OW29113   0.059   0.100   2.140  0.6170 -0.2874 -0.0809
 5826SOL    HW129114   0.148   0.102   2.175  0.7478  1.4692 -0.5254
 5826SOL    HW229115   0.009   0.071   2.216  2.4039  0.1426  1.2499
 5827SOL     OW29116   0.365   1.481   2.607  0.1052  0.6617 -0.4339
 5827SOL    HW129117   0.425   1.475   2.533  0.0894 -0.6973 -0.3323
 5827SOL    HW229118   0.415   1.528   2.674  1.7944  0.6254 -1.6613
 5828SOL     OW29119   0.790   2.872   3.740  0.1076  0.3139  0.7399
 5828SOL    HW129120   0.817   2.964   3.737 -0.0262  0.2154 -3.5828
 5828SOL    HW229121   0.870   2.836   3.778  0.1037 -1.5291 -0.9757
 5829SOL     OW29122   2.137   0.131   4.040 -0.3594 -0.1449  0.4170
 5829SOL    HW129123   2.120   0.220   4.008  0.4058 -0.1549  0.0043
 5829SOL    HW229124   2.138   0.085   3.956  0.0540  1.0318 -0.2182
 5830SOL     OW29125   0.003   0.036  16.161  0.1859 -0.0080 -0.0276
 5830SOL    HW129126   0.032   0.126  16.174  1.0778 -0.3298  0.1581
 5830SOL    HW229127   0.035   0.031  16.071 -0.1476 -2.3976  0.0084
 5831SOL     OW29128   0.240   2.537   5.145  0.3342 -0.1124  0.1384
 5831SOL    HW129129   0.248   2.629   5.169  2.3272 -0.3641  0.4006
 5831SOL    HW229130   0.218   2.499   5.230 -0.2775  0.2287  0.1370
 5832SOL     OW29131   1.045   1.072  12.625 -0.3893 -0.2740  0.1872
 5832SOL    HW129132   1.006   0.994  12.586  0.2319  0.2990 -1.5905
 5832SOL    HW229133   1.092   1.040  12.702  1.0513  0.9229 -0.2003
 5833SOL     OW29134   3.230   0.963   7.362 -0.0796 -0.0583 -0.3245
 5833SOL    HW129135   3.181   0.905   7.304 -0.0094 -1.5352  1.0840
 5833SOL    HW229136   3.226   0.907   7.440  0.9343 -1.2773 -1.1577
 5834SOL     OW29137   3.848   3.286  11.633  0.0830 -0.0588  0.3413
 5834SOL    HW129138   3.883   3.199  11.615 -0.5089 -0.2005 -0.0913
 5834SOL    HW229139   3.871   3.324  11.548  0.3861 -0.0999  0.4026
 5835SOL     OW29140   1.663   3.932  13.972 -0.2001 -0.1615  0.9264
 5835SOL    HW129141   1.695   3.844  13.954 -1.5647 -0.3565 -0.4723
 5835SOL    HW229142   1.733   3.990  13.944  0.2972 -0.8445  0.7693
 5836SOL     OW29143   1.963   1.061   7.395 -0.2891  0.0913 -0.3150
 5836SOL    HW129144   2.003   1.147   7.412 -1.4039  0.9378 -1.9091
 5836SOL    HW229145   1.928   1.077   7.307  1.0901  1.8334 -0.5480
 5837SOL     OW29146   2.989   3.575   4.796 -0.4810 -0.3457 -0.3629
 5837SOL    HW129147   3.014   3.656   4.842 -1.7750  0.1559 -0.5378
 5837SOL    HW229148   3.007   3.511   4.865 -1.4768 -0.3816 -0.1352
 5838SOL     OW29149   3.133   3.200   6.629  0.0372 -0.5332 -0.6450
 5838SOL    HW129150   3.041   3.173   6.633  0.1223 -0.4732  1.6443
 5838SOL    HW229151   3.125   3.283   6.674 -3.0394 -0.5936 -1.0759
 5839SOL     OW29152   0.209   1.735   4.398  0.9035 -0.1697 -0.4936
 5839SOL    HW129153   0.294   1.761   4.432 -0.2307  1.2067  1.3132
 5839SOL    HW229154   0.208   1.781   4.314 -0.0713 -0.1322 -0.4599
 5840SOL     OW29155   2.405   2.184   5.128  0.1465 -0.2172 -0.3736
 5840SOL    HW129156   2.458   2.112   5.094  0.7281  0.3059 -0.5655
 5840SOL    HW229157   2.366   2.205   5.043 -1.8967 -1.2509  0.3145
 5841SOL     OW29158   2.934   2.593   9.895  0.2565 -0.0755 -0.3691
 5841SOL    HW129159   2.847   2.571   9.929 -0.0883  0.2538 -1.0480
 5841SOL    HW229160   2.921   2.589   9.801  1.8744 -0.2384 -0.5772
 5842SOL     OW29161   2.151   2.802   9.239 -0.2569  0.2503 -0.0367
 5842SOL    HW129162   2.183   2.821   9.327  0.6419 -0.3724 -0.2299
 5842SOL    HW229163   2.075   2.748   9.257 -0.9726  1.1031 -0.4890
 5843SOL     OW29164   1.167   0.929   1.570 -0.1293  0.3982 -0.1081
 5843SOL    HW129165   1.088   0.970   1.605  1.1761  0.8260  2.2932
 5843SOL    HW229166   1.165   0.959   1.479 -1.9418  1.5622  0.3051
 5844SOL     OW29167   4.045   1.444  10.866 -0.1351 -0.2270 -0.0252
 5844SOL    HW129168   3.974   1.379  10.862 -1.1540  0.9109 -0.2992
 5844SOL    HW229169   4.117   1.386  10.892 -0.3647 -0.6840 -0.4201
 5845SOL     OW29170   2.565   1.501   8.834 -0.5317  0.7440  0.2561
 5845SOL    HW129171   2.596   1.410   8.837 -0.3968  0.6115 -4.7943
 5845SOL    HW229172   2.487   1.486   8.888  0.6799  1.5896  2.2163
 5846SOL     OW29173   3.602   0.096   5.216 -0.2214 -0.3086 -0.0893
 5846SOL    HW129174   3.635   0.121   5.130 -0.0269 -0.0016  0.0761
 5846SOL    HW229175   3.625   0.174   5.266 -0.2018  0.8179 -1.8707
 5847SOL     OW29176   1.008   0.115  16.870 -0.3225  0.0770 -0.7873
 5847SOL    HW129177   1.085   0.112  16.813 -1.3739  1.3977 -2.2960
 5847SOL    HW229178   0.952   0.052  16.825 -1.1173  2.0947 -2.6371
 5848SOL     OW29179   0.809   1.634   7.934 -0.1124 -0.4376 -0.1077
 5848SOL    HW129180   0.891   1.650   7.982  0.3973 -3.4440  0.0222
 5848SOL    HW229181   0.775   1.546   7.952  0.0697 -0.2266  1.3029
 5849SOL     OW29182   0.234   3.186   9.021 -0.3921 -0.5877  0.1421
 5849SOL    HW129183   0.295   3.236   9.076  0.2122  0.3497 -1.3836
 5849SOL    HW229184   0.188   3.258   8.978 -1.9063 -0.5626  1.8062
 5850SOL     OW29185   0.071   3.772   6.592  0.0390  0.0731  0.5048
 5850SOL    HW129186   0.053   3.858   6.556  2.8488  0.9313  1.2161
 5850SOL    HW229187   0.025   3.718   6.528  1.8423  0.1120 -0.8114
 5851SOL     OW29188   2.753   2.968   1.152  0.2157  0.0388  0.9830
 5851SOL    HW129189   2.776   3.060   1.163 -0.5674  0.4732 -0.9555
 5851SOL    HW229190   2.700   2.945   1.229 -1.7274  0.7144 -0.1392
 5852SOL     OW29191   1.134   2.962   2.957  0.0849 -0.6140  0.0709
 5852SOL    HW129192   1.198   2.898   2.925  0.0985 -0.8276  0.5257
 5852SOL    HW229193   1.133   3.036   2.897 -0.4906 -2.2434 -1.8835
 5853SOL     OW29194   3.709   3.308  16.339 -0.3052 -0.1187 -0.3053
 5853SOL    HW129195   3.683   3.339  16.253  0.9556  1.1271 -0.2383
 5853SOL    HW229196   3.804   3.311  16.325 -0.1845 -0.1343  0.4756
 5854SOL     OW29197   0.456   3.185   5.702  0.9627  0.6283  0.2458
 5854SOL    HW129198   0.487   3.210   5.615  0.1296  1.0330  0.0568
 5854SOL    HW229199   0.530   3.204   5.759  1.0313 -1.8809  0.9607
 5855SOL     OW29200   0.399   1.826   1.624  0.2578  0.5905 -0.1111
 5855SOL    HW129201   0.325   1.854   1.677  0.8911 -0.1008  1.1383
 5855SOL    HW229202   0.367   1.824   1.533  0.9797 -1.8247 -0.3182
 5856SOL     OW29203   0.607   3.919  16.618 -0.2751 -0.1359 -0.1902
 5856SOL    HW129204   0.679   3.981  16.608 -0.0533  0.1430  3.0510
 5856SOL    HW229205   0.583   3.952  16.705 -3.0223  0.6028 -1.2218
 5857SOL     OW29206   0.918   3.718  11.785  0.1947 -0.5052 -0.3329
 5857SOL    HW129207   0.934   3.703  11.692  1.5537 -0.1546 -0.1540
 5857SOL    HW229208   0.826   3.742  11.782  0.3098 -0.0922 -0.5580
 5858SOL     OW29209   4.398   0.215   1.692  0.1320  0.1440 -0.0927
 5858SOL    HW129210   4.391   0.161   1.771 -1.2820  0.5145  0.0376
 5858SOL    HW229211   4.351   0.294   1.716 -1.0401 -0.8389  0.8708
 5859SOL     OW29212   2.487   1.000   3.270 -0.5821 -0.0246  0.1456
 5859SOL    HW129213   2.481   0.933   3.338 -3.8196  0.7373  0.6051
 5859SOL    HW229214   2.562   0.967   3.220  0.0290 -3.7612  3.5061
 5860SOL     OW29215   1.129   3.614  14.117  0.2052 -0.2094 -0.0628
 5860SOL    HW129216   1.161   3.602  14.027 -1.1677  0.1108 -0.5870
 5860SOL    HW229217   1.046   3.659  14.100 -0.4152 -1.3602 -0.1025
 5861SOL     OW29218   0.901   0.393  12.402 -0.2394 -0.4938 -0.1426
 5861SOL    HW129219   0.880   0.332  12.331  2.4267 -2.4902  0.7956
 5861SOL    HW229220   0.989   0.425  12.380 -0.2361 -0.0640  0.5032
 5862SOL     OW29221   3.491   0.698   6.452  0.3304 -0.0089 -0.2639
 5862SOL    HW129222   3.446   0.724   6.532 -0.3698 -0.2212 -0.5854
 5862SOL    HW229223   3.530   0.613   6.473  1.0606  1.2301  3.2903
 5863SOL     OW29224   0.832   2.300   3.458  0.1888 -0.7430 -0.1482
 5863SOL    HW129225   0.760   2.240   3.473 -1.2648  1.2939  0.9604
 5863SOL    HW229226   0.856   2.299   3.366  1.1525  1.3193  0.0758
 5864SOL     OW29227   0.150   3.367   1.385 -0.5588  0.3374  0.1517
 5864SOL    HW129228   0.149   3.394   1.477  1.3493 -2.5530  1.0531
 5864SOL    HW229229   0.119   3.449   1.347 -1.2863  0.5220  1.1464
 5865SOL     OW29230   0.972   1.849   3.167 -0.1057  0.2003 -0.2680
 5865SOL    HW129231   0.987   1.790   3.241  0.7702 -0.3178 -0.8543
 5865SOL    HW229232   1.061   1.881   3.155 -0.3434  1.2356  0.7524
 5866SOL     OW29233   3.043   4.056   5.503  0.8658  0.5260  0.1989
 5866SOL    HW129234   2.959   4.101   5.498  0.0577 -1.0880 -0.6433
 5866SOL    HW229235   3.027   4.023   5.592 -1.0557  1.0145  0.0294
 5867SOL     OW29236   2.354   1.097   7.398 -0.3201  0.3005 -0.2345
 5867SOL    HW129237   2.437   1.053   7.417 -0.5871 -0.5663 -1.0325
 5867SOL    HW229238   2.301   1.020   7.376 -1.2332  0.9439 -0.3090
 5868SOL     OW29239   4.330   2.458   4.092 -0.2240  0.1657 -0.4320
 5868SOL    HW129240   4.370   2.384   4.048 -1.2960 -0.5763 -0.1652
 5868SOL    HW229241   4.379   2.449   4.174  2.5309 -0.9255 -2.2318
 5869SOL     OW29242   1.129   3.391   5.928 -0.0297  0.2373  0.2464
 5869SOL    HW129243   1.156   3.418   5.840 -1.2639 -1.8865 -0.7817
 5869SOL    HW229244   1.199   3.421   5.987  0.1550  0.2533  0.0193
 5870SOL     OW29245   3.740   0.066  11.781 -0.1763  0.7159  0.0478
 5870SOL    HW129246   3.764   4.716  11.753 -0.4402 -0.3519  3.2809
 5870SOL    HW229247   3.644   0.066  11.778 -0.1393  0.8583 -1.1729
 5871SOL     OW29248   1.773   2.480  16.476 -0.4177  0.3336  0.6451
 5871SOL    HW129249   1.861   2.443  16.474 -1.5179 -2.2352 -0.2932
 5871SOL    HW229250   1.743   2.463  16.565  0.6708 -0.7210  0.8165
 5872SOL     OW29251   2.092   0.999   0.065  0.4418  0.3684 -0.0988
 5872SOL    HW129252   2.076   0.994  17.725 -1.7506  1.9422  0.2006
 5872SOL    HW229253   2.178   0.957   0.067 -0.2513 -1.0194  0.4781
 5873SOL     OW29254   1.091   3.051   2.112 -0.5415  0.3146 -0.1418
 5873SOL    HW129255   1.162   3.024   2.053 -1.0875 -1.3385 -0.0555
 5873SOL    HW229256   1.051   3.129   2.074  2.0418  2.0960  0.7652
 5874SOL     OW29257   2.834   3.459   2.823  0.1896 -0.4452  0.1760
 5874SOL    HW129258   2.746   3.482   2.794  0.6554  1.1307  0.0500
 5874SOL    HW229259   2.824   3.451   2.918 -0.7037 -1.3969  0.0064
 5875SOL     OW29260   3.254   0.265   7.003  0.0751 -0.4794  0.1187
 5875SOL    HW129261   3.343   0.258   7.036  0.7529 -1.7022 -1.9508
 5875SOL    HW229262   3.274   0.208   6.929 -0.1785  3.0084 -2.6365
 5876SOL     OW29263   3.661   4.275  15.018 -0.2684  0.0430 -0.2217
 5876SOL    HW129264   3.671   4.182  15.037 -1.1850 -0.1342 -0.5830
 5876SOL    HW229265   3.601   4.269  14.943 -1.7341  1.1016  0.8675
 5877SOL     OW29266   1.598   3.068   8.941  0.7136  0.5519 -0.4848
 5877SOL    HW129267   1.606   3.015   9.020  2.2354  0.6811 -0.5553
 5877SOL    HW229268   1.528   3.028   8.890  1.0155  2.2262 -2.1994
 5878SOL     OW29269   1.977   0.825   6.973  0.1125 -0.5172 -0.2818
 5878SOL    HW129270   1.966   0.730   6.978 -3.2211 -0.1968 -1.6383
 5878SOL    HW229271   2.035   0.827   6.897  1.0128 -0.3604  0.4063
 5879SOL     OW29272   0.407   1.290  10.285 -0.1658  0.0891  0.5262
 5879SOL    HW129273   0.336   1.231  10.258 -0.0732  0.8912 -1.4909
 5879SOL    HW229274   0.367   1.345  10.352 -0.6958 -0.9930  1.0954
 5880SOL     OW29275   0.148   3.511   4.394 -0.0731  0.4196  0.0634
 5880SOL    HW129276   0.208   3.458   4.446 -3.0850 -2.4419  0.6188
 5880SOL    HW229277   0.199   3.576   4.345  1.1705  0.3602  1.2642
 5881SOL     OW29278   2.201   0.156   1.416 -0.0712 -1.0032 -0.1847
 5881SOL    HW129279   2.167   0.080   1.463  0.8071 -0.3504  1.5279
 5881SOL    HW229280   2.251   0.193   1.489 -0.4089 -0.7477 -0.0812
 5882SOL     OW29281   0.900   2.130   4.270 -0.1670  0.3161  0.2504
 5882SOL    HW129282   0.858   2.099   4.351  0.4233 -2.1196 -0.3884
 5882SOL    HW229283   0.901   2.225   4.278  0.2015  0.3683 -0.4351
 5883SOL     OW29284   0.619   0.817   1.963  0.4438  0.4519  0.2521
 5883SOL    HW129285   0.708   0.805   1.931  1.0636  3.0203  1.0431
 5883SOL    HW229286   0.587   0.727   1.956 -2.0268  1.3206  0.0981
 5884SOL     OW29287   2.498   2.294  14.857 -0.0748  0.0470  0.1234
 5884SOL    HW129288   2.480   2.348  14.780  1.9014  0.6247  0.0719
 5884SOL    HW229289   2.439   2.223  14.833 -0.8994  0.3138  1.3811
 5885SOL     OW29290   3.297   4.137   8.707  0.0903 -0.6743 -0.4644
 5885SOL    HW129291   3.383   4.107   8.735 -0.2824 -0.9046  0.4126
 5885SOL    HW229292   3.239   4.100   8.774 -2.0786  4.0665  0.2458
 5886SOL     OW29293   2.052   0.600   4.311  0.0596  0.1758  0.0304
 5886SOL    HW129294   2.003   0.681   4.298 -3.7186 -2.0254  0.5889
 5886SOL    HW229295   1.981   0.547   4.275 -0.1148 -0.4839  1.3163
 5887SOL     OW29296   2.250   0.109   6.800 -0.5528  0.7674 -0.0133
 5887SOL    HW129297   2.200   0.121   6.719  0.3214 -0.9796 -0.8158
 5887SOL    HW229298   2.224   0.025   6.838  0.3614  0.0383 -0.9859
 5888SOL     OW29299   4.421   0.499   2.620  0.1285  0.6031 -0.9058
 5888SOL    HW129300   4.477   0.427   2.591  0.2471 -0.2127  1.3668
 5888SOL    HW229301   4.333   0.461   2.612 -0.1706  0.5601  2.7486
 5889SOL     OW29302   1.221   4.598   9.191  0.1615  0.3726 -0.5453
 5889SOL    HW129303   1.259   4.669   9.243 -0.4099 -0.6754  1.3118
 5889SOL    HW229304   1.294   4.540   9.175 -1.4383 -1.7011 -0.3483
 5890SOL     OW29305   3.577   3.510  11.416  1.2261  0.4348  0.1516
 5890SOL    HW129306   3.536   3.595  11.431  1.9664  0.9054 -0.4770
 5890SOL    HW229307   3.505   3.456  11.447  0.8791  0.4297 -0.6870
 5891SOL     OW29308   0.838   3.218   7.754 -0.0400 -0.1452 -0.3666
 5891SOL    HW129309   0.895   3.150   7.717 -0.5757  0.8473 -2.9836
 5891SOL    HW229310   0.864   3.293   7.701  0.5148 -1.9904 -2.7087
 5892SOL     OW29311   2.014   1.199  14.083  0.4228  0.0521  0.3474
 5892SOL    HW129312   2.005   1.175  13.990 -0.0591  0.6547  0.2375
 5892SOL    HW229313   1.921   1.203  14.106  0.5767 -1.6037  1.2538
 5893SOL     OW29314   1.003   1.460   7.780 -0.6246  0.4819 -0.0839
 5893SOL    HW129315   0.976   1.381   7.826  0.1786 -0.8706 -1.9444
 5893SOL    HW229316   1.052   1.519   7.837 -0.1318 -2.1589  2.1693
 5894SOL     OW29317   0.586   2.294   2.286  0.3155  0.4299 -0.1155
 5894SOL    HW129318   0.561   2.304   2.378  2.6175 -1.6564  0.7189
 5894SOL    HW229319   0.525   2.355   2.244 -0.4767 -0.3981 -0.1687
 5895SOL     OW29320   4.683   3.260   6.728  0.0893 -0.2810  0.6408
 5895SOL    HW129321   4.590   3.242   6.715 -0.0994 -0.0153  1.6061
 5895SOL    HW229322   4.711   3.190   6.788  1.7317  1.2138  1.6263
 5896SOL     OW29323   4.440   1.169  17.731 -0.1156  0.3827 -0.1600
 5896SOL    HW129324   4.347   1.189  17.744  0.1691  2.2595 -1.0249
 5896SOL    HW229325   4.452   1.176  17.636 -1.6080  0.2286 -0.3642
 5897SOL     OW29326   1.998   3.964   9.838 -0.1678 -0.0906  0.2300
 5897SOL    HW129327   2.023   3.873   9.856  0.9770  0.7084  2.6903
 5897SOL    HW229328   1.924   3.946   9.780  0.4393 -1.8057 -0.0369
 5898SOL     OW29329   1.540   3.354   7.973 -0.0184 -0.2864  0.8945
 5898SOL    HW129330   1.514   3.432   7.924  1.2470 -1.0973 -1.0498
 5898SOL    HW229331   1.515   3.286   7.911  1.2578 -2.0585  2.3192
 5899SOL     OW29332   1.964   4.524   1.955 -0.9956  0.3953  0.6934
 5899SOL    HW129333   2.046   4.568   1.978 -1.6771  1.7212  0.6022
 5899SOL    HW229334   1.996   4.445   1.913  0.5673  0.4149  1.8275
 5900SOL     OW29335   4.485   0.795  16.954 -0.0808 -0.1269 -0.3969
 5900SOL    HW129336   4.404   0.746  16.972  0.0738 -0.5213 -0.7988
 5900SOL    HW229337   4.474   0.880  16.996 -2.3577 -0.1483 -0.9352
 5901SOL     OW29338   1.934   1.252   0.878  0.4706 -0.0768 -0.5611
 5901SOL    HW129339   1.840   1.255   0.861 -0.0281 -0.8995  2.0648
 5901SOL    HW229340   1.932   1.268   0.972 -0.8273 -1.2183 -0.4033
 5902SOL     OW29341   3.923   4.255  10.824 -0.3664  0.0866  0.1866
 5902SOL    HW129342   3.897   4.194  10.756  3.6728  0.3720 -1.6230
 5902SOL    HW229343   3.992   4.206  10.868  0.3326 -0.6955 -1.7827
 5903SOL     OW29344   0.041   0.508  14.991  0.4490  0.0790 -0.6721
 5903SOL    HW129345   4.709   0.570  14.975 -2.5427 -2.9330  0.7176
 5903SOL    HW229346   0.023   0.454  14.914  0.3212 -2.0951  0.8632
 5904SOL     OW29347   1.748   3.530   2.851 -0.3329  0.3432 -0.0463
 5904SOL    HW129348   1.661   3.513   2.887 -0.6657 -1.4720 -1.6764
 5904SOL    HW229349   1.801   3.466   2.899 -0.7475  0.1344  0.1361
 5905SOL     OW29350   2.056   0.364   1.815 -0.1096  0.0457 -0.0887
 5905SOL    HW129351   2.119   0.421   1.770  0.6774 -0.4338  0.3974
 5905SOL    HW229352   2.082   0.279   1.780  0.9549  0.6230 -0.6883
 5906SOL     OW29353   2.454   1.144  16.908 -0.1423 -0.6946 -0.0173
 5906SOL    HW129354   2.512   1.069  16.897  0.8353  0.3220 -1.8658
 5906SOL    HW229355   2.461   1.151  17.003  1.1763 -0.2528 -0.1412
 5907SOL     OW29356   0.245   4.175   3.708 -0.1356  0.2113  0.2389
 5907SOL    HW129357   0.327   4.190   3.756 -0.4574 -0.6677  1.0720
 5907SOL    HW229358   0.177   4.156   3.772 -0.0437  0.7235  0.4871
 5908SOL     OW29359   3.017   0.442   0.596 -0.1108 -1.0632 -0.6387
 5908SOL    HW129360   2.959   0.382   0.549 -0.4558  0.0246 -1.6145
 5908SOL    HW229361   2.954   0.491   0.649  0.3112  1.0699 -2.0845
 5909SOL     OW29362   4.004   0.850   1.813 -0.0011  0.4087  0.0286
 5909SOL    HW129363   4.054   0.852   1.732 -1.5494 -2.3290 -1.0218
 5909SOL    HW229364   3.936   0.793   1.775 -1.5652  1.0509  1.8669
 5910SOL     OW29365   2.363   1.939   4.764 -0.2257 -0.1876 -0.1468
 5910SOL    HW129366   2.276   1.899   4.771 -0.5652  0.6000  0.1382
 5910SOL    HW229367   2.346   2.033   4.762  0.6388 -0.0401 -0.8034
 5911SOL     OW29368   3.669   3.100   7.533  0.0166  0.1234 -0.0525
 5911SOL    HW129369   3.655   3.124   7.441  1.7866 -1.0845 -0.6343
 5911SOL    HW229370   3.633   3.012   7.523  2.9922 -1.1432  0.3888
 5912SOL     OW29371   3.047   3.975   3.165 -1.1250  0.0434 -0.1328
 5912SOL    HW129372   3.090   3.946   3.245  3.1789  0.1178 -2.3901
 5912SOL    HW229373   2.997   3.900   3.133  1.1538 -1.4056 -0.2860
 5913SOL     OW29374   3.577   1.118  13.640  0.2160  0.0219  0.1349
 5913SOL    HW129375   3.507   1.179  13.664 -1.0277 -0.2508 -2.7712
 5913SOL    HW229376   3.621   1.176  13.577 -0.2337 -0.5215 -0.6696
 5914SOL     OW29377   2.504   2.377   4.822  0.4532  0.1049  0.0550
 5914SOL    HW129378   2.573   2.415   4.876  0.2477  0.0001  0.3925
 5914SOL    HW229379   2.562   2.346   4.753  0.0901 -0.4116 -0.0122
 5915SOL     OW29380   0.581   0.220   2.435  0.0633 -0.5673  0.4763
 5915SOL    HW129381   0.623   0.300   2.464  0.1433 -0.0490 -1.0807
 5915SOL    HW229382   0.637   0.180   2.369  1.5665  1.2835  0.6491
 5916SOL     OW29383   0.692   0.789  17.227 -0.1134  0.1119  0.0247
 5916SOL    HW129384   0.659   0.745  17.148  1.0144  1.9642 -1.4872
 5916SOL    HW229385   0.647   0.735  17.291 -0.2101  0.1423 -0.0179
 5917SOL     OW29386   2.787   4.478  17.453 -1.0444 -0.5827 -0.0698
 5917SOL    HW129387   2.817   4.531  17.527  1.4253 -0.0153 -1.4885
 5917SOL    HW229388   2.846   4.404  17.443  1.2935  1.1354  1.0558
 5918SOL     OW29389   2.821   0.720   2.812  1.0272  0.2708 -0.2073
 5918SOL    HW129390   2.833   0.703   2.905  2.9556  0.9574 -0.3483
 5918SOL    HW229391   2.913   0.726   2.789  0.4732  0.2411 -2.5396
 5919SOL     OW29392   3.607   0.127   4.849 -0.5077  0.1658  0.1204
 5919SOL    HW129393   3.543   0.060   4.872 -0.6765 -0.0074 -0.8696
 5919SOL    HW229394   3.676   0.100   4.910 -1.5142  0.1693  1.2746
 5920SOL     OW29395   0.229   0.323   2.595  0.2311 -0.4265 -0.6561
 5920SOL    HW129396   0.277   0.331   2.513 -0.0983 -1.0570 -0.9115
 5920SOL    HW229397   0.280   0.383   2.649 -0.9850 -0.7273  0.8330
 5921SOL     OW29398   2.890   1.863   5.555  0.8088  0.0318  0.2283
 5921SOL    HW129399   2.970   1.826   5.518 -1.6497 -1.5921 -3.4544
 5921SOL    HW229400   2.930   1.921   5.619  2.6915 -0.8679 -0.1340
 5922SOL     OW29401   0.508   3.913   7.729  0.3644 -0.4934 -0.0147
 5922SOL    HW129402   0.451   3.842   7.700  0.3139 -0.9061  1.1349
 5922SOL    HW229403   0.588   3.897   7.678 -0.0768 -0.5019 -0.7113
 5923SOL     OW29404   0.350   1.648  12.741 -0.2614 -0.5526  0.3696
 5923SOL    HW129405   0.392   1.616  12.661  0.2713 -0.0382  0.4425
 5923SOL    HW229406   0.356   1.743  12.736 -3.5199 -0.5505 -2.9709
 5924SOL     OW29407   1.226   2.655   3.128 -0.4616  0.2205 -0.2436
 5924SOL    HW129408   1.244   2.692   3.215 -1.3618  0.3918 -0.1278
 5924SOL    HW229409   1.288   2.700   3.070  1.6053 -0.1846  1.6555
 5925SOL     OW29410   1.734   1.494  12.727 -0.1391 -0.0888  0.6527
 5925SOL    HW129411   1.813   1.489  12.780  0.3730 -2.4600 -0.3261
 5925SOL    HW229412   1.771   1.535  12.648 -0.8004  0.3996  0.6018
 5926SOL     OW29413   0.917   4.066   6.258 -0.2461  0.6071 -0.3887
 5926SOL    HW129414   0.900   4.075   6.351 -0.2664  0.1667 -0.3485
 5926SOL    HW229415   0.932   3.971   6.255 -0.3372  0.5874 -0.2003
 5927SOL     OW29416   0.767   0.111  16.305  0.2065  0.1415  0.5669
 5927SOL    HW129417   0.698   0.054  16.273 -0.3274  0.5931  0.9194
 5927SOL    HW229418   0.837   0.073  16.252  0.5943  1.3328  0.2166
 5928SOL     OW29419   3.203   4.515   9.357 -0.0996  0.5063  0.6610
 5928SOL    HW129420   3.165   4.509   9.444  2.5008  4.0956  2.0372
 5928SOL    HW229421   3.260   4.438   9.368  1.1844  1.0083 -2.4348
 5929SOL     OW29422   3.447   2.746   4.711 -0.4357  0.2135 -0.2830
 5929SOL    HW129423   3.512   2.697   4.762 -3.0496  0.0238  2.8652
 5929SOL    HW229424   3.379   2.751   4.778  0.1956  0.3094  0.3517
 5930SOL     OW29425   1.431   3.012   4.905  0.2108 -0.2570 -0.0417
 5930SOL    HW129426   1.369   3.084   4.899  1.7427  1.1964  1.5937
 5930SOL    HW229427   1.458   3.010   4.997  0.9104  0.3253 -0.2322
 5931SOL     OW29428   2.493   0.761   3.417  0.0864  0.2645  0.3520
 5931SOL    HW129429   2.537   0.690   3.465  2.9255 -0.8974 -4.0296
 5931SOL    HW229430   2.413   0.715   3.392 -0.4295  1.0704  0.5237
 5932SOL     OW29431   1.890   0.698   9.185  0.1710 -0.0076  0.4683
 5932SOL    HW129432   1.860   0.621   9.135  0.5082 -1.5280  2.6182
 5932SOL    HW229433   1.979   0.686   9.152 -0.5964  1.0266 -1.9889
 5933SOL     OW29434   2.703   3.187  13.649 -0.2013  0.9856  0.1591
 5933SOL    HW129435   2.690   3.253  13.581 -0.8850  0.9653  0.2701
 5933SOL    HW229436   2.677   3.105  13.610  0.1757  1.3738 -0.9036
 5934SOL     OW29437   1.905   3.756  10.498 -0.5039  0.4456 -0.1109
 5934SOL    HW129438   1.814   3.787  10.503 -0.2530  1.1326  0.2352
 5934SOL    HW229439   1.933   3.752  10.589  3.3726 -1.0351 -1.3618
 5935SOL     OW29440   4.443   4.109   6.672  0.5583  0.0273 -0.5958
 5935SOL    HW129441   4.387   4.075   6.602 -0.1237  1.1035 -0.5762
 5935SOL    HW229442   4.414   4.198   6.691 -0.5494 -0.4509 -0.0321
 5936SOL     OW29443   1.906   1.381   7.258 -0.2653  0.3253 -0.1260
 5936SOL    HW129444   1.940   1.463   7.294  0.7819  0.2029 -0.8284
 5936SOL    HW229445   1.827   1.378   7.311 -0.4467  0.9310 -0.3613
 5937SOL     OW29446   2.264   4.535   4.062 -0.3905  0.0913  0.3687
 5937SOL    HW129447   2.330   4.505   4.124 -0.1089 -1.5265 -0.7051
 5937SOL    HW229448   2.321   4.586   4.005  0.1186 -0.4898  0.3558
 5938SOL     OW29449   0.119   2.403   2.861  0.9868  0.1706 -0.6523
 5938SOL    HW129450   0.053   2.340   2.831 -0.6543 -0.8889  5.0127
 5938SOL    HW229451   0.196   2.346   2.870  0.1415 -0.8039  0.4286
 5939SOL     OW29452   1.761   1.500   5.280  0.3684  0.9238  0.0205
 5939SOL    HW129453   1.724   1.422   5.323 -2.3258  1.5666 -1.1364
 5939SOL    HW229454   1.830   1.466   5.224 -1.1811 -2.8377  0.3442
 5940SOL     OW29455   4.684   2.952   4.576  0.1410 -0.1233 -0.0117
 5940SOL    HW129456   4.661   2.971   4.667  1.7234 -1.4671  0.6713
 5940SOL    HW229457   4.689   3.038   4.533 -0.2409  0.0583  0.3085
 5941SOL     OW29458   2.836   3.880   1.930 -0.6451  0.0630 -0.1412
 5941SOL    HW129459   2.916   3.827   1.925 -0.2878  0.4511  1.3301
 5941SOL    HW229460   2.853   3.955   1.988  0.8383  1.5120 -2.4608
 5942SOL     OW29461   0.559   0.144  14.524  0.7260 -0.0791 -0.0521
 5942SOL    HW129462   0.547   0.049  14.524  3.0182 -0.3498  3.5246
 5942SOL    HW229463   0.528   0.168  14.437  3.3814  1.3373 -0.5925
 5943SOL     OW29464   2.291   1.502   2.172 -0.3105  0.1799 -0.1803
 5943SOL    HW129465   2.300   1.470   2.261  1.9519  1.6978  0.1452
 5943SOL    HW229466   2.384   1.516   2.154 -0.1163 -0.7134  0.1252
 5944SOL     OW29467   4.045   3.640   6.230 -0.0030  0.3443 -0.6382
 5944SOL    HW129468   4.010   3.556   6.200 -0.8499  0.6467 -0.4803
 5944SOL    HW229469   3.976   3.706   6.233 -0.3572 -0.0672  0.0681
 5945SOL     OW29470   0.074   3.089   0.244  0.3583 -0.4652  0.4225
 5945SOL    HW129471   0.037   3.018   0.191 -0.3535 -0.0648  0.3876
 5945SOL    HW229472   4.738   3.148   0.246  0.2067 -0.6120 -0.7850
 5946SOL     OW29473   2.562   4.679   7.496 -0.3745  0.2743 -0.2843
 5946SOL    HW129474   2.585   4.739   7.567  0.6350 -0.7014  0.2097
 5946SOL    HW229475   2.630   4.619   7.526  1.0449  1.3825 -1.3247
 5947SOL     OW29476   0.546   2.119   8.345  0.4590  0.1087 -0.6096
 5947SOL    HW129477   0.576   2.185   8.408  1.5946 -0.2199 -0.8076
 5947SOL    HW229478   0.451   2.122   8.360  1.0736  0.5077  3.2307
 5948SOL     OW29479   4.055   2.418   4.906 -0.1399  0.5443 -0.4681
 5948SOL    HW129480   3.989   2.487   4.899 -0.0355  0.5865 -1.0075
 5948SOL    HW229481   4.006   2.336   4.918 -0.4329  0.6465 -0.9328
 5949SOL     OW29482   0.960   0.689   5.238  0.3234 -0.1606 -0.1932
 5949SOL    HW129483   1.043   0.726   5.206  0.3375  1.2364  1.4627
 5949SOL    HW229484   0.983   0.667   5.329 -0.6415  1.7682  0.5127
 5950SOL     OW29485   4.530   0.713   6.696  0.2136  0.0973  0.1168
 5950SOL    HW129486   4.508   0.781   6.633  1.9849 -1.6947 -2.4315
 5950SOL    HW229487   4.480   0.745   6.770  0.3555 -0.7933  0.5958
 5951SOL     OW29488   3.306   0.767   1.878  0.0491 -0.1239  0.1577
 5951SOL    HW129489   3.251   0.843   1.897 -0.3170  0.2982 -2.5949
 5951SOL    HW229490   3.246   0.697   1.852  1.7944 -1.1438 -1.1651
 5952SOL     OW29491   4.358   3.840   1.490  0.0555  0.1238  0.2329
 5952SOL    HW129492   4.437   3.892   1.481  0.7131 -1.0737 -0.9064
 5952SOL    HW229493   4.291   3.908   1.493 -0.0734  0.0375 -0.8259
 5953SOL     OW29494   3.668   0.045   9.114 -0.1157  0.5525 -0.0708
 5953SOL    HW129495   3.727   0.117   9.135 -1.7864  1.6273  0.8826
 5953SOL    HW229496   3.724   4.726   9.062 -1.9300 -0.1394 -1.2459
 5954SOL     OW29497   2.955   1.209   8.789  0.2048  0.1775  0.5433
 5954SOL    HW129498   2.983   1.126   8.750  0.2356  0.7809 -0.6980
 5954SOL    HW229499   2.981   1.274   8.724  3.0815 -1.8134 -0.3183
 5955SOL     OW29500   0.781   3.087   9.337  0.2474 -0.2427 -0.5272
 5955SOL    HW129501   0.847   3.087   9.407  1.1395 -2.7598 -1.3526
 5955SOL    HW229502   0.798   3.162   9.280 -1.4038  2.4310  2.5466
 5956SOL     OW29503   2.786   1.801   6.494  0.0717  0.5635 -0.5081
 5956SOL    HW129504   2.813   1.879   6.542 -0.4628  0.0334  0.6306
 5956SOL    HW229505   2.691   1.806   6.484 -0.1370 -2.3711  0.1219
 5957SOL     OW29506   3.309   3.495  15.202 -0.4130 -0.2613 -0.1089
 5957SOL    HW129507   3.366   3.428  15.240  1.3105  0.6181 -1.1398
 5957SOL    HW229508   3.242   3.446  15.155  0.2319 -0.6226 -0.6470
 5958SOL     OW29509   2.465   3.136   3.903  0.1659  0.1033 -0.2575
 5958SOL    HW129510   2.538   3.181   3.945  0.8261 -0.8690 -0.3440
 5958SOL    HW229511   2.509   3.050   3.898 -0.0380 -0.1376  2.2939
 5959SOL     OW29512   3.772   3.420   5.522 -0.2663 -0.3733 -0.2401
 5959SOL    HW129513   3.752   3.332   5.491  0.1943 -0.3992 -0.4575
 5959SOL    HW229514   3.858   3.399   5.557  0.6145  1.5248 -1.2347
 5960SOL     OW29515   4.080   2.481   6.000 -0.0803  0.1995 -0.1364
 5960SOL    HW129516   4.068   2.567   6.039  1.3795  0.2224  0.2903
 5960SOL    HW229517   3.993   2.479   5.961 -0.6188 -0.7432  1.1224
 5961SOL     OW29518   3.814   0.544   5.582  0.1858  0.2042  0.0790
 5961SOL    HW129519   3.808   0.630   5.540  1.5323 -0.1663 -0.8451
 5961SOL    HW229520   3.725   0.510   5.593 -0.0548  0.8746  0.2543
 5962SOL     OW29521   3.586   1.238   5.110  0.1746  0.1907  0.6211
 5962SOL    HW129522   3.630   1.245   5.025 -0.4313  1.0528  0.3718
 5962SOL    HW229523   3.497   1.263   5.085 -0.0969 -0.8826  0.5205
 5963SOL     OW29524   1.432   0.294   3.231 -0.1151  0.9882 -0.3669
 5963SOL    HW129525   1.434   0.382   3.193  0.4044  0.4740 -1.5166
 5963SOL    HW229526   1.414   0.234   3.159  1.5193 -1.1263  0.9946
 5964SOL     OW29527   4.031   1.660   0.627  0.0492 -0.1984 -0.6310
 5964SOL    HW129528   3.939   1.640   0.607 -0.8638  1.6357  1.7097
 5964SOL    HW229529   4.021   1.751   0.654 -1.1182 -0.4874 -0.0858
 5965SOL     OW29530   4.182   2.373   6.237 -0.3222 -0.2315 -0.1555
 5965SOL    HW129531   4.278   2.370   6.231 -0.4399 -1.5540 -1.2342
 5965SOL    HW229532   4.155   2.401   6.150 -3.1728  0.6465  1.0234
 5966SOL     OW29533   4.085   3.225   6.877  0.2897  0.3561 -0.0977
 5966SOL    HW129534   4.067   3.231   6.783 -0.8314  0.8834  0.1456
 5966SOL    HW229535   4.175   3.195   6.879  0.8434  1.8760 -2.2191
 5967SOL     OW29536   0.443   4.149   9.495 -0.1275  0.4090 -0.1694
 5967SOL    HW129537   0.460   4.173   9.404 -1.3776 -1.7694 -0.9827
 5967SOL    HW229538   0.528   4.139   9.537  1.8091  1.9329 -3.7072
 5968SOL     OW29539   0.711   1.445   3.513  0.4929  0.1542  0.5208
 5968SOL    HW129540   0.748   1.533   3.518  1.2248  0.0116 -2.2974
 5968SOL    HW229541   0.744   1.412   3.429  1.6776 -1.5973  1.6735
 5969SOL     OW29542   4.715   4.610   1.098 -0.1379 -0.3337 -0.2097
 5969SOL    HW129543   4.727   4.584   1.189  0.5826  1.8357  0.2984
 5969SOL    HW229544   4.728   4.705   1.096 -1.0552 -0.1934  1.1865
 5970SOL     OW29545   3.572   0.217   5.700 -0.3718 -0.3148 -0.4774
 5970SOL    HW129546   3.520   0.269   5.762  0.3434  0.3726 -0.4535
 5970SOL    HW229547   3.555   0.265   5.619  0.8116  0.0913 -0.4789
 5971SOL     OW29548   1.491   1.690  17.295  0.6018  0.0154  0.9266
 5971SOL    HW129549   1.413   1.740  17.321 -0.2222  0.4754 -2.3994
 5971SOL    HW229550   1.480   1.624  17.363 -0.3384  0.4027  1.1620
 5972SOL     OW29551   0.506   2.099  16.160 -0.2129 -0.3472 -0.0492
 5972SOL    HW129552   0.442   2.046  16.206 -0.2279 -1.8492 -1.8052
 5972SOL    HW229553   0.449   2.129  16.090  1.3512 -0.0961 -1.2317
 5973SOL     OW29554   1.620   1.899   7.920  0.1921  0.2243 -0.1248
 5973SOL    HW129555   1.639   1.806   7.931 -0.2789  0.4213  2.2165
 5973SOL    HW229556   1.575   1.911   8.004  1.3195  0.9907  0.3594
 5974SOL     OW29557   1.436   0.910   2.515 -0.7482  0.0069  0.1258
 5974SOL    HW129558   1.360   0.871   2.558  0.4059 -2.8496 -0.3902
 5974SOL    HW229559   1.509   0.850   2.530 -0.2247  0.6716  0.2634
 5975SOL     OW29560   3.581   2.487  11.507 -0.7704  0.3671  0.0560
 5975SOL    HW129561   3.595   2.542  11.429 -2.0286 -2.4837 -2.1980
 5975SOL    HW229562   3.520   2.540  11.559 -0.9603  0.4170 -0.2136
 5976SOL     OW29563   3.765   1.321   8.373  0.2884 -0.2525 -0.2097
 5976SOL    HW129564   3.789   1.304   8.465 -2.0654  0.3877  0.5205
 5976SOL    HW229565   3.834   1.268   8.333  2.4484  1.4830  1.1875
 5977SOL     OW29566   0.027   1.812   1.350  0.4063 -0.0819 -0.4720
 5977SOL    HW129567   0.121   1.798   1.364  0.3209 -1.0270 -0.8117
 5977SOL    HW229568   0.001   1.852   1.433  1.2414  0.8569 -0.6687
 5978SOL     OW29569   1.466   3.543   7.368 -0.0037 -0.0836 -0.2675
 5978SOL    HW129570   1.394   3.606   7.370 -2.2671 -2.6843  0.4658
 5978SOL    HW229571   1.412   3.472   7.401  1.4693 -0.9496  0.3021
 5979SOL     OW29572   1.688   3.094  13.735 -0.2622  0.1878  0.1665
 5979SOL    HW129573   1.649   3.080  13.821 -1.9100 -3.2459 -1.1323
 5979SOL    HW229574   1.658   3.020  13.683 -0.1193  1.5835 -1.9387
 5980SOL     OW29575   4.315   0.273   3.374 -0.1146  0.8793  0.1362
 5980SOL    HW129576   4.403   0.308   3.362  0.5006 -0.5722  0.5005
 5980SOL    HW229577   4.329   0.206   3.441  1.5708  0.7440 -0.3632
 5981SOL     OW29578   1.468   0.362   6.929 -0.0841  0.2708  0.0784
 5981SOL    HW129579   1.413   0.284   6.933 -0.3599  0.3382 -2.6208
 5981SOL    HW229580   1.547   0.335   6.977 -0.6664 -1.2531  0.1818
 5982SOL     OW29581   2.589   0.231   7.169 -0.6781  0.2703  0.3867
 5982SOL    HW129582   2.640   0.256   7.092 -0.7213  0.9749  0.5889
 5982SOL    HW229583   2.564   0.142   7.145 -0.8619  0.3328  0.3435
 5983SOL     OW29584   3.984   2.135   8.575 -0.8032  0.2377 -0.1265
 5983SOL    HW129585   3.995   2.083   8.495 -1.8884  1.4374 -1.0432
 5983SOL    HW229586   4.077   2.158   8.584 -0.4759 -0.8123 -0.8009
 5984SOL     OW29587   1.164   4.208   3.859  0.2642 -0.3493 -0.4322
 5984SOL    HW129588   1.234   4.142   3.859 -1.9158 -2.6626 -0.7177
 5984SOL    HW229589   1.209   4.278   3.907 -1.3973  1.8550 -2.1158
 5985SOL     OW29590   0.146   2.679   9.831  0.4702  0.4130 -0.1935
 5985SOL    HW129591   0.052   2.690   9.842  0.5575 -0.2415  1.2445
 5985SOL    HW229592   0.166   2.765   9.796  0.2106  2.0804  3.8373
 5986SOL     OW29593   1.381   2.918   4.099 -0.1361 -0.3625  0.7134
 5986SOL    HW129594   1.301   2.896   4.052  1.6709 -3.5496 -0.9554
 5986SOL    HW229595   1.391   3.012   4.087  2.8457 -0.6518  0.8504
 5987SOL     OW29596   3.826   3.331   8.128  0.0716  0.6057  0.1129
 5987SOL    HW129597   3.819   3.384   8.209  0.4215 -1.4546  1.4809
 5987SOL    HW229598   3.904   3.286   8.160 -1.2137  0.0857  2.5392
 5988SOL     OW29599   1.925   2.958  10.426 -0.6840  0.0073  0.6007
 5988SOL    HW129600   1.953   3.037  10.472  1.0464 -0.6926  0.7708
 5988SOL    HW229601   1.986   2.961  10.353 -2.9752  0.0528 -1.2863
 5989SOL     OW29602   1.378   2.789   2.947  0.2514  0.0098  0.4624
 5989SOL    HW129603   1.414   2.865   2.901  1.4753 -0.9593 -0.1722
 5989SOL    HW229604   1.401   2.727   2.877 -0.6974  1.5324 -1.1953
 5990SOL     OW29605   3.703   3.103   6.026  0.3082 -0.2016  0.1102
 5990SOL    HW129606   3.673   3.160   5.956 -1.3024  0.2660  1.1938
 5990SOL    HW229607   3.797   3.097   6.008  0.6370 -3.1128  2.6674
 5991SOL     OW29608   1.536   1.353   5.468  0.0781 -0.4525 -0.3358
 5991SOL    HW129609   1.602   1.284   5.468 -0.1922 -0.7267  1.4530
 5991SOL    HW229610   1.470   1.310   5.414 -0.5471  0.9655 -0.7103
 5992SOL     OW29611   3.413   0.066   2.395  0.3011 -0.0133  0.6322
 5992SOL    HW129612   3.432   0.160   2.387 -0.3316 -0.0109 -0.9227
 5992SOL    HW229613   3.386   0.044   2.306  0.1426  0.9855  0.4303
 5993SOL     OW29614   4.068   2.651  17.006  1.0477 -0.1115  0.6249
 5993SOL    HW129615   4.142   2.710  16.989 -0.9172  2.6088  1.4656
 5993SOL    HW229616   3.998   2.700  17.049  0.4169 -0.2404 -0.2554
 5994SOL     OW29617   4.598   0.476   1.250 -0.4560 -0.2041 -0.4272
 5994SOL    HW129618   4.540   0.403   1.233 -0.2373 -0.1165 -1.5738
 5994SOL    HW229619   4.581   0.530   1.173  2.0094  3.6419  1.6994
 5995SOL     OW29620   1.887   2.540   4.550 -0.0133 -0.3244  0.1824
 5995SOL    HW129621   1.951   2.496   4.606 -1.1371 -0.6813  1.2023
 5995SOL    HW229622   1.923   2.621   4.515 -1.6449 -0.4110 -1.7050
 5996SOL     OW29623   4.669   0.695   8.622  0.2633  0.1479 -0.1425
 5996SOL    HW129624   4.636   0.766   8.567 -0.0878 -0.3467 -0.5737
 5996SOL    HW229625   4.604   0.626   8.617  1.1501 -0.5036 -2.5408
 5997SOL     OW29626   3.721   2.438  10.192 -0.0402 -0.1160 -0.0745
 5997SOL    HW129627   3.695   2.474  10.107  1.9189 -0.4380 -0.8151
 5997SOL    HW229628   3.662   2.364  10.203  0.9946 -1.0377 -0.7522
 5998SOL     OW29629   3.918   3.111   3.051  0.6931  0.3876  0.1319
 5998SOL    HW129630   3.860   3.052   3.003  2.5662 -0.3647 -1.1938
 5998SOL    HW229631   3.888   3.192   3.012  1.6580  1.1305  0.9425
 5999SOL     OW29632   2.697   1.368  14.834  0.3231 -0.5990  0.1028
 5999SOL    HW129633   2.749   1.292  14.807 -1.1067 -0.9131 -1.8207
 5999SOL    HW229634   2.667   1.326  14.914 -3.2663  0.2931 -0.7726
 6000SOL     OW29635   0.867   2.389   4.329  0.0956  0.5432 -0.0088
 6000SOL    HW129636   0.943   2.410   4.384  0.7169  0.3974 -0.8210
 6000SOL    HW229637   0.789   2.412   4.381 -0.9076 -0.4050 -1.0847
 6001SOL     OW29638   3.587   0.672   0.056 -0.1189 -0.0248 -0.1883
 6001SOL    HW129639   3.494   0.652   0.062  0.1905 -1.7334 -0.9731
 6001SOL    HW229640   3.621   0.653   0.144 -0.7766 -1.8649 -0.3235
 6002SOL     OW29641   3.409   2.344  14.559 -0.6643 -0.1909 -0.2445
 6002SOL    HW129642   3.466   2.271  14.585 -0.7204 -0.1916 -0.1223
 6002SOL    HW229643   3.370   2.316  14.477  1.9369 -0.0192 -1.5252
 6003SOL     OW29644   1.304   2.157  16.015 -0.7904 -0.1689  0.6164
 6003SOL    HW129645   1.316   2.236  15.962 -1.4779  0.6121  1.6278
 6003SOL    HW229646   1.213   2.176  16.037 -1.6471 -1.2942 -1.9414
 6004SOL     OW29647   3.716   4.335   2.829  0.6630  0.1205 -1.0413
 6004SOL    HW129648   3.730   4.417   2.781 -0.9244  0.4069 -1.0121
 6004SOL    HW229649   3.636   4.301   2.789  0.2458 -0.0974 -0.0104
 6005SOL     OW29650   1.227   3.074   3.189 -0.3517 -0.2230 -0.7125
 6005SOL    HW129651   1.175   3.036   3.118 -0.7193 -0.4880 -0.3040
 6005SOL    HW229652   1.297   3.012   3.205  0.4696  1.3084  1.5851
 6006SOL     OW29653   4.419   1.328   1.547 -0.6947  0.3429  0.1817
 6006SOL    HW129654   4.383   1.372   1.470  2.2612  2.1205 -0.1852
 6006SOL    HW229655   4.357   1.257   1.564 -2.4058  2.0043  0.7097
 6007SOL     OW29656   4.154   2.403   9.578  0.0682  0.4125 -0.1294
 6007SOL    HW129657   4.209   2.401   9.500 -2.3594  1.3814 -1.8686
 6007SOL    HW229658   4.071   2.426   9.537 -0.6294 -1.7920  0.0284
 6008SOL     OW29659   1.469   1.698   6.660 -0.4767 -0.3248  0.1215
 6008SOL    HW129660   1.402   1.633   6.643 -0.9307  0.6603 -1.9432
 6008SOL    HW229661   1.415   1.771   6.689 -1.7686 -0.5905 -1.6137
 6009SOL     OW29662   3.446   4.149   9.190 -0.3905  0.3415  0.0545
 6009SOL    HW129663   3.457   4.206   9.267 -1.2155  0.5858 -0.0118
 6009SOL    HW229664   3.470   4.205   9.116  2.5097 -0.6140  0.2847
 6010SOL     OW29665   4.447   2.677  16.823 -0.0391 -1.0374 -0.0131
 6010SOL    HW129666   4.398   2.729  16.888 -0.6111  1.9894 -2.8490
 6010SOL    HW229667   4.389   2.676  16.747  3.2185 -2.9284 -2.4264
 6011SOL     OW29668   3.374   2.215  14.318  0.4159  0.2947  0.2788
 6011SOL    HW129669   3.383   2.123  14.294 -1.5891  0.0130  0.5848
 6011SOL    HW229670   3.450   2.255  14.277 -0.4521  1.1165 -0.5244
 6012SOL     OW29671   3.273   1.716  14.316  0.8586 -0.2158  0.1564
 6012SOL    HW129672   3.292   1.640  14.370 -0.4359 -1.1017 -0.6439
 6012SOL    HW229673   3.229   1.681  14.239 -0.4337  0.7201  0.4676
 6013SOL     OW29674   2.575   3.848   8.152 -0.0261  0.5474 -0.5061
 6013SOL    HW129675   2.638   3.892   8.209 -1.1095 -0.9222  1.8259
 6013SOL    HW229676   2.619   3.773   8.113  0.4765  1.9142 -2.5438
 6014SOL     OW29677   4.677   1.054   3.261  0.4590  0.4460  0.1003
 6014SOL    HW129678   4.706   1.078   3.173  1.8049  0.5006  0.5599
 6014SOL    HW229679   4.597   1.010   3.232  0.8911 -0.0961 -0.2776
 6015SOL     OW29680   1.280   3.587  14.583  0.7021 -0.0222  0.4666
 6015SOL    HW129681   1.281   3.661  14.644  2.1952 -0.5101  1.0370
 6015SOL    HW229682   1.256   3.628  14.500 -0.8596  0.1251  0.9953
 6016SOL     OW29683   2.556   0.086   3.493  0.1354 -0.3541  0.0877
 6016SOL    HW129684   2.574   4.732   3.483  2.2550  0.0938 -0.3588
 6016SOL    HW229685   2.548   0.094   3.588 -0.9031 -0.2980  0.0009
 6017SOL     OW29686   3.576   3.477  16.691 -0.0043  0.1958 -0.5562
 6017SOL    HW129687   3.493   3.513  16.660 -0.5014 -1.3970 -1.0565
 6017SOL    HW229688   3.606   3.419  16.622  2.2699  1.2109 -0.4301
 6018SOL     OW29689   4.414   1.555  16.674  0.1308  0.0629 -0.0908
 6018SOL    HW129690   4.359   1.633  16.682  0.1840  0.2410 -1.4360
 6018SOL    HW229691   4.361   1.518  16.603 -0.1457 -1.1553  0.7637
 6019SOL     OW29692   1.162   2.352   7.864  0.0580  0.4433  0.0829
 6019SOL    HW129693   1.171   2.257   7.875  0.7304  0.2825 -1.8952
 6019SOL    HW229694   1.083   2.349   7.811 -1.1351  0.9454  1.8216
 6020SOL     OW29695   2.179   4.010   6.781 -0.2070 -0.5069 -0.0675
 6020SOL    HW129696   2.086   4.016   6.803 -0.2003 -0.5305 -0.0316
 6020SOL    HW229697   2.198   4.103   6.777  2.8752 -1.2401 -2.4423
 6021SOL     OW29698   2.328   4.198   4.022  0.2165  0.3725 -0.1906
 6021SOL    HW129699   2.393   4.247   4.073 -1.5810  0.3183  2.1721
 6021SOL    HW229700   2.317   4.254   3.946 -0.5707  0.0825 -0.2857
 6022SOL     OW29701   4.400   4.630   7.241 -0.3837  0.2307  0.1019
 6022SOL    HW129702   4.426   4.692   7.173 -0.6226  0.2229  0.0066
 6022SOL    HW229703   4.412   4.538   7.217  0.8692 -0.2004  2.3265
 6023SOL     OW29704   1.940   3.284   5.891  0.0913  0.0577 -0.2001
 6023SOL    HW129705   1.935   3.195   5.855 -1.2555  0.0825 -0.0762
 6023SOL    HW229706   2.031   3.280   5.921  1.5630  2.1980 -4.3585
 6024SOL     OW29707   2.091   3.259   2.350 -0.3283 -0.0652  0.3792
 6024SOL    HW129708   2.022   3.256   2.416 -0.2701  0.0313  0.4436
 6024SOL    HW229709   2.166   3.226   2.400 -2.3608 -1.2410  2.6581
 6025SOL     OW29710   4.212   0.439   6.903 -0.3070 -0.2121 -0.2651
 6025SOL    HW129711   4.286   0.450   6.961 -0.3408  0.8086 -0.4226
 6025SOL    HW229712   4.151   0.477   6.966  1.7395 -0.6257  1.9451
 6026SOL     OW29713   0.869   4.389   4.134 -0.6391  0.0829 -0.4528
 6026SOL    HW129714   0.849   4.464   4.077  1.4054 -0.7440 -2.2781
 6026SOL    HW229715   0.887   4.436   4.215 -3.5591 -0.0485  0.2701
 6027SOL     OW29716   3.357   2.426  13.296 -0.1406 -0.0418 -0.7846
 6027SOL    HW129717   3.400   2.343  13.273  0.8997  0.5711 -1.0302
 6027SOL    HW229718   3.266   2.414  13.269 -0.1746  1.9806 -1.5450
 6028SOL     OW29719   1.940   3.777   8.869 -0.3237 -0.3126  0.3711
 6028SOL    HW129720   1.986   3.697   8.894 -1.9017 -1.4747 -0.4804
 6028SOL    HW229721   1.859   3.740   8.834  0.5332 -1.0209 -0.8247
 6029SOL     OW29722   2.109   4.051   8.820  0.4995 -0.6087  0.1051
 6029SOL    HW129723   2.154   4.034   8.903  0.0445 -0.6166  0.3484
 6029SOL    HW229724   2.025   4.006   8.821  0.3006 -0.2962 -2.3444
 6030SOL     OW29725   2.224   2.228   1.606 -0.4173  0.3313 -0.4774
 6030SOL    HW129726   2.206   2.286   1.533 -1.6860  0.4926 -0.0445
 6030SOL    HW229727   2.214   2.142   1.565 -1.1420 -1.2922  3.0767
 6031SOL     OW29728   1.406   2.090   2.227 -0.3967 -0.4579  0.3111
 6031SOL    HW129729   1.498   2.094   2.200 -0.2976 -2.4065  0.4005
 6031SOL    HW229730   1.386   2.176   2.190 -0.5499 -0.4934  0.3081
 6032SOL     OW29731   3.322   0.507   9.856  0.4365  0.1066  0.0299
 6032SOL    HW129732   3.336   0.425   9.809 -0.5133 -0.0876  0.0753
 6032SOL    HW229733   3.413   0.523   9.880  0.4324 -1.4973  1.1539
 6033SOL     OW29734   0.570   2.308  13.073  0.1260 -0.0613  0.2454
 6033SOL    HW129735   0.562   2.219  13.106 -1.6464 -0.0936 -0.2151
 6033SOL    HW229736   0.660   2.305  13.040  0.4784  1.7550  1.0348
 6034SOL     OW29737   0.296   4.205  15.269 -0.5537  0.0045  0.0130
 6034SOL    HW129738   0.309   4.291  15.230  1.2096 -0.0895  0.4048
 6034SOL    HW229739   0.283   4.150  15.192  1.7505 -1.4469  0.6745
 6035SOL     OW29740   1.509   3.972   8.378 -0.3210 -0.4429 -0.0409
 6035SOL    HW129741   1.422   3.989   8.342 -0.2709  0.2317  0.1424
 6035SOL    HW229742   1.545   4.057   8.354  0.4337 -0.5889  0.5928
 6036SOL     OW29743   3.755   2.706   8.411 -0.4696  0.6970  0.5016
 6036SOL    HW129744   3.797   2.690   8.495  1.5347 -1.6158 -0.9363
 6036SOL    HW229745   3.800   2.783   8.375 -0.3796 -0.2634 -1.4751
 6037SOL     OW29746   0.280   2.609   9.601  0.1413 -0.5484  0.1585
 6037SOL    HW129747   0.246   2.519   9.606  1.0724 -0.8468  1.4816
 6037SOL    HW229748   0.250   2.632   9.689  0.1454 -0.8672  0.2464
 6038SOL     OW29749   0.845   1.320   4.869  0.5628 -0.2231  0.4058
 6038SOL    HW129750   0.839   1.314   4.965 -3.9557  1.3725  0.2609
 6038SOL    HW229751   0.756   1.296   4.843  0.6751  1.4785 -1.5269
 6039SOL     OW29752   0.566   1.214  13.387 -0.1930  0.5008 -0.0490
 6039SOL    HW129753   0.492   1.242  13.442 -0.2344  1.3100 -0.5157
 6039SOL    HW229754   0.525   1.232  13.302 -0.3230 -1.2085 -0.3593
 6040SOL     OW29755   2.335   2.726   2.310 -0.2049  0.2664 -0.1654
 6040SOL    HW129756   2.262   2.745   2.369  0.0902  0.2704  0.1992
 6040SOL    HW229757   2.329   2.803   2.255 -0.3432  0.8940  0.7273
 6041SOL     OW29758   1.806   0.505  11.817 -0.3455 -0.7110  0.4055
 6041SOL    HW129759   1.848   0.473  11.898  1.8542  1.2309  0.0293
 6041SOL    HW229760   1.857   0.584  11.804  1.2630 -1.7341  0.4240
 6042SOL     OW29761   0.694   1.477   1.780  0.6989 -0.0583  0.5386
 6042SOL    HW129762   0.638   1.554   1.781 -0.2979 -0.7809  0.9982
 6042SOL    HW229763   0.635   1.411   1.817  1.1037 -0.1236  1.0724
 6043SOL     OW29764   0.889   1.163   0.896 -0.2843 -0.3813  0.3668
 6043SOL    HW129765   0.905   1.147   0.803  0.8547 -0.6347  0.6051
 6043SOL    HW229766   0.795   1.150   0.895 -0.4410  0.9931 -2.3551
 6044SOL     OW29767   3.444   1.657  10.001  0.4405  0.0688 -0.0596
 6044SOL    HW129768   3.402   1.739   9.974  0.6766 -0.0184 -0.6898
 6044SOL    HW229769   3.495   1.633   9.923 -0.5214 -1.3237 -0.2641
 6045SOL     OW29770   0.157   2.021   7.016 -0.2259 -0.4571 -0.1850
 6045SOL    HW129771   0.209   1.957   7.064  1.3505 -0.2157 -1.5492
 6045SOL    HW229772   0.228   2.084   7.003 -1.1514  0.4418 -0.8722
 6046SOL     OW29773   1.321   2.145   6.540 -0.3883  0.1381 -0.0690
 6046SOL    HW129774   1.244   2.201   6.550  0.6728  1.8958 -1.6386
 6046SOL    HW229775   1.273   2.064   6.520 -2.6938  1.7996 -1.2553
 6047SOL     OW29776   0.678   0.128   8.231 -0.1630 -0.3890 -0.1785
 6047SOL    HW129777   0.739   0.191   8.268  1.0506 -2.6292  1.6311
 6047SOL    HW229778   0.732   0.075   8.173  2.0225  3.3478 -1.5284
 6048SOL     OW29779   1.810   1.928   9.265  0.1065 -0.3671  0.3579
 6048SOL    HW129780   1.885   1.956   9.213  0.1631 -0.0160  0.6355
 6048SOL    HW229781   1.772   1.876   9.194 -0.4030  1.3166 -0.5990
 6049SOL     OW29782   1.289   1.082   6.341  0.2186  0.3437 -0.3728
 6049SOL    HW129783   1.199   1.051   6.348  1.0197 -1.9317 -0.1863
 6049SOL    HW229784   1.306   1.060   6.432  1.9617 -0.8962 -0.9816
 6050SOL     OW29785   2.973   1.503  10.151  0.0753  0.2574 -0.1010
 6050SOL    HW129786   2.905   1.436  10.151 -0.4677  0.8085  2.8451
 6050SOL    HW229787   2.935   1.570  10.093 -1.5469  1.5852  2.4873
 6051SOL     OW29788   0.561   4.704  14.253  0.2895  0.3418 -0.1274
 6051SOL    HW129789   0.562   0.004  14.166 -2.8814 -0.2315 -0.4111
 6051SOL    HW229790   0.469   4.710  14.278  0.3621  0.9011  0.0116
 6052SOL     OW29791   4.476   2.009   7.434 -0.3399  0.0372 -0.3383
 6052SOL    HW129792   4.519   1.935   7.477  0.9879  0.4650 -0.9066
 6052SOL    HW229793   4.445   2.063   7.507 -1.5179  1.5594 -1.9590
 6053SOL     OW29794   2.389   3.837   4.618 -0.6942  0.5755 -0.1102
 6053SOL    HW129795   2.327   3.871   4.682  0.6911  1.1509  0.9277
 6053SOL    HW229796   2.329   3.845   4.544 -1.0809  0.1571  0.1588
 6054SOL     OW29797   3.678   3.022  16.171  0.3984 -0.2120  0.7367
 6054SOL    HW129798   3.679   3.069  16.088  0.3747  0.2222  0.9833
 6054SOL    HW229799   3.740   2.952  16.153  0.6306  0.3008 -0.4313
 6055SOL     OW29800   1.478   0.060   8.344  0.1858  0.7942 -0.2418
 6055SOL    HW129801   1.492   0.082   8.252 -0.6696 -0.4453 -0.6768
 6055SOL    HW229802   1.569   0.076   8.368 -0.0962  1.8485  0.1100
 6056SOL     OW29803   0.472   3.432   6.075 -0.2149  0.2460  0.2700
 6056SOL    HW129804   0.460   3.406   5.984  3.6158  1.1586 -0.4745
 6056SOL    HW229805   0.415   3.507   6.093 -0.1676  0.1643  0.7692
 6057SOL     OW29806   0.530   4.658  14.869 -0.2094  0.4878 -0.4625
 6057SOL    HW129807   0.488   4.577  14.900  2.7476 -0.8445  0.0938
 6057SOL    HW229808   0.543   4.640  14.776 -0.0974 -1.6861 -0.0376
 6058SOL     OW29809   3.165   0.400   4.619  0.1724  0.3065  0.8145
 6058SOL    HW129810   3.113   0.475   4.589  0.5920  0.1133 -0.3906
 6058SOL    HW229811   3.252   0.438   4.604 -0.3534  0.9672 -0.5283
 6059SOL     OW29812   3.297   1.831   6.916 -0.3729  0.1162  0.5412
 6059SOL    HW129813   3.295   1.825   7.012  0.3577 -1.2123  0.4694
 6059SOL    HW229814   3.336   1.918   6.913  2.0079 -0.9211  1.9476
 6060SOL     OW29815   0.012   0.392   2.132 -0.1049 -0.4347 -0.1850
 6060SOL    HW129816   0.072   0.320   2.114 -1.7614 -1.5951 -1.1106
 6060SOL    HW229817   0.048   0.469   2.088  1.0393 -0.4396  0.7579
 6061SOL     OW29818   0.013   0.196   5.242  0.3929  0.4013 -0.0112
 6061SOL    HW129819   0.016   0.283   5.282  3.6247  0.7001 -0.9583
 6061SOL    HW229820   4.658   0.180   5.255 -0.0205  1.3888 -1.7496
 6062SOL     OW29821   4.657   1.564   7.236 -0.0303 -0.4630  0.0312
 6062SOL    HW129822   4.619   1.580   7.150  0.5895  0.6439 -0.0299
 6062SOL    HW229823   4.608   1.485   7.259 -0.3556 -0.1546  0.4071
 6063SOL     OW29824   3.251   4.448   4.562  0.1299 -0.8360 -0.2389
 6063SOL    HW129825   3.187   4.471   4.494  1.4453  0.9262 -0.8753
 6063SOL    HW229826   3.337   4.470   4.527  0.7304 -0.0362  1.7547
 6064SOL     OW29827   3.512   3.730   8.227  0.1068 -0.0825 -0.4867
 6064SOL    HW129828   3.426   3.772   8.224 -0.7764 -1.7512  0.7900
 6064SOL    HW229829   3.566   3.785   8.171  0.0673  0.1780 -0.2660
 6065SOL     OW29830   1.123   3.162   2.791  0.0803 -0.0282  0.1985
 6065SOL    HW129831   1.184   3.150   2.717 -0.5844  0.1438 -0.3762
 6065SOL    HW229832   1.079   3.243   2.764 -0.1296 -0.0864  0.3681
 6066SOL     OW29833   1.653   0.009   4.441 -0.2420  0.1378 -0.4938
 6066SOL    HW129834   1.598   0.080   4.475 -0.6175 -0.8230  0.9238
 6066SOL    HW229835   1.634   4.677   4.502  1.6978 -1.4088 -1.7084
 6067SOL     OW29836   0.132   2.441   9.987 -0.7533  0.4710  0.8333
 6067SOL    HW129837   0.138   2.521   9.934  0.2912  1.6184  2.6687
 6067SOL    HW229838   0.050   2.453  10.034 -0.7794  0.5671  0.7632
 6068SOL     OW29839   3.791   3.962   5.921  0.2565 -0.3247 -0.8671
 6068SOL    HW129840   3.773   3.871   5.896 -1.3307 -0.1533 -0.2961
 6068SOL    HW229841   3.758   4.018   5.850  0.2372  0.9181  0.1351
 6069SOL     OW29842   0.920   0.667   4.383  0.1435 -0.1665 -0.3711
 6069SOL    HW129843   0.825   0.681   4.377 -0.0255 -0.5758  1.1481
 6069SOL    HW229844   0.950   0.746   4.429  0.4352  0.2352 -1.2600
 6070SOL     OW29845   3.707   2.835  13.689 -0.6626 -0.1608 -0.0190
 6070SOL    HW129846   3.714   2.898  13.617 -1.2042  0.1189  0.1804
 6070SOL    HW229847   3.752   2.884  13.757  0.7860 -1.1093 -0.2809
 6071SOL     OW29848   2.037   0.113   8.592 -0.2046  0.2268 -0.2557
 6071SOL    HW129849   2.094   0.176   8.549 -0.8880  0.0839 -1.3579
 6071SOL    HW229850   2.061   0.032   8.548 -1.4598  0.2765 -1.0521
 6072SOL     OW29851   0.234   0.594   0.019 -0.2354 -0.5571  0.0470
 6072SOL    HW129852   0.246   0.674  17.722 -1.6163  0.4464  1.2712
 6072SOL    HW229853   0.142   0.571   0.014 -0.0794 -0.9352 -0.9770
 6073SOL     OW29854   4.334   2.925   5.698 -0.3083 -0.5214 -0.0502
 6073SOL    HW129855   4.250   2.879   5.687 -1.2383  1.0306  0.4696
 6073SOL    HW229856   4.354   2.920   5.791 -2.0263  0.8272  0.4005
 6074SOL     OW29857   3.477   2.113   4.536 -0.6343 -0.2175 -0.6672
 6074SOL    HW129858   3.507   2.192   4.491 -0.3310 -0.6752 -1.2795
 6074SOL    HW229859   3.401   2.140   4.587  0.2293  1.3301 -0.2189
 6075SOL     OW29860   1.983   1.125  10.093  0.4155  0.6283  0.4096
 6075SOL    HW129861   1.963   1.051  10.035 -0.0789  0.2657  1.0496
 6075SOL    HW229862   1.929   1.102  10.168 -1.4441  1.5250 -0.6560
 6076SOL     OW29863   3.661   4.265   4.428  0.1445 -0.4116  0.0277
 6076SOL    HW129864   3.661   4.201   4.356 -0.3364 -0.7851  0.3564
 6076SOL    HW229865   3.652   4.206   4.503  0.1740  0.9947  1.1292
 6077SOL     OW29866   3.585   2.760   6.510  0.1482  0.2934 -0.1166
 6077SOL    HW129867   3.575   2.808   6.591  1.5010 -1.3227  1.0090
 6077SOL    HW229868   3.502   2.776   6.464 -0.0161  2.4182  0.9022
 6078SOL     OW29869   3.024   3.747   2.863  0.5238 -0.1246 -0.2146
 6078SOL    HW129870   2.989   3.687   2.797  0.7680 -0.6352  0.1217
 6078SOL    HW229871   2.970   3.739   2.942  2.3833  3.4190  1.4594
 6079SOL     OW29872   2.298   0.088  13.860 -0.0636 -0.0761  0.3227
 6079SOL    HW129873   2.267   0.036  13.786 -0.0471 -0.0997  0.3325
 6079SOL    HW229874   2.346   0.153  13.810  0.4130 -0.4728  0.2736
 6080SOL     OW29875   3.778   4.603   9.392 -0.1546  0.1900  0.3426
 6080SOL    HW129876   3.778   4.535   9.458 -1.9745 -0.7756 -0.6531
 6080SOL    HW229877   3.701   4.586   9.338  1.1823  0.9025 -1.7934
 6081SOL     OW29878   3.684   3.224   8.460 -0.2307  0.1133 -0.6358
 6081SOL    HW129879   3.743   3.254   8.530  0.7374 -1.4296 -0.8079
 6081SOL    HW229880   3.617   3.285   8.490 -0.4863 -0.2940 -0.3851
 6082SOL     OW29881   4.019   2.077   6.352  0.0416 -0.2955  0.3471
 6082SOL    HW129882   3.943   2.021   6.370 -0.8393  0.8121  0.0507
 6082SOL    HW229883   4.017   2.099   6.259  3.4135 -0.4520  0.2438
 6083SOL     OW29884   2.323   2.817   3.540 -0.0232 -0.3835 -0.2341
 6083SOL    HW129885   2.376   2.740   3.562 -0.6968 -1.1280 -1.2273
 6083SOL    HW229886   2.296   2.796   3.451  0.2631 -0.2954 -0.3384
 6084SOL     OW29887   4.024   3.332   5.592 -0.1572 -0.1302 -0.2269
 6084SOL    HW129888   3.990   3.296   5.510  1.7248  0.5122 -1.2840
 6084SOL    HW229889   4.118   3.330   5.573 -0.5576  1.2970 -2.3453
 6085SOL     OW29890   1.878   2.498   5.539 -0.4346  0.7130 -0.6698
 6085SOL    HW129891   1.831   2.436   5.595  1.9506  0.2578  0.8148
 6085SOL    HW229892   1.813   2.565   5.518 -2.4785 -0.6736  1.2571
 6086SOL     OW29893   3.042   2.360   2.203  0.0826 -0.6151 -0.4176
 6086SOL    HW129894   3.072   2.448   2.179  1.5564 -0.8325  0.6428
 6086SOL    HW229895   2.951   2.373   2.232  0.7179  1.9985  0.4868
 6087SOL     OW29896   4.143   4.570   4.354 -0.0414 -0.2324 -0.1625
 6087SOL    HW129897   4.058   4.558   4.397  0.0379 -1.3513 -0.3023
 6087SOL    HW229898   4.113   4.557   4.264 -0.9442  1.0857 -0.0392
 6088SOL     OW29899   1.253   4.708   8.567  0.4578 -0.2405  0.3851
 6088SOL    HW129900   1.211   0.048   8.600 -1.0639 -1.1111  0.5565
 6088SOL    HW229901   1.344   4.734   8.559 -0.7744  2.8421 -3.7707
 6089SOL     OW29902   0.237   3.238  13.624 -0.0678 -0.6376 -0.3986
 6089SOL    HW129903   0.152   3.281  13.614  0.7640  0.8790 -0.8676
 6089SOL    HW229904   0.260   3.256  13.715 -0.1726 -4.0744  0.3019
 6090SOL     OW29905   3.901   4.355   3.046 -0.0004 -1.0748  0.5376
 6090SOL    HW129906   3.956   4.279   3.033  1.5847  0.2352 -0.3608
 6090SOL    HW229907   3.840   4.348   2.972 -0.1636 -0.1132  0.5760
 6091SOL     OW29908   1.699   3.677   4.419 -0.0077 -0.3979  0.1710
 6091SOL    HW129909   1.660   3.700   4.335  0.7287  1.0128  0.2153
 6091SOL    HW229910   1.741   3.596   4.390  2.9178  1.5797 -1.1967
 6092SOL     OW29911   3.666   0.703   3.461 -0.0681 -0.1862  0.1165
 6092SOL    HW129912   3.570   0.707   3.463 -0.1822 -1.2997 -3.6282
 6092SOL    HW229913   3.684   0.766   3.391 -0.4648  1.0218  1.0924
 6093SOL     OW29914   4.575   3.732   1.230 -1.0904 -0.4459 -0.1227
 6093SOL    HW129915   4.566   3.823   1.203 -1.1572 -0.6354 -0.7254
 6093SOL    HW229916   4.567   3.679   1.151 -4.0775 -2.3847  1.5173
 6094SOL     OW29917   1.083   3.995   7.765  0.3857 -0.1657  0.1548
 6094SOL    HW129918   1.043   3.909   7.751 -0.4302  0.7741 -3.4891
 6094SOL    HW229919   1.061   4.035   7.680 -0.9400 -0.4165  0.3726
 6095SOL     OW29920   4.224   2.440   5.470  0.8169  0.2608  0.3638
 6095SOL    HW129921   4.158   2.413   5.534  0.2086 -0.0021 -0.3726
 6095SOL    HW229922   4.172   2.493   5.410  0.7904  0.5717  0.6573
 6096SOL     OW29923   2.646   2.557  12.515  0.1146 -0.5554  0.2453
 6096SOL    HW129924   2.557   2.586  12.492 -0.0626  0.0103  1.6256
 6096SOL    HW229925   2.652   2.477  12.462 -2.2216 -1.2596  1.0649
 6097SOL     OW29926   3.083   2.181  15.984 -0.0751 -0.5878 -0.0626
 6097SOL    HW129927   3.019   2.215  15.922 -2.2104 -4.0557  0.2501
 6097SOL    HW229928   3.101   2.093  15.952 -0.3297 -0.9954  0.8959
 6098SOL     OW29929   4.504   3.342   6.280 -0.0649  0.3161 -0.1163
 6098SOL    HW129930   4.433   3.286   6.249 -1.0773  0.3109  2.1898
 6098SOL    HW229931   4.458   3.425   6.276  0.6315  0.6180 -1.7679
 6099SOL     OW29932   1.881   3.626  16.019  0.2686  0.3267 -0.0723
 6099SOL    HW129933   1.956   3.682  16.001 -0.2265  1.0444  0.0999
 6099SOL    HW229934   1.834   3.646  15.938  2.0270  0.8423 -0.9556
 6100SOL     OW29935   3.649   3.038  16.818 -0.6328  0.3040  0.0886
 6100SOL    HW129936   3.640   3.083  16.734  1.4117  2.7562  1.1588
 6100SOL    HW229937   3.744   3.028  16.815 -0.6408 -0.7835  3.3671
 6101SOL     OW29938   0.852   1.155   4.346  0.0902 -1.0258  0.6339
 6101SOL    HW129939   0.851   1.066   4.381  1.7789 -1.7944 -1.2577
 6101SOL    HW229940   0.758   1.171   4.336  0.1657 -2.0173 -1.7788
 6102SOL     OW29941   1.785   4.410   9.131  0.5998  0.0805 -0.0282
 6102SOL    HW129942   1.857   4.466   9.158 -1.7443  3.6035 -1.0972
 6102SOL    HW229943   1.751   4.457   9.055  1.0212 -0.8281 -0.7740
 6103SOL     OW29944   4.624   4.376  12.327 -0.0681 -0.5224 -0.4064
 6103SOL    HW129945   4.570   4.304  12.296 -1.5031 -0.2873  1.5312
 6103SOL    HW229946   4.715   4.348  12.333  0.7319  1.8196 -1.3697
 6104SOL     OW29947   2.471   4.662   6.212  0.1865 -0.1618  0.2884
 6104SOL    HW129948   2.386   4.671   6.255  0.4685  0.1797  0.7815
 6104SOL    HW229949   2.524   4.604   6.267  0.9661  0.0533 -0.2427
 6105SOL     OW29950   2.791   1.221   7.468  0.1505  0.3266  0.0369
 6105SOL    HW129951   2.883   1.228   7.444 -0.3073  0.8810 -1.5672
 6105SOL    HW229952   2.756   1.160   7.402  0.5689  3.3014 -2.9029
 6106SOL     OW29953   0.424   3.347   1.497  0.1413  0.1310  0.6102
 6106SOL    HW129954   0.374   3.399   1.434  0.2318  2.0734  2.1339
 6106SOL    HW229955   0.479   3.421   1.523 -0.4752  0.6921  0.3318
 6107SOL     OW29956   4.608   1.495   2.420 -0.5293 -0.6482  0.6305
 6107SOL    HW129957   4.670   1.440   2.372 -1.3617  1.0502 -2.4046
 6107SOL    HW229958   4.558   1.430   2.469  0.2195 -1.8976 -0.2443
 6108SOL     OW29959   0.839   4.399   4.636 -0.0763  0.0112 -0.8543
 6108SOL    HW129960   0.854   4.462   4.706  0.4375  0.9849 -1.8390
 6108SOL    HW229961   0.927   4.359   4.636  0.3551  0.9548  0.7681
 6109SOL     OW29962   4.413   4.612  11.856 -0.6106 -0.4494 -0.5559
 6109SOL    HW129963   4.366   4.539  11.898  1.2932 -2.4818 -1.9572
 6109SOL    HW229964   4.416   4.593  11.762 -1.6697 -0.5343 -0.5733
 6110SOL     OW29965   3.275   0.229   0.771 -0.4052 -0.0979 -0.5245
 6110SOL    HW129966   3.263   0.162   0.705  1.8667 -1.4398  0.4386
 6110SOL    HW229967   3.280   0.311   0.722  0.5455 -0.3649 -0.8621
 6111SOL     OW29968   0.218   1.795   2.554 -0.0284 -0.0646  0.3345
 6111SOL    HW129969   0.161   1.736   2.604  0.2819 -0.6998 -0.0598
 6111SOL    HW229970   0.285   1.826   2.614  1.2251 -1.0287 -0.5662
 6112SOL     OW29971   4.611   3.935   1.501 -0.2160 -0.2915  0.4410
 6112SOL    HW129972   4.680   3.887   1.455 -1.0745 -0.8038 -0.3029
 6112SOL    HW229973   4.621   3.900   1.589 -3.0510  2.2080  1.7386
 6113SOL     OW29974   0.330   2.416   3.720  0.3284  0.6052 -0.2539
 6113SOL    HW129975   0.257   2.468   3.754  0.2153  1.0851 -1.2545
 6113SOL    HW229976   0.394   2.480   3.690  1.3148 -0.4439 -0.4117
 6114SOL     OW29977   0.323   4.676   8.884  0.1530 -0.2438 -0.3271
 6114SOL    HW129978   0.383   4.646   8.815  0.2717 -0.8582  0.0409
 6114SOL    HW229979   0.379   4.683   8.961 -0.7110  0.9788  0.1719
 6115SOL     OW29980   1.404   4.338   6.780 -0.2207  0.2761 -0.1038
 6115SOL    HW129981   1.482   4.380   6.817 -0.7465  0.2819  1.0035
 6115SOL    HW229982   1.445   4.255   6.757  1.0788  0.4558  1.5047
 6116SOL     OW29983   0.168   0.576  16.797  0.2580  0.3853 -0.2519
 6116SOL    HW129984   0.235   0.642  16.780  0.4351  0.0168 -0.9752
 6116SOL    HW229985   0.122   0.618  16.870  0.9835  0.7557 -0.0092
 6117SOL     OW29986   0.696   4.291   3.919  0.3288 -0.2026 -0.3495
 6117SOL    HW129987   0.705   4.295   4.014  0.1463  1.8520 -0.4350
 6117SOL    HW229988   0.784   4.262   3.893  0.5441  0.6026 -0.5023
 6118SOL     OW29989   3.414   2.222   2.594 -0.0943  0.0805 -0.0350
 6118SOL    HW129990   3.500   2.183   2.609 -0.5908 -0.6516  0.9161
 6118SOL    HW229991   3.413   2.300   2.649  2.5241  1.3285 -1.7456
 6119SOL     OW29992   3.829   4.277   7.458 -0.3660  0.2530 -0.3699
 6119SOL    HW129993   3.779   4.359   7.456 -2.0016 -0.7270  0.6568
 6119SOL    HW229994   3.895   4.288   7.389  0.4173  1.0420  0.5028
 6120SOL     OW29995   0.461   3.222   4.411 -0.3694  0.1694 -0.6303
 6120SOL    HW129996   0.487   3.234   4.502 -0.8260  0.3358 -0.5174
 6120SOL    HW229997   0.387   3.161   4.416  0.4421 -0.7422  0.0035
 6121SOL     OW29998   0.839   1.614  17.429  0.0777 -0.3511  0.4756
 6121SOL    HW129999   0.830   1.662  17.347  0.1000  2.6220  2.2058
 6121SOL    HW230000   0.818   1.528  17.392  0.7056 -0.3856  0.1953
 6122SOL     OW30001   2.057   1.001   3.295 -0.3569  0.5665  0.5086
 6122SOL    HW130002   2.098   0.915   3.297 -3.0649 -0.7619 -0.2994
 6122SOL    HW230003   1.990   1.000   3.364 -0.1699 -0.0471  0.6753
 6123SOL     OW30004   1.227   4.475   6.607 -0.6379 -0.6570 -0.0018
 6123SOL    HW130005   1.262   4.423   6.678 -0.0743  3.4234  2.6976
 6123SOL    HW230006   1.211   4.403   6.546 -2.9758  0.1967 -0.3917
 6124SOL     OW30007   4.473   1.452   4.595 -0.4967 -0.0739 -0.6723
 6124SOL    HW130008   4.565   1.476   4.604 -0.7107  0.9679 -1.1400
 6124SOL    HW230009   4.483   1.439   4.501  4.4025 -0.6476 -0.0299
 6125SOL     OW30010   0.471   2.601   3.602  0.1532  0.2354 -0.2329
 6125SOL    HW130011   0.562   2.576   3.585  0.3120 -0.4320  1.6002
 6125SOL    HW230012   0.460   2.682   3.552  0.2331 -0.1449 -0.8590
 6126SOL     OW30013   1.292   3.983   4.662 -0.3165 -0.0558  0.5523
 6126SOL    HW130014   1.311   4.077   4.662 -3.1839  0.5301 -1.8843
 6126SOL    HW230015   1.266   3.966   4.571  0.1588 -0.9379  0.5843
 6127SOL     OW30016   3.840   3.227   6.467  0.0868  0.4391 -0.0835
 6127SOL    HW130017   3.908   3.233   6.399 -0.0283 -0.2201 -0.2591
 6127SOL    HW230018   3.889   3.184   6.537  0.4832 -0.2740 -0.7833
 6128SOL     OW30019   1.953   3.855   4.794 -0.2158 -0.3280 -0.1321
 6128SOL    HW130020   1.976   3.779   4.740 -0.8014 -0.8122  0.2958
 6128SOL    HW230021   2.009   3.923   4.757  0.9562 -1.5735 -0.6465
 6129SOL     OW30022   0.290   3.082   2.215 -0.2522 -0.4499  0.1468
 6129SOL    HW130023   0.381   3.063   2.192 -0.2298  1.7618 -1.5771
 6129SOL    HW230024   0.276   3.171   2.182 -0.6490 -0.9849 -1.1366
 6130SOL     OW30025   0.385   3.265  15.144 -0.0647  0.2063  0.7901
 6130SOL    HW130026   0.315   3.201  15.156 -0.4152  1.0550  3.3614
 6130SOL    HW230027   0.366   3.295  15.056  0.1981 -0.0218  0.6562
 6131SOL     OW30028   4.145   2.483   9.831 -0.2486  0.1586  0.2018
 6131SOL    HW130029   4.080   2.435   9.884 -1.8159  2.1454  0.1086
 6131SOL    HW230030   4.144   2.427   9.754 -0.3440 -2.0092  1.7641
 6132SOL     OW30031   2.344   2.893  17.385  0.1782 -0.5086 -0.6520
 6132SOL    HW130032   2.390   2.872  17.466 -0.1785  1.5718  0.0951
 6132SOL    HW230033   2.253   2.894  17.415 -0.0810 -0.2966 -1.4228
 6133SOL     OW30034   3.820   1.141   9.063 -0.5375 -0.5247 -0.2456
 6133SOL    HW130035   3.840   1.054   9.028 -0.2941 -1.2005  1.5598
 6133SOL    HW230036   3.745   1.120   9.120 -1.2976  0.9153 -0.7128
 6134SOL     OW30037   3.454   4.644   7.909  0.2779  0.1970 -0.1429
 6134SOL    HW130038   3.506   4.691   7.845  0.2234  1.0997  0.4803
 6134SOL    HW230039   3.459   4.554   7.875 -0.0106 -0.2998  1.1309
 6135SOL     OW30040   2.126   3.865   4.103  0.1593 -0.7651 -0.1528
 6135SOL    HW130041   2.079   3.782   4.116 -0.7428 -0.0063  1.5834
 6135SOL    HW230042   2.054   3.929   4.109  0.5671 -0.2525 -0.7737
 6136SOL     OW30043   3.839   2.756   3.735 -0.2509 -0.2170 -0.0645
 6136SOL    HW130044   3.890   2.822   3.782  1.3256  0.1466 -2.2977
 6136SOL    HW230045   3.757   2.764   3.784 -0.2357 -2.7653  0.3951
 6137SOL     OW30046   3.795   4.267   3.298 -0.6660 -1.1755 -0.0386
 6137SOL    HW130047   3.823   4.307   3.215 -0.5862 -1.1160  0.0170
 6137SOL    HW230048   3.814   4.173   3.291 -0.5095 -1.1571  0.1567
 6138SOL     OW30049   1.537   0.301   9.296 -0.8541  0.1399  0.1536
 6138SOL    HW130050   1.453   0.303   9.341 -0.7790  0.8409  0.2719
 6138SOL    HW230051   1.522   0.236   9.228  1.5746  0.4890 -0.7055
 6139SOL     OW30052   2.031   2.555   8.691 -0.4835 -0.0416 -0.2368
 6139SOL    HW130053   2.042   2.645   8.663 -0.7824  0.3555  0.9150
 6139SOL    HW230054   2.112   2.555   8.742 -1.2165 -1.8785  0.9290
 6140SOL     OW30055   3.344   0.120   1.531 -0.1476  0.8019  0.3559
 6140SOL    HW130056   3.266   0.084   1.574  1.0686 -1.8176  0.3793
 6140SOL    HW230057   3.338   0.061   1.456  0.8581  0.7320  0.3287
 6141SOL     OW30058   4.236   1.153   5.520 -0.1920 -0.1123  0.5766
 6141SOL    HW130059   4.260   1.236   5.480 -1.1380  0.5749  1.4008
 6141SOL    HW230060   4.305   1.138   5.585  0.5724 -0.4648 -0.3280
 6142SOL     OW30061   4.031   2.932  12.599 -0.7287 -0.3043 -0.2068
 6142SOL    HW130062   4.065   2.925  12.688 -1.2929  0.7255  0.0879
 6142SOL    HW230063   3.972   2.857  12.594  0.6357 -1.5315  2.0877
 6143SOL     OW30064   0.183   3.374  17.140  0.7668  0.5580  0.3421
 6143SOL    HW130065   0.203   3.468  17.142 -0.2344  0.7747  0.0024
 6143SOL    HW230066   0.274   3.350  17.119 -0.7749 -3.2897 -1.8683
 6144SOL     OW30067   0.808   0.329  11.925  0.0940  0.4975 -0.0131
 6144SOL    HW130068   0.864   0.340  12.001 -1.8295  3.3381  0.9890
 6144SOL    HW230069   0.874   0.311  11.858 -0.9465  2.2196 -1.4937
 6145SOL     OW30070   4.654   0.983  16.571 -0.5334  0.2092  0.2663
 6145SOL    HW130071   4.698   0.949  16.649 -0.7302 -0.1849  0.2077
 6145SOL    HW230072   4.566   0.953  16.596 -0.4179 -1.7660 -1.7400
 6146SOL     OW30073   1.116   4.470   3.675  0.4705  0.1572 -0.0945
 6146SOL    HW130074   1.157   4.432   3.597  2.4795  0.7163  0.7000
 6146SOL    HW230075   1.100   4.394   3.732  0.8314 -1.0568 -1.5908
 6147SOL     OW30076   4.541   4.603   6.021  0.6144 -0.3523  0.3512
 6147SOL    HW130077   4.484   4.599   6.097  3.2329 -1.8826  2.2335
 6147SOL    HW230078   4.591   4.685   6.027 -2.3011  1.4622  0.1785
 6148SOL     OW30079   3.273   0.035   5.728 -0.4168  0.2826  0.6319
 6148SOL    HW130080   3.296   0.127   5.741  1.1170 -0.1086  0.7312
 6148SOL    HW230081   3.178   0.030   5.726 -0.3923 -0.7511  1.5235
 6149SOL     OW30082   3.398   0.900  12.570  0.2191 -0.1045  0.1995
 6149SOL    HW130083   3.307   0.922  12.551  0.9416  1.0032 -2.0375
 6149SOL    HW230084   3.393   0.805  12.580 -1.1120 -0.2198 -1.6712
 6150SOL     OW30085   0.138   4.411   7.030  0.0188 -0.6346 -0.2130
 6150SOL    HW130086   0.161   4.335   7.084 -0.7902 -0.9430 -0.3049
 6150SOL    HW230087   0.080   4.376   6.963 -2.7232 -0.0931  1.9171
 6151SOL     OW30088   2.137   3.189   0.939  0.3165 -0.3220  0.6045
 6151SOL    HW130089   2.130   3.099   0.909 -2.5415  0.9188 -2.4049
 6151SOL    HW230090   2.119   3.236   0.858  3.7194 -0.1968 -0.0744
 6152SOL     OW30091   2.532   1.758  12.476  0.4925  0.1264  0.3637
 6152SOL    HW130092   2.438   1.745  12.464  0.4949 -0.6087  1.1507
 6152SOL    HW230093   2.532   1.780  12.569  1.6728 -0.7909  0.5755
 6153SOL     OW30094   3.505   4.556   6.322  0.0827 -0.5439 -0.1709
 6153SOL    HW130095   3.448   4.620   6.363  1.3778  0.8376 -0.5236
 6153SOL    HW230096   3.460   4.474   6.342  0.0317 -0.9179 -1.8074
 6154SOL     OW30097   4.213   2.128   8.409 -0.5676 -0.1575 -0.2779
 6154SOL    HW130098   4.145   2.082   8.359 -0.1763 -2.0203  0.9188
 6154SOL    HW230099   4.197   2.220   8.390 -1.1580 -0.3490 -0.7388
 6155SOL     OW30100   4.626   2.174   6.540  0.2475  0.3021 -0.2714
 6155SOL    HW130101   4.531   2.165   6.542  0.1502  1.8428  1.3833
 6155SOL    HW230102   4.646   2.217   6.623 -0.1639 -1.3077  0.6639
 6156SOL     OW30103   1.119   3.839   1.798 -0.1034 -0.5795 -0.1976
 6156SOL    HW130104   1.131   3.802   1.886  1.3504 -0.0547 -0.1825
 6156SOL    HW230105   1.023   3.847   1.790  0.0297  1.8214  0.4645
 6157SOL     OW30106   3.189   1.220   1.929 -0.0128 -0.6547  0.1147
 6157SOL    HW130107   3.253   1.285   1.959 -0.5191 -0.3505  0.5352
 6157SOL    HW230108   3.205   1.208   1.835  0.2394 -0.2544  0.1056
 6158SOL     OW30109   2.529   2.441   6.040 -0.1066 -0.3765 -0.3360
 6158SOL    HW130110   2.559   2.385   6.111  1.0798  0.5030 -0.1454
 6158SOL    HW230111   2.558   2.393   5.963 -0.6652 -1.8832  0.4066
 6159SOL     OW30112   4.340   2.235   8.705 -0.5715  0.2273 -0.5338
 6159SOL    HW130113   4.329   2.160   8.764  1.9845  0.8343  0.6713
 6159SOL    HW230114   4.409   2.186   8.661  0.3456 -0.4898  1.7011
 6160SOL     OW30115   3.016   0.999  17.143 -0.0041  0.5080  0.1154
 6160SOL    HW130116   2.991   0.913  17.110 -1.6784  2.4493 -3.7066
 6160SOL    HW230117   3.107   0.995  17.114  0.2253  0.4342  0.8596
 6161SOL     OW30118   0.308   2.688  13.447 -0.1035 -0.0674 -0.1630
 6161SOL    HW130119   0.215   2.699  13.426 -0.6321  0.7357  2.6093
 6161SOL    HW230120   0.295   2.719  13.537 -0.4307  1.0062 -0.5815
 6162SOL     OW30121   3.867   2.567   8.889 -0.1130 -1.0585  0.0913
 6162SOL    HW130122   3.839   2.641   8.943  1.7615  0.9061 -1.6012
 6162SOL    HW230123   3.822   2.491   8.924 -0.0727 -2.1387 -2.2230
 6163SOL     OW30124   4.150   3.364  12.833  0.1349 -0.1809  0.3036
 6163SOL    HW130125   4.172   3.277  12.867 -0.8485 -0.3598  0.4946
 6163SOL    HW230126   4.133   3.409  12.915  0.6061  1.4459 -0.4924
 6164SOL     OW30127   3.634   2.379   0.028  0.2880  0.0775  0.1556
 6164SOL    HW130128   3.559   2.381   0.088 -0.5450 -0.4131 -0.8652
 6164SOL    HW230129   3.676   2.462   0.053  1.5672 -0.8833  1.1636
 6165SOL     OW30130   1.817   4.002   5.447 -0.9087 -0.1729 -0.1251
 6165SOL    HW130131   1.852   4.073   5.502 -0.6439  0.1126 -0.6631
 6165SOL    HW230132   1.791   3.942   5.517 -0.4306  1.5234  1.5280
 6166SOL     OW30133   4.293   2.523   3.159 -0.2646 -0.0969 -0.2451
 6166SOL    HW130134   4.339   2.487   3.084  0.5037  1.2982 -0.4491
 6166SOL    HW230135   4.304   2.454   3.225 -0.4733  0.7771  0.7128
 6167SOL     OW30136   3.406   0.766   3.015  0.1714 -0.5400  0.2177
 6167SOL    HW130137   3.389   0.814   2.934  0.9181 -1.1663 -0.3101
 6167SOL    HW230138   3.426   0.840   3.071 -0.7605 -1.7878  2.2354
 6168SOL     OW30139   3.155   2.537  13.051 -0.3836  0.4412 -0.1519
 6168SOL    HW130140   3.248   2.556  13.068 -0.6366  1.2025  0.4162
 6168SOL    HW230141   3.145   2.450  13.088 -1.6768 -0.3721 -2.4807
 6169SOL     OW30142   0.958   2.994   6.788  0.1291 -0.2922  0.5535
 6169SOL    HW130143   0.878   2.961   6.747  1.4714 -0.6083 -1.8170
 6169SOL    HW230144   0.928   3.035   6.869 -0.8803  1.3085 -0.6383
 6170SOL     OW30145   2.493   3.608   8.517  0.4718 -0.6174  0.7024
 6170SOL    HW130146   2.448   3.665   8.455 -0.6719 -1.7438  0.4810
 6170SOL    HW230147   2.437   3.530   8.524  2.7970 -2.2718  0.7382
 6171SOL     OW30148   1.383   2.085   6.971  0.3160  0.1083 -0.0292
 6171SOL    HW130149   1.317   2.079   6.902  0.0810  1.2721  0.0972
 6171SOL    HW230150   1.395   1.991   6.984 -0.6630 -0.2827 -1.9360
 6172SOL     OW30151   3.504   1.344   8.222  0.1184  0.0537 -0.0231
 6172SOL    HW130152   3.565   1.358   8.294 -0.0280  3.1308 -0.4833
 6172SOL    HW230153   3.435   1.403   8.251 -0.1165 -0.0408 -0.3815
 6173SOL     OW30154   3.554   1.767  17.610 -0.0007  0.4402  0.0290
 6173SOL    HW130155   3.606   1.769  17.691 -0.6681  0.5604  0.4536
 6173SOL    HW230156   3.549   1.672  17.598  1.6688  0.3982 -0.4281
 6174SOL     OW30157   2.360   4.121   2.974  0.0135 -1.1332  0.2517
 6174SOL    HW130158   2.392   4.194   2.920 -1.9227 -0.3530  0.1637
 6174SOL    HW230159   2.273   4.151   2.999 -0.7179 -0.0488 -3.5891
 6175SOL     OW30160   1.526   3.781   1.871 -0.4303 -0.0514 -0.0637
 6175SOL    HW130161   1.564   3.853   1.822 -2.1370  0.6555 -0.3554
 6175SOL    HW230162   1.499   3.825   1.952 -1.4805  0.0973 -0.4947
 6176SOL     OW30163   2.306   0.159  14.415  0.3503 -0.1327  0.0902
 6176SOL    HW130164   2.382   0.106  14.443  2.3744  2.7831  0.0851
 6176SOL    HW230165   2.301   0.140  14.321  2.0719 -1.5045  0.2561
 6177SOL     OW30166   4.403   2.572  10.899  0.3377 -0.0606 -0.4640
 6177SOL    HW130167   4.401   2.497  10.959 -1.9622  0.9727  0.7672
 6177SOL    HW230168   4.320   2.560  10.853 -0.1764  0.7717  0.2383
 6178SOL     OW30169   0.477   3.713  16.828  0.1590  0.3011  0.3181
 6178SOL    HW130170   0.468   3.807  16.848  1.0966 -0.2682  3.4515
 6178SOL    HW230171   0.408   3.714  16.763 -0.9839  0.5456  1.5379
 6179SOL     OW30172   2.714   0.614   6.707 -0.3927  0.3978 -0.0177
 6179SOL    HW130173   2.740   0.532   6.665 -0.5691 -0.3694  1.3567
 6179SOL    HW230174   2.642   0.640   6.650  0.9825  2.7702 -0.6448
 6180SOL     OW30175   0.989   1.064   3.965 -0.0932  0.3612 -0.1503
 6180SOL    HW130176   0.898   1.038   3.971  0.1843 -0.5426  0.1929
 6180SOL    HW230177   1.017   0.995   3.906  0.3080  1.3575 -1.1176
 6181SOL     OW30178   2.248   4.365   1.509 -0.4444 -0.0901  0.5500
 6181SOL    HW130179   2.170   4.309   1.518 -1.7095  1.8120  1.4090
 6181SOL    HW230180   2.312   4.303   1.475 -2.0385 -1.1059 -0.6432
 6182SOL     OW30181   0.727   2.837   6.728 -0.6196 -0.0534 -0.1354
 6182SOL    HW130182   0.704   2.781   6.802  1.8428 -0.4986  0.2796
 6182SOL    HW230183   0.729   2.770   6.659  0.4509  1.2089 -1.3265
 6183SOL     OW30184   1.438   2.997   2.236 -0.0847 -0.4322  0.3390
 6183SOL    HW130185   1.448   3.087   2.204 -4.2816 -0.2482 -0.4999
 6183SOL    HW230186   1.395   2.967   2.156 -1.6926  0.8679  0.7093
 6184SOL     OW30187   3.693   0.072   2.521 -0.4312  0.5792  0.3697
 6184SOL    HW130188   3.745   0.026   2.455 -0.0263 -0.3393  1.3513
 6184SOL    HW230189   3.611   0.087   2.473 -0.2834  2.5767  0.7153
 6185SOL     OW30190   3.065   4.044   8.968 -0.1744 -0.2822 -0.9621
 6185SOL    HW130191   3.010   4.005   9.036  1.6010 -0.9464  0.1020
 6185SOL    HW230192   2.999   4.045   8.898 -2.9134 -1.5594  1.5889
 6186SOL     OW30193   1.010   0.904   4.819  0.5145  0.2245  0.3094
 6186SOL    HW130194   1.083   0.845   4.837  0.4055  0.0083  0.0324
 6186SOL    HW230195   0.945   0.841   4.788  0.0991  1.0679 -0.5257
 6187SOL     OW30196   0.492   0.927   3.495 -0.1388  0.0193 -0.0873
 6187SOL    HW130197   0.559   0.984   3.533  0.1786 -0.0652 -0.5258
 6187SOL    HW230198   0.428   0.998   3.487  0.7587  0.7958 -0.3581
 6188SOL     OW30199   0.964   2.316  12.194 -0.5949 -0.1636 -0.5225
 6188SOL    HW130200   1.019   2.251  12.150 -0.9334  0.4370 -1.8082
 6188SOL    HW230201   0.923   2.258  12.258  0.3922  1.0052  1.1678
 6189SOL     OW30202   2.318   3.353   3.535 -0.5434 -0.2554  0.6387
 6189SOL    HW130203   2.331   3.421   3.468  0.5315  0.1105  1.2297
 6189SOL    HW230204   2.287   3.277   3.485 -1.4340 -0.5679  1.6783
 6190SOL     OW30205   4.412   0.506   1.798 -0.4261 -0.7508  0.3338
 6190SOL    HW130206   4.437   0.596   1.818  0.7931 -0.4151 -2.6975
 6190SOL    HW230207   4.470   0.470   1.864  1.4156  2.3287  0.3765
 6191SOL     OW30208   3.645   2.195   0.859 -0.3661  0.4216 -0.2459
 6191SOL    HW130209   3.609   2.281   0.881  1.7340  0.1254  4.2967
 6191SOL    HW230210   3.623   2.186   0.766  2.3917  1.3736 -0.9953
 6192SOL     OW30211   4.302   1.148   7.944 -0.0596 -0.1393 -0.1610
 6192SOL    HW130212   4.363   1.219   7.924 -1.2355 -0.0670 -3.5471
 6192SOL    HW230213   4.253   1.183   8.018  0.3981 -0.1531  0.1436
 6193SOL     OW30214   1.400   4.379   5.336  0.2069 -0.1885  0.0534
 6193SOL    HW130215   1.475   4.433   5.362  1.4918 -1.2209 -1.5260
 6193SOL    HW230216   1.441   4.304   5.379 -0.6634 -0.0365  1.1488
 6194SOL     OW30217   0.149   3.738   7.964 -0.1718 -1.0761  0.3847
 6194SOL    HW130218   0.112   3.819   7.928  1.3557 -1.2359 -1.5710
 6194SOL    HW230219   0.101   3.729   8.047 -0.2562  1.4195  0.5979
 6195SOL     OW30220   2.555   1.246   6.749 -0.5463 -0.0110  0.4573
 6195SOL    HW130221   2.512   1.198   6.820 -1.7110 -2.3891 -1.8756
 6195SOL    HW230222   2.646   1.215   6.747  0.2294  2.3369 -0.7390
 6196SOL     OW30223   1.553   0.601  13.284 -0.0739  0.1217  0.5314
 6196SOL    HW130224   1.580   0.581  13.374  0.6204 -1.7906 -0.1030
 6196SOL    HW230225   1.461   0.577  13.281  0.0454 -0.6015  2.9047
 6197SOL     OW30226   2.140   2.196   7.488  0.0762  0.1806  0.3702
 6197SOL    HW130227   2.178   2.163   7.406 -1.5443 -0.1487 -0.2457
 6197SOL    HW230228   2.051   2.165   7.472  1.1222 -1.9419 -1.4576
 6198SOL     OW30229   0.438   1.719   2.222  0.4472  0.0910 -0.0619
 6198SOL    HW130230   0.471   1.636   2.256  1.0056 -0.8206 -2.8087
 6198SOL    HW230231   0.344   1.700   2.214  1.0614 -2.6624 -0.6440
 6199SOL     OW30232   3.064   3.368  15.364 -0.6221 -0.1772  0.5593
 6199SOL    HW130233   3.002   3.304  15.398  1.0513 -1.6151  0.9216
 6199SOL    HW230234   3.120   3.308  15.315 -0.9654 -0.4920  0.5557
 6200SOL     OW30235   3.757   0.235   6.828  0.5190  0.2786 -0.3125
 6200SOL    HW130236   3.824   0.167   6.836 -0.0359  0.0480  2.5221
 6200SOL    HW230237   3.814   0.292   6.777  0.0090  2.0021  1.0600
 6201SOL     OW30238   1.010   2.559   3.932  0.0949 -0.3191  0.2899
 6201SOL    HW130239   0.989   2.584   3.842 -1.0124 -2.6208 -0.0961
 6201SOL    HW230240   1.104   2.553   3.916  0.1662  0.4725  0.4013
 6202SOL     OW30241   0.397   0.462   3.144 -0.1660 -0.7488  0.0554
 6202SOL    HW130242   0.459   0.497   3.080  0.3659 -0.0341  0.9508
 6202SOL    HW230243   0.354   0.393   3.094 -1.1131  0.8084 -1.2841
 6203SOL     OW30244   0.864   0.103  10.349 -0.3652 -0.0182 -0.6013
 6203SOL    HW130245   0.866   0.132  10.258 -2.4544  0.1385 -0.5958
 6203SOL    HW230246   0.776   0.069  10.367  0.8424 -2.3440  0.9481
 6204SOL     OW30247   0.221   1.052   8.281 -0.1603  0.1595 -0.1776
 6204SOL    HW130248   0.304   1.040   8.327 -0.8528  0.0575  1.0423
 6204SOL    HW230249   0.161   1.080   8.350 -0.0024 -0.0949  0.0626
 6205SOL     OW30250   4.454   0.507  13.941 -0.2377 -0.1358  0.0808
 6205SOL    HW130251   4.397   0.549  14.006 -2.0614 -1.2942 -0.7708
 6205SOL    HW230252   4.539   0.515  13.984  0.2322 -0.4145 -0.8076
 6206SOL     OW30253   2.469   3.466   7.137  0.1703  0.7685 -0.4639
 6206SOL    HW130254   2.511   3.380   7.131 -0.3935  0.4478  0.1593
 6206SOL    HW230255   2.518   3.518   7.074  0.6896 -2.5386 -2.7712
 6207SOL     OW30256   0.749   1.472   5.526  0.4606 -0.6514 -0.6162
 6207SOL    HW130257   0.783   1.475   5.615 -0.1069  4.4416 -0.5777
 6207SOL    HW230258   0.819   1.418   5.488  0.4049 -1.1806  0.0415
 6208SOL     OW30259   3.421   0.987  15.072  0.0477 -0.3922 -0.1207
 6208SOL    HW130260   3.370   0.951  15.000  0.4112 -2.6607  0.7678
 6208SOL    HW230261   3.416   1.081  15.053 -0.0198 -0.5911 -1.0905
 6209SOL     OW30262   0.220   3.203   6.529  0.4889 -0.3204 -0.2741
 6209SOL    HW130263   0.197   3.266   6.598 -0.9370 -2.8711  1.6040
 6209SOL    HW230264   0.139   3.220   6.481  0.1025 -1.1466  0.0850
 6210SOL     OW30265   4.343   1.610   7.537 -0.2474 -0.1037  0.0510
 6210SOL    HW130266   4.267   1.596   7.593 -0.5348  1.5636  0.0495
 6210SOL    HW230267   4.310   1.667   7.468  0.6370  1.6749  1.1153
 6211SOL     OW30268   4.530   1.094   6.529  0.0847 -0.4154  0.2149
 6211SOL    HW130269   4.544   1.172   6.475  0.4861 -0.6097  0.0437
 6211SOL    HW230270   4.443   1.124   6.556 -0.4815 -2.0124  0.1045
 6212SOL     OW30271   1.044   1.261  12.351 -0.6618 -0.4483 -0.2416
 6212SOL    HW130272   1.040   1.168  12.328 -1.1814 -0.5962  0.4600
 6212SOL    HW230273   1.123   1.299  12.312 -1.2928  1.0787 -0.0278
 6213SOL     OW30274   4.260   2.994  12.453 -0.6761 -0.0083 -0.5782
 6213SOL    HW130275   4.236   3.085  12.466  1.2251  0.6253 -1.4349
 6213SOL    HW230276   4.180   2.954  12.486 -1.3722  2.7380  1.0395
 6214SOL     OW30277   0.185   2.029   6.726 -0.0763 -0.2659 -0.6002
 6214SOL    HW130278   0.182   2.036   6.821 -0.8330 -0.8516 -0.5799
 6214SOL    HW230279   0.221   1.942   6.708 -1.8191 -1.2789  0.8160
 6215SOL     OW30280   4.142   2.881  13.871 -0.2253  0.4890 -0.5819
 6215SOL    HW130281   4.119   2.961  13.919  4.0112  1.7531 -0.6514
 6215SOL    HW230282   4.083   2.813  13.904 -1.9552  1.3189 -1.9908
 6216SOL     OW30283   3.236   1.178   1.649  0.0280 -0.8455 -0.1036
 6216SOL    HW130284   3.205   1.098   1.605 -0.2476 -0.3765 -0.7638
 6216SOL    HW230285   3.285   1.215   1.575 -2.6794  0.0821 -1.4404
 6217SOL     OW30286   4.007   1.322  12.555 -0.6332 -0.0724  0.1992
 6217SOL    HW130287   4.080   1.267  12.525  0.6269  1.9797 -0.5023
 6217SOL    HW230288   4.056   1.403  12.568 -1.6096  0.8659 -1.9554
 6218SOL     OW30289   0.073   0.183   4.582  0.0710 -0.3271  0.0357
 6218SOL    HW130290   0.168   0.177   4.574 -0.1002 -1.6127 -0.9489
 6218SOL    HW230291   0.058   0.217   4.494 -0.2242  0.3877  0.3621
 6219SOL     OW30292   4.224   3.742  14.894 -0.1987  0.6477  0.0552
 6219SOL    HW130293   4.236   3.784  14.809 -0.2228 -0.2443 -0.3861
 6219SOL    HW230294   4.312   3.742  14.931  1.1416  0.9233 -3.1091
 6220SOL     OW30295   4.242   4.037   6.449 -0.4141 -0.4711  0.1065
 6220SOL    HW130296   4.214   3.950   6.421  3.1945 -1.6471  0.2395
 6220SOL    HW230297   4.193   4.039   6.531 -0.3639  2.6231  0.0611
 6221SOL     OW30298   0.403   1.057   2.472  0.7760 -0.4261 -0.0785
 6221SOL    HW130299   0.483   1.008   2.455 -1.3458 -3.1935 -1.9319
 6221SOL    HW230300   0.435   1.098   2.552  1.8565  0.2392 -0.8384
 6222SOL     OW30301   1.980   3.231   5.193  0.0989 -0.1578  0.7676
 6222SOL    HW130302   1.909   3.167   5.189 -0.2538  0.3726 -1.7583
 6222SOL    HW230303   1.940   3.313   5.163  0.6880 -0.8644 -2.0284
 6223SOL     OW30304   0.432   0.966   8.467 -0.3935  0.2880  0.2167
 6223SOL    HW130305   0.514   0.962   8.516 -0.5401 -3.2529  0.1689
 6223SOL    HW230306   0.369   0.942   8.535  0.5085 -1.0558  0.5774
 6224SOL     OW30307   2.983   3.331   7.982 -0.1906 -0.5235  0.4054
 6224SOL    HW130308   2.905   3.283   7.954  0.5614 -1.1317 -0.6857
 6224SOL    HW230309   2.948   3.376   8.058 -0.2637 -0.1168  0.1310
 6225SOL     OW30310   2.451   2.866  16.883 -1.1435  0.1901  0.4897
 6225SOL    HW130311   2.452   2.817  16.965  0.1501 -0.7135 -0.0627
 6225SOL    HW230312   2.536   2.908  16.869 -0.9374 -0.0818  0.9325
 6226SOL     OW30313   2.061   1.554   6.765  0.1788  0.0198 -0.6283
 6226SOL    HW130314   2.011   1.483   6.805  1.1146 -0.3640 -0.1436
 6226SOL    HW230315   1.997   1.624   6.754  0.0067 -0.3834 -2.2009
 6227SOL     OW30316   4.379   3.253   2.773 -0.2069 -0.4151 -0.4357
 6227SOL    HW130317   4.357   3.254   2.866  0.8864  0.5224 -0.1938
 6227SOL    HW230318   4.316   3.194   2.733 -0.3215  0.1510 -1.0941
 6228SOL     OW30319   1.851   4.210   7.689  0.0780 -0.0971  0.0212
 6228SOL    HW130320   1.822   4.125   7.723  1.6188  0.9642  3.8790
 6228SOL    HW230321   1.775   4.239   7.637  0.9939  1.2071 -0.5862
 6229SOL     OW30322   2.645   0.731   2.284  1.0535 -0.0590  0.5090
 6229SOL    HW130323   2.622   0.638   2.280 -0.0550  0.1667  1.7701
 6229SOL    HW230324   2.695   0.731   2.366  1.1061 -1.1737  0.4704
 6230SOL     OW30325   0.100   0.579   2.535 -0.2721  0.2481  0.2142
 6230SOL    HW130326   0.107   0.488   2.563 -1.7174  0.4247  1.2008
 6230SOL    HW230327   0.155   0.621   2.602  0.1686 -1.0328  0.6672
 6231SOL     OW30328   3.175   2.971   7.356  0.1128 -0.4598  1.0860
 6231SOL    HW130329   3.094   2.977   7.406 -0.7135  0.5019 -0.3888
 6231SOL    HW230330   3.209   3.056   7.382  1.0558 -0.4635 -0.1173
 6232SOL     OW30331   3.354   1.208   2.317  0.1758 -0.0879 -0.1238
 6232SOL    HW130332   3.393   1.123   2.337  0.4068 -0.4258 -1.9816
 6232SOL    HW230333   3.430   1.261   2.292  0.4779 -1.1202 -1.3549
 6233SOL     OW30334   2.514   3.902   7.754 -0.1982 -0.4853 -0.8506
 6233SOL    HW130335   2.579   3.957   7.711  0.7596 -0.6372  0.4018
 6233SOL    HW230336   2.531   3.817   7.712 -0.4636 -1.1061  0.2988
 6234SOL     OW30337   1.301   0.756   6.132  0.3907  0.5926 -0.2674
 6234SOL    HW130338   1.331   0.671   6.166  2.6568  0.9463 -1.3946
 6234SOL    HW230339   1.372   0.781   6.073 -0.5758  0.3592 -1.5277
 6235SOL     OW30340   3.935   2.374   3.176 -0.5099 -0.2149 -0.5400
 6235SOL    HW130341   3.968   2.462   3.193 -1.9981  0.3209 -0.4308
 6235SOL    HW230342   3.997   2.317   3.223  1.6970  2.6198 -0.0086
 6236SOL     OW30343   3.460   0.372   7.735 -0.1593 -0.0648  0.4972
 6236SOL    HW130344   3.463   0.434   7.808  0.5678  0.7879 -0.2558
 6236SOL    HW230345   3.456   0.295   7.792 -0.1445  1.1300  2.1057
 6237SOL     OW30346   0.060   4.050   1.664 -0.0571 -0.1135 -0.3450
 6237SOL    HW130347   0.030   4.112   1.729 -2.3064 -1.2773 -0.2674
 6237SOL    HW230348   4.727   4.057   1.601 -0.5324  3.0786  0.5485
 6238SOL     OW30349   1.890   2.457   2.071 -0.0624  0.0622  0.7827
 6238SOL    HW130350   1.916   2.549   2.061 -1.1178  0.3762  0.8799
 6238SOL    HW230351   1.961   2.409   2.028 -0.8668  1.2531 -1.8656
 6239SOL     OW30352   0.731   0.068   2.244  0.3968  0.3839  1.0745
 6239SOL    HW130353   0.785   0.011   2.298  1.9004  2.3476  1.6412
 6239SOL    HW230354   0.712   0.011   2.169  1.1707 -0.0287  1.1913
 6240SOL     OW30355   2.136   1.622   6.009 -0.0377 -0.4864  0.1208
 6240SOL    HW130356   2.125   1.567   6.087  2.2877  0.4203  1.0703
 6240SOL    HW230357   2.047   1.657   6.000  1.0259  1.3450 -3.0791
 6241SOL     OW30358   3.034   3.086   7.739 -0.0451 -0.2990  0.6080
 6241SOL    HW130359   2.957   3.053   7.786  0.8694  0.5787  2.7551
 6241SOL    HW230360   3.017   3.037   7.659  1.0325  0.3934 -0.0548
 6242SOL     OW30361   0.089   0.895   7.730  0.1353  0.0211  0.0380
 6242SOL    HW130362   0.073   0.930   7.818 -0.4129  0.8454 -0.3863
 6242SOL    HW230363   0.119   0.807   7.751 -1.8354 -0.6689 -0.0098
 6243SOL     OW30364   2.701   1.836   5.257 -0.3876  0.3355  0.6671
 6243SOL    HW130365   2.685   1.920   5.300 -0.8122  0.3762  0.4328
 6243SOL    HW230366   2.796   1.847   5.262 -0.3432  0.5049 -0.4646
 6244SOL     OW30367   2.143   1.336   8.946  0.1031  0.1002  0.1874
 6244SOL    HW130368   2.060   1.296   8.973  0.1862 -0.1067  0.1365
 6244SOL    HW230369   2.099   1.400   8.889 -2.4629 -1.5503  0.2965
 6245SOL     OW30370   2.230   1.322   0.940 -0.0215 -0.0377 -0.6016
 6245SOL    HW130371   2.257   1.327   1.032  0.5624  2.0989 -0.8863
 6245SOL    HW230372   2.149   1.373   0.939 -1.4088 -2.2173 -0.0710
 6246SOL     OW30373   3.211   3.362  12.962 -0.5626  0.3284  0.4371
 6246SOL    HW130374   3.173   3.276  12.942  1.6024 -0.7151  0.7519
 6246SOL    HW230375   3.152   3.407  13.023 -1.2682 -0.3417  0.2506
 6247SOL     OW30376   0.112   1.358   9.353 -0.0956  0.2389 -0.3739
 6247SOL    HW130377   0.068   1.280   9.321  0.5980 -0.3534  0.1085
 6247SOL    HW230378   0.058   1.373   9.430 -0.5131  1.6284 -0.9426
 6248SOL     OW30379   0.096   3.993   0.364  0.1064 -0.2603  0.1058
 6248SOL    HW130380   0.143   4.024   0.442  2.4656 -0.8961 -1.0538
 6248SOL    HW230381   0.154   4.033   0.299 -0.3015  1.0111  0.5336
 6249SOL     OW30382   0.770   3.903  13.640 -0.4902 -1.0756  0.7187
 6249SOL    HW130383   0.697   3.847  13.669 -0.3335 -1.3532  0.5781
 6249SOL    HW230384   0.755   3.977  13.698  1.2321  0.7511 -1.1786
 6250SOL     OW30385   2.464   0.277   5.905  0.0475  0.1474 -0.1748
 6250SOL    HW130386   2.420   0.347   5.857  0.0606 -0.5329 -1.1929
 6250SOL    HW230387   2.391   0.216   5.918  0.1735  0.0366  0.0031
 6251SOL     OW30388   4.538   2.216   7.011 -0.0896 -0.2591 -0.0828
 6251SOL    HW130389   4.583   2.131   7.009  1.4221  0.5416  0.0119
 6251SOL    HW230390   4.554   2.248   7.100  1.1862 -1.4819  0.1288
 6252SOL     OW30391   2.559   3.976   8.475  0.0641 -0.4286 -0.1258
 6252SOL    HW130392   2.467   4.001   8.484  0.6274  1.3117  0.7179
 6252SOL    HW230393   2.568   3.909   8.543  1.0720  1.9501  2.0609
 6253SOL     OW30394   1.917   2.157   8.489  0.0947  0.6375  0.2946
 6253SOL    HW130395   1.831   2.195   8.473 -0.3161  0.3059  1.7732
 6253SOL    HW230396   1.975   2.205   8.429  1.2301  0.9374  1.6335
 6254SOL     OW30397   1.007   0.378  16.149 -0.1128  0.2046 -0.1528
 6254SOL    HW130398   0.937   0.362  16.086 -0.0338 -0.1240 -0.1560
 6254SOL    HW230399   1.040   0.289  16.157  1.1672  0.3139 -4.1280
 6255SOL     OW30400   4.508   0.052   8.580 -0.0651  0.3032 -0.3535
 6255SOL    HW130401   4.550   4.733   8.517 -0.8262  0.0542 -0.6306
 6255SOL    HW230402   4.516   4.733   8.655  1.1589  0.8623 -0.0538
 6256SOL     OW30403   3.108   0.786   3.629 -0.8502  0.5371 -0.5512
 6256SOL    HW130404   3.143   0.852   3.689  0.4344  0.1676 -0.8995
 6256SOL    HW230405   3.132   0.705   3.674  0.2416  0.8441 -0.5844
 6257SOL     OW30406   0.323   0.479   1.864 -0.1459 -0.4169  0.0564
 6257SOL    HW130407   0.236   0.466   1.825 -0.0833  0.6330 -0.4474
 6257SOL    HW230408   0.342   0.386   1.868 -2.0189 -0.9218 -2.1866
 6258SOL     OW30409   1.718   0.299   3.717 -0.4445  0.1051  0.0197
 6258SOL    HW130410   1.748   0.210   3.737 -0.2650  0.3613  0.8704
 6258SOL    HW230411   1.707   0.341   3.803 -2.6554  0.6505 -0.5367
 6259SOL     OW30412   3.782   1.790  15.873  0.3477  0.3201 -0.6877
 6259SOL    HW130413   3.792   1.846  15.796  0.6162  0.3537 -0.6268
 6259SOL    HW230414   3.730   1.721  15.833  2.2813 -1.6124  0.1569
 6260SOL     OW30415   1.437   3.422  14.413  0.1498  1.1149 -0.4473
 6260SOL    HW130416   1.388   3.485  14.466 -0.9839  0.3743 -0.6249
 6260SOL    HW230417   1.379   3.399  14.341  1.3762 -1.9807 -0.4396
 6261SOL     OW30418   0.833   3.734  13.446 -0.0374 -0.0271  0.0709
 6261SOL    HW130419   0.894   3.781  13.388 -0.5740 -1.1196 -1.3957
 6261SOL    HW230420   0.830   3.800  13.515  1.1828 -1.7914  1.8117
 6262SOL     OW30421   3.693   0.828   3.236 -0.2257 -0.0110 -0.3082
 6262SOL    HW130422   3.688   0.770   3.161  1.1134 -0.4738 -0.0367
 6262SOL    HW230423   3.771   0.881   3.216  2.2324 -3.0057  1.3919
 6263SOL     OW30424   2.492   3.564   2.336 -0.7341 -0.1776  0.0542
 6263SOL    HW130425   2.479   3.503   2.409  1.0546 -0.3818  0.1875
 6263SOL    HW230426   2.467   3.513   2.259  2.5143  0.5951 -1.4841
 6264SOL     OW30427   4.048   0.558   9.323 -0.2039  0.0777  0.2323
 6264SOL    HW130428   3.952   0.561   9.328 -0.3190 -1.0697 -1.1049
 6264SOL    HW230429   4.064   0.507   9.243  0.9048 -3.2895  2.5991
 6265SOL     OW30430   3.697   3.189   4.696  0.3417  0.0994  0.2063
 6265SOL    HW130431   3.777   3.152   4.658 -1.3871 -4.9886  1.6019
 6265SOL    HW230432   3.733   3.242   4.767 -2.5280  0.5975  1.2865
 6266SOL     OW30433   0.429   1.562   4.198 -0.2841  0.0617  0.2232
 6266SOL    HW130434   0.463   1.527   4.116 -3.2907  0.9368 -1.3951
 6266SOL    HW230435   0.502   1.613   4.234 -0.1422  0.7701 -1.0738
 6267SOL     OW30436   3.556   0.667   5.089  0.0070 -0.1902 -0.2393
 6267SOL    HW130437   3.497   0.601   5.051  1.6405 -2.3025  0.8731
 6267SOL    HW230438   3.501   0.694   5.163 -0.0349 -0.2877 -0.2348
 6268SOL     OW30439   2.115   2.039   6.124  0.0747 -0.6135 -0.0862
 6268SOL    HW130440   2.169   2.061   6.200  1.9573 -0.8214 -1.3643
 6268SOL    HW230441   2.156   1.954   6.108 -0.5106 -0.8284 -0.4460
 6269SOL     OW30442   3.636   3.270   3.251  0.9908  0.0181  0.3828
 6269SOL    HW130443   3.658   3.177   3.254 -0.5140 -0.3836 -0.8902
 6269SOL    HW230444   3.611   3.284   3.160 -1.4365  2.2782  1.4019
 6270SOL     OW30445   0.753   0.295   7.427  0.5664  0.6384  0.1540
 6270SOL    HW130446   0.840   0.317   7.457  0.1101  1.4419  0.8656
 6270SOL    HW230447   0.693   0.346   7.481  1.3795  3.8708 -1.9736
 6271SOL     OW30448   0.939   3.412  16.670  0.2778  0.3178  0.0611
 6271SOL    HW130449   0.880   3.368  16.731  1.2385  0.2113  0.9233
 6271SOL    HW230450   0.874   3.438  16.605 -1.2311  1.6241  2.1107
 6272SOL     OW30451   4.710   1.397   1.344  0.0168  0.2560  0.3671
 6272SOL    HW130452   4.655   1.375   1.419  1.3047 -0.4368  1.0912
 6272SOL    HW230453   4.674   1.486   1.346 -0.2618  0.1578 -0.0641
 6273SOL     OW30454   3.225   1.248  11.110  0.3450  0.5310 -0.5580
 6273SOL    HW130455   3.137   1.211  11.098  0.8052 -0.1719 -1.7841
 6273SOL    HW230456   3.260   1.221  11.025  3.0826 -0.0410  0.7765
 6274SOL     OW30457   4.579   2.248   9.609  0.3911 -0.0172  0.4176
 6274SOL    HW130458   4.574   2.343   9.620  0.3942 -0.0317  0.5558
 6274SOL    HW230459   4.495   2.224   9.648 -0.1383  3.2689  1.3038
 6275SOL     OW30460   0.911   2.994   6.166 -0.2045  0.1789 -0.6162
 6275SOL    HW130461   0.848   2.925   6.186  0.6644  0.5248  3.2647
 6275SOL    HW230462   0.981   2.946   6.121  1.0007  0.2928  1.1607
 6276SOL     OW30463   4.361   3.530   6.155 -0.1877  0.2309 -0.1649
 6276SOL    HW130464   4.280   3.568   6.192  0.8236  2.6112 -0.4021
 6276SOL    HW230465   4.339   3.544   6.063  0.3762  1.5481 -0.1051
 6277SOL     OW30466   0.890   2.083  11.940 -0.1714  0.0229 -0.3735
 6277SOL    HW130467   0.969   2.136  11.952 -0.5640  0.3496  0.8292
 6277SOL    HW230468   0.827   2.153  11.957  0.0875  0.3161 -0.6149
 6278SOL     OW30469   2.805   1.290  11.250 -0.4778 -0.0451 -0.0899
 6278SOL    HW130470   2.814   1.385  11.239 -3.8646  0.1768 -0.8136
 6278SOL    HW230471   2.757   1.278  11.332  0.5224  0.0384  0.5143
 6279SOL     OW30472   0.225   1.163   2.243 -0.1950  0.1287  0.0547
 6279SOL    HW130473   0.285   1.152   2.317  0.4152 -0.9618 -0.5858
 6279SOL    HW230474   0.221   1.075   2.205 -0.0078  0.2698 -0.2945
 6280SOL     OW30475   0.391   1.088  16.464  0.2378 -0.0933 -0.6776
 6280SOL    HW130476   0.305   1.124  16.443  0.5070  0.5664 -0.6478
 6280SOL    HW230477   0.386   1.003  16.422  0.1164  0.1677 -1.1868
 6281SOL     OW30478   4.431   1.092   5.969  0.9810  0.2427  0.1762
 6281SOL    HW130479   4.358   1.039   6.001  0.2539  1.0322 -0.1699
 6281SOL    HW230480   4.495   1.061   6.033 -0.4396 -1.6200  0.7097
 6282SOL     OW30481   1.065   3.268   1.538  0.3604  0.0275 -0.1069
 6282SOL    HW130482   1.079   3.192   1.595 -1.3644 -0.6431 -0.5843
 6282SOL    HW230483   1.137   3.320   1.575  0.2373  0.3522 -0.3287
 6283SOL     OW30484   2.717   3.365  10.017  0.0691 -0.5391  0.4862
 6283SOL    HW130485   2.732   3.297   9.951 -1.1519 -1.7140  1.4283
 6283SOL    HW230486   2.750   3.437   9.963  1.9398 -1.2708  0.6267
 6284SOL     OW30487   2.918   2.668   4.956 -0.2260  0.1064  0.4572
 6284SOL    HW130488   2.879   2.692   4.872  0.6906  0.9736  0.2774
 6284SOL    HW230489   3.000   2.629   4.927 -0.3147 -0.2671  0.7057
 6285SOL     OW30490   0.456   4.144   9.205  0.3354 -0.2772 -0.4958
 6285SOL    HW130491   0.521   4.189   9.151  0.6567  2.6082  2.3332
 6285SOL    HW230492   0.440   4.065   9.153  0.7203 -2.2701  2.4328
 6286SOL     OW30493   4.348   0.634   3.096 -0.3057  0.0693  0.6185
 6286SOL    HW130494   4.262   0.643   3.057 -0.7947  0.4317  1.7684
 6286SOL    HW230495   4.319   0.605   3.183 -1.2927 -1.0298 -0.0902
 6287SOL     OW30496   1.724   1.858  13.465 -0.2393 -0.4396 -0.2203
 6287SOL    HW130497   1.743   1.927  13.530 -0.2520  1.4246 -2.1969
 6287SOL    HW230498   1.637   1.881  13.433 -1.1658 -0.9430  1.9119
 6288SOL     OW30499   1.116   0.095   5.634 -0.4776  0.6277 -0.6217
 6288SOL    HW130500   1.070   0.166   5.589 -1.1434  1.2061  0.9859
 6288SOL    HW230501   1.077   0.022   5.586  0.1499 -1.9547  2.8198
 6289SOL     OW30502   0.508   4.321   4.122  0.2563  0.6428 -0.0602
 6289SOL    HW130503   0.422   4.309   4.082 -0.7453  0.5608  2.1743
 6289SOL    HW230504   0.529   4.407   4.085  1.1827  1.1118  1.5826
 6290SOL     OW30505   3.155   0.559   3.757  0.0888 -0.0475 -0.2281
 6290SOL    HW130506   3.156   0.543   3.851 -1.1598 -0.0457 -0.2085
 6290SOL    HW230507   3.165   0.469   3.727 -1.8461 -0.6641  0.9760
 6291SOL     OW30508   1.042   3.327   7.053 -0.4689  0.3434  0.2555
 6291SOL    HW130509   1.042   3.394   6.984 -1.3969  0.2748  0.1819
 6291SOL    HW230510   0.953   3.299   7.033  0.0088  0.0964 -1.5510
 6292SOL     OW30511   3.175   3.612   6.526  0.4665 -0.2007 -0.4387
 6292SOL    HW130512   3.268   3.598   6.506  0.7614 -0.6370  1.2569
 6292SOL    HW230513   3.172   3.700   6.564  1.2367 -0.1776 -0.4297
 6293SOL     OW30514   3.576   2.481   7.994  0.3503  0.4778  0.3762
 6293SOL    HW130515   3.521   2.542   8.045 -0.7183 -2.0659  2.2494
 6293SOL    HW230516   3.652   2.471   8.051 -0.4341 -2.4864  0.8872
 6294SOL     OW30517   4.142   0.905   5.755  0.1334 -0.2819  0.0649
 6294SOL    HW130518   4.146   0.847   5.679  2.1675  0.2535 -0.2267
 6294SOL    HW230519   4.234   0.930   5.768 -0.4040  0.4707  2.4015
 6295SOL     OW30520   4.544   2.972   9.589  0.0492  0.5947  0.1367
 6295SOL    HW130521   4.574   3.062   9.595 -2.6533  1.4869  0.2490
 6295SOL    HW230522   4.552   2.956   9.495 -0.6571  2.9326 -0.3136
 6296SOL     OW30523   1.305   2.777   8.189 -0.0143 -0.8445 -0.0691
 6296SOL    HW130524   1.229   2.779   8.247  1.3138  0.1120  1.6271
 6296SOL    HW230525   1.296   2.697   8.138 -0.1749 -0.5945 -0.4362
 6297SOL     OW30526   4.540   0.174   4.655  0.5453  0.2230 -0.3779
 6297SOL    HW130527   4.634   0.194   4.654  0.6172 -0.1129 -0.6142
 6297SOL    HW230528   4.507   0.263   4.668 -1.3833 -0.3537 -1.3851
 6298SOL     OW30529   2.416   2.395  15.549  0.4816  0.2783  0.1412
 6298SOL    HW130530   2.380   2.416  15.636 -0.9090  0.2045 -0.4214
 6298SOL    HW230531   2.338   2.351  15.516 -0.1027  2.9454 -1.9982
 6299SOL     OW30532   0.331   3.808   2.718  0.2891  0.3064 -0.2729
 6299SOL    HW130533   0.367   3.816   2.807  0.6726 -0.1356 -0.3872
 6299SOL    HW230534   0.412   3.827   2.672 -0.5325  0.1715 -1.7534
 6300SOL     OW30535   4.340   1.452   9.235  0.0912 -0.7599  0.5754
 6300SOL    HW130536   4.405   1.407   9.180 -1.5212 -2.4358  0.0260
 6300SOL    HW230537   4.362   1.415   9.321  0.2990 -1.5963  0.1664
 6301SOL     OW30538   4.130   0.679  16.759 -0.2885  0.0662 -0.0499
 6301SOL    HW130539   4.121   0.742  16.687 -0.0840  1.1532  0.8812
 6301SOL    HW230540   4.094   0.601  16.716 -0.7293 -1.2537  2.7194
 6302SOL     OW30541   4.584   4.603   4.472 -1.0921  0.1463 -0.1225
 6302SOL    HW130542   4.521   4.646   4.415 -1.0384  0.3705 -0.0134
 6302SOL    HW230543   4.664   4.603   4.420  0.0113  0.8822  1.5536
 6303SOL     OW30544   2.431   1.624   3.640  0.4454 -0.3631  0.3446
 6303SOL    HW130545   2.507   1.589   3.686 -0.2399 -0.1502  1.6298
 6303SOL    HW230546   2.439   1.592   3.550 -0.8479 -1.8104  0.7568
 6304SOL     OW30547   0.017   1.321   8.120  0.2171 -0.1518 -0.2700
 6304SOL    HW130548   4.733   1.236   8.158  0.0072 -0.4827 -1.1533
 6304SOL    HW230549   4.681   1.379   8.116 -0.2399 -0.8069 -1.1565
 6305SOL     OW30550   4.573   3.101   1.034 -0.1553 -0.3790 -0.2643
 6305SOL    HW130551   4.665   3.121   1.051 -0.3163  0.6661 -0.6039
 6305SOL    HW230552   4.585   3.065   0.947  0.2395  2.4814 -1.4011
 6306SOL     OW30553   0.798   4.635  14.401  0.8825 -0.3233  0.5897
 6306SOL    HW130554   0.818   4.544  14.381 -1.7813 -0.5549 -1.0739
 6306SOL    HW230555   0.736   4.670  14.336  1.0290  2.5893  2.0342
 6307SOL     OW30556   1.515   1.577  14.320 -0.2155 -0.0738  0.3391
 6307SOL    HW130557   1.505   1.630  14.399 -0.1772  0.4192  0.0146
 6307SOL    HW230558   1.599   1.604  14.283  0.2885 -0.7464  0.9929
 6308SOL     OW30559   1.765   2.678   9.270  0.4092  0.4677  0.0331
 6308SOL    HW130560   1.722   2.665   9.355 -0.3145  0.6107 -0.3074
 6308SOL    HW230561   1.815   2.597   9.257  1.1966  0.7475  1.3270
 6309SOL     OW30562   2.128   1.994  16.994 -0.1418  0.2810  0.2862
 6309SOL    HW130563   2.036   1.978  17.017 -0.2998 -1.9142 -1.8945
 6309SOL    HW230564   2.128   2.086  17.023 -0.5435 -0.2707  2.0605
 6310SOL     OW30565   1.621   2.942   3.473 -0.3206 -0.0278  0.2407
 6310SOL    HW130566   1.686   3.013   3.474 -0.2873 -0.0843  1.8010
 6310SOL    HW230567   1.602   2.928   3.380  2.3652  1.9715 -0.6059
 6311SOL     OW30568   2.265   2.506   6.680  0.0901 -0.0793  0.5154
 6311SOL    HW130569   2.238   2.526   6.769 -0.3512  1.6346  0.0054
 6311SOL    HW230570   2.213   2.578   6.645 -0.9266 -0.7902  0.5707
 6312SOL     OW30571   4.192   2.994   5.371 -0.3129 -0.0310 -0.6257
 6312SOL    HW130572   4.183   2.918   5.314  1.2814 -1.1833  0.6483
 6312SOL    HW230573   4.222   2.947   5.449 -0.8918 -0.8673 -0.9127
 6313SOL     OW30574   2.640   0.621  11.525 -0.5363  0.3790  0.1548
 6313SOL    HW130575   2.589   0.627  11.605 -0.2897  1.4059  0.2378
 6313SOL    HW230576   2.578   0.583  11.463 -0.0840  0.4317 -0.3347
 6314SOL     OW30577   3.267   0.575   8.626  0.3550 -0.5769  0.1878
 6314SOL    HW130578   3.274   0.482   8.645  1.0973 -0.4945  0.3425
 6314SOL    HW230579   3.321   0.607   8.699  3.3280 -2.1054 -1.3417
 6315SOL     OW30580   3.352   0.648   9.453  0.3204  0.6795 -0.2819
 6315SOL    HW130581   3.282   0.656   9.517 -1.2232  0.6424 -1.9581
 6315SOL    HW230582   3.359   0.738   9.422  1.5257  1.0025  0.9367
 6316SOL     OW30583   3.567   1.804   3.281  0.0261 -0.7156  0.1042
 6316SOL    HW130584   3.604   1.722   3.314  0.9965 -0.4769 -0.4135
 6316SOL    HW230585   3.542   1.769   3.196  1.8124  0.0624 -0.7377
 6317SOL     OW30586   2.974   4.307  16.765  0.3086  0.0618  0.4314
 6317SOL    HW130587   3.008   4.361  16.693 -0.6320  1.5303  1.0815
 6317SOL    HW230588   2.947   4.222  16.732  1.5931 -0.3824  0.5192
 6318SOL     OW30589   0.601   1.292  15.939 -0.5326  0.0548 -0.5144
 6318SOL    HW130590   0.600   1.255  15.851 -0.6898 -2.7084  0.6292
 6318SOL    HW230591   0.573   1.211  15.983 -2.1184  0.8427 -0.0688
 6319SOL     OW30592   0.054   1.003   2.700  0.6494  0.0573  0.3651
 6319SOL    HW130593   0.113   0.935   2.666 -2.6031 -0.4227 -4.2446
 6319SOL    HW230594   0.094   1.076   2.654 -0.9372  0.6489 -0.0698
 6320SOL     OW30595   0.799   0.422   4.072 -0.2229 -0.1986  0.2093
 6320SOL    HW130596   0.891   0.406   4.054 -0.0117  1.5666 -0.2347
 6320SOL    HW230597   0.798   0.517   4.061  0.7760 -0.4952 -2.4256
 6321SOL     OW30598   1.133   2.940  12.676 -0.1684  0.3173 -0.0981
 6321SOL    HW130599   1.126   2.858  12.628  0.5821  0.6663 -0.7963
 6321SOL    HW230600   1.070   2.997  12.632  0.7131  0.2478 -1.4224
 6322SOL     OW30601   1.258   1.298   3.024 -0.9048  0.0658  1.0636
 6322SOL    HW130602   1.248   1.319   2.931 -0.6488  1.6628  1.3989
 6322SOL    HW230603   1.227   1.208   3.028  1.1101 -0.6008  1.5227
 6323SOL     OW30604   4.252   1.706   1.853 -0.0450  0.2736 -0.2942
 6323SOL    HW130605   4.339   1.747   1.854 -0.1063  0.4406 -1.1876
 6323SOL    HW230606   4.214   1.717   1.940  0.2115  0.1030 -0.1600
 6324SOL     OW30607   1.671   2.797   4.539 -0.2470 -0.0958 -0.5968
 6324SOL    HW130608   1.765   2.797   4.557 -0.7500 -1.2870  1.9934
 6324SOL    HW230609   1.641   2.877   4.583  2.0453 -0.7416  2.1662
 6325SOL     OW30610   1.975   0.133   8.167  0.1374 -0.3538  0.8051
 6325SOL    HW130611   1.979   0.229   8.168 -0.3701 -0.3427  1.3145
 6325SOL    HW230612   2.069   0.112   8.167  0.1770 -0.1746 -0.9784
 6326SOL     OW30613   1.240   1.456   1.889  0.2030 -0.6004  0.2108
 6326SOL    HW130614   1.145   1.451   1.873  0.0188  1.9847  0.5941
 6326SOL    HW230615   1.243   1.478   1.982 -0.4363 -1.0100  0.3330
 6327SOL     OW30616   3.481   3.299   7.040 -0.0075 -0.3593  0.0974
 6327SOL    HW130617   3.452   3.345   7.119  0.8766 -0.5678  0.5422
 6327SOL    HW230618   3.503   3.378   6.992 -1.6115  0.4360  0.6588
 6328SOL     OW30619   4.117   4.522  14.761  0.2071  0.2564 -0.0921
 6328SOL    HW130620   4.113   4.617  14.748  1.1560  0.2884 -0.1678
 6328SOL    HW230621   4.049   4.513  14.827  1.7246 -1.8660  1.1750
 6329SOL     OW30622   1.828   2.141   3.363 -0.1335  0.5821 -0.2087
 6329SOL    HW130623   1.863   2.067   3.312 -1.4440 -0.7127  0.7476
 6329SOL    HW230624   1.893   2.157   3.432 -0.3047 -2.5361  0.6965
 6330SOL     OW30625   0.550   2.133  12.755 -0.2828 -0.7235  0.0876
 6330SOL    HW130626   0.588   2.089  12.830  0.1941  2.2114  1.5971
 6330SOL    HW230627   0.504   2.211  12.787  1.6869  0.9360 -1.1644
 6331SOL     OW30628   4.145   2.566   7.260 -0.1254 -0.0972  0.0560
 6331SOL    HW130629   4.216   2.505   7.282  0.1449 -0.0272 -0.6460
 6331SOL    HW230630   4.133   2.597   7.350  1.4421  1.2508 -0.1988
 6332SOL     OW30631   1.197   0.776   5.142  0.4013 -0.4580  0.1160
 6332SOL    HW130632   1.195   0.864   5.105  2.2696 -0.0994  0.8807
 6332SOL    HW230633   1.292   0.765   5.148  0.8162  3.6072  1.0708
 6333SOL     OW30634   0.607   0.936   7.403  0.2194 -0.5765 -0.3869
 6333SOL    HW130635   0.582   1.027   7.418 -1.6245 -1.0602 -0.4950
 6333SOL    HW230636   0.530   0.899   7.360 -0.2840 -0.4642  0.4154
 6334SOL     OW30637   3.790   4.417   8.562  0.0288  0.1643 -0.0680
 6334SOL    HW130638   3.807   4.340   8.617 -2.0264 -0.1922  0.0720
 6334SOL    HW230639   3.695   4.412   8.547  0.0804 -0.2164 -0.2647
 6335SOL     OW30640   2.059   0.458  10.914  0.1701  0.0126  0.2201
 6335SOL    HW130641   2.153   0.448  10.929  0.5827  1.9273 -1.0282
 6335SOL    HW230642   2.046   0.552  10.898  0.2041 -0.1606 -0.8224
 6336SOL     OW30643   0.339   0.054   2.423 -0.3854  0.2016  0.3439
 6336SOL    HW130644   0.314   0.026   2.335 -1.0447  0.5759  0.4166
 6336SOL    HW230645   0.421   0.101   2.406 -0.6967  1.3422  2.0280
 6337SOL     OW30646   1.668   4.301  10.110  0.7753 -0.2172 -0.2643
 6337SOL    HW130647   1.649   4.314  10.017  0.9776 -0.7792 -0.3815
 6337SOL    HW230648   1.730   4.228  10.114  1.1656  0.1447  0.1377
 6338SOL     OW30649   1.100   1.942  12.920 -0.1678 -0.7666  0.1196
 6338SOL    HW130650   1.056   1.887  12.855  0.3123 -2.9473  1.6238
 6338SOL    HW230651   1.132   2.010  12.861  0.5518 -1.8279 -0.7129
 6339SOL     OW30652   4.342   3.843  13.065  0.0514  0.2262 -0.2366
 6339SOL    HW130653   4.370   3.843  12.974 -1.9919  1.5540 -0.8707
 6339SOL    HW230654   4.340   3.749  13.083 -2.9186  0.2569 -0.3445
 6340SOL     OW30655   1.509   0.346  15.558 -0.2139  0.4016  0.5373
 6340SOL    HW130656   1.596   0.379  15.534  0.0133 -0.3564  0.3002
 6340SOL    HW230657   1.480   0.338  15.467  2.0836 -0.1636 -0.1672
 6341SOL     OW30658   0.174   1.472  10.110 -0.1722  0.5467 -0.2732
 6341SOL    HW130659   0.239   1.527  10.154  1.1147 -1.0702 -0.1620
 6341SOL    HW230660   0.147   1.536  10.044  0.5054  1.0497 -0.0633
 6342SOL     OW30661   2.468   0.563   6.094  1.0098 -0.2469 -0.1288
 6342SOL    HW130662   2.559   0.539   6.110  1.3271  2.4864  2.3383
 6342SOL    HW230663   2.422   0.568   6.178  2.2604  0.3136  0.5225
 6343SOL     OW30664   0.583   1.217   4.212  0.4315  0.5556 -0.4919
 6343SOL    HW130665   0.499   1.249   4.178  0.7201  0.1626 -1.5521
 6343SOL    HW230666   0.632   1.252   4.138  0.4792  1.5777  0.0278
 6344SOL     OW30667   2.013   2.662  17.628 -0.6544  0.2336 -0.0447
 6344SOL    HW130668   1.955   2.601  17.582  0.3713 -1.5812  1.0518
 6344SOL    HW230669   2.031   2.601  17.699 -1.6307  0.4000  0.3325
 6345SOL     OW30670   3.431   3.736  15.069 -0.6825  0.0622  0.2216
 6345SOL    HW130671   3.485   3.772  15.139 -0.9887  0.4708  0.2530
 6345SOL    HW230672   3.429   3.645  15.099 -1.8975 -0.6989 -2.1512
 6346SOL     OW30673   2.345   0.544   3.298  0.3422 -0.0930  0.4707
 6346SOL    HW130674   2.401   0.517   3.225 -0.4630  0.7245 -0.4570
 6346SOL    HW230675   2.344   0.460   3.344 -1.0690 -0.7960 -0.8044
 6347SOL     OW30676   4.663   2.572   9.408  0.1217  0.0167 -0.3163
 6347SOL    HW130677   4.602   2.644   9.390 -2.3199 -1.4595  1.9508
 6347SOL    HW230678   4.638   2.559   9.499  1.1371 -0.0749 -0.0534
 6348SOL     OW30679   4.730   0.376   7.629 -0.2228 -0.3490  0.4284
 6348SOL    HW130680   4.732   0.349   7.537  1.1675 -0.2196  0.4316
 6348SOL    HW230681   0.042   0.302   7.661  1.2680  0.5700  0.1316
 6349SOL     OW30682   3.253   3.305   7.755 -0.5500 -0.5657  0.2358
 6349SOL    HW130683   3.272   3.280   7.665  1.8650 -1.4662  0.9871
 6349SOL    HW230684   3.165   3.270   7.767 -0.5521 -0.4716  0.5031
 6350SOL     OW30685   4.680   1.779   2.417  0.1066  0.1827  0.0115
 6350SOL    HW130686   4.670   1.684   2.409  0.9190  0.0113  1.0043
 6350SOL    HW230687   0.033   1.785   2.390 -0.3025 -0.2459 -1.5021
 6351SOL     OW30688   0.928   1.970  17.101 -0.4862  0.1296 -0.2766
 6351SOL    HW130689   1.020   1.970  17.074 -0.8257  0.7487 -1.4175
 6351SOL    HW230690   0.943   1.975  17.196 -0.9935  1.3682 -0.2593
 6352SOL     OW30691   3.302   1.634   7.928 -0.3279 -0.0251  0.4849
 6352SOL    HW130692   3.331   1.673   7.846  0.0377 -0.5973  0.3485
 6352SOL    HW230693   3.289   1.541   7.910  0.7703  0.1757 -1.3021
 6353SOL     OW30694   4.190   3.763   4.158 -0.2531 -0.3637  0.8357
 6353SOL    HW130695   4.117   3.739   4.216 -0.4640 -1.7886 -0.0166
 6353SOL    HW230696   4.150   3.728   4.078  1.2182  0.3402 -0.1939
 6354SOL     OW30697   3.117   1.642  14.083 -0.1821 -0.1118 -0.4429
 6354SOL    HW130698   3.191   1.700  14.062 -1.7605  2.2206  0.3765
 6354SOL    HW230699   3.072   1.636  13.998  0.1620 -2.8744 -0.4149
 6355SOL     OW30700   3.670   3.743  10.703 -0.8472  0.9683  0.5429
 6355SOL    HW130701   3.741   3.807  10.703 -1.6037  1.8192  1.1804
 6355SOL    HW230702   3.722   3.663  10.710  0.4390  1.8117  0.5856
 6356SOL     OW30703   0.974   0.684  10.809 -0.4540  0.3234  0.7596
 6356SOL    HW130704   0.977   0.617  10.878  0.0184  0.6189  1.0286
 6356SOL    HW230705   0.884   0.665  10.783 -0.2388 -0.7105  0.7910
 6357SOL     OW30706   1.688   1.598   1.356  0.3003 -0.3431 -0.1341
 6357SOL    HW130707   1.726   1.573   1.441 -1.2518 -1.2595  0.2894
 6357SOL    HW230708   1.618   1.652   1.392  0.5033 -0.3199  0.2289
 6358SOL     OW30709   4.360   0.367   7.257  0.0025 -0.4587 -0.0901
 6358SOL    HW130710   4.416   0.388   7.182 -0.9937 -0.5041 -0.8464
 6358SOL    HW230711   4.309   0.289   7.233 -0.1410  0.1445 -1.7537
 6359SOL     OW30712   4.513   2.023   4.138 -0.3134  0.7422 -0.7044
 6359SOL    HW130713   4.606   2.001   4.136 -0.2076  1.2059 -0.8222
 6359SOL    HW230714   4.506   2.014   4.043 -0.1180 -0.0332 -0.6481
 6360SOL     OW30715   3.472   1.770   1.623 -0.5851 -0.6517  0.3109
 6360SOL    HW130716   3.564   1.781   1.601 -0.8988  2.0253  0.3756
 6360SOL    HW230717   3.473   1.675   1.631 -0.9036 -0.6933 -0.0961
 6361SOL     OW30718   3.549   1.087   0.768  0.4152 -0.2943 -0.4092
 6361SOL    HW130719   3.601   1.046   0.837  1.4852 -0.6076 -1.4068
 6361SOL    HW230720   3.604   1.085   0.690 -1.2741 -1.6680 -1.5723
 6362SOL     OW30721   4.491   2.798   3.411  0.0812  0.4322  0.6005
 6362SOL    HW130722   4.468   2.787   3.319 -0.6090  0.6931  0.7434
 6362SOL    HW230723   4.488   2.706   3.438 -0.4693  0.7370  1.5398
 6363SOL     OW30724   1.423   0.457   4.252 -0.9209  0.4279 -0.0821
 6363SOL    HW130725   1.366   0.459   4.329 -0.5624 -3.0662  0.2762
 6363SOL    HW230726   1.420   0.368   4.218  1.4468  0.7668 -1.1980
 6364SOL     OW30727   3.561   3.696   4.690  0.2313 -0.2591  0.3428
 6364SOL    HW130728   3.521   3.776   4.725 -1.8549 -1.2732  0.2816
 6364SOL    HW230729   3.646   3.687   4.733 -0.3328 -0.5209  1.3974
 6365SOL     OW30730   2.567   3.835  14.407 -0.0306  0.3475 -0.0558
 6365SOL    HW130731   2.551   3.745  14.435  1.9892 -0.5566 -1.7216
 6365SOL    HW230732   2.615   3.810  14.328 -0.0066  0.9062 -0.2163
 6366SOL     OW30733   0.099   3.469   7.815 -0.0233 -0.1336  0.5415
 6366SOL    HW130734   0.121   3.559   7.837 -0.4047  0.2202 -0.4836
 6366SOL    HW230735   0.168   3.436   7.758  1.7913 -2.7681  4.2668
 6367SOL     OW30736   1.483   4.411   7.865 -0.5184 -0.2447 -0.0952
 6367SOL    HW130737   1.564   4.455   7.889  0.3347 -1.8855  0.0389
 6367SOL    HW230738   1.482   4.405   7.769 -1.1268  0.4633 -0.1307
 6368SOL     OW30739   3.726   1.213  15.774  0.0560 -0.2379 -0.1981
 6368SOL    HW130740   3.751   1.280  15.838  0.3488  1.0689 -1.6872
 6368SOL    HW230741   3.744   1.141  15.835  2.5737  2.5678  2.4021
 6369SOL     OW30742   0.492   4.228   4.975  0.1053  0.0690  0.2710
 6369SOL    HW130743   0.440   4.169   4.920 -0.9361  0.6872  0.5961
 6369SOL    HW230744   0.503   4.307   4.921 -1.7128  1.1112  1.4282
 6370SOL     OW30745   1.331   4.087   3.492  0.4868 -0.0705  0.1491
 6370SOL    HW130746   1.307   3.994   3.491 -2.6209  0.7408 -1.2431
 6370SOL    HW230747   1.424   4.080   3.513  0.8967  1.4298 -1.1920
 6371SOL     OW30748   0.735   3.207   5.190 -0.0173  0.1669 -0.0558
 6371SOL    HW130749   0.730   3.185   5.097  1.2971  0.9013 -0.3040
 6371SOL    HW230750   0.732   3.120   5.232  1.3744 -0.0057 -0.2986
 6372SOL     OW30751   3.578   3.673   3.120 -0.0539 -0.4177  0.1236
 6372SOL    HW130752   3.585   3.674   3.024  1.0404  1.6557  0.2265
 6372SOL    HW230753   3.484   3.668   3.136  0.1280 -0.6394  1.1150
 6373SOL     OW30754   1.277   3.693  14.329 -0.1417  0.4835  0.7270
 6373SOL    HW130755   1.365   3.724  14.307  0.1864 -1.6633 -1.0166
 6373SOL    HW230756   1.237   3.669  14.246  0.4361 -0.9614  0.8504
 6374SOL     OW30757   0.994   2.722  12.905 -0.0401  0.1852  0.0722
 6374SOL    HW130758   0.903   2.692  12.918  0.4592 -0.5667  1.8100
 6374SOL    HW230759   1.006   2.708  12.811  0.5926 -2.1371  0.4913
 6375SOL     OW30760   1.558   0.053  10.643  0.0846  0.1268 -0.2546
 6375SOL    HW130761   1.641   0.046  10.691  1.6222 -0.0044 -2.9474
 6375SOL    HW230762   1.567   4.727  10.574  0.9140 -1.8149  1.6655
 6376SOL     OW30763   0.772   0.442   7.890  0.0694 -0.0770 -0.1197
 6376SOL    HW130764   0.840   0.390   7.932  0.2554 -0.6855 -1.1966
 6376SOL    HW230765   0.731   0.374   7.837  2.4636 -0.3404 -1.6291
 6377SOL     OW30766   2.036   4.155   1.534 -0.0107  0.4525 -0.6241
 6377SOL    HW130767   1.977   4.221   1.569  0.0400  0.3645 -0.3724
 6377SOL    HW230768   1.981   4.110   1.470 -0.6319  0.9969 -0.4726
 6378SOL     OW30769   3.597   0.339   9.692 -0.3537 -0.0446 -0.3638
 6378SOL    HW130770   3.519   0.284   9.700  0.7029 -1.5998 -0.6674
 6378SOL    HW230771   3.655   0.295   9.755  0.3406  1.5056  0.0972
 6379SOL     OW30772   3.983   2.849   2.546 -0.1860  0.3804 -0.3644
 6379SOL    HW130773   3.962   2.789   2.474  1.3223 -0.4883 -0.0809
 6379SOL    HW230774   3.903   2.901   2.558  0.8650  1.0862  3.3142
 6380SOL     OW30775   2.434   1.262   3.270 -0.2932  0.0141  0.1185
 6380SOL    HW130776   2.431   1.278   3.176 -0.7037  3.6178  0.7697
 6380SOL    HW230777   2.440   1.166   3.276 -2.6661 -0.1920 -0.8943
 6381SOL     OW30778   3.332   3.378  11.494 -0.2859 -0.0769  0.0046
 6381SOL    HW130779   3.327   3.311  11.427  0.2647  0.2703 -0.3841
 6381SOL    HW230780   3.249   3.365  11.539 -0.8275 -0.9261 -1.2410
 6382SOL     OW30781   2.660   3.347   1.712 -0.0854  0.1060 -0.1392
 6382SOL    HW130782   2.676   3.331   1.618  0.3324 -1.0927  0.1367
 6382SOL    HW230783   2.684   3.263   1.750 -0.5431 -0.1004 -0.3132
 6383SOL     OW30784   4.605   3.389   5.709 -0.5867 -0.5031 -0.0901
 6383SOL    HW130785   4.584   3.383   5.802  2.4348 -1.0495  0.5528
 6383SOL    HW230786   4.571   3.477   5.693 -0.3316 -0.1918  1.1202
 6384SOL     OW30787   2.835   3.131   5.766 -0.2693 -0.1784  0.4150
 6384SOL    HW130788   2.779   3.058   5.742 -0.8936 -0.8259  3.8581
 6384SOL    HW230789   2.769   3.186   5.807 -0.2536  0.8820 -0.9870
 6385SOL     OW30790   0.125   2.859   1.853  0.7714 -0.1392 -0.2168
 6385SOL    HW130791   0.184   2.915   1.805  1.0026  1.4729  1.9504
 6385SOL    HW230792   0.167   2.854   1.939 -1.6870 -1.4024  0.9465
 6386SOL     OW30793   3.917   2.886   8.895 -0.0854 -0.3684  0.0436
 6386SOL    HW130794   3.939   2.973   8.928  1.3091 -0.8993  0.5083
 6386SOL    HW230795   3.900   2.907   8.803  0.2150  0.5371  0.1955
 6387SOL     OW30796   3.197   3.041  14.968  0.4968  0.2255 -0.1543
 6387SOL    HW130797   3.192   3.078  14.880  0.0939  1.5092  0.4182
 6387SOL    HW230798   3.125   2.978  14.958  1.8854 -1.2837 -0.7568
 6388SOL     OW30799   2.723   0.949   4.694  0.0623 -0.5533 -0.4700
 6388SOL    HW130800   2.748   0.951   4.786  1.0425 -0.9871 -0.7312
 6388SOL    HW230801   2.781   1.021   4.667 -0.6735  0.1970 -0.0474
 6389SOL     OW30802   3.800   4.396   9.552  0.1442  0.2758 -0.4196
 6389SOL    HW130803   3.731   4.393   9.617  0.0610  2.8560 -0.3542
 6389SOL    HW230804   3.881   4.376   9.598 -0.0211  0.4827 -0.0404
 6390SOL     OW30805   0.902   2.650  17.066 -0.6708  0.0678  0.4586
 6390SOL    HW130806   0.904   2.626  17.158 -0.0574 -0.6572  0.2583
 6390SOL    HW230807   0.946   2.580  17.016  1.8925  0.2372  2.4850
 6391SOL     OW30808   4.397   4.662   5.213 -0.1835  0.2043  0.9408
 6391SOL    HW130809   4.311   4.698   5.192  0.0521  0.1271 -0.1524
 6391SOL    HW230810   4.413   4.699   5.300  1.0055 -0.0403  0.8325
 6392SOL     OW30811   1.780   4.610  14.250 -0.2638  0.3289  0.6188
 6392SOL    HW130812   1.738   4.675  14.194 -1.0661 -0.9580 -0.2779
 6392SOL    HW230813   1.856   4.648  14.294  0.2752 -0.6236  0.5156
 6393SOL     OW30814   0.063   3.622   5.053 -0.0691 -0.2337 -0.3210
 6393SOL    HW130815   0.039   3.646   5.142 -1.4232 -1.7756 -0.2832
 6393SOL    HW230816   0.153   3.656   5.051  0.3194 -1.3066 -1.1850
 6394SOL     OW30817   3.604   2.901   3.192  0.0982 -0.7250  0.1317
 6394SOL    HW130818   3.696   2.911   3.214  0.3698  1.6855 -2.0383
 6394SOL    HW230819   3.607   2.881   3.098 -4.3946  1.0300 -0.4081
 6395SOL     OW30820   0.124   1.033   6.186 -0.6907 -0.0390  0.0676
 6395SOL    HW130821   0.160   1.079   6.262 -0.7494  0.5223 -0.2431
 6395SOL    HW230822   0.150   1.086   6.111  0.2113  2.0624  1.8795
 6396SOL     OW30823   1.734   2.849  12.288  0.2333  0.3043  0.1910
 6396SOL    HW130824   1.647   2.867  12.322 -1.1010 -3.1938 -1.3380
 6396SOL    HW230825   1.787   2.842  12.367 -0.7622 -1.2882  0.7330
 6397SOL     OW30826   3.387   4.463  16.080 -0.5470 -0.1355 -0.1500
 6397SOL    HW130827   3.411   4.393  16.141 -0.8736  0.6339  0.8530
 6397SOL    HW230828   3.351   4.402  16.015 -1.0901 -2.2121  2.1077
 6398SOL     OW30829   1.899   2.856   8.337  0.0978 -0.2321  0.4022
 6398SOL    HW130830   1.866   2.784   8.283  0.9445 -1.1621  1.1119
 6398SOL    HW230831   1.957   2.898   8.275 -0.9790  1.4763  0.5378
 6399SOL     OW30832   1.995   1.453   3.046  0.1834  0.2344 -0.1542
 6399SOL    HW130833   1.974   1.497   3.129 -1.3915  0.2843 -0.5921
 6399SOL    HW230834   2.066   1.397   3.080  0.0325  0.5699  0.7047
 6400SOL     OW30835   2.141   2.358   8.524 -0.6643  0.4473 -0.3793
 6400SOL    HW130836   2.125   2.271   8.560 -0.2917  0.8001  0.6401
 6400SOL    HW230837   2.080   2.413   8.572  2.1765  0.9295  2.7012
 6401SOL     OW30838   2.563   1.679  17.592  0.4602 -0.2335  0.0376
 6401SOL    HW130839   2.496   1.707  17.529 -0.9386  0.7596  1.9524
 6401SOL    HW230840   2.636   1.734  17.565 -0.9880  1.5988 -0.1551
 6402SOL     OW30841   2.897   1.448  17.451 -0.2063 -0.2002  0.0743
 6402SOL    HW130842   2.873   1.541  17.461  2.2358  0.1654  2.4137
 6402SOL    HW230843   2.849   1.425  17.371 -1.4879 -1.8543  1.3254
 6403SOL     OW30844   2.340   4.271  15.473 -0.1659  0.1032 -0.2843
 6403SOL    HW130845   2.356   4.335  15.404 -0.1101  0.3416 -0.0510
 6403SOL    HW230846   2.294   4.320  15.541  1.0446  1.9972 -0.8283
 6404SOL     OW30847   3.631   2.163  14.020  0.4074  0.5247  0.9626
 6404SOL    HW130848   3.645   2.189  13.929 -1.4276  0.0460  0.5547
 6404SOL    HW230849   3.606   2.249  14.056 -0.7628  1.2234 -1.5497
 6405SOL     OW30850   1.387   4.547  11.635 -0.1438  0.2339  0.0701
 6405SOL    HW130851   1.439   4.568  11.557  0.7388 -0.9176  0.3355
 6405SOL    HW230852   1.451   4.524  11.703  0.2046 -2.0143 -1.0028
 6406SOL     OW30853   0.272   4.505  16.840  0.7214  0.5031  0.5464
 6406SOL    HW130854   0.322   4.569  16.789 -1.6908  0.7867 -1.4648
 6406SOL    HW230855   0.243   4.564  16.910  0.1445 -1.6076  2.1026
 6407SOL     OW30856   1.063   1.040  11.414 -0.2336  0.7279 -0.5422
 6407SOL    HW130857   0.986   1.017  11.362  0.1238  0.7885 -1.0923
 6407SOL    HW230858   1.124   1.082  11.354  3.8979 -2.7019  1.3045
 6408SOL     OW30859   4.248   0.463   4.591 -0.6349  1.0104 -0.0614
 6408SOL    HW130860   4.337   0.458   4.626 -0.6400  0.8143 -0.0764
 6408SOL    HW230861   4.204   0.385   4.626  0.4211 -0.1599 -1.3507
 6409SOL     OW30862   2.109   3.941   8.368 -0.0440  0.2549 -0.3377
 6409SOL    HW130863   2.021   3.956   8.331 -0.6521  0.1970  1.0909
 6409SOL    HW230864   2.137   4.031   8.385 -0.0037  0.4605 -1.4683
 6410SOL     OW30865   2.304   4.318   3.287 -0.2647  0.8108  0.4531
 6410SOL    HW130866   2.346   4.233   3.296 -2.6240 -0.3847 -0.0353
 6410SOL    HW230867   2.243   4.298   3.216  0.7039  1.4617 -0.5562
 6411SOL     OW30868   2.383   3.193  13.326  0.7141 -0.0320 -0.1795
 6411SOL    HW130869   2.424   3.109  13.304  0.0749 -0.8778  1.7339
 6411SOL    HW230870   2.323   3.178  13.400 -0.6163 -0.7001 -1.4022
 6412SOL     OW30871   1.953   3.757   6.926  0.2501  0.0001 -0.0385
 6412SOL    HW130872   1.866   3.722   6.945 -0.2476  2.5528  2.4270
 6412SOL    HW230873   1.998   3.699   6.987  0.5663 -0.0992 -0.3669
 6413SOL     OW30874   3.329   3.042   7.675 -0.1325  0.1924  0.5460
 6413SOL    HW130875   3.340   2.954   7.713 -0.9936 -0.5137 -0.8273
 6413SOL    HW230876   3.251   3.074   7.721  0.0217 -1.7647  2.1877
 6414SOL     OW30877   0.329   2.094  10.910  0.1067 -0.0423 -0.5071
 6414SOL    HW130878   0.382   2.173  10.903  2.2441 -1.3680  0.6139
 6414SOL    HW230879   0.307   2.081  10.818  2.5621 -0.9413 -0.9837
 6415SOL     OW30880   1.403   3.984  14.146  0.1791 -0.3411 -0.3985
 6415SOL    HW130881   1.478   3.974  14.088 -0.2407  1.4241 -1.2235
 6415SOL    HW230882   1.339   3.937  14.092 -0.6703  3.3344 -2.5444
 6416SOL     OW30883   2.029   3.669  11.370  0.3440 -0.0550 -0.3994
 6416SOL    HW130884   1.957   3.695  11.313  2.1478  0.5006 -2.4351
 6416SOL    HW230885   2.039   3.749  11.420  2.8147  0.7220 -2.1438
 6417SOL     OW30886   3.144   0.402   2.538  0.4362 -1.0150  0.3642
 6417SOL    HW130887   3.090   0.356   2.602 -1.3999  0.2596 -0.2710
 6417SOL    HW230888   3.118   0.494   2.544  1.6828 -0.5563 -1.3508
 6418SOL     OW30889   3.580   2.745   3.558 -0.3007  0.2195 -0.8954
 6418SOL    HW130890   3.616   2.656   3.560 -0.3792  0.2207  0.6608
 6418SOL    HW230891   3.658   2.802   3.561 -0.5733  0.5920 -0.8595
 6419SOL     OW30892   3.099   0.780   5.413 -0.3452 -0.1504  0.3603
 6419SOL    HW130893   3.096   0.848   5.481 -0.0529  1.9138 -1.6861
 6419SOL    HW230894   3.019   0.789   5.360  0.4510  0.2925 -0.7724
 6420SOL     OW30895   3.405   0.323   8.937 -0.0573  0.6197 -0.3220
 6420SOL    HW130896   3.423   0.408   8.898  0.1206  0.0703 -1.4483
 6420SOL    HW230897   3.314   0.337   8.965 -0.8192 -2.7628 -1.0541
 6421SOL     OW30898   1.257   1.771   7.076  0.5425 -0.2274  0.0883
 6421SOL    HW130899   1.213   1.742   7.156  0.1608 -1.2446 -0.4913
 6421SOL    HW230900   1.182   1.816   7.037  1.7453  1.7289  0.0763
 6422SOL     OW30901   0.311   2.906   6.041  0.1792  0.4014  0.1414
 6422SOL    HW130902   0.399   2.937   6.021  0.2878  0.0086  0.0288
 6422SOL    HW230903   0.291   2.838   5.977 -0.0467  0.2465  0.3752
 6423SOL     OW30904   0.463   0.217   1.352 -0.0514  0.4551 -0.3976
 6423SOL    HW130905   0.375   0.249   1.371  0.3747  2.3475 -1.5764
 6423SOL    HW230906   0.439   0.136   1.307 -0.2242  1.0471 -1.3709
 6424SOL     OW30907   0.494   3.308   2.566 -0.0615 -0.4522  0.2104
 6424SOL    HW130908   0.402   3.334   2.563 -0.0670 -0.6616 -1.4615
 6424SOL    HW230909   0.504   3.298   2.660 -1.4250  1.2516  0.5383
 6425SOL     OW30910   0.524   1.896   5.703  0.1084  0.2941  0.0687
 6425SOL    HW130911   0.593   1.889   5.637 -0.4416  1.4873 -0.6443
 6425SOL    HW230912   0.566   1.846   5.773 -0.4728  0.4836  0.5528
 6426SOL     OW30913   1.804   2.289  11.862  0.3189  0.4951 -0.4728
 6426SOL    HW130914   1.736   2.349  11.893 -1.7263 -0.9647 -2.1614
 6426SOL    HW230915   1.857   2.360  11.825 -3.3422  2.0372 -2.6978
 6427SOL     OW30916   3.688   3.196   8.991 -0.7023  0.1498  0.2261
 6427SOL    HW130917   3.634   3.219   8.915 -1.8911 -0.2114  0.9603
 6427SOL    HW230918   3.682   3.279   9.039 -1.8126  0.6145 -0.7087
 6428SOL     OW30919   4.000   2.591   5.470 -0.2809  0.1821 -0.0881
 6428SOL    HW130920   3.921   2.541   5.450  0.6368 -2.9374  4.0995
 6428SOL    HW230921   3.986   2.675   5.425  0.7741  0.1046 -0.5668
 6429SOL     OW30922   1.393   4.507  10.791 -0.1643 -0.0173  0.1153
 6429SOL    HW130923   1.344   4.588  10.805  1.4002  1.3473 -2.3662
 6429SOL    HW230924   1.483   4.541  10.796 -0.7645  2.0673 -3.4442
 6430SOL     OW30925   2.992   2.278   3.553 -0.2490  0.0785  0.0481
 6430SOL    HW130926   3.013   2.212   3.488 -0.6380 -0.9434  0.9594
 6430SOL    HW230927   3.056   2.264   3.623  0.6123 -1.1263 -0.9828
 6431SOL     OW30928   2.173   0.689   6.556 -0.1235  0.4953  0.3139
 6431SOL    HW130929   2.235   0.620   6.579 -1.0670 -0.3230  0.3976
 6431SOL    HW230930   2.108   0.637   6.508  0.1943 -0.4519  0.9216
 6432SOL     OW30931   3.548   0.667   7.400 -0.1323  0.3273  0.0204
 6432SOL    HW130932   3.590   0.590   7.440  3.2008  1.7083 -0.8472
 6432SOL    HW230933   3.605   0.741   7.421  0.7309 -0.1505 -0.6544
 6433SOL     OW30934   2.751   2.547   7.180  0.7369 -0.8419  0.4982
 6433SOL    HW130935   2.663   2.543   7.142  1.9321  1.8242 -2.5527
 6433SOL    HW230936   2.732   2.589   7.264  0.0868  1.7348 -0.9172
 6434SOL     OW30937   1.352   2.017   5.731 -0.3737 -0.3026 -0.1174
 6434SOL    HW130938   1.363   2.029   5.637 -1.2603  2.1922  0.1029
 6434SOL    HW230939   1.439   1.979   5.741 -0.7728 -0.2834  3.7183
 6435SOL     OW30940   0.492   2.917   1.163 -0.4298  0.3871  0.2638
 6435SOL    HW130941   0.539   2.848   1.116  0.5432  1.0289  0.3028
 6435SOL    HW230942   0.431   2.873   1.222 -1.1300 -1.6729 -2.0056
 6436SOL     OW30943   1.414   4.247   8.575  0.6319  0.2719 -0.0546
 6436SOL    HW130944   1.445   4.298   8.500  0.6034  2.5188  1.4705
 6436SOL    HW230945   1.320   4.263   8.561 -0.1711 -2.1850  2.5367
 6437SOL     OW30946   1.791   0.860   2.066 -0.5522  0.0621 -0.1938
 6437SOL    HW130947   1.716   0.857   2.126  1.2690 -2.1340  1.9838
 6437SOL    HW230948   1.758   0.795   2.005 -0.7968  1.4458 -1.5362
 6438SOL     OW30949   1.334   3.352   2.792  0.1751  0.3123  0.4959
 6438SOL    HW130950   1.401   3.284   2.800  1.1281  1.4826  2.3922
 6438SOL    HW230951   1.252   3.303   2.790 -0.2401  0.9568  1.7192
 6439SOL     OW30952   4.469   0.134   5.827  0.2678  0.0460 -0.3740
 6439SOL    HW130953   4.509   0.086   5.755  0.0846  0.5565 -0.8107
 6439SOL    HW230954   4.528   0.113   5.900  1.7592  1.8789 -1.0778
 6440SOL     OW30955   4.307   2.126  10.870 -0.2573  0.2898 -0.6825
 6440SOL    HW130956   4.374   2.073  10.827 -1.2136 -0.4505 -1.2602
 6440SOL    HW230957   4.269   2.057  10.925 -1.8388  0.7738 -1.1918
 6441SOL     OW30958   2.230   0.461   4.741 -0.1098 -0.2537 -0.3657
 6441SOL    HW130959   2.182   0.499   4.668 -0.2587 -0.3118 -0.2982
 6441SOL    HW230960   2.161   0.467   4.807  1.6137 -0.5991  1.4943
 6442SOL     OW30961   4.354   2.464   6.905  0.0740 -0.3356  0.4495
 6442SOL    HW130962   4.271   2.461   6.952 -1.4535 -1.1202 -2.3065
 6442SOL    HW230963   4.383   2.373   6.913 -1.1647 -0.7689 -0.0288
 6443SOL     OW30964   4.466   1.604   7.993 -0.7004  0.2308  0.4731
 6443SOL    HW130965   4.537   1.612   7.929  1.0951  2.0837  2.6808
 6443SOL    HW230966   4.390   1.636   7.944  0.1279  0.5383 -0.6003
 6444SOL     OW30967   3.329   4.003   3.291  0.2835  0.4977 -0.0289
 6444SOL    HW130968   3.402   4.061   3.313 -0.4040  1.4284 -0.2562
 6444SOL    HW230969   3.337   4.000   3.196  0.4783  0.3613 -0.0111
 6445SOL     OW30970   1.541   1.568   4.835 -0.1747 -0.5613 -0.2677
 6445SOL    HW130971   1.523   1.580   4.928  1.3674 -1.4727  0.1532
 6445SOL    HW230972   1.636   1.554   4.844 -0.4959 -1.3801  1.8355
 6446SOL     OW30973   1.781   3.696   8.509  0.0368 -0.2064 -0.3098
 6446SOL    HW130974   1.781   3.614   8.461 -0.3086 -0.4385  0.0784
 6446SOL    HW230975   1.875   3.713   8.509  0.0951 -0.4949  1.0609
 6447SOL     OW30976   2.331   0.829   3.104  0.1256 -0.7233 -0.2552
 6447SOL    HW130977   2.285   0.799   3.183  1.0850  0.5434  0.7974
 6447SOL    HW230978   2.373   0.907   3.140  0.1448 -0.8986  0.1002
 6448SOL     OW30979   3.531   2.039  11.799  0.1845 -0.4081  0.0267
 6448SOL    HW130980   3.619   2.076  11.789  0.0002 -0.4643 -1.8261
 6448SOL    HW230981   3.512   2.087  11.879  0.1276 -0.1662 -0.1305
 6449SOL     OW30982   2.495   1.953   5.023 -0.1744  0.6361 -0.0248
 6449SOL    HW130983   2.546   1.873   5.041  0.6417  0.8706 -1.2711
 6449SOL    HW230984   2.491   1.947   4.928  1.6019  1.1939 -0.1358
 6450SOL     OW30985   3.750   2.630  16.898 -1.1180  0.0257  0.2846
 6450SOL    HW130986   3.755   2.646  16.804 -1.2584 -1.3595  0.0474
 6450SOL    HW230987   3.731   2.537  16.904 -1.3623 -0.0988 -2.4035
 6451SOL     OW30988   4.615   2.577  13.286 -0.1265  0.3189  0.4199
 6451SOL    HW130989   4.623   2.508  13.221  0.9982  2.0192 -1.2419
 6451SOL    HW230990   4.690   2.629  13.258 -0.0791  1.7633  3.1858
 6452SOL     OW30991   3.187   0.168  14.128  0.4706  0.2430 -0.0970
 6452SOL    HW130992   3.262   0.123  14.089 -1.9580 -2.1532 -2.0137
 6452SOL    HW230993   3.231   0.250  14.150 -0.3787  0.0929  2.1684
 6453SOL     OW30994   2.531   2.426  10.817 -0.1563 -0.5374 -0.2132
 6453SOL    HW130995   2.559   2.336  10.800 -0.5195 -0.2868 -2.0935
 6453SOL    HW230996   2.440   2.422  10.790  0.0020  0.0448 -0.8361
 6454SOL     OW30997   4.248   1.424   5.470 -0.1372  0.0393  0.0260
 6454SOL    HW130998   4.306   1.442   5.396 -0.6634  2.9636  0.3475
 6454SOL    HW230999   4.303   1.456   5.542 -0.5487 -0.2869  0.4830
 6455SOL     OW31000   4.431   3.423   8.413 -0.0240 -0.0103 -0.9249
 6455SOL    HW131001   4.524   3.443   8.424 -0.0476 -0.5843  0.3050
 6455SOL    HW231002   4.413   3.457   8.326  1.9619 -2.9784 -2.4889
 6456SOL     OW31003   2.998   4.375   7.790 -0.3113  0.2065  0.5195
 6456SOL    HW131004   3.013   4.427   7.711  0.9867 -0.9648 -0.0134
 6456SOL    HW231005   3.049   4.296   7.770  0.5928  1.2896 -1.4046
 6457SOL     OW31006   1.893   1.862   6.653 -0.4438 -0.0742  0.2268
 6457SOL    HW131007   1.956   1.870   6.724 -1.0504  0.4486  0.7076
 6457SOL    HW231008   1.882   1.954   6.631 -0.5709 -0.4223 -1.1882
 6458SOL     OW31009   1.504   1.118   4.010 -0.0418  0.3454 -0.0681
 6458SOL    HW131010   1.572   1.052   3.997 -0.5805 -0.7821  2.8495
 6458SOL    HW231011   1.522   1.173   3.934 -1.1990  0.9490  0.0844
 6459SOL     OW31012   0.542   3.882   2.580 -0.2005  0.5982 -0.3285
 6459SOL    HW131013   0.571   3.903   2.491  0.4594  1.3028  0.0493
 6459SOL    HW231014   0.548   3.965   2.627 -1.0799 -0.2842  1.3390
 6460SOL     OW31015   1.402   1.501  17.452  0.2605 -0.0532 -0.2814
 6460SOL    HW131016   1.317   1.468  17.423  1.5583 -1.4563 -2.5007
 6460SOL    HW231017   1.441   1.417  17.477 -0.8790  0.0265  1.7735
 6461SOL     OW31018   0.433   3.174  16.366  0.5072 -0.4334 -0.4895
 6461SOL    HW131019   0.338   3.161  16.375  0.2341  1.0754 -1.3046
 6461SOL    HW231020   0.445   3.198  16.275 -2.9344 -0.6023 -0.9946
 6462SOL     OW31021   4.331   2.575  13.258 -0.8572  0.2986 -0.6596
 6462SOL    HW131022   4.425   2.556  13.259 -0.4728  2.3662  0.9405
 6462SOL    HW231023   4.301   2.559  13.347 -2.3767  0.8170 -1.0789
 6463SOL     OW31024   1.780   1.671  11.142 -0.5533  0.2187  0.2336
 6463SOL    HW131025   1.715   1.681  11.212 -2.3136  0.1541 -1.3576
 6463SOL    HW231026   1.755   1.744  11.085  0.1889 -0.9636 -1.6169
 6464SOL     OW31027   2.960   2.854   9.361  0.4954  0.2059  0.4798
 6464SOL    HW131028   2.955   2.760   9.378 -0.4222  0.3633  1.0932
 6464SOL    HW231029   2.993   2.856   9.271 -0.9103  2.8142  0.0210
 6465SOL     OW31030   2.926   4.585   2.044 -0.0681  0.4844  0.2512
 6465SOL    HW131031   2.929   4.644   1.969  2.8411 -0.1536 -0.1538
 6465SOL    HW231032   2.933   4.656   2.108 -0.4883 -2.6858  3.8092
 6466SOL     OW31033   1.791   0.050   6.511 -0.0918  0.5874 -0.1210
 6466SOL    HW131034   1.699   0.076   6.511 -0.3951 -0.4653 -1.0316
 6466SOL    HW231035   1.785   4.695   6.494  3.7377  0.7017 -2.1703
 6467SOL     OW31036   4.088   4.678   6.165 -0.7024 -0.2295  0.1534
 6467SOL    HW131037   4.159   0.003   6.170  0.8157 -2.1516  3.8406
 6467SOL    HW231038   4.043   4.701   6.084 -1.5563  1.8480  1.2276
 6468SOL     OW31039   3.073   3.427   3.647 -0.0778 -0.2382  0.2638
 6468SOL    HW131040   3.159   3.426   3.606  0.5372  1.4212  1.4864
 6468SOL    HW231041   3.030   3.358   3.596  2.5828 -1.3568 -0.4590
 6469SOL     OW31042   3.154   2.660  14.587  0.2413  0.1838  0.4783
 6469SOL    HW131043   3.149   2.627  14.497  0.3144  1.8796 -0.1405
 6469SOL    HW231044   3.241   2.626  14.607  0.1631 -0.2328  0.1074
 6470SOL     OW31045   4.479   2.526  13.962  0.0801  0.3047 -0.4025
 6470SOL    HW131046   4.537   2.574  13.904 -1.2050  2.0154 -0.2702
 6470SOL    HW231047   4.451   2.599  14.018 -1.6348 -0.5907 -0.0707
 6471SOL     OW31048   1.472   4.268  13.995 -0.1533 -0.0486  0.0826
 6471SOL    HW131049   1.440   4.302  14.078 -0.7983  2.4001 -1.1634
 6471SOL    HW231050   1.565   4.283  14.009  0.3371  0.2370 -3.3231
 6472SOL     OW31051   0.933   1.146  15.701  0.3709 -0.3466 -0.4280
 6472SOL    HW131052   0.910   1.234  15.671  1.9389 -0.3619 -1.6717
 6472SOL    HW231053   0.929   1.093  15.621  0.7160 -1.1827  0.0988
 6473SOL     OW31054   4.403   4.277   2.783  0.2492 -0.0034  0.5811
 6473SOL    HW131055   4.432   4.305   2.870 -1.0019 -0.5278  1.1597
 6473SOL    HW231056   4.418   4.362   2.742  1.3285 -0.5403 -0.1207
 6474SOL     OW31057   1.218   4.357   5.996  0.6485 -0.0438 -0.3112
 6474SOL    HW131058   1.146   4.315   5.949  0.2323  0.1533  0.1412
 6474SOL    HW231059   1.254   4.284   6.046 -1.0253 -0.9178 -0.3712
 6475SOL     OW31060   2.263   1.738   3.017  0.0307 -0.8606  0.2464
 6475SOL    HW131061   2.243   1.669   3.080 -0.3780 -1.4413 -0.5318
 6475SOL    HW231062   2.340   1.699   2.977  0.7477 -0.4433  1.2253
 6476SOL     OW31063   1.936   4.305   8.237 -0.1488 -0.5248 -0.1108
 6476SOL    HW131064   2.020   4.265   8.258  0.4379  0.4711 -0.5455
 6476SOL    HW231065   1.898   4.344   8.316  0.9723  0.1401  0.0940
 6477SOL     OW31066   3.239   0.129  15.523 -0.2144  0.3441  0.2904
 6477SOL    HW131067   3.199   0.107  15.607 -0.0358 -1.0528  0.0102
 6477SOL    HW231068   3.155   0.141  15.479 -0.2552  0.1188  0.3038
 6478SOL     OW31069   4.533   2.311   8.059  0.5857 -0.2684  0.5513
 6478SOL    HW131070   4.480   2.231   8.067  0.6112 -0.3654 -0.2526
 6478SOL    HW231071   4.623   2.278   8.062  1.1993  1.4197  0.2941
 6479SOL     OW31072   2.019   2.065   4.913  0.5412  0.4472 -0.3126
 6479SOL    HW131073   2.093   2.114   4.877  1.3845 -1.1997 -0.8372
 6479SOL    HW231074   1.986   2.060   4.824 -0.3138  0.1506  0.0226
 6480SOL     OW31075   4.385   3.060  16.235  0.4473 -0.1541 -0.4472
 6480SOL    HW131076   4.403   3.137  16.181 -0.2133  0.6524  0.4791
 6480SOL    HW231077   4.469   3.015  16.219 -0.1042 -2.0172  1.9160
 6481SOL     OW31078   4.104   3.361   5.951 -0.0777 -0.1028  0.2142
 6481SOL    HW131079   4.154   3.434   5.916  0.8925 -1.8511 -2.0773
 6481SOL    HW231080   4.035   3.369   5.886 -0.1112 -0.8883  0.1532
 6482SOL     OW31081   2.082   4.416   2.842 -0.2942 -0.2394 -0.7564
 6482SOL    HW131082   2.126   4.490   2.884  0.6302 -0.6043 -1.0646
 6482SOL    HW231083   2.154   4.374   2.794 -1.5520 -2.4488 -0.7360
 6483SOL     OW31084   1.037   1.100   5.245 -0.0664 -0.2532  0.7007
 6483SOL    HW131085   0.998   1.034   5.302 -0.7995 -0.8472 -0.4670
 6483SOL    HW231086   1.029   1.173   5.306  1.5055  0.3340  0.2121
 6484SOL     OW31087   3.792   2.637   7.523  0.3781  1.1666  0.1126
 6484SOL    HW131088   3.788   2.699   7.451 -1.2928  0.7385 -0.1631
 6484SOL    HW231089   3.877   2.598   7.503 -0.5458  0.2647 -2.0529
 6485SOL     OW31090   0.118   4.323  16.671  0.7291  0.7467 -0.0857
 6485SOL    HW131091   0.152   4.343  16.758  4.9565  2.1470 -2.0966
 6485SOL    HW231092   0.179   4.374  16.618 -0.5703  0.0418 -2.2334
 6486SOL     OW31093   0.336   4.550   3.377  0.5207 -0.0483  0.5895
 6486SOL    HW131094   0.385   4.530   3.297 -2.4556  1.1534 -1.5006
 6486SOL    HW231095   0.336   4.463   3.418 -1.9049  0.0086  0.7421
 6487SOL     OW31096   2.745   1.092   5.672 -0.0950  0.7158  0.1066
 6487SOL    HW131097   2.714   1.113   5.760  0.2279 -0.6356  0.5536
 6487SOL    HW231098   2.667   1.108   5.619 -0.2130 -3.1886 -0.9461
 6488SOL     OW31099   3.812   3.881   5.456  0.4362 -0.2184 -0.5581
 6488SOL    HW131100   3.743   3.817   5.437  0.6995 -0.5131 -0.5123
 6488SOL    HW231101   3.888   3.830   5.483 -0.1179 -1.1174 -0.6896
 6489SOL     OW31102   2.135   0.807  16.549 -0.0366 -0.1292  0.5077
 6489SOL    HW131103   2.165   0.772  16.465  0.3659  1.0326  0.1634
 6489SOL    HW231104   2.046   0.840  16.534  0.1518  0.7084  1.2201
 6490SOL     OW31105   3.407   0.558  11.238 -0.6956 -0.1302 -0.4003
 6490SOL    HW131106   3.324   0.527  11.275 -0.3945  0.3945  0.7174
 6490SOL    HW231107   3.436   0.473  11.207  0.2649  0.4124 -0.9784
 6491SOL     OW31108   0.997   2.765   2.007 -0.1088  0.0132 -0.4792
 6491SOL    HW131109   0.956   2.846   1.975 -3.4030 -1.9173 -1.1898
 6491SOL    HW231110   1.062   2.752   1.938 -1.7439  1.6757 -2.3833
 6492SOL     OW31111   0.319   1.169   0.918 -0.3971 -1.0912  0.3956
 6492SOL    HW131112   0.273   1.212   0.990  1.6952 -1.0598  1.7300
 6492SOL    HW231113   0.249   1.136   0.863 -0.3285 -2.0708  0.8999
 6493SOL     OW31114   4.016   4.737   7.633 -0.1431 -0.0917  0.1043
 6493SOL    HW131115   4.085   4.673   7.612  0.4979  0.5410  0.2781
 6493SOL    HW231116   3.940   4.681   7.618 -2.0398  2.6045 -0.3919
 6494SOL     OW31117   1.065   4.697   5.036 -0.0613  0.1738 -0.4729
 6494SOL    HW131118   1.112   4.646   5.102 -1.2938 -1.8799 -1.1831
 6494SOL    HW231119   1.121   0.035   5.038  0.4889 -0.1954 -1.6858
 6495SOL     OW31120   3.344   0.251   9.669 -0.3788  0.2537 -0.5796
 6495SOL    HW131121   3.349   0.212   9.581  1.1212 -0.9375  0.0311
 6495SOL    HW231122   3.252   0.238   9.690 -0.0423 -1.2594 -0.0642
 6496SOL     OW31123   2.011   4.094   6.550  0.3103  0.6199 -0.7815
 6496SOL    HW131124   2.052   4.011   6.525  2.5929  1.4188  0.3469
 6496SOL    HW231125   1.965   4.069   6.630  1.4115 -2.7278 -1.2179
 6497SOL     OW31126   0.720   3.912   1.134 -0.4873  0.2841  0.0355
 6497SOL    HW131127   0.761   3.877   1.214 -1.3997  1.3106  0.9602
 6497SOL    HW231128   0.727   4.002   1.164  4.1656  0.6802 -2.2937
 6498SOL     OW31129   2.263   2.015  14.655 -0.0044  0.5210 -0.7621
 6498SOL    HW131130   2.294   1.994  14.743  3.1056  0.0575 -1.9813
 6498SOL    HW231131   2.250   2.109  14.668  0.9164  0.3015  1.8275
 6499SOL     OW31132   3.730   3.020  13.492  0.1211  0.1306  0.0943
 6499SOL    HW131133   3.728   3.058  13.404  1.1712  4.5615  2.0356
 6499SOL    HW231134   3.817   3.047  13.519  1.1369 -2.6962 -0.3426
 6500SOL     OW31135   2.406   0.849   1.516 -0.3806  0.2984  0.0167
 6500SOL    HW131136   2.455   0.923   1.551 -0.1237 -0.5104  1.3594
 6500SOL    HW231137   2.394   0.808   1.601 -0.1460  0.2023  0.0059
 6501SOL     OW31138   4.506   3.896   4.386  0.1509 -0.1271 -0.7764
 6501SOL    HW131139   4.463   3.953   4.449  2.3150 -0.3851  0.9386
 6501SOL    HW231140   4.596   3.928   4.393  0.0505  0.2786 -1.3811
 6502SOL     OW31141   1.981   0.180  15.345  0.3836  0.8449 -0.1820
 6502SOL    HW131142   2.044   0.230  15.396  2.4513 -3.1536  1.1378
 6502SOL    HW231143   1.941   0.121  15.409 -0.1262 -0.6874 -1.9238
 6503SOL     OW31144   3.564   2.607  13.391 -0.3533  0.2680  0.3432
 6503SOL    HW131145   3.519   2.633  13.471 -1.5429 -1.2305  0.1689
 6503SOL    HW231146   3.496   2.546  13.361 -0.5763  1.3124 -1.2616
 6504SOL     OW31147   4.114   2.656   3.954  0.1936 -0.6082  0.4922
 6504SOL    HW131148   4.177   2.590   3.927  1.4598  0.0900  1.7523
 6504SOL    HW231149   4.172   2.718   3.998  0.6616  0.6184 -1.8651
 6505SOL     OW31150   1.012   0.046   4.796  0.0851  0.0701 -0.0690
 6505SOL    HW131151   1.025   0.026   4.889 -1.3718  0.8466  0.3020
 6505SOL    HW231152   0.975   4.698   4.782  4.5551 -1.9847  0.8897
 6506SOL     OW31153   1.679   0.619   6.866 -0.4637  0.4137  0.8199
 6506SOL    HW131154   1.611   0.632   6.800 -0.1567 -2.1992 -0.0224
 6506SOL    HW231155   1.742   0.573   6.810 -1.8105  0.4443 -0.7237
 6507SOL     OW31156   1.445   4.059   7.510 -0.0981  0.0270  0.0423
 6507SOL    HW131157   1.421   4.033   7.599 -0.8673 -0.4922 -0.3193
 6507SOL    HW231158   1.368   4.050   7.454 -0.5331 -1.2563  0.8385
 6508SOL     OW31159   0.302   1.578  10.977 -0.1308  0.3622 -0.6202
 6508SOL    HW131160   0.324   1.670  10.967 -2.0709  0.8712 -0.1363
 6508SOL    HW231161   0.391   1.546  10.991 -1.1454 -2.0277  0.3223
 6509SOL     OW31162   4.544   4.208   3.773 -0.7131 -0.3429 -0.3070
 6509SOL    HW131163   4.530   4.276   3.839  0.0409 -1.0334  0.5630
 6509SOL    HW231164   4.465   4.156   3.789  0.2450 -1.7635 -0.2374
 6510SOL     OW31165   0.704   0.449   0.887 -0.0581  0.2643  0.5005
 6510SOL    HW131166   0.713   0.503   0.808  0.2613  1.3844  1.2926
 6510SOL    HW231167   0.664   0.512   0.949  1.0397  1.7554 -0.3006
 6511SOL     OW31168   2.253   3.672   9.087  0.5237 -0.1640  0.5379
 6511SOL    HW131169   2.300   3.597   9.124  0.5311 -1.3637 -1.8989
 6511SOL    HW231170   2.305   3.746   9.116  0.8069  0.4710 -1.6218
 6512SOL     OW31171   4.388   2.757   4.693 -0.1830 -0.2368  0.0796
 6512SOL    HW131172   4.468   2.744   4.641 -0.2266  1.4181 -0.4200
 6512SOL    HW231173   4.420   2.725   4.777 -0.5838 -0.2279  0.2362
 6513SOL     OW31174   3.586   3.169   2.575 -0.1411 -0.1862 -0.4684
 6513SOL    HW131175   3.641   3.230   2.526 -0.1381 -1.8398 -2.5506
 6513SOL    HW231176   3.529   3.231   2.621  0.0810  0.3695 -0.9481
 6514SOL     OW31177   3.186   2.500   2.746 -0.5331  0.1455  0.6209
 6514SOL    HW131178   3.266   2.538   2.709 -0.9242  0.4802  0.1222
 6514SOL    HW231179   3.135   2.527   2.669  1.0508 -1.3603 -0.9552
 6515SOL     OW31180   1.989   4.474   8.622  0.0220  0.1629 -0.0575
 6515SOL    HW131181   1.907   4.519   8.606 -0.1236 -0.1619 -0.2237
 6515SOL    HW231182   2.045   4.505   8.551 -1.8542  2.0832 -0.6786
 6516SOL     OW31183   2.818   1.152   2.578  0.4976 -0.6035  0.1329
 6516SOL    HW131184   2.862   1.221   2.628  0.5140 -0.7568  0.3288
 6516SOL    HW231185   2.892   1.114   2.531 -1.1575 -3.1532 -0.4334
 6517SOL     OW31186   0.256   2.040   8.219 -0.1218 -0.3623  0.2804
 6517SOL    HW131187   0.198   2.006   8.150 -2.4019  1.9820  1.0200
 6517SOL    HW231188   0.227   1.991   8.296  1.7506  0.5082  1.5092
 6518SOL     OW31189   1.574   4.351   8.757 -0.1831  0.1384 -0.9700
 6518SOL    HW131190   1.658   4.307   8.742  0.6476  1.3581  0.1300
 6518SOL    HW231191   1.518   4.316   8.688 -1.6952  0.4857  0.0682
 6519SOL     OW31192   3.181   3.553  12.740  0.0288  0.2752 -0.2100
 6519SOL    HW131193   3.246   3.504  12.790  2.1199  0.4624 -2.7536
 6519SOL    HW231194   3.135   3.603  12.807  1.5686 -0.2922  1.2688
 6520SOL     OW31195   4.204   0.192   5.304 -0.0815 -0.3290  0.4303
 6520SOL    HW131196   4.156   0.250   5.363  0.4028  1.2888 -0.7476
 6520SOL    HW231197   4.233   0.122   5.362  3.6563  0.8823  0.0542
 6521SOL     OW31198   3.014   3.520   5.326  0.3680 -0.2802 -0.1485
 6521SOL    HW131199   3.009   3.463   5.249  0.2554 -2.0438  1.1561
 6521SOL    HW231200   2.940   3.487   5.377 -0.0650  1.3202  0.2520
 6522SOL     OW31201   3.759   4.056   2.871  0.1339  0.8071 -0.1612
 6522SOL    HW131202   3.664   4.048   2.884  0.1175  1.0263 -0.1407
 6522SOL    HW231203   3.765   4.151   2.864  0.0119  0.8120 -0.2028
 6523SOL     OW31204   3.608   3.593   6.217  0.2504  0.2601  0.6974
 6523SOL    HW131205   3.587   3.677   6.175 -1.2721 -0.5402 -0.1315
 6523SOL    HW231206   3.627   3.540   6.140 -2.2169 -0.7221  0.7585
 6524SOL     OW31207   3.513   0.154   6.892 -0.3295 -0.5643  0.7117
 6524SOL    HW131208   3.449   0.136   6.823  0.5474  3.5391 -1.1326
 6524SOL    HW231209   3.592   0.176   6.843 -1.5367  1.6745 -0.2057
 6525SOL     OW31210   2.441   0.230  13.001 -0.4294  0.2384  0.1745
 6525SOL    HW131211   2.386   0.221  12.922  1.6625  0.8553 -1.3502
 6525SOL    HW231212   2.435   0.141  13.034  0.2588  0.5848  1.2288
 6526SOL     OW31213   3.113   2.738  13.778 -0.2756  0.1697 -0.2057
 6526SOL    HW131214   3.150   2.810  13.726 -0.6960  0.0560 -0.6659
 6526SOL    HW231215   3.112   2.789  13.859  4.1550  1.0972 -0.7151
 6527SOL     OW31216   0.727   4.624   9.739 -0.2546 -0.1279 -0.2854
 6527SOL    HW131217   0.718   4.719   9.738 -0.3876 -0.1408 -0.3985
 6527SOL    HW231218   0.662   4.599   9.673 -0.2910  1.3363 -0.8098
 6528SOL     OW31219   2.813   0.011  15.714 -0.1264  0.2393  0.3528
 6528SOL    HW131220   2.771   4.730  15.798  2.5514  0.2058  1.6603
 6528SOL    HW231221   2.783   0.099  15.691  0.1571  0.1705 -0.2846
 6529SOL     OW31222   1.930   3.182   7.076 -0.1360 -0.3424 -0.1213
 6529SOL    HW131223   1.923   3.187   7.171 -0.7241  0.8616 -0.2373
 6529SOL    HW231224   1.868   3.249   7.047 -0.4006 -0.2266  0.7293
 6530SOL     OW31225   4.162   0.959   6.986  1.0507  0.0573  0.3880
 6530SOL    HW131226   4.237   0.985   7.039  1.9924  0.0149 -0.8969
 6530SOL    HW231227   4.118   1.038   6.953  0.7794  1.2251  3.6001
 6531SOL     OW31228   0.479   0.691  16.157 -0.3721 -0.0689 -0.4042
 6531SOL    HW131229   0.574   0.683  16.159 -0.4967 -1.3205  0.8599
 6531SOL    HW231230   0.473   0.747  16.080  0.0217  0.4631 -0.0420
 6532SOL     OW31231   1.726   2.104   3.026  0.1270 -0.3990  0.6270
 6532SOL    HW131232   1.818   2.079   3.032  0.7428  1.7078 -0.0103
 6532SOL    HW231233   1.733   2.199   3.030 -0.8134 -0.3329  0.7105
 6533SOL     OW31234   0.262   3.033   1.719 -0.1903 -0.2987  0.2175
 6533SOL    HW131235   0.286   3.063   1.632  2.5776 -0.9696  0.7220
 6533SOL    HW231236   0.191   3.095   1.739 -0.1400 -0.0792 -0.2982
 6534SOL     OW31237   4.542   0.657  12.765  0.4713  0.4506 -0.4032
 6534SOL    HW131238   4.447   0.649  12.776  0.3933  1.5085 -0.3404
 6534SOL    HW231239   4.575   0.576  12.805 -0.3360 -0.1293 -0.9256
 6535SOL     OW31240   3.882   2.520   3.989 -0.3463  0.0567 -0.3201
 6535SOL    HW131241   3.940   2.447   4.007 -0.2136  0.4002  0.6253
 6535SOL    HW231242   3.939   2.597   3.983  0.1636 -0.4152 -1.4612
 6536SOL     OW31243   2.099   1.455   9.732  0.3899  0.2819  0.3596
 6536SOL    HW131244   2.170   1.426   9.790  1.4876 -0.0197 -1.1550
 6536SOL    HW231245   2.030   1.405   9.776 -1.6805  1.1174 -1.9689
 6537SOL     OW31246   1.685   2.471   7.163  0.3744  0.3848 -0.1186
 6537SOL    HW131247   1.627   2.467   7.239  0.6060 -0.3379  0.0238
 6537SOL    HW231248   1.650   2.409   7.100  0.0026 -0.6129  1.0714
 6538SOL     OW31249   4.481   0.237   5.246 -0.3250  0.1166  0.0330
 6538SOL    HW131250   4.458   0.237   5.153 -0.7189  0.6575  0.1275
 6538SOL    HW231251   4.392   0.235   5.281  0.5023 -0.3941  2.0724
 6539SOL     OW31252   3.411   2.945   3.744 -0.5005 -0.5689  0.4714
 6539SOL    HW131253   3.397   2.925   3.652 -0.1212 -0.2237  0.3407
 6539SOL    HW231254   3.440   3.036   3.740 -0.2964 -0.7581 -1.9695
 6540SOL     OW31255   1.863   0.362   1.994  0.3154  0.0960  0.0206
 6540SOL    HW131256   1.886   0.333   2.082 -0.4137  0.7472  0.4154
 6540SOL    HW231257   1.948   0.374   1.951 -0.4308 -1.4246 -1.8496
 6541SOL     OW31258   3.055   0.286  10.617  0.5759 -0.2477 -0.0054
 6541SOL    HW131259   3.064   0.370  10.663  0.1930  0.1375 -0.6357
 6541SOL    HW231260   2.963   0.286  10.591  0.6917 -0.7269 -0.3921
 6542SOL     OW31261   2.311   1.946   2.681  0.7540 -0.5007 -0.4681
 6542SOL    HW131262   2.298   1.852   2.692 -1.2417 -0.0016  1.5785
 6542SOL    HW231263   2.293   1.952   2.587 -0.4119  1.5274 -0.1364
 6543SOL     OW31264   0.460   4.672   5.310  0.2602  1.0278  0.2981
 6543SOL    HW131265   0.537   4.699   5.359  1.1393  0.8548 -0.9825
 6543SOL    HW231266   0.391   4.678   5.376  1.5801  2.8220  1.5042
 6544SOL     OW31267   2.523   1.501   6.339 -0.4284  0.4480  0.3899
 6544SOL    HW131268   2.493   1.478   6.427  0.2834 -2.2121 -0.0760
 6544SOL    HW231269   2.453   1.470   6.282 -2.2217  4.2639  0.5217
 6545SOL     OW31270   0.797   0.814  16.460  0.0247  0.0056 -0.0280
 6545SOL    HW131271   0.804   0.799  16.554  1.6495  0.6620 -0.0560
 6545SOL    HW231272   0.867   0.877  16.446 -0.7807  1.1888  1.2961
 6546SOL     OW31273   2.168   4.371  13.779 -0.3786  0.2868 -0.8435
 6546SOL    HW131274   2.175   4.460  13.747  1.8442  0.1377 -0.7743
 6546SOL    HW231275   2.229   4.321  13.725  0.7387  0.3875  0.3101
 6547SOL     OW31276   0.303   0.941   5.559 -0.0598  0.1180 -0.0680
 6547SOL    HW131277   0.365   0.883   5.516  0.2296  0.4408 -0.0897
 6547SOL    HW231278   0.298   1.019   5.503 -0.7198  0.0935 -0.0422
 6548SOL     OW31279   3.743   1.761   4.872 -0.1147  0.0614 -0.1345
 6548SOL    HW131280   3.729   1.704   4.948 -1.4894  0.9287  0.2685
 6548SOL    HW231281   3.761   1.844   4.916  0.4813 -0.0982 -0.0753
 6549SOL     OW31282   0.060   4.197   9.198 -0.6284 -0.1284  0.4510
 6549SOL    HW131283   0.133   4.197   9.259 -0.2619  1.5072  0.0219
 6549SOL    HW231284   4.729   4.230   9.254 -1.1121 -0.4039  0.0079
 6550SOL     OW31285   2.560   2.265  13.198  0.2122  0.2384 -0.1534
 6550SOL    HW131286   2.531   2.258  13.289 -1.3523 -2.5230 -0.8703
 6550SOL    HW231287   2.544   2.175  13.171  1.5265  0.3335 -1.2510
 6551SOL     OW31288   2.441   4.043   7.999 -0.1496 -0.2790 -0.1911
 6551SOL    HW131289   2.417   4.000   7.917 -2.2387  0.6910 -0.0948
 6551SOL    HW231290   2.499   3.986   8.050 -2.3687 -1.2489  1.2282
 6552SOL     OW31291   4.374   1.457  12.421  0.0047  0.9937  0.5604
 6552SOL    HW131292   4.450   1.489  12.470  0.4813  2.2624 -1.0109
 6552SOL    HW231293   4.297   1.494  12.465 -0.5228 -0.2930  0.7149
 6553SOL     OW31294   1.097   0.489   7.261 -0.5837  0.0540  0.2987
 6553SOL    HW131295   1.060   0.561   7.210  0.1981 -0.4497 -0.9824
 6553SOL    HW231296   1.191   0.505   7.260 -0.2346 -1.9422  0.4821
 6554SOL     OW31297   2.067   3.714   8.512 -0.7156  0.3418 -0.7025
 6554SOL    HW131298   2.059   3.789   8.453  0.5129  0.3612 -0.8338
 6554SOL    HW231299   2.122   3.748   8.582 -0.4147 -0.3648 -0.5872
 6555SOL     OW31300   4.356   0.668  15.702  0.3583  0.4290 -0.0746
 6555SOL    HW131301   4.441   0.634  15.729  1.1599  2.0613 -0.5651
 6555SOL    HW231302   4.292   0.627  15.761 -0.3575  1.0457 -0.4151
 6556SOL     OW31303   0.919   2.080   3.013 -0.0523  0.1877  0.0047
 6556SOL    HW131304   0.966   2.006   3.050 -0.2073 -0.0638 -0.3032
 6556SOL    HW231305   0.883   2.048   2.931  2.0921 -1.8189 -0.1423
 6557SOL     OW31306   4.491   1.002   2.574  0.6893 -0.0266  0.0797
 6557SOL    HW131307   4.522   0.912   2.581  0.8637  0.0879  0.7670
 6557SOL    HW231308   4.411   0.986   2.624  1.7628 -1.7414  1.2300
 6558SOL     OW31309   1.911   1.425   6.016  0.4103 -0.0116  0.1075
 6558SOL    HW131310   1.883   1.515   6.030 -0.1851 -0.0697 -0.6593
 6558SOL    HW231311   1.838   1.375   6.054 -0.7349  0.6443 -1.2306
 6559SOL     OW31312   1.146   2.382   3.094  0.1272 -0.2173 -0.2083
 6559SOL    HW131313   1.220   2.343   3.141  0.1606  0.7971  0.5830
 6559SOL    HW231314   1.162   2.474   3.115  0.2611 -0.8259  2.3003
 6560SOL     OW31315   0.697   3.841   4.980  0.4388 -0.3842 -0.4680
 6560SOL    HW131316   0.751   3.821   4.904 -1.0033  0.8659 -1.8252
 6560SOL    HW231317   0.699   3.937   4.989  0.6731 -0.4347  0.0361
 6561SOL     OW31318   2.084   1.853  12.073  0.4179  0.1735 -0.5810
 6561SOL    HW131319   2.087   1.943  12.041 -1.4190  0.4364  0.0049
 6561SOL    HW231320   1.996   1.855  12.111  0.8150 -2.6785  0.5084
 6562SOL     OW31321   2.868   2.324   3.186  0.2358  0.3262  0.2024
 6562SOL    HW131322   2.863   2.397   3.124 -0.6349  0.3114  0.2461
 6562SOL    HW231323   2.957   2.313   3.219 -0.5380 -1.0947  1.8344
 6563SOL     OW31324   2.334   4.483   8.112 -0.1179 -0.1466 -0.1356
 6563SOL    HW131325   2.276   4.413   8.083 -1.4187  0.0321  1.9763
 6563SOL    HW231326   2.405   4.433   8.152  0.0745  0.4695  0.2912
 6564SOL     OW31327   2.315   0.111   2.196 -0.4157  0.1363  0.2490
 6564SOL    HW131328   2.318   0.069   2.282  2.8720 -0.7637 -0.2993
 6564SOL    HW231329   2.407   0.120   2.174  0.4986  0.5906  4.3664
 6565SOL     OW31330   0.536   3.528  15.152 -0.1464  0.3779 -0.0910
 6565SOL    HW131331   0.522   3.465  15.081 -3.0541  1.4520 -0.4969
 6565SOL    HW231332   0.552   3.610  15.105  0.6186 -0.5923 -1.5098
 6566SOL     OW31333   2.935   1.676   3.670  0.4806  0.1422  0.8766
 6566SOL    HW131334   2.922   1.581   3.676  2.1186 -0.0653  1.1505
 6566SOL    HW231335   2.865   1.699   3.609  0.1913 -0.6949  0.8921
 6567SOL     OW31336   0.175   1.459   2.973  0.4469 -0.0394  0.0860
 6567SOL    HW131337   0.266   1.435   2.984  0.0357 -1.2440  0.7723
 6567SOL    HW231338   0.172   1.527   3.040  0.4635  0.1255 -0.0800
 6568SOL     OW31339   4.458   2.461   8.292  0.2652 -0.3874 -0.1748
 6568SOL    HW131340   4.375   2.413   8.295  0.0016  0.1211  0.5517
 6568SOL    HW231341   4.469   2.440   8.199 -0.6149  1.1025 -0.6137
 6569SOL     OW31342   3.778   4.588  12.806 -0.3265 -0.7034 -0.7748
 6569SOL    HW131343   3.690   4.587  12.842 -0.4719 -0.9372 -1.1348
 6569SOL    HW231344   3.798   4.495  12.796  0.1668 -0.5720 -1.0064
 6570SOL     OW31345   2.192   3.496  13.662 -0.1786 -0.0022  0.6224
 6570SOL    HW131346   2.198   3.492  13.758 -0.4801 -2.7095  0.5276
 6570SOL    HW231347   2.099   3.505  13.644  0.7742  2.1526 -3.1692
 6571SOL     OW31348   1.035   4.084   3.518  0.4031  0.3803 -0.0258
 6571SOL    HW131349   1.130   4.086   3.511  0.4797 -1.6761  0.5080
 6571SOL    HW231350   1.017   3.999   3.558 -0.4214  1.6779  2.3942
 6572SOL     OW31351   3.973   4.496  13.858  0.1373  0.1728 -0.8777
 6572SOL    HW131352   4.018   4.453  13.931 -1.1818  0.7846  0.2964
 6572SOL    HW231353   4.016   4.580  13.846 -0.6218  1.0000  2.2012
 6573SOL     OW31354   3.362   3.613   9.370 -0.2076  0.2497  0.0394
 6573SOL    HW131355   3.334   3.523   9.387  0.1269 -0.1085 -1.2712
 6573SOL    HW231356   3.445   3.617   9.417  1.7906 -1.1718 -3.3595
 6574SOL     OW31357   1.539   2.739   1.792  0.4290 -0.2780  0.4167
 6574SOL    HW131358   1.538   2.702   1.704 -0.8009  1.8418 -0.4555
 6574SOL    HW231359   1.556   2.657   1.837  0.1058 -1.1104 -0.9731
 6575SOL     OW31360   3.651   1.826  13.163  1.0038 -0.2019 -0.7979
 6575SOL    HW131361   3.746   1.820  13.164  1.0382  0.4837  0.3994
 6575SOL    HW231362   3.620   1.761  13.100 -0.7096  1.3480 -1.5737
 6576SOL     OW31363   3.061   2.042   2.372 -0.4106  0.1926 -0.2386
 6576SOL    HW131364   3.039   2.037   2.279  1.3737 -1.5196 -0.5631
 6576SOL    HW231365   3.062   1.950   2.398 -1.7524 -0.0922 -1.1727
 6577SOL     OW31366   2.098   2.277  12.638  0.1693  0.0998 -0.3475
 6577SOL    HW131367   2.173   2.324  12.600 -0.2139  0.6410 -0.4258
 6577SOL    HW231368   2.056   2.344  12.691 -2.1673 -1.1651 -0.5762
 6578SOL     OW31369   3.212   4.288   7.628 -0.5967  0.1843 -0.2805
 6578SOL    HW131370   3.234   4.304   7.536 -2.3372  0.0976 -0.7209
 6578SOL    HW231371   3.274   4.345   7.673  1.0736 -0.5356 -1.6693
 6579SOL     OW31372   4.298   2.445   3.688  0.0056  0.1963 -0.1845
 6579SOL    HW131373   4.296   2.366   3.741  0.0499  0.6187  0.4492
 6579SOL    HW231374   4.207   2.472   3.678  0.3482  2.2329  2.1284
 6580SOL     OW31375   3.388   2.227  13.119 -0.4092 -0.0837  0.4273
 6580SOL    HW131376   3.326   2.212  13.047 -1.2274  0.0555  1.0960
 6580SOL    HW231377   3.380   2.138  13.154 -1.1287 -0.6684 -1.2338
 6581SOL     OW31378   0.745   2.006   6.956  0.0678 -0.6611 -1.0146
 6581SOL    HW131379   0.693   1.979   6.880 -0.7210  0.0814 -0.7390
 6581SOL    HW231380   0.814   1.940   6.962  0.6112  0.0142  0.1728
 6582SOL     OW31381   0.674   4.633   7.236  0.0960  0.6004 -0.6526
 6582SOL    HW131382   0.629   4.716   7.250 -0.5308  0.0974  0.4038
 6582SOL    HW231383   0.662   4.602   7.326  0.0122 -0.8402 -1.1643
 6583SOL     OW31384   3.806   1.676  13.810  0.7186 -0.0754  0.1740
 6583SOL    HW131385   3.835   1.685  13.901  0.1331 -0.1432  0.3678
 6583SOL    HW231386   3.804   1.583  13.788 -1.7199  0.6607 -2.6949
 6584SOL     OW31387   3.918   0.460   3.098  0.1921 -0.5307  0.0388
 6584SOL    HW131388   4.000   0.430   3.059  0.1405 -1.2543  0.4918
 6584SOL    HW231389   3.861   0.384   3.091  0.8430 -1.2600  2.7992
 6585SOL     OW31390   3.641   2.043   2.573  0.0814  0.5682  0.2915
 6585SOL    HW131391   3.726   2.008   2.601 -0.2994 -0.4042  0.2300
 6585SOL    HW231392   3.600   1.964   2.537 -3.3035  2.6886 -0.5069
 6586SOL     OW31393   1.011   3.809   6.947  0.0089 -0.9897 -0.5619
 6586SOL    HW131394   0.952   3.842   6.879 -0.2203 -0.8755 -0.3085
 6586SOL    HW231395   1.084   3.791   6.887 -0.4476 -1.2617 -1.0301
 6587SOL     OW31396   2.971   0.995   1.092 -0.7740 -0.2088  0.4155
 6587SOL    HW131397   2.956   1.086   1.066  0.3907 -0.0972  0.1183
 6587SOL    HW231398   2.953   0.950   1.009 -0.5704 -1.3629  0.9914
 6588SOL     OW31399   2.698   0.004   6.092 -0.1673 -0.3312  0.2747
 6588SOL    HW131400   2.671   0.056   6.016 -0.5121 -1.1349 -0.1492
 6588SOL    HW231401   2.621   4.708   6.136  0.3237  0.9064  2.1102
 6589SOL     OW31402   1.487   0.208   2.371  0.2024 -0.5735  0.4572
 6589SOL    HW131403   1.561   0.147   2.365 -0.5567 -1.3910 -0.6158
 6589SOL    HW231404   1.529   0.294   2.371  0.7964 -0.8578  0.2300
 6590SOL     OW31405   1.590   1.220   7.097 -0.3898 -0.1803  0.9380
 6590SOL    HW131406   1.512   1.229   7.042  1.0979  3.8601 -0.5041
 6590SOL    HW231407   1.554   1.281   7.162  1.0913  0.1549  1.4435
 6591SOL     OW31408   0.057   4.654   6.830  0.7168 -0.0315  0.1135
 6591SOL    HW131409   0.037   4.561   6.824  0.7328 -0.1016  1.0419
 6591SOL    HW231410   0.152   4.649   6.817  0.6270  0.7630 -0.8538
 6592SOL     OW31411   0.708   3.085   6.568  0.6432 -0.1960  0.2035
 6592SOL    HW131412   0.706   3.009   6.627  0.4262 -1.7539 -1.7875
 6592SOL    HW231413   0.703   3.050   6.479 -0.1407  1.1226 -0.2780
 6593SOL     OW31414   4.114   0.761   5.531  0.4667 -0.1131  0.0812
 6593SOL    HW131415   4.145   0.802   5.450  0.1876  0.5148  0.2942
 6593SOL    HW231416   4.023   0.741   5.508  1.1558 -1.8994 -1.1181
 6594SOL     OW31417   4.619   0.822   9.536 -0.0390 -0.5820 -0.5876
 6594SOL    HW131418   4.653   0.850   9.451  0.0107 -1.3109 -0.8044
 6594SOL    HW231419   4.587   0.905   9.572 -1.0461 -1.7103  1.1462
 6595SOL     OW31420   4.042   4.319   9.665 -0.1731  1.4069 -0.4723
 6595SOL    HW131421   4.059   4.292   9.575 -0.4393 -0.2380 -0.0397
 6595SOL    HW231422   4.132   4.312   9.697  0.2333 -0.7180 -2.0820
 6596SOL     OW31423   2.133   2.849  13.400 -0.6061 -0.3243 -0.1642
 6596SOL    HW131424   2.162   2.936  13.424 -0.8329 -0.4543  0.5757
 6596SOL    HW231425   2.112   2.814  13.486 -2.4319 -0.7385 -0.7778
 6597SOL     OW31426   0.601   0.856   3.270 -0.3102  0.3935 -0.4503
 6597SOL    HW131427   0.528   0.828   3.216  1.3400 -1.8925 -1.4679
 6597SOL    HW231428   0.559   0.878   3.354 -0.1293  0.4789 -0.3801
 6598SOL     OW31429   4.179   3.394   1.793  0.5922 -0.2569  0.4333
 6598SOL    HW131430   4.249   3.393   1.728 -0.3917 -0.4063 -0.6143
 6598SOL    HW231431   4.143   3.480   1.775 -0.1618 -0.7659 -0.5229
 6599SOL     OW31432   1.463   1.098  15.481  0.6896 -0.4832  0.0222
 6599SOL    HW131433   1.506   1.171  15.527  1.3847 -0.8439 -0.0577
 6599SOL    HW231434   1.526   1.040  15.438 -0.3865 -1.3788 -0.3434
 6600SOL     OW31435   2.725   1.232   1.325  0.1801  0.3794  0.0306
 6600SOL    HW131436   2.746   1.264   1.237 -0.7146 -0.6510 -0.5560
 6600SOL    HW231437   2.788   1.282   1.378 -0.1053  0.5562  0.2020
 6601SOL     OW31438   1.115   2.759   2.364  0.2478 -0.1504  0.1813
 6601SOL    HW131439   1.081   2.808   2.289  0.6270  1.2958  0.9312
 6601SOL    HW231440   1.048   2.776   2.431  0.0248  0.6449 -0.2394
 6602SOL     OW31441   2.147   0.674   7.754  0.4006 -0.1007 -0.3743
 6602SOL    HW131442   2.148   0.768   7.734  0.1956 -0.5912 -2.7370
 6602SOL    HW231443   2.100   0.674   7.837  0.2399  0.1224 -0.4645
 6603SOL     OW31444   4.497   0.392   3.085  0.6819  0.7965  0.3674
 6603SOL    HW131445   4.438   0.330   3.042  1.0182 -1.1458  2.6775
 6603SOL    HW231446   4.444   0.470   3.100 -0.2657  0.0215  1.0767
 6604SOL     OW31447   3.109   1.353   0.631 -0.1790  0.0244  0.1027
 6604SOL    HW131448   3.032   1.370   0.577 -0.7406 -1.0040  0.5859
 6604SOL    HW231449   3.130   1.265   0.599 -0.4213  0.4305 -1.1768
 6605SOL     OW31450   2.013   3.048   9.156 -1.2216  0.0160 -0.5833
 6605SOL    HW131451   2.058   2.969   9.185 -0.1623  0.9336  0.2859
 6605SOL    HW231452   1.945   3.010   9.101 -1.5594  1.8633 -1.4395
 6606SOL     OW31453   0.445   1.899   3.901 -0.5122 -0.5281  0.0625
 6606SOL    HW131454   0.461   1.979   3.850 -0.4097 -0.1322  0.7119
 6606SOL    HW231455   0.454   1.831   3.834 -2.6811  0.9735 -1.7537
 6607SOL     OW31456   4.725   1.490  14.286  0.2541  0.2589 -0.7285
 6607SOL    HW131457   0.011   1.400  14.264  0.2419  0.9151 -3.3773
 6607SOL    HW231458   0.052   1.510  14.352  1.4816 -0.1950 -1.8310
 6608SOL     OW31459   0.909   0.794   2.724  0.1127  0.2240  0.3847
 6608SOL    HW131460   0.897   0.858   2.653  0.2941 -1.4492 -1.1316
 6608SOL    HW231461   0.816   0.770   2.724  0.0228  0.5708  0.8841
 6609SOL     OW31462   1.945   3.076   0.432 -0.1523  0.1253  0.5330
 6609SOL    HW131463   1.999   3.120   0.367 -1.6999  1.9580  0.4786
 6609SOL    HW231464   1.864   3.127   0.439 -0.2498  0.1234 -0.5576
 6610SOL     OW31465   2.280   1.693  12.353 -0.1881 -0.2449 -0.8135
 6610SOL    HW131466   2.308   1.659  12.268  1.9546  0.0525 -0.2142
 6610SOL    HW231467   2.274   1.614  12.407  1.9868 -0.1186 -0.3925
 6611SOL     OW31468   0.387   3.035   8.271 -0.3776  0.6735 -0.2940
 6611SOL    HW131469   0.334   3.102   8.314  0.8335 -0.1479  2.4337
 6611SOL    HW231470   0.323   3.007   8.205  0.7204 -1.8728 -0.2932
 6612SOL     OW31471   4.174   3.391   0.274 -0.4168  0.4990 -0.1459
 6612SOL    HW131472   4.219   3.307   0.269 -0.3227  0.4819  0.8649
 6612SOL    HW231473   4.085   3.362   0.258  0.3837 -2.5466  0.9962
 6613SOL     OW31474   2.608   1.436   2.894  0.5862  0.2381 -0.1055
 6613SOL    HW131475   2.577   1.511   2.945  0.3701 -0.5962  1.0093
 6613SOL    HW231476   2.609   1.483   2.811  1.4270 -0.8989 -0.7444
 6614SOL     OW31477   4.468   4.340   4.006 -0.5021 -0.0552  0.8425
 6614SOL    HW131478   4.392   4.292   4.039 -1.3679 -0.2303 -1.3655
 6614SOL    HW231479   4.533   4.302   4.065 -0.8519 -1.5079  0.2947
 6615SOL     OW31480   2.902   0.079   2.196 -0.4465  0.6083 -0.3250
 6615SOL    HW131481   2.964   0.121   2.255 -0.0518  2.1727 -1.8749
 6615SOL    HW231482   2.894   0.151   2.135 -0.7110 -1.6195 -2.9282
 6616SOL     OW31483   2.909   0.304   5.949  0.1391  0.3218 -0.0517
 6616SOL    HW131484   2.904   0.360   5.871 -1.2253 -1.2790 -1.0901
 6616SOL    HW231485   2.950   0.374   6.001  0.3247  0.1502  0.0329
 6617SOL     OW31486   0.912   4.670   7.096  0.3174 -0.4367 -0.0091
 6617SOL    HW131487   0.856   4.714   7.161  1.7445  0.2629  0.7390
 6617SOL    HW231488   0.912   4.723   7.017  1.2566  2.5913  2.0212
 6618SOL     OW31489   4.550   2.757  14.546 -0.3076 -0.2885  0.4117
 6618SOL    HW131490   4.568   2.663  14.542  0.3577 -0.2744  2.9636
 6618SOL    HW231491   4.481   2.765  14.479  1.8247  0.5719 -1.6891
 6619SOL     OW31492   2.028   1.222   8.090  0.2518 -0.0098  0.5486
 6619SOL    HW131493   2.067   1.300   8.050  1.3985 -0.4337  0.8446
 6619SOL    HW231494   1.942   1.221   8.048 -0.4011 -2.3904  1.9474
 6620SOL     OW31495   0.179   3.122   7.565 -0.4795 -0.2933  0.3820
 6620SOL    HW131496   0.182   3.198   7.623 -1.0784 -0.8127  1.0895
 6620SOL    HW231497   0.270   3.095   7.550 -0.0972 -0.1534  2.4117
 6621SOL     OW31498   4.003   2.846  15.202 -1.0430 -0.3166  0.0026
 6621SOL    HW131499   3.982   2.773  15.261  1.0997 -0.7425  0.2572
 6621SOL    HW231500   4.076   2.890  15.246 -0.6892 -1.4663  0.5743
 6622SOL     OW31501   2.891   1.000   8.478 -0.4842 -0.3440  0.5301
 6622SOL    HW131502   2.897   1.093   8.457 -1.0803 -0.4454 -0.1188
 6622SOL    HW231503   2.798   1.005   8.501 -0.7651  0.7230 -0.7948
 6623SOL     OW31504   4.347   1.424   6.243  0.3202 -0.4881  0.7399
 6623SOL    HW131505   4.347   1.519   6.237  1.5161 -0.5886 -0.8168
 6623SOL    HW231506   4.333   1.405   6.150 -0.0199 -0.8928  0.8702
 6624SOL     OW31507   3.817   3.937  11.012  0.4792 -0.2317  0.4145
 6624SOL    HW131508   3.842   3.931  10.920 -0.5351  1.5956  0.0009
 6624SOL    HW231509   3.901   3.934  11.057 -0.5970  2.1982  2.5690
 6625SOL     OW31510   0.196   4.213   2.623 -0.0408  0.4859  0.3854
 6625SOL    HW131511   0.239   4.194   2.706  0.4704  1.2696  0.2917
 6625SOL    HW231512   0.197   4.126   2.583 -2.2020  0.7867 -0.3198
 6626SOL     OW31513   4.413   2.853  14.333  0.2132 -0.6168 -0.1313
 6626SOL    HW131514   4.385   2.829  14.245  2.0147 -1.5078 -0.4490
 6626SOL    HW231515   4.457   2.936  14.317 -0.7698  0.1087  0.8872
 6627SOL     OW31516   2.253   2.468   6.039 -0.6386  0.3433 -0.1914
 6627SOL    HW131517   2.220   2.459   5.949 -1.6153  0.9301  0.1029
 6627SOL    HW231518   2.341   2.437   6.020 -1.4125 -0.0787 -3.1472
 6628SOL     OW31519   2.235   3.380   7.035  0.4745  0.0881 -0.0301
 6628SOL    HW131520   2.321   3.412   7.060  0.8679  0.0335 -1.2946
 6628SOL    HW231521   2.251   3.297   7.079  1.0128 -1.2890 -2.7972
 6629SOL     OW31522   2.008   2.863  13.647 -0.1444 -0.2591  0.3568
 6629SOL    HW131523   1.953   2.832  13.720 -1.5819  0.8481 -0.2378
 6629SOL    HW231524   1.944   2.880  13.578  0.8665  3.0727  0.2222
 6630SOL     OW31525   0.945   4.532   1.262 -0.0805 -0.6944  0.6466
 6630SOL    HW131526   0.965   4.625   1.272  0.3836 -0.6846 -0.4046
 6630SOL    HW231527   0.971   4.499   1.349  0.4485 -0.5860  0.5296
 6631SOL     OW31528   1.892   4.396  13.898 -0.7968  0.5011 -0.1287
 6631SOL    HW131529   1.882   4.466  13.834  0.8653 -1.5379 -2.6056
 6631SOL    HW231530   1.986   4.378  13.890 -1.5240 -2.4737 -1.6928
 6632SOL     OW31531   4.033   0.264  15.848 -0.4368 -0.3166 -0.3178
 6632SOL    HW131532   4.051   0.306  15.764 -3.1087 -1.5998 -1.5278
 6632SOL    HW231533   3.945   0.298  15.864  0.8881  1.9500  2.0826
 6633SOL     OW31534   3.001   0.716   2.275  0.1651 -0.0571 -0.3124
 6633SOL    HW131535   3.088   0.675   2.276  0.6067  0.8542 -0.9706
 6633SOL    HW231536   3.018   0.809   2.289  0.5995 -0.0435 -0.9280
 6634SOL     OW31537   3.983   1.304  14.686  0.2462  0.0086 -0.5832
 6634SOL    HW131538   3.959   1.213  14.703  2.0978 -0.2480  0.6536
 6634SOL    HW231539   4.055   1.330  14.744  1.5307 -0.0738 -2.1511
 6635SOL     OW31540   4.248   3.687   4.824  0.6127  0.7323 -0.0087
 6635SOL    HW131541   4.241   3.667   4.730 -0.7990 -0.0717  0.2753
 6635SOL    HW231542   4.203   3.772   4.831  0.4852  0.5858  0.9304
 6636SOL     OW31543   2.384   2.291   6.564  0.0514 -0.3337 -0.5329
 6636SOL    HW131544   2.467   2.323   6.599 -1.1600  2.5034 -0.2346
 6636SOL    HW231545   2.326   2.357   6.603  0.4930 -0.7473  0.8187
 6637SOL     OW31546   3.457   4.632   6.705  0.1140  0.0852  0.3921
 6637SOL    HW131547   3.365   4.610   6.720  0.5177 -0.9440  1.4029
 6637SOL    HW231548   3.457   4.652   6.612  0.7226 -0.3522  0.2998
 6638SOL     OW31549   2.829   4.493  12.454 -0.1579  0.0500 -0.5575
 6638SOL    HW131550   2.778   4.547  12.393 -1.3286 -0.4050  0.0258
 6638SOL    HW231551   2.790   4.522  12.537  2.2244  1.0348  0.2058
 6639SOL     OW31552   1.119   3.781   4.451  0.0567 -0.5671 -0.4492
 6639SOL    HW131553   1.165   3.859   4.421  1.6163  0.0415  3.4240
 6639SOL    HW231554   1.039   3.785   4.400 -0.6549  0.8109  0.7573
 6640SOL     OW31555   0.523   0.891   8.093  0.0034  0.0483  0.2695
 6640SOL    HW131556   0.449   0.912   8.036  1.4459  0.9755 -1.2625
 6640SOL    HW231557   0.550   0.805   8.062  0.5897 -0.1206  1.2309
 6641SOL     OW31558   2.149   1.073   5.466 -0.3485  0.2809 -0.0726
 6641SOL    HW131559   2.202   1.015   5.412 -1.2814 -0.4365 -0.2151
 6641SOL    HW231560   2.179   1.061   5.555  1.2907 -0.1100 -0.6799
 6642SOL     OW31561   0.814   3.197   6.965 -0.0109 -0.5465  0.2154
 6642SOL    HW131562   0.769   3.243   6.893  1.5192  2.2460  1.0502
 6642SOL    HW231563   0.752   3.124   6.971 -1.5229  0.5638 -1.5979
 6643SOL     OW31564   0.754   2.516  13.718  0.4265  0.0469  0.3998
 6643SOL    HW131565   0.787   2.455  13.783 -0.7034 -0.1585  0.7749
 6643SOL    HW231566   0.821   2.498  13.652 -0.0694 -1.6028  0.3510
 6644SOL     OW31567   0.966   0.814   3.007  0.3510  0.1271  0.6020
 6644SOL    HW131568   1.060   0.796   3.005  0.4316  0.4789  1.5776
 6644SOL    HW231569   0.949   0.796   2.914  0.9810 -0.5373  0.6111
 6645SOL     OW31570   0.385   2.081   7.726  0.2553 -0.1268  0.1375
 6645SOL    HW131571   0.307   2.061   7.778  1.3244 -1.7837  1.0816
 6645SOL    HW231572   0.417   2.001   7.684  2.1584  0.9474 -0.4184
 6646SOL     OW31573   4.588   0.056   1.353  0.0676 -0.5223  0.3676
 6646SOL    HW131574   4.551   4.734   1.416 -1.2232  1.2351  1.3138
 6646SOL    HW231575   4.678   0.027   1.339  0.0396 -0.2647 -0.3835
 6647SOL     OW31576   1.581   4.177   4.642  0.3478 -0.1661  0.1641
 6647SOL    HW131577   1.514   4.169   4.575  1.1572  0.7223 -0.7540
 6647SOL    HW231578   1.606   4.085   4.648 -2.0364 -0.7556  1.2069
 6648SOL     OW31579   2.631   4.625  12.274 -0.2880 -0.1393 -0.0139
 6648SOL    HW131580   2.619   4.568  12.198  0.0749  0.8502 -0.8141
 6648SOL    HW231581   2.614   4.707  12.228  0.6657 -0.0832 -0.2743
 6649SOL     OW31582   2.990   1.929  13.744  0.3439  0.4639 -0.2896
 6649SOL    HW131583   3.001   1.977  13.826  0.0388  3.8943 -2.2686
 6649SOL    HW231584   2.899   1.946  13.722  0.6286  1.1024 -0.9753
 6650SOL     OW31585   0.718   2.146   4.485 -0.5206 -0.1237  0.1612
 6650SOL    HW131586   0.651   2.213   4.473 -0.1673  0.1665 -0.1933
 6650SOL    HW231587   0.702   2.111   4.572  1.3024  0.4973  0.7314
 6651SOL     OW31588   2.701   0.912   0.005 -0.7383 -0.0919 -0.2499
 6651SOL    HW131589   2.787   0.954   0.003 -0.8869  0.1995 -0.5306
 6651SOL    HW231590   2.694   0.867  17.676  0.2415 -0.1120 -0.3233
 6652SOL     OW31591   1.801   3.823   3.296  0.0129 -0.5519 -0.1800
 6652SOL    HW131592   1.836   3.828   3.207 -1.7169 -0.7664 -0.8678
 6652SOL    HW231593   1.717   3.778   3.294  0.0697 -0.7080  0.6101
 6653SOL     OW31594   0.312   0.722   5.838 -0.5717 -0.0511 -0.3874
 6653SOL    HW131595   0.232   0.711   5.890  0.4127 -0.9039  0.9478
 6653SOL    HW231596   0.320   0.630   5.815  0.4810 -0.1329  0.3202
 6654SOL     OW31597   4.058   0.537   5.201  0.2945 -0.1007 -0.4293
 6654SOL    HW131598   4.118   0.521   5.128  3.1144  1.3333  1.5600
 6654SOL    HW231599   4.088   0.624   5.230 -2.5215  0.0067  2.1511
 6655SOL     OW31600   3.954   2.389  11.091  0.6984 -0.0891 -0.3456
 6655SOL    HW131601   3.940   2.466  11.145  1.2432  0.0289 -0.3753
 6655SOL    HW231602   3.865   2.355  11.098  0.6991 -0.2652 -1.1996
 6656SOL     OW31603   0.184   3.855   1.243 -0.1808  0.4228 -0.7444
 6656SOL    HW131604   0.141   3.920   1.188  1.3741  1.9019 -0.2287
 6656SOL    HW231605   0.277   3.859   1.222 -0.0912 -0.7542 -0.5715
 6657SOL     OW31606   4.481   4.290   9.471 -0.4642 -1.1185  0.4237
 6657SOL    HW131607   4.495   4.264   9.380  0.6507 -1.2316  0.6232
 6657SOL    HW231608   4.567   4.259   9.499  0.3351  1.7181  1.1163
 6658SOL     OW31609   3.271   2.147   5.644  0.1901  0.1369 -0.5511
 6658SOL    HW131610   3.353   2.099   5.638  0.2530  0.1970 -0.1192
 6658SOL    HW231611   3.265   2.171   5.551  1.3828 -0.6077 -0.8135
 6659SOL     OW31612   1.401   2.428  12.339 -0.0405  0.3884  0.0552
 6659SOL    HW131613   1.365   2.364  12.277  1.2039  0.7141 -0.9956
 6659SOL    HW231614   1.482   2.441  12.291 -0.3528  0.1291 -0.5512
 6660SOL     OW31615   1.645   4.156   2.015 -0.4307 -0.0400 -0.1403
 6660SOL    HW131616   1.707   4.181   2.084  1.1385 -0.8052 -1.2549
 6660SOL    HW231617   1.567   4.131   2.063 -0.8929  0.7191 -0.4884
 6661SOL     OW31618   0.543   0.659   3.586  0.2670  0.3514 -0.2314
 6661SOL    HW131619   0.573   0.599   3.517  0.5012  0.0060  0.1777
 6661SOL    HW231620   0.541   0.740   3.534 -1.5223  0.1044 -0.5623
 6662SOL     OW31621   1.748   2.371   3.273 -0.2153  0.4408  0.0518
 6662SOL    HW131622   1.767   2.278   3.275 -0.3945  0.4291  1.3230
 6662SOL    HW231623   1.751   2.398   3.365 -1.0806  2.3652 -0.4700
 6663SOL     OW31624   3.596   3.481   2.467  0.1132 -0.2937  0.1010
 6663SOL    HW131625   3.668   3.427   2.500  0.0465 -0.6199 -0.2814
 6663SOL    HW231626   3.650   3.559   2.455  0.4588 -0.4245  0.7947
 6664SOL     OW31627   0.445   4.293  15.923  0.1294 -0.4933 -0.1520
 6664SOL    HW131628   0.451   4.198  15.913 -0.8456 -0.5980  0.2532
 6664SOL    HW231629   0.359   4.291  15.966 -0.2989 -0.1670 -0.9811
 6665SOL     OW31630   0.129   2.702   7.923 -0.4071 -0.0649  1.1526
 6665SOL    HW131631   0.186   2.633   7.889 -0.1796  1.4815 -1.5948
 6665SOL    HW231632   0.185   2.756   7.979 -0.1339 -0.1152  0.9276
 6666SOL     OW31633   1.905   4.527   0.449 -0.4351  0.2174  0.2311
 6666SOL    HW131634   1.940   4.439   0.458  1.3126  0.8039 -1.0395
 6666SOL    HW231635   1.979   4.573   0.410  0.8151  0.2196  2.5912
 6667SOL     OW31636   0.398   2.296   9.753  0.1413 -0.4096  0.6011
 6667SOL    HW131637   0.382   2.227   9.687  0.4718  1.5973 -1.5873
 6667SOL    HW231638   0.416   2.255   9.837 -0.9785  0.8439  1.4418
 6668SOL     OW31639   0.031   3.474   3.125 -0.0562  0.0923 -0.9237
 6668SOL    HW131640   4.686   3.481   3.080 -1.9874 -2.1886  2.3723
 6668SOL    HW231641   0.037   3.379   3.139  2.1427  0.3954  0.1292
 6669SOL     OW31642   3.520   3.440   8.490  0.2148 -0.0628 -0.1313
 6669SOL    HW131643   3.456   3.511   8.496  0.8016  0.4044  0.6201
 6669SOL    HW231644   3.567   3.474   8.414  0.5677 -2.2893 -0.9109
 6670SOL     OW31645   0.664   1.494   3.143 -0.1388 -0.4338 -0.5922
 6670SOL    HW131646   0.729   1.440   3.186  1.3901  0.8262 -1.3376
 6670SOL    HW231647   0.696   1.579   3.173  0.8683 -0.3617 -1.8496
 6671SOL     OW31648   2.808   3.435   3.494  0.1658  0.0817 -0.0159
 6671SOL    HW131649   2.868   3.491   3.446  0.3146 -1.2405 -1.3971
 6671SOL    HW231650   2.733   3.468   3.444  1.3805  0.0905 -1.8467
 6672SOL     OW31651   2.974   1.456   8.951  0.4538  0.2015  0.0786
 6672SOL    HW131652   2.959   1.376   8.902 -1.5426  1.4952 -1.3975
 6672SOL    HW231653   2.959   1.522   8.884  0.8374  1.5445  1.2990
 6673SOL     OW31654   0.406   4.100   5.760  0.2046  0.2233 -0.7604
 6673SOL    HW131655   0.381   4.175   5.706  0.0518  0.3943 -0.4538
 6673SOL    HW231656   0.406   4.136   5.849  0.8577  0.1906 -0.7458
 6674SOL     OW31657   3.788   3.849  15.467  0.1473 -0.2276  0.0237
 6674SOL    HW131658   3.792   3.929  15.518 -0.6604 -0.0254 -0.2303
 6674SOL    HW231659   3.876   3.812  15.475  1.0930  2.3159  1.2703
 6675SOL     OW31660   2.310   4.212   6.218  0.2720  0.3153 -0.0469
 6675SOL    HW131661   2.318   4.228   6.124  2.0682  1.7480  0.3535
 6675SOL    HW231662   2.222   4.249   6.231  0.9772  1.9242  0.1613
 6676SOL     OW31663   3.266   3.204  11.025 -0.1180 -0.0507 -1.2020
 6676SOL    HW131664   3.172   3.190  11.015 -0.3788  1.4254 -0.8920
 6676SOL    HW231665   3.294   3.223  10.936  1.2290 -2.8879 -1.3684
 6677SOL     OW31666   2.939   2.105   6.825 -0.1723  0.4151  0.3895
 6677SOL    HW131667   2.976   2.180   6.778 -0.9038  0.6911  0.2550
 6677SOL    HW231668   2.925   2.036   6.759 -1.6877  1.8053 -0.7609
 6678SOL     OW31669   0.592   3.744   6.654 -0.6289  0.0115 -0.3621
 6678SOL    HW131670   0.556   3.703   6.576  0.5431  0.3081 -1.0712
 6678SOL    HW231671   0.519   3.782   6.703 -1.1476  0.8310 -1.7938
 6679SOL     OW31672   2.019   3.427   4.501  0.0523  0.3991 -0.4093
 6679SOL    HW131673   2.004   3.352   4.443  0.3283  0.4835 -0.5920
 6679SOL    HW231674   2.082   3.389   4.563  0.0876  0.5795 -0.3342
 6680SOL     OW31675   0.436   2.543   4.949 -0.1249 -0.5114 -0.3173
 6680SOL    HW131676   0.447   2.497   5.032  0.9279 -0.8934 -0.6706
 6680SOL    HW231677   0.341   2.549   4.935 -0.1258 -2.2931 -1.1293
 6681SOL     OW31678   2.788   4.693   3.087  0.1196  0.3582  0.6029
 6681SOL    HW131679   2.797   0.000   3.003 -1.9885  1.2320  0.8637
 6681SOL    HW231680   2.863   4.734   3.130  0.8436 -0.2979 -0.0357
 6682SOL     OW31681   3.331   0.654   0.069  0.1555 -0.0784 -0.3803
 6682SOL    HW131682   3.290   0.731   0.108 -1.2178 -0.8685 -0.2743
 6682SOL    HW231683   3.258   0.593   0.058 -0.8843  1.3931 -1.8318
 6683SOL     OW31684   3.214   0.306   3.678  0.2330  0.2522  0.1479
 6683SOL    HW131685   3.131   0.259   3.665  1.7137 -1.4824 -2.8593
 6683SOL    HW231686   3.285   0.242   3.675 -1.0681 -0.9183 -4.4322
 6684SOL     OW31687   1.315   1.139   5.510 -0.2789 -0.0404 -0.1030
 6684SOL    HW131688   1.347   1.160   5.598  2.1605  1.4073 -1.3271
 6684SOL    HW231689   1.239   1.197   5.517  0.8881  1.4129  0.6872
 6685SOL     OW31690   3.831   1.624   3.199 -0.2744  0.1611 -0.1743
 6685SOL    HW131691   3.921   1.651   3.218  0.6621 -2.5523 -0.6512
 6685SOL    HW231692   3.798   1.592   3.284  1.8264 -0.3973  0.4320
 6686SOL     OW31693   4.328   4.383  15.176 -0.0752 -0.0303 -0.1248
 6686SOL    HW131694   4.288   4.379  15.090 -1.2817  0.2760  0.4254
 6686SOL    HW231695   4.407   4.429  15.147 -0.8135  1.4376  0.1953
 6687SOL     OW31696   2.824   2.902   7.683  0.0576 -0.4046 -0.1313
 6687SOL    HW131697   2.833   2.806   7.679 -0.3822 -0.4894  0.8250
 6687SOL    HW231698   2.744   2.912   7.736  0.5667  0.0570  0.5521
 6688SOL     OW31699   4.103   0.254  13.066  0.0145 -0.1232 -0.0779
 6688SOL    HW131700   4.023   0.307  13.065  0.0516 -0.0514  1.2734
 6688SOL    HW231701   4.125   0.272  13.157  1.5972 -1.6498 -0.1574
 6689SOL     OW31702   1.814   1.618   1.606  0.0977 -0.1103  0.2554
 6689SOL    HW131703   1.772   1.596   1.689 -0.0081  1.4732  0.6233
 6689SOL    HW231704   1.832   1.530   1.573 -0.4987  0.0801 -0.5828
 6690SOL     OW31705   4.016   4.088   2.390 -0.1802 -0.3509  0.2695
 6690SOL    HW131706   3.954   4.066   2.459  0.7993  2.2553  1.9961
 6690SOL    HW231707   3.963   4.125   2.319 -1.1105  0.3117  1.3198
 6691SOL     OW31708   3.493   2.949   2.474  0.3399  0.0278  0.1048
 6691SOL    HW131709   3.407   2.981   2.446  0.3025 -0.7736 -0.6919
 6691SOL    HW231710   3.535   3.029   2.507 -0.3825  0.5105 -0.1451
 6692SOL     OW31711   0.385   2.240   4.707  0.7308 -0.2832  0.3591
 6692SOL    HW131712   0.481   2.229   4.704  0.8671  0.6885  1.5230
 6692SOL    HW231713   0.382   2.331   4.677  1.5306  0.0454  1.2735
 6693SOL     OW31714   1.655   3.274   4.997  0.1827 -0.3114  0.2029
 6693SOL    HW131715   1.676   3.351   5.050  1.0132 -1.4195  1.4486
 6693SOL    HW231716   1.637   3.314   4.912 -0.9286 -0.4378  0.3760
 6694SOL     OW31717   3.668   2.194   7.340  0.0171 -0.1504  0.1635
 6694SOL    HW131718   3.655   2.270   7.396  1.5614  1.3081 -1.4358
 6694SOL    HW231719   3.731   2.142   7.389  0.5832 -0.3094 -0.7240
 6695SOL     OW31720   0.449   2.578   3.228 -0.4715  0.0445  0.5168
 6695SOL    HW131721   0.461   2.630   3.149  1.2426 -1.9551 -0.5337
 6695SOL    HW231722   0.537   2.549   3.252  0.5288  1.2520 -1.7178
 6696SOL     OW31723   3.324   4.713   5.158 -0.2419 -0.2489  0.2496
 6696SOL    HW131724   3.256   0.027   5.200 -1.8935 -1.9095 -0.3220
 6696SOL    HW231725   3.387   4.701   5.229  1.4450  2.4873 -0.7646
 6697SOL     OW31726   3.640   3.122   6.935  0.5339  0.2609 -0.2805
 6697SOL    HW131727   3.575   3.183   6.972  2.6377  1.1086  2.0666
 6697SOL    HW231728   3.716   3.178   6.951  1.9416 -1.9551  0.6435
 6698SOL     OW31729   1.471   3.749   1.176  0.8380  0.0326 -0.4630
 6698SOL    HW131730   1.436   3.714   1.095  0.7384 -0.2133 -0.3138
 6698SOL    HW231731   1.412   3.821   1.200  0.3832 -0.8122  0.9923
 6699SOL     OW31732   1.016   1.885   4.414 -0.1774 -0.2794  0.1538
 6699SOL    HW131733   1.019   1.857   4.323  3.4767 -3.3387  1.2186
 6699SOL    HW231734   0.945   1.826   4.442 -0.7187  0.6515  0.7544
 6700SOL     OW31735   2.692   2.481   5.021  0.2997  0.1549 -0.1930
 6700SOL    HW131736   2.734   2.458   5.104 -0.4868  0.3635  0.2615
 6700SOL    HW231737   2.749   2.547   4.982  0.1912 -0.6456 -1.6917
 6701SOL     OW31738   2.628   3.739   4.499  0.1121  0.6822  0.5150
 6701SOL    HW131739   2.549   3.777   4.537 -0.8274 -0.0512 -0.7132
 6701SOL    HW231740   2.669   3.707   4.579  0.7630  1.9911  0.6999
 6702SOL     OW31741   4.305   2.898   7.614  0.4673 -0.1659  0.2094
 6702SOL    HW131742   4.367   2.969   7.632 -0.2463  0.3901  0.4933
 6702SOL    HW231743   4.380   2.842   7.596 -0.1060 -1.0911  0.7407
 6703SOL     OW31744   3.900   2.011  15.211  0.5606  0.3330 -0.6564
 6703SOL    HW131745   3.876   1.919  15.201  1.2328  0.2515 -1.5650
 6703SOL    HW231746   3.843   2.048  15.143 -1.2541 -1.1704  0.0324
 6704SOL     OW31747   2.420   4.585  12.474  0.6522 -0.3672  0.2226
 6704SOL    HW131748   2.490   4.587  12.409  0.6527  2.3437  0.3159
 6704SOL    HW231749   2.416   4.679  12.492  1.1765 -0.0081 -1.5632
 6705SOL     OW31750   1.605   4.144   1.486 -0.2007 -0.5118  0.0337
 6705SOL    HW131751   1.625   4.092   1.408  2.5397 -1.5760  1.4246
 6705SOL    HW231752   1.658   4.219   1.461 -0.9979 -0.2584 -0.8794
 6706SOL     OW31753   0.783   3.564   3.288  0.4244 -0.1043  0.4098
 6706SOL    HW131754   0.696   3.593   3.318 -0.1534 -0.0490 -1.3195
 6706SOL    HW231755   0.752   3.513   3.213  0.2500 -1.3151  1.3074
 6707SOL     OW31756   3.409   2.944  15.135 -0.3615 -0.3285 -0.4234
 6707SOL    HW131757   3.334   2.964  15.078 -1.8749 -1.8969  1.0496
 6707SOL    HW231758   3.401   2.849  15.139  1.9789 -0.6148 -2.1566
 6708SOL     OW31759   2.100   3.884   6.291 -0.4658  0.3701  0.2825
 6708SOL    HW131760   2.154   3.896   6.369  2.2393 -0.5633 -1.4680
 6708SOL    HW231761   2.082   3.791   6.302 -0.2120  0.2311 -0.4774
 6709SOL     OW31762   0.347   3.589   1.348  0.4566  0.2716  0.2748
 6709SOL    HW131763   0.332   3.678   1.381 -1.3294  0.4482 -1.0313
 6709SOL    HW231764   0.432   3.598   1.305 -0.5794  2.1210 -1.4255
 6710SOL     OW31765   0.040   2.396  11.676  0.4834  0.5059  0.0224
 6710SOL    HW131766   4.732   2.323  11.637 -1.5366  0.6264  2.2261
 6710SOL    HW231767   0.101   2.346  11.730 -1.8545 -2.8954 -0.4877
 6711SOL     OW31768   0.862   0.493  16.382  0.2415  0.1687 -0.0985
 6711SOL    HW131769   0.858   0.409  16.429 -0.2379  0.1395 -0.1976
 6711SOL    HW231770   0.929   0.463  16.321  1.3287  3.1246 -0.3807
 6712SOL     OW31771   4.476   4.291   1.099 -0.6814 -0.2016 -0.1928
 6712SOL    HW131772   4.424   4.343   1.161 -0.6669  0.1725 -0.4941
 6712SOL    HW231773   4.476   4.338   1.016  1.7172  0.6468  0.2646
 6713SOL     OW31774   1.837   3.974  14.427 -0.1343  0.3091  0.4162
 6713SOL    HW131775   1.754   3.982  14.378  0.3114  1.8760 -0.0870
 6713SOL    HW231776   1.874   4.055  14.391  0.2488  0.2299  0.6425
 6714SOL     OW31777   1.375   0.812  16.536 -0.8022 -0.1793 -0.1750
 6714SOL    HW131778   1.455   0.863  16.553 -0.9218  0.3688 -1.2326
 6714SOL    HW231779   1.392   0.782  16.447  1.2339 -0.6911  0.3796
 6715SOL     OW31780   3.707   3.043   4.035  0.5714  0.0830 -0.8135
 6715SOL    HW131781   3.749   3.005   4.113  2.0697  0.3560 -1.4987
 6715SOL    HW231782   3.679   2.971   3.979 -2.9182 -0.1239  1.1840
 6716SOL     OW31783   2.378   1.699   6.118  0.9200 -0.5873  0.4042
 6716SOL    HW131784   2.329   1.687   6.200  0.6574 -0.2260  0.3010
 6716SOL    HW231785   2.320   1.668   6.048  1.0767 -1.1074  0.5004
 6717SOL     OW31786   2.042   1.551   7.416 -0.0477 -0.5532 -0.4948
 6717SOL    HW131787   2.137   1.558   7.405 -0.1229 -0.8725 -1.3852
 6717SOL    HW231788   2.029   1.608   7.492  0.9383 -0.5683 -0.3216
 6718SOL     OW31789   0.911   1.439  10.570 -0.0703  0.0962 -0.0278
 6718SOL    HW131790   0.949   1.517  10.610 -3.3548  0.8754  1.5659
 6718SOL    HW231791   0.866   1.474  10.493  0.3577 -0.7207 -0.6512
 6719SOL     OW31792   3.375   1.956  16.506  0.1108  0.3374  0.5085
 6719SOL    HW131793   3.392   1.944  16.413 -2.8026 -0.8277  0.1231
 6719SOL    HW231794   3.462   1.932  16.539  0.3659 -0.5499 -0.7980
 6720SOL     OW31795   0.107   0.558   4.994 -0.4008 -0.1426 -0.4757
 6720SOL    HW131796   0.045   0.495   4.958 -4.1051  2.1024  1.8774
 6720SOL    HW231797   0.167   0.495   5.035 -0.4346  0.9775  1.3088
 6721SOL     OW31798   1.428   1.961   3.710  0.0360 -0.1435  0.2356
 6721SOL    HW131799   1.411   1.889   3.770 -1.9871  1.4148  1.5561
 6721SOL    HW231800   1.519   1.940   3.692 -0.0673 -0.1191 -0.3276
 6722SOL     OW31801   3.163   2.098   3.019 -0.0865 -0.3947 -0.6429
 6722SOL    HW131802   3.247   2.055   3.037  0.0176 -0.0225 -0.2362
 6722SOL    HW231803   3.180   2.127   2.929  0.0801 -1.5078 -0.9662
 6723SOL     OW31804   2.085   2.275   7.087  0.3922  0.9068  0.3948
 6723SOL    HW131805   2.081   2.273   6.991 -0.6531 -1.1927  0.4665
 6723SOL    HW231806   2.038   2.357   7.100 -1.9109 -0.6270  1.7006
 6724SOL     OW31807   4.289   3.158   3.342  0.1520 -0.0121  0.1303
 6724SOL    HW131808   4.369   3.186   3.298  0.1596  1.1645  0.8847
 6724SOL    HW231809   4.250   3.132   3.259  0.5369 -1.8083  0.5281
 6725SOL     OW31810   3.571   2.266   5.842  0.2493 -0.3621 -0.0606
 6725SOL    HW131811   3.662   2.237   5.852  0.4227 -0.3128 -1.6145
 6725SOL    HW231812   3.579   2.358   5.868 -4.4576 -0.7054  2.5435
 6726SOL     OW31813   3.193   3.572  17.327  0.0209  0.0370  0.3075
 6726SOL    HW131814   3.167   3.624  17.251  0.5096  0.3574  0.3629
 6726SOL    HW231815   3.135   3.496  17.317  0.9518 -0.6299 -0.0202
 6727SOL     OW31816   2.292   0.889   4.619  0.1558 -0.4097 -0.4827
 6727SOL    HW131817   2.241   0.840   4.683  1.8440 -2.4645 -0.7478
 6727SOL    HW231818   2.378   0.881   4.660  0.1511 -0.5821 -0.5068
 6728SOL     OW31819   3.069   0.092  15.746  0.0050  0.0847  0.6306
 6728SOL    HW131820   2.993   0.048  15.707 -0.3687  2.5775 -1.4844
 6728SOL    HW231821   3.025   0.133  15.820  1.1071 -0.2606  1.4818
 6729SOL     OW31822   3.870   4.590  14.527 -0.0250 -0.0977  0.8100
 6729SOL    HW131823   3.949   4.535  14.526 -1.2635 -1.8475  0.4465
 6729SOL    HW231824   3.810   4.517  14.538 -1.2364  1.0203  1.6552
 6730SOL     OW31825   3.362   3.203   7.476  0.7521 -0.7219 -0.0506
 6730SOL    HW131826   3.355   3.125   7.530  0.3706  0.0132  0.9778
 6730SOL    HW231827   3.445   3.230   7.516  1.4074 -2.3022 -0.3456
 6731SOL     OW31828   3.732   4.158   9.395 -0.5676  0.3501  0.1981
 6731SOL    HW131829   3.657   4.186   9.447 -0.3581  1.4567 -0.0991
 6731SOL    HW231830   3.754   4.090   9.459 -0.5146  0.0486 -0.1414
 6732SOL     OW31831   3.633   3.670   6.637  0.7158 -0.0829 -0.1349
 6732SOL    HW131832   3.607   3.591   6.684  3.6133  0.5030  2.3982
 6732SOL    HW231833   3.681   3.621   6.570 -0.2934 -0.4389 -0.6012
 6733SOL     OW31834   2.809   0.388   2.603  0.5293 -0.4414 -0.4909
 6733SOL    HW131835   2.835   0.424   2.518  2.1490 -1.6099 -0.4629
 6733SOL    HW231836   2.737   0.449   2.624  2.2230  0.7701  1.7263
 6734SOL     OW31837   4.119   3.515   6.899  0.0400  0.7266 -0.6561
 6734SOL    HW131838   4.210   3.494   6.879 -0.0498 -1.2721  1.0445
 6734SOL    HW231839   4.091   3.426   6.919 -0.7551  1.2818  0.6953
 6735SOL     OW31840   1.714   4.714   0.111  0.9360  0.6257  0.0486
 6735SOL    HW131841   1.707   0.016   0.197 -1.0093 -0.9130  0.6303
 6735SOL    HW231842   1.804   4.682   0.117  0.6513 -0.7700 -2.8661
 6736SOL     OW31843   3.989   0.149  10.049  0.2494 -0.4961  0.2026
 6736SOL    HW131844   4.032   0.229  10.018 -0.6336 -0.4389 -0.8674
 6736SOL    HW231845   4.060   0.128  10.110  0.6547 -0.8437 -0.3953
 6737SOL     OW31846   2.475   4.692   6.879 -0.2106 -0.0617  0.0604
 6737SOL    HW131847   2.423   4.615   6.854  1.2233 -1.2128  0.6371
 6737SOL    HW231848   2.405   0.018   6.883 -0.3110 -0.2618  1.5858
 6738SOL     OW31849   0.343   4.146  15.520  0.1887  0.0013 -0.7063
 6738SOL    HW131850   0.331   4.168  15.427  0.6595 -2.8165 -1.4490
 6738SOL    HW231851   0.258   4.177  15.551 -0.4485  0.3712 -2.8336
 6739SOL     OW31852   3.042   0.142   9.053 -0.0735  0.2902  0.1659
 6739SOL    HW131853   3.055   0.056   9.092  0.0117 -0.2741 -1.1257
 6739SOL    HW231854   3.107   0.120   8.987  0.3339 -1.6286  1.2089
 6740SOL     OW31855   1.295   0.085   2.235  0.2452  0.0066  0.5147
 6740SOL    HW131856   1.256   0.156   2.183 -0.9043 -0.6749  0.4332
 6740SOL    HW231857   1.356   0.133   2.291  1.1560  0.2407 -0.6726
 6741SOL     OW31858   3.614   2.371   4.123  0.1067  0.0514  0.5887
 6741SOL    HW131859   3.695   2.421   4.137  0.1838 -0.1417  0.8311
 6741SOL    HW231860   3.650   2.312   4.057  0.6038 -0.1207  1.0172
 6742SOL     OW31861   4.190   4.129   2.768  0.1163  0.4039 -0.5529
 6742SOL    HW131862   4.257   4.195   2.786  0.5016  0.0472 -0.6694
 6742SOL    HW231863   4.238   4.072   2.708  0.6305  2.1897 -1.8318
 6743SOL     OW31864   0.913   3.192   3.180 -0.1575 -0.2790  0.1767
 6743SOL    HW131865   0.874   3.188   3.268 -1.5798  2.6112 -0.3104
 6743SOL    HW231866   1.007   3.202   3.197 -0.5706  2.3704  0.9986
 6744SOL     OW31867   1.044   1.752   4.136 -0.8667 -0.0388 -0.2412
 6744SOL    HW131868   0.994   1.825   4.100  0.6053  1.3549  0.4934
 6744SOL    HW231869   1.110   1.749   4.066 -2.3140 -0.7996 -1.5689
 6745SOL     OW31870   2.834   0.102   7.845  0.0588 -0.1839  0.1492
 6745SOL    HW131871   2.829   0.187   7.889 -5.9992 -1.5423  2.1246
 6745SOL    HW231872   2.923   0.077   7.869  0.5057  1.6104  0.3584
 6746SOL     OW31873   0.320   3.658   9.004 -0.4166  0.0443  0.2643
 6746SOL    HW131874   0.395   3.711   8.978 -0.6393 -1.1957 -2.9628
 6746SOL    HW231875   0.314   3.595   8.931 -4.5059  0.6821  0.0378
 6747SOL     OW31876   1.947   2.942   2.078 -0.0526 -0.1251 -0.1057
 6747SOL    HW131877   1.942   3.038   2.072  1.7925  0.0096  0.5443
 6747SOL    HW231878   2.034   2.933   2.115 -0.4993 -0.2091  0.9327
 6748SOL     OW31879   1.545   2.669   3.612 -0.2938  0.2706 -0.0930
 6748SOL    HW131880   1.582   2.755   3.593  2.2788 -0.4161  1.6778
 6748SOL    HW231881   1.590   2.664   3.696 -3.9278 -0.0093  1.8477
 6749SOL     OW31882   2.504   0.748  17.568 -0.5228 -0.4312  0.0721
 6749SOL    HW131883   2.580   0.782  17.522 -0.8331 -1.6211 -1.3038
 6749SOL    HW231884   2.476   0.685  17.503 -1.2627 -0.6557  0.6155
 6750SOL     OW31885   4.124   2.713   8.452 -0.2158  0.6016  0.2927
 6750SOL    HW131886   4.052   2.692   8.512  0.7263 -0.0190  1.2011
 6750SOL    HW231887   4.198   2.731   8.510  0.3770  1.3910 -0.7341
 6751SOL     OW31888   0.107   3.674   6.836 -0.3724  0.1508  0.4039
 6751SOL    HW131889   0.079   3.729   6.762  0.3937 -0.7046 -0.5204
 6751SOL    HW231890   0.045   3.706   6.902 -2.3353  0.6450 -1.6573
 6752SOL     OW31891   3.849   0.116   3.950 -0.6188  0.4834 -0.3145
 6752SOL    HW131892   3.815   0.048   4.008  0.5297 -1.0727 -1.4370
 6752SOL    HW231893   3.792   0.187   3.980 -0.7160  1.0956 -1.9530
 6753SOL     OW31894   2.629   2.051   4.115  0.1878  0.1685  0.1805
 6753SOL    HW131895   2.589   1.964   4.118 -2.1969  1.2741  0.1400
 6753SOL    HW231896   2.602   2.086   4.030 -0.6497 -1.9372 -0.4367
 6754SOL     OW31897   2.938   3.517   6.328  0.4786  0.4119  0.6679
 6754SOL    HW131898   3.023   3.492   6.364  1.0714 -0.9852 -1.7100
 6754SOL    HW231899   2.954   3.556   6.242  1.2406 -1.9402 -0.2457
 6755SOL     OW31900   3.352   3.733  13.019  0.1007 -0.2132 -0.0361
 6755SOL    HW131901   3.265   3.744  12.983  0.1523  1.8843  0.4954
 6755SOL    HW231902   3.322   3.696  13.102  3.4439 -1.1579  0.7514
 6756SOL     OW31903   3.397   4.090   7.215  0.0802 -0.0662  0.1054
 6756SOL    HW131904   3.416   4.115   7.306  0.2283  1.2227 -0.2871
 6756SOL    HW231905   3.386   3.997   7.233 -0.4495 -0.2746 -1.3418
 6757SOL     OW31906   0.318   4.048   1.608  0.0415  0.5794 -0.0070
 6757SOL    HW131907   0.321   4.090   1.694 -0.5268  0.9886 -0.1890
 6757SOL    HW231908   0.223   4.056   1.602 -0.0842 -0.3983  0.6297
 6758SOL     OW31909   2.489   0.412   6.826 -0.6784  0.0895 -0.8823
 6758SOL    HW131910   2.574   0.378   6.853 -1.0072  1.1890  1.5338
 6758SOL    HW231911   2.421   0.372   6.880  2.1638  1.3422  3.6190
 6759SOL     OW31912   4.488   1.989   3.866 -0.2618 -0.3991 -0.1009
 6759SOL    HW131913   4.546   1.915   3.850  1.0403  0.9497 -1.5218
 6759SOL    HW231914   4.475   2.020   3.776  1.0083  1.8817  0.5197
 6760SOL     OW31915   2.614   1.577   6.775 -0.3818 -0.2409 -0.0268
 6760SOL    HW131916   2.602   1.573   6.681 -2.5930  0.9227  0.2232
 6760SOL    HW231917   2.523   1.561   6.799  0.1152 -2.8181  0.1890
 6761SOL     OW31918   2.497   1.331  17.271  0.5023  0.2456  0.1795
 6761SOL    HW131919   2.433   1.344  17.201 -0.7914  0.1905  1.3388
 6761SOL    HW231920   2.439   1.346  17.346 -0.2767  2.6157 -0.8793
 6762SOL     OW31921   2.291   1.081   2.077 -0.5790 -0.1810 -0.3648
 6762SOL    HW131922   2.357   1.018   2.108  0.7939  0.4079 -2.0632
 6762SOL    HW231923   2.314   1.087   1.984 -2.4108 -0.3203 -0.8194
 6763SOL     OW31924   3.046   3.395   8.441 -0.2441  0.0811 -0.4725
 6763SOL    HW131925   3.074   3.310   8.474 -3.5987 -0.8923 -0.1510
 6763SOL    HW231926   2.999   3.374   8.360  0.7172 -0.1188 -0.9776
 6764SOL     OW31927   2.449   3.426  10.099 -0.6407  0.0852  0.0417
 6764SOL    HW131928   2.532   3.391  10.067 -0.1169 -0.1382  1.6506
 6764SOL    HW231929   2.389   3.353  10.088 -0.2671 -0.0856 -0.8112
 6765SOL     OW31930   4.194   3.572   4.568 -0.4866 -0.5179 -0.2506
 6765SOL    HW131931   4.127   3.537   4.509 -1.0094  0.7988 -0.4611
 6765SOL    HW231932   4.268   3.581   4.508 -0.8655 -1.0846 -0.8061
 6766SOL     OW31933   2.718   4.722   7.003 -0.1626 -0.9227 -0.5600
 6766SOL    HW131934   2.649   0.004   6.940  0.7211 -1.4581 -1.7247
 6766SOL    HW231935   2.663   4.703   7.079  1.2561 -1.7467  0.2641
 6767SOL     OW31936   1.670   1.563   1.846  0.4057 -0.0234  0.4473
 6767SOL    HW131937   1.683   1.563   1.941  0.9965 -0.5133  0.3702
 6767SOL    HW231938   1.591   1.512   1.827  0.4040  0.0393  0.2936
 6768SOL     OW31939   3.259   1.972   3.840  0.0997 -0.2647  0.0861
 6768SOL    HW131940   3.200   1.897   3.849 -1.5448  0.9828 -0.2905
 6768SOL    HW231941   3.339   1.926   3.813 -1.2228 -2.9431  0.7116
 6769SOL     OW31942   4.030   1.034   2.766 -0.3721 -0.1272 -0.5362
 6769SOL    HW131943   3.971   1.020   2.840 -1.3653 -0.7240 -1.4407
 6769SOL    HW231944   4.057   1.123   2.786 -2.1387  0.3033 -0.0578
 6770SOL     OW31945   0.434   2.374  12.845 -0.1091  0.7165 -0.7316
 6770SOL    HW131946   0.472   2.394  12.930 -3.7162  2.5784  0.4224
 6770SOL    HW231947   0.353   2.425  12.851  0.9387  2.5439 -1.8248
 6771SOL     OW31948   2.454   1.126  11.924 -0.2205 -0.2430 -0.0344
 6771SOL    HW131949   2.440   1.035  11.899 -0.0974 -0.3927  0.4365
 6771SOL    HW231950   2.443   1.117  12.019 -2.4518  1.6917 -0.1164
 6772SOL     OW31951   3.595   3.353   4.515  0.5366  0.0503  0.0854
 6772SOL    HW131952   3.655   3.307   4.574  2.0330  2.5943  0.5292
 6772SOL    HW231953   3.594   3.294   4.439  1.4056  0.4980 -0.2787
 6773SOL     OW31954   4.596   4.347   7.769  0.1591 -0.1290 -0.2683
 6773SOL    HW131955   4.574   4.268   7.719  0.2369  0.8836 -1.9017
 6773SOL    HW231956   4.662   4.375   7.706  0.7408  0.6167  0.6778
 6774SOL     OW31957   0.938   1.570   4.724 -0.0934  0.1690  0.3131
 6774SOL    HW131958   0.944   1.550   4.631 -0.9476  0.3831  0.2039
 6774SOL    HW231959   0.946   1.486   4.769  1.4487  0.3023  0.2629
 6775SOL     OW31960   3.161   3.882   6.568  0.1490  0.2063  0.6517
 6775SOL    HW131961   3.232   3.921   6.517 -1.5112  0.5964 -1.3859
 6775SOL    HW231962   3.083   3.887   6.513 -0.3382  1.0885  1.4411
 6776SOL     OW31963   3.832   4.133   4.891  0.0956  0.1620 -0.2920
 6776SOL    HW131964   3.832   4.076   4.814  2.9791  0.1075 -0.2284
 6776SOL    HW231965   3.822   4.220   4.853  3.0252  0.5600 -0.1213
 6777SOL     OW31966   2.743   4.243   6.690 -0.0811 -0.1353 -0.6277
 6777SOL    HW131967   2.742   4.204   6.778 -1.9170  1.5614  0.1169
 6777SOL    HW231968   2.768   4.334   6.705 -2.7460  0.1611  2.0458
 6778SOL     OW31969   2.959   2.916   3.827 -0.2987  0.1252  0.0176
 6778SOL    HW131970   2.963   2.843   3.765 -0.5073 -1.0976  1.4520
 6778SOL    HW231971   3.022   2.979   3.791  0.7215 -1.1130 -0.3475
 6779SOL     OW31972   4.659   1.672   5.978  0.4920  0.2956  0.2826
 6779SOL    HW131973   4.582   1.726   5.961  0.0479  0.9556  4.3860
 6779SOL    HW231974   4.670   1.676   6.073 -2.2528  2.6599  0.4883
 6780SOL     OW31975   4.325   4.167   4.786  0.1398  0.4058 -0.0280
 6780SOL    HW131976   4.362   4.246   4.824  0.7823  0.7121 -1.3060
 6780SOL    HW231977   4.245   4.160   4.839 -0.3275  2.0553 -0.5386
 6781SOL     OW31978   3.333   1.610  17.131  0.5586 -0.4236  0.3086
 6781SOL    HW131979   3.251   1.649  17.160  0.6869  0.3413 -0.3618
 6781SOL    HW231980   3.346   1.646  17.043  2.4650  2.0569  1.6009
 6782SOL     OW31981   1.585   0.402   2.699 -0.0846  0.4674 -0.1196
 6782SOL    HW131982   1.660   0.449   2.735 -1.4948  1.1669  1.9028
 6782SOL    HW231983   1.621   0.387   2.611 -1.6924  0.2556 -0.7460
 6783SOL     OW31984   1.775   0.541  14.249  0.0852 -0.1144 -0.0378
 6783SOL    HW131985   1.785   0.583  14.334 -0.6012  2.1244 -1.0367
 6783SOL    HW231986   1.734   0.459  14.277  1.2518 -0.4329  0.7086
 6784SOL     OW31987   1.053   1.567   2.766  0.8671 -0.7743  0.1836
 6784SOL    HW131988   0.974   1.608   2.730  1.1696  0.7904  1.2671
 6784SOL    HW231989   1.109   1.645   2.774 -0.4953  0.2078  0.0493
 6785SOL     OW31990   3.972   0.429   7.859 -0.2460  0.7919 -0.5426
 6785SOL    HW131991   3.957   0.486   7.783 -1.0364  1.8672  0.4396
 6785SOL    HW231992   4.061   0.452   7.886  0.5757 -1.3258 -1.4163
 6786SOL     OW31993   3.020   0.179   4.649  0.0826 -0.3442 -0.2984
 6786SOL    HW131994   3.076   0.257   4.647  2.7794 -2.2118  1.5193
 6786SOL    HW231995   2.937   0.210   4.613 -0.0851  1.7363  1.8392
 6787SOL     OW31996   2.846   3.880  12.336 -0.0946  0.7949 -0.3607
 6787SOL    HW131997   2.864   3.815  12.268 -1.5095  0.5242 -0.4938
 6787SOL    HW231998   2.867   3.838  12.419  2.6392  1.4217 -0.7436
 6788SOL     OW31999   0.276   0.825   2.849  0.0333 -0.4113  0.3074
 6788SOL    HW132000   0.293   0.838   2.756  0.8995 -0.0248  0.5223
 6788SOL    HW232001   0.249   0.733   2.858 -0.7268 -0.3705 -1.5451
 6789SOL     OW32002   0.303   0.185   1.063  0.4975 -0.1507 -0.2845
 6789SOL    HW132003   0.379   0.203   1.007  1.4494 -2.2706  0.3094
 6789SOL    HW232004   0.337   0.112   1.115 -0.3657  0.0810  0.5966
 6790SOL     OW32005   1.043   1.000  14.042  0.0039  0.0668  0.1149
 6790SOL    HW132006   1.054   1.089  14.009  0.4046  0.0779  0.2787
 6790SOL    HW232007   0.947   0.999  14.040  0.0075 -0.5373  0.2227
 6791SOL     OW32008   4.169   0.344   6.502 -0.8331  0.3398  0.6379
 6791SOL    HW132009   4.129   0.394   6.573 -0.5946 -0.2848  1.2043
 6791SOL    HW232010   4.179   0.257   6.539 -1.1986  0.9333  2.1219
 6792SOL     OW32011   1.927   1.810   4.029 -0.3799  0.7473 -0.6192
 6792SOL    HW132012   2.000   1.762   4.069  0.4667  1.8920 -0.7810
 6792SOL    HW232013   1.852   1.770   4.073  0.8846 -0.8250  0.1295
 6793SOL     OW32014   1.695   1.628   8.045 -0.1587  0.2090  0.1650
 6793SOL    HW132015   1.717   1.576   8.121 -2.4906  0.3429  0.9152
 6793SOL    HW232016   1.714   1.570   7.971  0.9226 -0.2437  0.8061
 6794SOL     OW32017   1.747   3.102  15.903  0.2041  0.0849  0.6082
 6794SOL    HW132018   1.781   3.043  15.970  1.6686 -1.8293 -1.8227
 6794SOL    HW232019   1.750   3.187  15.947 -1.4887  1.1366 -1.3184
 6795SOL     OW32020   2.581   1.462  11.662  0.0248  0.1588 -0.1790
 6795SOL    HW132021   2.493   1.457  11.700  2.1076  1.1864  4.7543
 6795SOL    HW232022   2.600   1.368  11.658  0.7961  0.2467  1.2281
 6796SOL     OW32023   1.863   1.597   4.964  0.6427  0.1148  0.1666
 6796SOL    HW132024   1.957   1.613   4.979  1.4805 -4.3188 -0.4790
 6796SOL    HW232025   1.857   1.511   5.004 -0.6327 -0.6456 -1.6960
 6797SOL     OW32026   4.018   3.234   7.265 -0.1628 -0.3494 -0.1025
 6797SOL    HW132027   3.966   3.310   7.238 -1.4226 -0.3262  2.3634
 6797SOL    HW232028   3.970   3.157   7.235  2.1634 -1.6638 -0.4580
 6798SOL     OW32029   2.850   0.685   7.237  0.1189 -0.0593 -0.3076
 6798SOL    HW132030   2.836   0.594   7.209  0.0853 -0.0593 -0.2900
 6798SOL    HW232031   2.759   0.700   7.260  0.1796 -1.0749  0.5985
 6799SOL     OW32032   4.669   2.909  13.149 -0.2146 -0.1486  0.4879
 6799SOL    HW132033   4.650   2.983  13.092 -4.5405  0.6299  2.9194
 6799SOL    HW232034   4.600   2.909  13.216  0.2298  0.3134  0.9420
 6800SOL     OW32035   4.587   0.584  15.851  0.1172  0.1230  0.4468
 6800SOL    HW132036   4.633   0.510  15.892 -0.7389  0.0017  1.1923
 6800SOL    HW232037   4.526   0.605  15.922 -0.0943 -1.0462  0.6031
 6801SOL     OW32038   2.834   3.947   4.691 -0.0795  0.2496 -0.5966
 6801SOL    HW132039   2.893   4.008   4.646 -0.3528  1.6445  0.9320
 6801SOL    HW232040   2.750   3.992   4.676 -0.8235  0.3423  3.8134
 6802SOL     OW32041   4.003   3.494  12.443 -0.1803 -1.2050  0.2900
 6802SOL    HW132042   3.951   3.449  12.377 -0.2244  0.3282 -0.7175
 6802SOL    HW232043   3.951   3.477  12.522  0.0642 -1.2020  0.4527
 6803SOL     OW32044   2.552   3.474   9.450  0.7333  0.0143  0.0628
 6803SOL    HW132045   2.493   3.546   9.473  0.0006 -0.0577 -1.6237
 6803SOL    HW232046   2.559   3.431   9.535  0.3050 -0.4499 -0.1401
 6804SOL     OW32047   2.507   1.782   6.473  0.2098 -0.5876 -0.7407
 6804SOL    HW132048   2.429   1.798   6.526  1.6037  0.1547  1.0627
 6804SOL    HW232049   2.483   1.717   6.407  0.7631 -1.3843 -0.1566
 6805SOL     OW32050   2.272   1.703   3.309 -0.0187  0.6761 -0.0906
 6805SOL    HW132051   2.360   1.697   3.345  0.3023 -3.7376 -1.6749
 6805SOL    HW232052   2.230   1.628   3.350  0.9673  0.1202 -0.1044
 6806SOL     OW32053   3.294   1.870   2.646 -0.1343  0.0779  0.6047
 6806SOL    HW132054   3.263   1.938   2.706 -2.0170 -1.0650  0.9310
 6806SOL    HW232055   3.382   1.856   2.680  1.4350  2.2354 -2.6446
 6807SOL     OW32056   0.566   3.170   2.819  0.1510 -0.3352  0.2779
 6807SOL    HW132057   0.642   3.204   2.866 -0.9621  0.8482  1.2190
 6807SOL    HW232058   0.513   3.124   2.884  1.0027  1.0686  1.9593
 6808SOL     OW32059   1.605   1.087   6.241  0.3929 -0.1270 -0.1592
 6808SOL    HW132060   1.556   1.006   6.255  1.6632 -0.5553  1.8924
 6808SOL    HW232061   1.642   1.106   6.327  1.2604  0.4039 -0.6412
 6809SOL     OW32062   2.553   1.982   2.858  0.1188  0.4631 -0.1619
 6809SOL    HW132063   2.545   2.055   2.797 -3.0666  0.1010 -0.1614
 6809SOL    HW232064   2.497   2.009   2.931  0.2347 -1.1403  0.5336
 6810SOL     OW32065   3.570   3.685   7.076 -0.0199 -0.2369  0.0254
 6810SOL    HW132066   3.575   3.617   7.143  0.0491  0.1743  0.4399
 6810SOL    HW232067   3.558   3.765   7.127 -1.4920 -0.3886 -0.0978
 6811SOL     OW32068   0.201   1.034   1.948 -0.1016 -0.7052  0.1154
 6811SOL    HW132069   0.162   0.992   2.025 -3.1029 -2.1636 -2.2013
 6811SOL    HW232070   0.157   0.986   1.878 -0.5392 -0.2489  0.0740
 6812SOL     OW32071   3.933   2.418  12.007  0.2564 -0.8173 -0.3583
 6812SOL    HW132072   3.997   2.444  12.073 -0.8750 -0.8180  0.7507
 6812SOL    HW232073   3.913   2.325  12.020  0.2074 -0.4769  2.0074
 6813SOL     OW32074   4.432   0.339   8.115 -0.1719  0.5724 -0.2285
 6813SOL    HW132075   4.431   0.244   8.101  0.4000  0.4623  0.4942
 6813SOL    HW232076   4.525   0.358   8.111 -0.0159  0.4519  2.7293
 6814SOL     OW32077   1.494   1.821   8.527  0.6778  0.2693  0.0469
 6814SOL    HW132078   1.537   1.901   8.557 -1.1721  1.3614 -0.2158
 6814SOL    HW232079   1.557   1.752   8.545  1.3517  0.5377 -1.2858
 6815SOL     OW32080   2.837   2.462   8.473 -0.0055 -0.0366 -0.3015
 6815SOL    HW132081   2.907   2.431   8.415 -0.8710 -2.1193 -0.2257
 6815SOL    HW232082   2.810   2.370   8.480 -0.1412  0.3653  4.5713
 6816SOL     OW32083   1.183   0.572  16.040 -0.0323 -0.1212 -0.3833
 6816SOL    HW132084   1.260   0.518  16.054  0.1894  0.0147 -1.0599
 6816SOL    HW232085   1.116   0.519  16.084 -0.2747  0.3632 -0.1731
 6817SOL     OW32086   3.733   0.710  10.166  0.3958 -0.3223 -0.3790
 6817SOL    HW132087   3.816   0.750  10.193  1.2769 -1.4900 -1.3476
 6817SOL    HW232088   3.680   0.709  10.246  2.4755 -0.6016  1.0051
 6818SOL     OW32089   0.122   1.697   6.523  0.3889  0.5869 -0.0083
 6818SOL    HW132090   0.160   1.695   6.610 -1.7112 -0.2658  0.8878
 6818SOL    HW232091   0.052   1.760   6.537 -0.3952 -0.1971 -0.3379
 6819SOL     OW32092   1.736   3.364  13.657 -0.2897  0.5625  0.1184
 6819SOL    HW132093   1.699   3.277  13.671 -1.6846  1.1984  0.3833
 6819SOL    HW232094   1.674   3.404  13.596  1.4277  0.8731 -1.4486
 6820SOL     OW32095   2.448   0.141   0.061  0.0945 -0.3950  0.1559
 6820SOL    HW132096   2.537   0.110   0.078  1.0063  2.2680  0.1475
 6820SOL    HW232097   2.456   0.169  17.724  1.3291  1.2503  0.7734
 6821SOL     OW32098   0.904   1.625   6.761  0.4237 -0.3754 -0.2976
 6821SOL    HW132099   0.984   1.572   6.770  1.0892  0.6854  0.0421
 6821SOL    HW232100   0.896   1.648   6.668  1.1965 -0.2687 -0.3431
 6822SOL     OW32101   0.573   1.286   1.954 -0.2350 -0.3851  0.3450
 6822SOL    HW132102   0.571   1.206   2.006  0.4157 -0.5218  0.1619
 6822SOL    HW232103   0.492   1.295   1.904 -0.2164  1.0911  0.5597
 6823SOL     OW32104   2.846   2.461   2.385 -0.2997 -0.7165 -0.2760
 6823SOL    HW132105   2.756   2.489   2.405  0.3794  0.6821  0.9102
 6823SOL    HW232106   2.880   2.539   2.342  0.6861 -0.9095  0.1597
 6824SOL     OW32107   2.798   0.394   4.216  0.8110 -0.6277 -0.4991
 6824SOL    HW132108   2.790   0.461   4.284  0.2968 -1.6701  0.4762
 6824SOL    HW232109   2.878   0.358   4.253  1.5464  0.8468 -0.6580
 6825SOL     OW32110   1.133   2.956   1.350  0.1762 -0.1802  0.3908
 6825SOL    HW132111   1.082   2.876   1.362 -1.8981  1.2331  0.9077
 6825SOL    HW232112   1.144   2.965   1.445  0.4391  0.1942  0.3259
 6826SOL     OW32113   3.052   0.458   8.079 -0.2177 -0.2873  0.2904
 6826SOL    HW132114   3.059   0.546   8.116  0.7501 -0.4327  0.4480
 6826SOL    HW232115   3.144   0.434   8.085 -0.0029 -0.6893 -4.2113
 6827SOL     OW32116   0.245   3.630   3.024 -0.0935 -0.1061  0.0872
 6827SOL    HW132117   0.223   3.595   2.938  1.7229 -1.8655  0.3534
 6827SOL    HW232118   0.167   3.592   3.065 -0.5491  1.2705  0.5056
 6828SOL     OW32119   4.663   0.034   4.134  0.4981 -0.3745 -0.2409
 6828SOL    HW132120   4.689   4.719   4.209  1.4992 -0.8990 -0.9561
 6828SOL    HW232121   4.689   4.721   4.058  1.2248 -1.1366  0.5227
 6829SOL     OW32122   3.656   1.848  16.567 -0.6251  0.3503 -0.1298
 6829SOL    HW132123   3.707   1.872  16.645 -0.4782 -0.2908 -0.0290
 6829SOL    HW232124   3.695   1.903  16.499  0.5912 -2.9216 -2.0771
 6830SOL     OW32125   0.051   4.433   7.578  0.4042 -0.4503  0.2218
 6830SOL    HW132126   0.134   4.411   7.535  0.8043  1.3871  0.0579
 6830SOL    HW232127   0.084   4.512   7.621 -1.4836  0.4672 -0.0305
 6831SOL     OW32128   0.701   1.659   9.219 -0.3370 -0.4282  0.2829
 6831SOL    HW132129   0.742   1.728   9.272 -0.4880 -0.6205  0.6499
 6831SOL    HW232130   0.772   1.596   9.213  1.2960  1.1787  2.4703
 6832SOL     OW32131   2.885   3.736   9.530 -0.2799 -0.1897  0.4941
 6832SOL    HW132132   2.971   3.745   9.489 -0.2423 -0.3562  0.5341
 6832SOL    HW232133   2.888   3.640   9.534  1.5093 -0.0624  2.0999
 6833SOL     OW32134   3.692   0.664   4.833  0.3539  0.1090  0.2184
 6833SOL    HW132135   3.680   0.711   4.915  0.7115  1.2114 -0.3584
 6833SOL    HW232136   3.654   0.579   4.854  0.6428  0.1176  0.7670
 6834SOL     OW32137   0.603   1.660  17.602 -0.2218  0.2304  0.6300
 6834SOL    HW132138   0.588   1.566  17.592  2.3098 -0.2485  1.1939
 6834SOL    HW232139   0.683   1.673  17.551 -1.0249 -0.2353 -0.7165
 6835SOL     OW32140   0.002   3.032  11.699  0.6576 -0.1688  0.2696
 6835SOL    HW132141   0.076   3.062  11.646 -0.7802  5.0893  1.1465
 6835SOL    HW232142   0.023   3.062  11.787 -2.7674 -1.5077  1.5447
 6836SOL     OW32143   1.106   2.946   3.948  0.2169 -0.7963  0.4530
 6836SOL    HW132144   1.057   2.870   3.980  2.7451 -2.2787  0.8084
 6836SOL    HW232145   1.051   3.019   3.975 -1.8678 -2.5384  0.9153
 6837SOL     OW32146   3.520   3.800  10.424  0.5778 -0.6237 -0.4633
 6837SOL    HW132147   3.575   3.862  10.376 -0.2836 -0.7763 -1.6595
 6837SOL    HW232148   3.580   3.726  10.430 -0.4596 -1.3420  0.9984
 6838SOL     OW32149   0.444   3.362  11.375  0.5438 -0.0886 -0.0063
 6838SOL    HW132150   0.478   3.434  11.322  0.3746 -0.4883 -0.6555
 6838SOL    HW232151   0.444   3.404  11.461 -0.1921  0.7949 -0.4306
 6839SOL     OW32152   2.601   0.684  10.597  0.4827 -0.7829 -0.2117
 6839SOL    HW132153   2.550   0.765  10.595  2.8751  0.7520 -0.0767
 6839SOL    HW232154   2.557   0.652  10.676  1.4676 -2.1303 -0.2026
 6840SOL     OW32155   1.484   1.367   6.417  0.4012 -0.4421  0.7116
 6840SOL    HW132156   1.459   1.282   6.381  0.4931 -1.1009  2.2058
 6840SOL    HW232157   1.484   1.350   6.511  1.2085  0.8308  0.9475
 6841SOL     OW32158   0.793   2.281   8.111  0.2215  0.0300  0.6326
 6841SOL    HW132159   0.864   2.279   8.174  0.6867  0.7230  0.1216
 6841SOL    HW232160   0.744   2.204   8.142  0.3306 -0.6972 -0.9691
 6842SOL     OW32161   3.193   0.500   7.301 -0.3894  0.3238  0.1184
 6842SOL    HW132162   3.201   0.487   7.395 -0.2692  0.0435  0.0708
 6842SOL    HW232163   3.113   0.450   7.282 -0.1234 -0.2915  0.6260
 6843SOL     OW32164   4.187   0.761   1.969  0.0911 -0.1235 -0.2732
 6843SOL    HW132165   4.119   0.813   1.925  0.7001  2.0515  1.3528
 6843SOL    HW232166   4.134   0.730   2.042 -0.0724  0.1779 -0.2628
 6844SOL     OW32167   4.018   3.737   4.399 -0.2495  0.1150  0.3792
 6844SOL    HW132168   4.077   3.785   4.457 -1.4139  1.9106  0.1002
 6844SOL    HW232169   3.972   3.687   4.467  1.6069 -1.3295  0.5381
 6845SOL     OW32170   1.861   2.611   1.011  0.1422  0.5887 -0.5467
 6845SOL    HW132171   1.769   2.633   0.997  0.8581  3.5111 -0.6581
 6845SOL    HW232172   1.887   2.624   0.919  2.0907  1.8159  0.1845
 6846SOL     OW32173   3.109   4.097  11.475 -0.3472  0.1339 -0.1873
 6846SOL    HW132174   3.063   4.104  11.391  1.1830  1.5879 -0.9018
 6846SOL    HW232175   3.034   4.084  11.533 -1.9099  1.9648 -1.7798
 6847SOL     OW32176   4.090   2.773   5.655 -0.3199 -0.3388  0.0040
 6847SOL    HW132177   4.070   2.745   5.744  2.8575 -0.9890  0.5221
 6847SOL    HW232178   4.076   2.690   5.609  1.6551 -0.4341 -0.4014
 6848SOL     OW32179   1.689   1.296   8.350  0.3431  0.4963  0.0520
 6848SOL    HW132180   1.725   1.216   8.389  0.8822  0.1322 -1.2059
 6848SOL    HW232181   1.618   1.310   8.412  0.6525 -0.5242  0.6387
 6849SOL     OW32182   4.361   2.161   6.497 -0.1376  0.2331 -0.0068
 6849SOL    HW132183   4.321   2.074   6.487 -0.5098  0.3667  0.3280
 6849SOL    HW232184   4.282   2.212   6.516 -0.1686 -0.5762  2.0498
 6850SOL     OW32185   1.375   3.456   2.337 -0.2027 -0.1585 -0.2069
 6850SOL    HW132186   1.365   3.447   2.432  1.8176 -1.3278 -0.0914
 6850SOL    HW232187   1.445   3.521   2.329 -0.4573  0.2365  0.7865
 6851SOL     OW32188   0.181   2.331  10.522 -0.0182  0.2779  0.1437
 6851SOL    HW132189   0.133   2.252  10.547  0.1142  1.3635  3.8589
 6851SOL    HW232190   0.235   2.338  10.601 -1.6014  0.1230  1.2253
 6852SOL     OW32191   2.147   4.704   2.023  0.3274 -0.3389  0.0316
 6852SOL    HW132192   2.168   0.025   2.095  0.6012 -0.4614  0.0532
 6852SOL    HW232193   2.221   4.643   2.024  0.5458 -0.0921 -1.0247
 6853SOL     OW32194   4.320   4.339   6.755 -0.5567  0.1454 -0.4593
 6853SOL    HW132195   4.303   4.432   6.770 -3.1396 -0.1400 -1.5820
 6853SOL    HW232196   4.240   4.301   6.792  1.1199 -1.1921  1.7690
 6854SOL     OW32197   2.443   0.309  11.998 -0.1634 -0.1486 -0.0068
 6854SOL    HW132198   2.372   0.313  11.934  0.4412 -3.8489 -0.9446
 6854SOL    HW232199   2.422   0.382  12.056  2.3289  0.4113  0.1639
 6855SOL     OW32200   2.682   0.610  10.961  0.1503 -0.3448  0.2419
 6855SOL    HW132201   2.588   0.629  10.955 -0.4049 -3.8298 -1.6822
 6855SOL    HW232202   2.681   0.562  10.879  1.0608  0.3068 -0.1610
 6856SOL     OW32203   1.718   0.267   5.001  1.0215 -0.2394 -0.2688
 6856SOL    HW132204   1.813   0.262   5.012  1.1896  0.8019 -1.1793
 6856SOL    HW232205   1.685   0.262   5.091 -3.2984  1.5607 -1.7702
 6857SOL     OW32206   3.716   1.410  10.817 -0.4995 -0.0020 -0.1200
 6857SOL    HW132207   3.667   1.340  10.860  0.3059  0.4517  1.5598
 6857SOL    HW232208   3.653   1.480  10.799 -0.1988  0.2798 -0.0749
 6858SOL     OW32209   2.156   1.399   0.577  0.1846  0.5829 -0.1410
 6858SOL    HW132210   2.157   1.314   0.620  2.4022  0.0037 -1.3502
 6858SOL    HW232211   2.069   1.429   0.605 -0.5269  0.5046 -2.1972
 6859SOL     OW32212   0.816   0.021   0.657 -0.5057  0.1058  0.3888
 6859SOL    HW132213   0.798   0.103   0.612  2.1862  0.5908  0.2180
 6859SOL    HW232214   0.901   0.001   0.618 -0.0821  1.0028  0.8690
 6860SOL     OW32215   2.868   1.752   9.117 -0.7048  0.4687  0.1375
 6860SOL    HW132216   2.873   1.710   9.203  1.7253 -0.7087 -0.5838
 6860SOL    HW232217   2.784   1.710   9.095 -0.8953  0.4594  0.8895
 6861SOL     OW32218   1.306   0.970   6.572  0.2287 -0.0575  0.3688
 6861SOL    HW132219   1.349   0.905   6.518  0.6856 -1.3271  2.2722
 6861SOL    HW232220   1.310   0.926   6.657 -0.1506  1.0413  0.9677
 6862SOL     OW32221   0.912   2.277   3.187  0.3894 -0.0217 -0.6153
 6862SOL    HW132222   0.898   2.206   3.125 -0.5057  1.0575 -1.6466
 6862SOL    HW232223   0.985   2.321   3.144  0.9276  0.7496  1.0807
 6863SOL     OW32224   2.310   1.930   4.037  0.3805 -0.1245  0.4268
 6863SOL    HW132225   2.268   1.852   4.073 -0.9342 -0.3555 -1.5806
 6863SOL    HW232226   2.280   2.000   4.095  0.4726  0.5997 -0.3891
 6864SOL     OW32227   0.629   1.434   7.939 -0.2263 -0.1894 -0.3302
 6864SOL    HW132228   0.575   1.500   7.894  0.1698  1.5152  1.6888
 6864SOL    HW232229   0.568   1.399   8.004 -0.7682 -2.6319 -2.1375
 6865SOL     OW32230   1.825   4.208   2.213  0.1844 -0.0801  0.2169
 6865SOL    HW132231   1.768   4.191   2.288  1.8897 -1.1886  1.2712
 6865SOL    HW232232   1.858   4.296   2.234 -0.7320 -0.3254  2.6689
 6866SOL     OW32233   4.652   0.119   2.728  0.1962 -0.2034  0.3144
 6866SOL    HW132234   4.615   0.036   2.760 -1.5596  0.1003 -0.9351
 6866SOL    HW232235   0.000   0.088   2.704 -0.4960 -2.9007  1.2863
 6867SOL     OW32236   0.794   3.325  16.888  0.1823 -0.5796 -0.0792
 6867SOL    HW132237   0.777   3.300  16.979  0.4603  0.9898  0.4133
 6867SOL    HW232238   0.756   3.413  16.893  0.6495 -0.3084 -1.2604
 6868SOL     OW32239   3.420   2.400   7.177 -0.4993 -0.1434  0.2526
 6868SOL    HW132240   3.512   2.426   7.182 -0.6299  0.1818  1.0312
 6868SOL    HW232241   3.421   2.343   7.101 -4.4037 -1.2613  1.0601
 6869SOL     OW32242   0.653   3.355   3.705  0.2826 -0.4526  0.3515
 6869SOL    HW132243   0.641   3.449   3.688  0.9775 -0.3707  0.2932
 6869SOL    HW232244   0.564   3.325   3.724 -0.3020  1.2865  0.4161
 6870SOL     OW32245   2.659   1.074   7.266  0.0949 -0.0238  0.1511
 6870SOL    HW132246   2.586   1.026   7.226  0.6952  0.9475 -2.1181
 6870SOL    HW232247   2.628   1.162   7.247  2.4746  1.1254  1.6874
 6871SOL     OW32248   4.128   1.377   8.990  0.2194  0.3249 -0.1789
 6871SOL    HW132249   4.190   1.443   9.019 -0.9225  1.5686 -0.5655
 6871SOL    HW232250   4.167   1.336   8.913 -1.0585  2.2982 -1.8837
 6872SOL     OW32251   4.238   0.183  11.614  0.4884  0.0123  0.2772
 6872SOL    HW132252   4.146   0.207  11.615  0.9902  1.9043  1.6737
 6872SOL    HW232253   4.234   0.118  11.544  0.6755 -1.4824  1.6279
 6873SOL     OW32254   1.982   2.241   5.987 -0.3348 -0.4420 -0.4170
 6873SOL    HW132255   2.048   2.304   5.959 -1.0959  0.4909 -0.1470
 6873SOL    HW232256   2.045   2.179   6.023 -1.4660 -1.2518  0.1849
 6874SOL     OW32257   2.995   1.427   2.019 -0.3237 -1.1709 -0.6996
 6874SOL    HW132258   3.037   1.502   1.976  2.2591 -1.6979  0.8567
 6874SOL    HW232259   3.062   1.364   1.992  2.0395  0.6006  1.0866
 6875SOL     OW32260   2.943   3.006   6.689 -0.0589  0.3530  0.3768
 6875SOL    HW132261   2.965   2.913   6.691 -1.1293  0.0529 -1.7113
 6875SOL    HW232262   2.900   3.018   6.773 -0.7175 -1.9942  0.3791
 6876SOL     OW32263   4.087   3.873   2.868 -0.0895  0.3806 -0.0095
 6876SOL    HW132264   4.133   3.955   2.886 -0.8255  0.7298  0.2562
 6876SOL    HW232265   4.101   3.865   2.773 -1.2541  1.2801 -0.2629
 6877SOL     OW32266   1.736   0.802   7.072 -0.5156  0.0298  0.3413
 6877SOL    HW132267   1.715   0.730   7.012  0.5347 -0.9312  1.1315
 6877SOL    HW232268   1.817   0.838   7.036 -0.2207 -0.4492  0.5288
 6878SOL     OW32269   1.482   0.125   4.130  0.6081  0.6200 -0.0617
 6878SOL    HW132270   1.414   0.101   4.192 -0.3582  1.7033 -0.7130
 6878SOL    HW232271   1.539   0.051   4.151 -1.7893 -0.6426  1.9653
 6879SOL     OW32272   0.042   0.546   8.815  0.5206  0.5365  0.0780
 6879SOL    HW132273   0.009   0.600   8.742 -1.0025 -2.2045 -1.2357
 6879SOL    HW232274   4.699   0.533   8.863  1.3335 -0.5450  1.1469
 6880SOL     OW32275   4.599   1.686  10.121 -0.1273 -0.3959 -0.4080
 6880SOL    HW132276   4.535   1.618  10.101 -0.0296 -0.2997 -1.0515
 6880SOL    HW232277   4.534   1.754  10.138 -0.1613 -0.1979 -1.3411
 6881SOL     OW32278   1.029   1.531   3.926  0.0190  0.0112  0.1970
 6881SOL    HW132279   1.053   1.591   3.855  0.1141  0.3026  0.4767
 6881SOL    HW232280   1.079   1.454   3.900  2.3015  1.0124  1.6345
 6882SOL     OW32281   2.319   2.496   2.070  0.7809  0.8018  0.0647
 6882SOL    HW132282   2.347   2.469   1.982  2.3390 -1.5950  1.2881
 6882SOL    HW232283   2.258   2.425   2.092  0.0316  1.2929 -0.4350
 6883SOL     OW32284   2.501   0.300   1.301  0.1981  0.5426  0.3226
 6883SOL    HW132285   2.550   0.328   1.379  1.3449  0.2514 -0.2929
 6883SOL    HW232286   2.523   0.377   1.248  1.4974 -1.1791 -1.5970
 6884SOL     OW32287   3.617   1.603  16.468 -0.4814  0.3131 -0.0672
 6884SOL    HW132288   3.636   1.694  16.488  2.0358 -0.2026 -0.1859
 6884SOL    HW232289   3.529   1.612  16.432 -1.4114  1.0750  2.4026
 6885SOL     OW32290   2.468   2.408   0.165 -0.6964 -0.1533  0.1705
 6885SOL    HW132291   2.552   2.434   0.203 -1.4094  0.4523  1.3309
 6885SOL    HW232292   2.493   2.346   0.096  0.8715  0.3681  0.2684
 6886SOL     OW32293   0.213   1.501   7.286  0.1205  0.4051 -0.7373
 6886SOL    HW132294   0.179   1.412   7.275  0.8359  0.1700 -1.0638
 6886SOL    HW232295   0.137   1.556   7.267 -0.3781 -0.2668 -0.6980
 6887SOL     OW32296   3.124   2.644  13.378 -0.6585 -0.4278  0.4366
 6887SOL    HW132297   3.192   2.656  13.310  0.1186 -2.5043  0.8642
 6887SOL    HW232298   3.057   2.596  13.330  0.4782 -0.9388 -0.6545
 6888SOL     OW32299   4.006   0.839  15.706 -0.5105 -0.5498 -0.2501
 6888SOL    HW132300   3.960   0.762  15.739  1.4346 -1.4951  0.2725
 6888SOL    HW232301   3.952   0.915  15.728  0.4067 -0.7780  2.8573
 6889SOL     OW32302   2.121   2.023   1.949 -0.1451  0.4247 -0.2513
 6889SOL    HW132303   2.029   2.047   1.943 -0.7823 -1.8983  0.4516
 6889SOL    HW232304   2.131   1.929   1.934  0.8820  0.5749 -0.5236
 6890SOL     OW32305   2.390   2.751   9.126  0.3373 -0.4719  0.2733
 6890SOL    HW132306   2.310   2.789   9.162 -0.2444 -0.3732 -1.1022
 6890SOL    HW232307   2.422   2.695   9.197  0.0714  0.4465  1.1036
 6891SOL     OW32308   0.383   0.830   7.312  0.0504 -0.2391 -0.3052
 6891SOL    HW132309   0.348   0.781   7.386  0.4075 -2.6811 -1.7820
 6891SOL    HW232310   0.345   0.783   7.238  0.1679 -0.2595 -0.3519
 6892SOL     OW32311   1.324   2.361   8.365  0.5526  0.1787  0.2142
 6892SOL    HW132312   1.279   2.277   8.355 -1.8168  1.7453 -2.2065
 6892SOL    HW232313   1.250   2.419   8.381  0.2675  0.2289 -1.2780
 6893SOL     OW32314   1.526   3.765   8.010 -0.1397  0.0911 -0.3635
 6893SOL    HW132315   1.558   3.712   7.937  0.0820 -0.6676  0.2775
 6893SOL    HW232316   1.434   3.769   7.982 -0.5477 -1.2304  0.7351
 6894SOL     OW32317   0.241   1.038   7.559  0.3537 -0.0338  0.1544
 6894SOL    HW132318   0.320   1.062   7.607  2.0465 -2.3373 -1.4802
 6894SOL    HW232319   0.218   0.960   7.609 -0.8081  0.4397  0.3546
 6895SOL     OW32320   3.958   3.323  16.257 -0.1586 -0.4079  0.6986
 6895SOL    HW132321   4.024   3.264  16.220  0.6210  0.3692  0.8318
 6895SOL    HW232322   4.012   3.403  16.262 -0.1113 -0.3009 -1.6349
 6896SOL     OW32323   3.477   1.591  13.129  0.0771  0.2755  0.2678
 6896SOL    HW132324   3.450   1.579  13.038  0.3893  1.1551  0.0586
 6896SOL    HW232325   3.399   1.567  13.180  0.0593  0.2439  0.2258
 6897SOL     OW32326   3.510   0.259  10.542 -0.1205 -0.4419 -0.8902
 6897SOL    HW132327   3.529   0.195  10.473  0.9842 -0.5466 -0.4946
 6897SOL    HW232328   3.417   0.263  10.522 -0.2021  0.3351 -0.3699
 6898SOL     OW32329   4.510   0.621  12.060  0.3905  0.5984  0.0150
 6898SOL    HW132330   4.450   0.623  11.985 -1.2868 -2.2480  1.2980
 6898SOL    HW232331   4.535   0.529  12.061 -1.3282  0.1293  0.4970
 6899SOL     OW32332   1.940   0.269   4.376 -0.2739 -0.3589 -0.5959
 6899SOL    HW132333   1.903   0.318   4.450 -1.0030 -2.0418  0.1618
 6899SOL    HW232334   1.945   0.334   4.306  0.6065  0.0253 -0.1694
 6900SOL     OW32335   1.398   0.772   7.987  0.4199 -0.2975 -0.4146
 6900SOL    HW132336   1.393   0.840   8.054 -1.1586 -1.0967  0.2719
 6900SOL    HW232337   1.406   0.696   8.043  2.4416 -0.3928 -0.8414
 6901SOL     OW32338   2.560   4.594   5.282 -0.3410  0.1020 -0.0204
 6901SOL    HW132339   2.622   4.660   5.250  2.0891 -1.1917  2.0930
 6901SOL    HW232340   2.481   4.618   5.233 -0.2199 -1.7778 -1.1230
 6902SOL     OW32341   0.671   3.902   0.526 -0.6305 -0.6417  0.7730
 6902SOL    HW132342   0.615   3.834   0.488 -1.7738  2.2240 -2.6765
 6902SOL    HW232343   0.684   3.864   0.612  0.5136 -1.4945  0.2194
 6903SOL     OW32344   1.656   0.036   2.717 -0.0535 -0.3209  0.2306
 6903SOL    HW132345   1.650   0.026   2.812  0.2350  2.0798  0.4917
 6903SOL    HW232346   1.567   0.059   2.691  0.0600  0.1607  0.2811
 6904SOL     OW32347   2.749   4.274   1.007 -0.4641 -0.2177 -0.4322
 6904SOL    HW132348   2.816   4.207   0.996 -0.9535 -1.0835  1.7909
 6904SOL    HW232349   2.772   4.345   0.947 -0.1889 -0.3282 -0.4566
 6905SOL     OW32350   3.992   1.827  13.623  0.1060 -0.4323 -0.1755
 6905SOL    HW132351   3.957   1.913  13.645 -0.1014 -0.0300 -2.0491
 6905SOL    HW232352   3.928   1.772  13.668 -0.6576 -1.5607 -2.6552
 6906SOL     OW32353   2.394   0.524  17.741  0.3821 -0.4366  0.1674
 6906SOL    HW132354   2.407   0.603  17.688  2.4077 -1.2315 -0.5495
 6906SOL    HW232355   2.487   0.500  17.743  0.6829  0.3906 -2.6521
 6907SOL     OW32356   4.730   0.283   8.729 -0.1266 -0.6785  0.4369
 6907SOL    HW132357   0.033   0.234   8.800 -1.4463 -1.4849  0.6661
 6907SOL    HW232358   4.717   0.366   8.774  0.7709  1.0265 -2.3913
 6908SOL     OW32359   1.745   1.559   1.094  0.4161 -0.2737 -0.2913
 6908SOL    HW132360   1.666   1.505   1.096 -0.8331  1.6569  2.4034
 6908SOL    HW232361   1.743   1.607   1.177  0.5952  0.5934 -0.7919
 6909SOL     OW32362   0.583   3.396  15.953 -0.6921 -0.1393 -0.1466
 6909SOL    HW132363   0.652   3.334  15.927 -0.7498 -1.7138  3.6186
 6909SOL    HW232364   0.563   3.429  15.865 -1.6889  0.4370  0.2948
 6910SOL     OW32365   1.559   1.700   5.434 -0.3205 -0.1655  0.1032
 6910SOL    HW132366   1.622   1.756   5.479 -0.2611 -1.0030  1.0578
 6910SOL    HW232367   1.609   1.622   5.412  0.8150  0.3442  0.8893
 6911SOL     OW32368   0.820   1.334  17.588  0.1196  0.6888 -0.2101
 6911SOL    HW132369   0.728   1.347  17.609 -0.1022 -1.9364  0.4972
 6911SOL    HW232370   0.868   1.404  17.633 -0.0350  0.5645  0.1456
 6912SOL     OW32371   0.404   4.262  16.925 -0.1413 -0.5213 -0.2948
 6912SOL    HW132372   0.348   4.339  16.915  2.8558  1.6125 -0.7224
 6912SOL    HW232373   0.491   4.284  16.890 -0.4697 -0.4502 -1.0591
 6913SOL     OW32374   1.444   0.187  14.409  0.2276 -0.0180 -0.3736
 6913SOL    HW132375   1.350   0.191  14.430  0.2959 -1.9456  0.3036
 6913SOL    HW232376   1.477   0.124  14.472  0.2378  0.3690  0.0091
 6914SOL     OW32377   2.672   1.521   8.338  0.1872  0.0017  0.2369
 6914SOL    HW132378   2.731   1.446   8.349 -0.1449 -0.6058 -2.1773
 6914SOL    HW232379   2.728   1.585   8.382  2.0001 -1.6653  0.3721
 6915SOL     OW32380   1.311   4.143   6.121  0.0302  0.0610 -0.2517
 6915SOL    HW132381   1.247   4.082   6.082 -0.3022 -0.4097  1.0242
 6915SOL    HW232382   1.377   4.079   6.149 -2.1675 -1.5237  1.3567
 6916SOL     OW32383   1.162   0.454  12.324  0.2403  0.1803  0.4451
 6916SOL    HW132384   1.251   0.447  12.359  0.1391  0.0559  0.6760
 6916SOL    HW232385   1.165   0.540  12.281 -1.5814 -0.3860 -0.7996
 6917SOL     OW32386   0.439   3.869   1.225  0.7782  0.1788  0.2757
 6917SOL    HW132387   0.461   3.794   1.170  2.6494  0.2903  0.8671
 6917SOL    HW232388   0.525   3.904   1.200  0.9365  0.3532  1.0827
 6918SOL     OW32389   1.160   3.525   5.474 -0.4500  0.0234 -0.3834
 6918SOL    HW132390   1.146   3.616   5.499 -0.7307  0.6511 -2.7955
 6918SOL    HW232391   1.111   3.524   5.392 -3.1703 -2.7267  1.3023
 6919SOL     OW32392   3.780   2.815  14.586 -0.1919 -0.1000 -0.3719
 6919SOL    HW132393   3.712   2.852  14.529 -1.6009 -2.2916 -0.1249
 6919SOL    HW232394   3.833   2.891  14.609  1.6958 -1.4546 -0.2985
 6920SOL     OW32395   3.028   0.469   7.735  0.2764  0.0510 -0.2980
 6920SOL    HW132396   3.006   0.457   7.827  0.1310 -0.3953 -0.3940
 6920SOL    HW232397   2.985   0.554   7.727  1.0041  0.2675 -1.9644
 6921SOL     OW32398   2.152   2.833  12.968  0.0260  0.1155 -0.5038
 6921SOL    HW132399   2.204   2.826  13.048 -0.1739 -1.6890 -0.5326
 6921SOL    HW232400   2.203   2.888  12.909  0.0015 -1.3526 -1.8741
 6922SOL     OW32401   4.047   0.620   6.135  0.2354 -0.9422  0.3019
 6922SOL    HW132402   4.071   0.537   6.176 -0.1479 -1.4559 -0.5091
 6922SOL    HW232403   4.027   0.581   6.050 -2.1046  0.5525  0.1689
 6923SOL     OW32404   1.698   2.627   8.282 -0.0765 -0.0962  0.0974
 6923SOL    HW132405   1.774   2.569   8.281 -0.0195 -0.0180 -0.6089
 6923SOL    HW232406   1.660   2.616   8.195  0.9642  3.8481 -0.8881
 6924SOL     OW32407   3.334   4.418   2.837 -0.3669  0.6101  0.7471
 6924SOL    HW132408   3.408   4.415   2.776 -0.9382  1.5987  0.0044
 6924SOL    HW232409   3.277   4.368   2.779 -1.4105  0.6415  1.7502
 6925SOL     OW32410   1.474   1.952  13.326 -1.1332  0.0315  0.0231
 6925SOL    HW132411   1.467   1.922  13.236 -0.8381  2.4590 -0.8142
 6925SOL    HW232412   1.384   1.930  13.349 -1.6984  1.7893 -0.4685
 6926SOL     OW32413   3.043   2.238  14.914  0.1100  0.3540 -0.4619
 6926SOL    HW132414   3.078   2.220  14.826  0.6836  0.9575 -0.3550
 6926SOL    HW232415   2.950   2.216  14.913 -0.0729  1.0573  1.4371
 6927SOL     OW32416   1.810   4.549  12.581  0.4291  0.3104  0.2202
 6927SOL    HW132417   1.830   4.458  12.599  0.3275  0.0870 -0.8258
 6927SOL    HW232418   1.858   4.555  12.498  1.5777  1.7175  0.9815
 6928SOL     OW32419   4.719   0.900   5.741  0.4661 -0.2692  0.5982
 6928SOL    HW132420   0.029   0.818   5.740  2.7392  1.1032  0.0637
 6928SOL    HW232421   0.007   0.942   5.659  2.7597 -2.5609  0.1685
 6929SOL     OW32422   2.645   3.698  16.996 -0.6621 -0.1283  0.2504
 6929SOL    HW132423   2.668   3.790  17.012 -0.9463  0.0282 -0.2382
 6929SOL    HW232424   2.729   3.664  17.026 -1.8728 -0.5649  3.1477
 6930SOL     OW32425   0.260   2.534   8.305 -0.6009  0.6015 -0.8050
 6930SOL    HW132426   0.175   2.500   8.335 -0.9862  1.6450 -0.7284
 6930SOL    HW232427   0.298   2.447   8.291 -2.1821 -0.2329 -0.0246
 6931SOL     OW32428   0.036   2.044   5.600 -0.2632 -0.3561  0.1594
 6931SOL    HW132429   0.131   2.043   5.596 -0.1795  1.5255  2.2052
 6931SOL    HW232430   0.014   2.014   5.512  0.3709 -3.3010  1.0073
 6932SOL     OW32431   0.326   1.870  16.181  0.0003 -0.2268  0.5288
 6932SOL    HW132432   0.395   1.821  16.227 -0.5789 -1.7625 -0.2436
 6932SOL    HW232433   0.323   1.816  16.102  1.0796 -2.1988  1.8242
 6933SOL     OW32434   0.196   2.813   3.931 -0.3341 -0.1408 -0.2122
 6933SOL    HW132435   0.207   2.760   3.852 -2.1109  1.8442 -1.7866
 6933SOL    HW232436   0.286   2.824   3.961 -0.9017  2.5868  0.5201
 6934SOL     OW32437   2.248   1.097   1.239 -0.3339 -0.0771  0.3185
 6934SOL    HW132438   2.337   1.127   1.220 -0.8704  0.9912 -0.5220
 6934SOL    HW232439   2.226   1.158   1.309  4.3599 -0.4642  2.1189
 6935SOL     OW32440   2.827   3.200   7.305 -0.4018 -0.0290 -0.2356
 6935SOL    HW132441   2.874   3.138   7.248  2.3906  1.4737  0.4132
 6935SOL    HW232442   2.890   3.269   7.323 -0.0027 -0.5163  0.2575
 6936SOL     OW32443   4.060   3.183   8.201  0.1309 -0.0668  0.0176
 6936SOL    HW132444   4.144   3.192   8.156  0.3984 -0.3135  0.4705
 6936SOL    HW232445   4.040   3.092   8.180 -0.2256 -0.0162  0.1357
 6937SOL     OW32446   2.683   2.051  17.717  0.5761 -0.5763 -0.0947
 6937SOL    HW132447   2.635   1.984  17.668 -0.9955 -0.4805  1.3293
 6937SOL    HW232448   2.678   2.022   0.053  1.9240 -2.7424 -0.7163
 6938SOL     OW32449   2.895   2.496  17.477  0.0960  0.2230  0.0958
 6938SOL    HW132450   2.881   2.401  17.477  0.8856  0.1067  0.1532
 6938SOL    HW232451   2.831   2.524  17.542  1.3771 -0.7054  1.7534
 6939SOL     OW32452   2.958   2.785   4.056 -0.3419  0.5874 -0.5750
 6939SOL    HW132453   3.009   2.707   4.034 -0.6618  0.7718 -1.9947
 6939SOL    HW232454   2.966   2.832   3.973  1.0413  0.4987 -0.4782
 6940SOL     OW32455   4.423   2.442   2.231 -0.4034 -0.2882 -0.7418
 6940SOL    HW132456   4.442   2.351   2.209 -1.9432 -0.9048  0.4789
 6940SOL    HW232457   4.340   2.429   2.277 -0.7422  3.0185 -0.3888
 6941SOL     OW32458   0.325   1.343  13.535 -0.0378  0.0257 -0.7395
 6941SOL    HW132459   0.258   1.279  13.561  0.7989 -0.1712  0.9182
 6941SOL    HW232460   0.262   1.408  13.503 -1.5856 -2.5777 -3.0025
 6942SOL     OW32461   2.761   0.012  13.880 -0.3583  0.1241 -0.0975
 6942SOL    HW132462   2.810   0.064  13.945  0.1745  0.4112 -0.7241
 6942SOL    HW232463   2.820   4.675  13.880 -0.9070 -0.2911 -0.8913
 6943SOL     OW32464   4.601   2.224  15.733 -0.4225  0.3999  0.4450
 6943SOL    HW132465   4.625   2.280  15.808  0.4489  2.0391 -1.0467
 6943SOL    HW232466   4.658   2.269  15.670  0.5264 -0.4850  0.6719
 6944SOL     OW32467   0.909   1.507   3.307 -0.4212 -0.0426 -0.1483
 6944SOL    HW132468   0.972   1.493   3.236  0.2574 -0.0002  0.4348
 6944SOL    HW232469   0.965   1.528   3.382  0.7561 -1.4989 -0.6115
 6945SOL     OW32470   2.797   0.023   4.403  0.3957 -0.8013  0.0616
 6945SOL    HW132471   2.725   0.078   4.372  0.6882 -0.6964 -0.4327
 6945SOL    HW232472   2.776   4.688   4.346  0.9866 -0.1415 -1.0264
 6946SOL     OW32473   2.177   2.990   2.212  0.4743  0.3434 -0.5530
 6946SOL    HW132474   2.144   3.065   2.263  0.5664 -0.4418  0.6565
 6946SOL    HW232475   2.235   3.043   2.157  0.7359  0.3666 -0.2525
 6947SOL     OW32476   0.571   4.281  13.195 -0.2984 -0.0653 -0.1243
 6947SOL    HW132477   0.583   4.291  13.100 -0.8307  0.1145 -0.1736
 6947SOL    HW232478   0.646   4.228  13.222  0.6009  0.7520 -1.0233
 6948SOL     OW32479   3.656   1.725   3.954 -0.1196 -0.0107  0.6711
 6948SOL    HW132480   3.751   1.712   3.945 -0.0096  0.0785  1.7034
 6948SOL    HW232481   3.641   1.749   4.046  2.2185  0.9266  0.8222
 6949SOL     OW32482   4.273   0.140   6.210  0.9328 -0.2674  0.1233
 6949SOL    HW132483   4.279   0.214   6.149  0.5478  2.3008  3.1896
 6949SOL    HW232484   4.335   0.161   6.280 -0.0872 -2.6574  1.7648
 6950SOL     OW32485   1.785   1.400  16.553  0.0566  0.0576  0.2881
 6950SOL    HW132486   1.845   1.329  16.579  0.7248  0.3542 -0.4486
 6950SOL    HW232487   1.852   1.466  16.537  1.3228 -1.9902 -2.8828
 6951SOL     OW32488   3.069   0.981   2.274 -0.3537  0.0107  0.1832
 6951SOL    HW132489   3.025   1.066   2.274 -0.3526  0.0055 -0.4283
 6951SOL    HW232490   3.075   0.968   2.180  0.6491 -1.3846  0.4310
 6952SOL     OW32491   2.667   1.571   3.816  0.2513 -0.3111  0.0417
 6952SOL    HW132492   2.641   1.509   3.885  0.6639 -1.6840 -1.0271
 6952SOL    HW232493   2.742   1.616   3.854  1.0997 -0.2517 -1.7301
 6953SOL     OW32494   1.608   3.634   3.363  0.4605 -0.2989 -0.3877
 6953SOL    HW132495   1.614   3.593   3.277  0.8607 -0.0540 -0.4762
 6953SOL    HW232496   1.667   3.576   3.411 -1.2077 -0.4855  1.4179
 6954SOL     OW32497   3.566   1.962  17.395 -0.7185 -0.6259  0.2310
 6954SOL    HW132498   3.585   1.893  17.459  1.9663  0.5952  0.7580
 6954SOL    HW232499   3.594   2.040  17.443  0.5689  0.4557 -2.3012
 6955SOL     OW32500   3.743   1.353   1.358 -0.6889  0.0897  0.0761
 6955SOL    HW132501   3.693   1.316   1.430  3.2022 -1.1980  2.1262
 6955SOL    HW232502   3.677   1.378   1.293  0.1563 -0.9737 -1.1665
 6956SOL     OW32503   0.019   1.382   9.598  0.3146 -0.5744 -0.2358
 6956SOL    HW132504   4.666   1.366   9.618 -0.2160  0.4466 -1.8394
 6956SOL    HW232505   0.062   1.338   9.671 -0.4504 -0.0206  0.5505
 6957SOL     OW32506   1.845   0.356   2.893 -0.2125 -0.3069 -0.2564
 6957SOL    HW132507   1.882   0.270   2.913  0.3459 -0.2339 -0.9909
 6957SOL    HW232508   1.873   0.361   2.802 -2.2468  0.4745 -0.8393
 6958SOL     OW32509   2.177   3.935   2.905  0.3114  0.2653  0.3477
 6958SOL    HW132510   2.244   3.998   2.933  0.1758  0.7780 -0.4917
 6958SOL    HW232511   2.170   3.888   2.989 -1.3538 -0.9954 -0.5019
 6959SOL     OW32512   0.026   1.987   5.268 -0.1876  0.6424 -0.0014
 6959SOL    HW132513   0.089   2.055   5.293 -0.6806  1.0170  0.1985
 6959SOL    HW232514   0.044   1.976   5.174  2.5311  1.2844  0.4442
 6960SOL     OW32515   4.142   0.199   1.184 -0.5950  0.3214  0.4690
 6960SOL    HW132516   4.123   0.114   1.144  5.0537  1.3376 -4.3475
 6960SOL    HW232517   4.167   0.187   1.275  1.8513  0.8027 -0.1411
 6961SOL     OW32518   3.991   4.013  16.182  0.1170 -0.0621 -0.1641
 6961SOL    HW132519   4.087   4.004  16.179  0.0857 -0.4642 -0.0288
 6961SOL    HW232520   3.969   4.095  16.139 -2.4316 -0.1921  0.8927
 6962SOL     OW32521   1.991   1.411  13.553 -0.7277  0.0515  0.6719
 6962SOL    HW132522   1.963   1.432  13.642 -0.2120 -0.8301  1.0431
 6962SOL    HW232523   1.907   1.380  13.518  0.8401 -1.6487 -1.5664
 6963SOL     OW32524   3.996   3.233   6.220 -0.5927  0.4988  0.0161
 6963SOL    HW132525   4.004   3.153   6.169  0.9181  1.3031 -1.0304
 6963SOL    HW232526   4.005   3.299   6.151 -1.6821  0.3492 -0.2717
 6964SOL     OW32527   1.410   4.164   7.962  0.1132 -0.1208 -0.0641
 6964SOL    HW132528   1.422   4.256   7.938 -1.2254 -0.3814 -1.7122
 6964SOL    HW232529   1.500   4.154   7.996  0.5461 -1.1651 -1.5487
 6965SOL     OW32530   3.046   0.857   7.795  0.1058  0.6613  0.0249
 6965SOL    HW132531   3.140   0.841   7.809 -0.2721 -1.1572  0.5761
 6965SOL    HW232532   3.014   0.890   7.879 -2.0609 -0.8722 -0.2033
 6966SOL     OW32533   0.488   2.800   3.947  0.4482  0.0912  0.0463
 6966SOL    HW132534   0.536   2.718   3.933  2.8102  1.3509  0.7913
 6966SOL    HW232535   0.509   2.841   3.863  2.8942  1.3641  1.2653
 6967SOL     OW32536   4.273   3.408   3.007  0.0204 -0.2390 -0.1414
 6967SOL    HW132537   4.207   3.426   3.074 -0.1584  1.7834 -0.8367
 6967SOL    HW232538   4.249   3.479   2.947  1.2906 -0.4735 -0.9294
 6968SOL     OW32539   0.103   0.708   2.311 -0.1370  0.0970 -0.0566
 6968SOL    HW132540   0.085   0.650   2.385  0.3803  0.2106  0.1608
 6968SOL    HW232541   0.198   0.719   2.301 -0.2741 -0.6725 -2.1315
 6969SOL     OW32542   3.428   0.546   2.481 -0.3776  0.2111 -0.1353
 6969SOL    HW132543   3.491   0.602   2.526  0.3337  0.0160 -0.8897
 6969SOL    HW232544   3.388   0.492   2.549 -0.0908  1.3759  0.9470
 6970SOL     OW32545   3.435   0.142   3.911  0.0616 -0.0708  0.0029
 6970SOL    HW132546   3.495   0.187   3.971 -0.0655  1.1047 -0.7450
 6970SOL    HW232547   3.487   0.079   3.862  0.5385 -1.0288  1.7470
 6971SOL     OW32548   3.333   2.192   5.247 -0.3766  0.8407 -0.6219
 6971SOL    HW132549   3.267   2.260   5.233 -1.7240  0.0157  1.7487
 6971SOL    HW232550   3.413   2.238   5.272  0.3639 -0.6560 -0.2257
 6972SOL     OW32551   0.902   1.014   3.217  0.0056 -0.6451 -0.1006
 6972SOL    HW132552   0.928   0.922   3.203 -0.5532 -0.4745 -2.3244
 6972SOL    HW232553   0.808   1.009   3.232 -0.2601 -1.4587 -2.0005
 6973SOL     OW32554   2.132   3.439  12.044 -0.1581  0.3662  0.1052
 6973SOL    HW132555   2.135   3.474  12.133  2.6074 -1.2998  0.6468
 6973SOL    HW232556   2.226   3.435  12.027  0.0757  2.1685  1.0036
 6974SOL     OW32557   1.786   0.060   9.162  0.0472 -0.1142 -0.1230
 6974SOL    HW132558   1.710   0.038   9.108  0.7370  0.4983 -1.3532
 6974SOL    HW232559   1.750   0.018   9.239  1.8540 -0.4591  0.5267
 6975SOL     OW32560   3.644   0.623   3.055  0.0604 -0.1710  0.6116
 6975SOL    HW132561   3.655   0.536   3.016  1.1109  0.3381 -0.2373
 6975SOL    HW232562   3.553   0.644   3.035  0.2895 -0.3462 -0.6759
 6976SOL     OW32563   0.572   3.991  11.016 -0.0500 -0.3438 -0.3554
 6976SOL    HW132564   0.580   4.049  10.939  0.0974 -2.9843 -2.3288
 6976SOL    HW232565   0.644   4.024  11.069 -0.7505 -1.1419  1.0879
 6977SOL     OW32566   4.309   4.102   3.827 -0.4731  0.3929 -0.0497
 6977SOL    HW132567   4.224   4.059   3.817 -1.0683  0.9533  2.4781
 6977SOL    HW232568   4.313   4.118   3.921 -3.0378  0.5492  0.0186
 6978SOL     OW32569   3.354   1.231  13.096  0.4620  0.1245 -0.9170
 6978SOL    HW132570   3.275   1.249  13.046 -0.0483  1.0457  0.2258
 6978SOL    HW232571   3.332   1.145  13.132  0.0731  0.0954 -1.2252
 6979SOL     OW32572   0.596   4.732   3.005  0.3219 -0.0650  0.1191
 6979SOL    HW132573   0.602   0.019   2.913  1.5524  1.3472  0.6092
 6979SOL    HW232574   0.504   4.705   3.010  0.5368 -0.5606  1.4768
 6980SOL     OW32575   4.034   4.578  11.098  1.0533  0.5461 -0.0879
 6980SOL    HW132576   4.104   4.523  11.063  0.8949  1.3824 -1.6806
 6980SOL    HW232577   3.967   4.559  11.032 -1.7591 -1.4111  3.2855
 6981SOL     OW32578   3.543   4.494  14.028 -0.1770  0.4733 -0.5955
 6981SOL    HW132579   3.492   4.568  14.059 -1.8292 -1.4190  1.2387
 6981SOL    HW232580   3.526   4.491  13.934  1.1727 -2.0927 -0.7798
 6982SOL     OW32581   2.765   2.180  14.898 -0.1198  0.1560 -0.2401
 6982SOL    HW132582   2.687   2.234  14.903 -0.0582  0.3789 -1.5352
 6982SOL    HW232583   2.728   2.095  14.876  0.7240  0.1794 -1.7368
 6983SOL     OW32584   4.356   4.034   1.762  1.1954  0.3538  0.6375
 6983SOL    HW132585   4.338   4.082   1.843  2.5617  0.1590  1.0575
 6983SOL    HW232586   4.426   3.976   1.790  1.2159 -0.3101 -0.7794
 6984SOL     OW32587   0.146   3.440   6.695 -0.2995 -0.1372 -0.6583
 6984SOL    HW132588   0.066   3.389   6.701 -0.1788 -0.1911  0.4886
 6984SOL    HW232589   0.138   3.516   6.753 -2.1814 -1.3279  0.6481
 6985SOL     OW32590   0.130   3.247   3.764  0.0573  0.5986  0.6143
 6985SOL    HW132591   0.124   3.160   3.803  0.7888  1.5372  2.8509
 6985SOL    HW232592   0.218   3.267   3.796  1.0915  0.0171 -1.8462
 6986SOL     OW32593   1.712   0.721  13.099  0.5758  0.2875  0.5101
 6986SOL    HW132594   1.661   0.684  13.171  0.6368  0.4877  0.6570
 6986SOL    HW232595   1.783   0.658  13.086 -0.3194 -0.5131 -0.5163
 6987SOL     OW32596   3.550   3.987   1.884 -0.1734 -0.1417  0.6505
 6987SOL    HW132597   3.521   3.898   1.863  1.9371 -0.6216 -0.2343
 6987SOL    HW232598   3.519   4.001   1.973  1.1242 -0.9048  1.2292
 6988SOL     OW32599   0.596   3.973   2.030 -0.0186 -0.2154 -0.6371
 6988SOL    HW132600   0.605   4.056   2.078 -1.0692 -0.5034  0.0397
 6988SOL    HW232601   0.666   3.979   1.964 -0.4640 -2.1042 -1.2653
 6989SOL     OW32602   1.306   2.869  17.670  0.0994 -0.1720 -0.8193
 6989SOL    HW132603   1.247   2.913  17.609  0.2249 -0.2400 -0.9889
 6989SOL    HW232604   1.350   2.807  17.612  0.8318  0.1182 -0.5783
 6990SOL     OW32605   1.614   0.474   0.870 -0.2364  0.2721 -0.4596
 6990SOL    HW132606   1.644   0.496   0.958 -1.1469  0.1819 -0.1322
 6990SOL    HW232607   1.524   0.483   0.902  1.0895 -1.7242  3.9100
 6991SOL     OW32608   1.956   4.102  10.799  0.0285  0.2163  0.1376
 6991SOL    HW132609   2.015   4.029  10.780 -1.4603 -0.8197 -0.4546
 6991SOL    HW232610   2.000   4.147  10.871 -1.0129  0.8278  0.3983
 6992SOL     OW32611   2.594   1.398   7.221 -0.4170 -0.3530 -0.0902
 6992SOL    HW132612   2.598   1.482   7.176 -0.9471 -0.2527  0.0421
 6992SOL    HW232613   2.603   1.430   7.311  0.8957 -0.6262 -0.1347
 6993SOL     OW32614   0.862   4.601   9.187  0.1577 -0.2073  0.7167
 6993SOL    HW132615   0.852   4.532   9.254 -2.9710 -0.6181 -0.1623
 6993SOL    HW232616   0.923   4.549   9.135 -1.7777 -1.3304 -0.4397
 6994SOL     OW32617   3.971   3.187   5.363  0.8000 -0.1884 -0.8452
 6994SOL    HW132618   3.887   3.149   5.339  1.3222 -1.4890 -0.6480
 6994SOL    HW232619   4.028   3.112   5.381 -1.9430 -1.4621  2.4213
 6995SOL     OW32620   3.942   1.984   7.848 -0.6541 -1.1597  0.0869
 6995SOL    HW132621   3.960   1.902   7.895  3.4678 -0.1033  0.3357
 6995SOL    HW232622   3.887   1.948   7.778 -0.7152 -1.6299  0.3691
 6996SOL     OW32623   0.437   0.649  15.072  0.5473 -0.7233 -0.3876
 6996SOL    HW132624   0.458   0.726  15.018  0.7815 -1.0092 -0.6986
 6996SOL    HW232625   0.502   0.589  15.038  0.4610 -1.5496  0.8960
 6997SOL     OW32626   0.728   3.997   6.479  0.0851  0.0460  0.3052
 6997SOL    HW132627   0.648   4.032   6.516 -0.5638  0.1358 -1.1610
 6997SOL    HW232628   0.790   4.029   6.544  0.2843  0.0940  0.0928
 6998SOL     OW32629   1.796   3.828   5.645  0.0331  0.5330  0.5761
 6998SOL    HW132630   1.765   3.738   5.632 -1.0204  0.8835  0.6807
 6998SOL    HW232631   1.884   3.817   5.680  0.0122  1.2039  0.8380
 6999SOL     OW32632   1.218   4.572   5.263  0.2815 -0.1216 -0.1469
 6999SOL    HW132633   1.153   4.590   5.332  0.7858 -0.3010  0.3744
 6999SOL    HW232634   1.276   4.507   5.301 -1.4041 -0.4158  1.9684
 7000SOL     OW32635   1.157   3.484   1.893  0.0765  0.2971  0.1347
 7000SOL    HW132636   1.210   3.453   1.820  0.1269  0.8863 -0.0798
 7000SOL    HW232637   1.073   3.459   1.855  0.1180  0.2256  0.0907
 7001SOL     OW32638   4.512   1.981   2.746  0.2184 -0.3443  0.4117
 7001SOL    HW132639   4.594   1.934   2.759  0.9109  1.2796  2.0807
 7001SOL    HW232640   4.520   2.005   2.654 -1.8346  0.8108  0.5249
 7002SOL     OW32641   4.464   0.412   3.722  0.1173  0.8136  0.0143
 7002SOL    HW132642   4.399   0.341   3.717  2.0100 -0.9960  1.4047
 7002SOL    HW232643   4.498   0.411   3.811  2.1974 -1.9267 -0.8170
 7003SOL     OW32644   4.090   4.089  15.200  0.1523 -0.6084  0.0232
 7003SOL    HW132645   4.028   4.072  15.129 -1.5773 -0.1090  1.3994
 7003SOL    HW232646   4.140   4.008  15.189  0.1109 -1.0827  3.2577
 7004SOL     OW32647   3.509   3.176   4.283 -0.4493  0.4317  0.0727
 7004SOL    HW132648   3.456   3.149   4.358 -0.0448 -2.3514 -0.6457
 7004SOL    HW232649   3.439   3.215   4.231 -0.2162  0.0535 -0.5226
 7005SOL     OW32650   3.974   3.531   8.238  0.2595  0.3189  0.3561
 7005SOL    HW132651   4.009   3.569   8.158  1.0510  0.8800  0.9622
 7005SOL    HW232652   3.904   3.589   8.266  0.8148  0.2897  1.8026
 7006SOL     OW32653   3.361   2.507   4.163 -0.6872 -0.1121 -0.3560
 7006SOL    HW132654   3.316   2.426   4.186 -0.3905 -0.6880 -1.7797
 7006SOL    HW232655   3.439   2.473   4.118 -1.1167  2.5189 -3.0303
 7007SOL     OW32656   3.283   0.707   6.203 -0.8187  0.3496  0.0327
 7007SOL    HW132657   3.375   0.685   6.216 -1.3658 -2.9802 -1.8682
 7007SOL    HW232658   3.256   0.704   6.295 -1.3357  1.3992 -0.0768
 7008SOL     OW32659   2.238   2.509   8.991 -0.2052  0.1422  0.1285
 7008SOL    HW132660   2.166   2.505   9.055 -0.2066  1.3333  0.1861
 7008SOL    HW232661   2.304   2.559   9.037 -0.5614  0.8581 -0.1436
 7009SOL     OW32662   0.591   1.267   4.746 -0.4011  0.7501  0.0612
 7009SOL    HW132663   0.561   1.241   4.833  0.2505 -1.4374 -0.3752
 7009SOL    HW232664   0.505   1.264   4.703  0.5087  0.0106 -1.6856
 7010SOL     OW32665   4.290   2.320   3.309  0.3491 -0.1272 -0.8268
 7010SOL    HW132666   4.311   2.228   3.324  1.2243  0.3957  1.1515
 7010SOL    HW232667   4.211   2.319   3.363  1.2814  0.1393  0.5237
 7011SOL     OW32668   3.685   1.903   7.727 -0.3269 -0.8260 -0.2043
 7011SOL    HW132669   3.595   1.871   7.718 -0.9943  0.7320  1.0436
 7011SOL    HW232670   3.731   1.829   7.767  0.5622  0.3576  0.9914
 7012SOL     OW32671   2.746   2.246  12.095 -0.7009 -0.6983  0.3419
 7012SOL    HW132672   2.837   2.272  12.110 -0.9492  1.5693 -2.0617
 7012SOL    HW232673   2.694   2.287  12.164  0.7936  0.8106  0.5555
 7013SOL     OW32674   0.689   3.220   1.792  0.0458 -0.7786  0.1753
 7013SOL    HW132675   0.647   3.157   1.851 -0.6038 -0.4536  0.0595
 7013SOL    HW232676   0.621   3.286   1.784  1.1460  0.3791  0.4752
 7014SOL     OW32677   3.379   0.637  12.532  0.8011  0.3978 -0.3064
 7014SOL    HW132678   3.346   0.640  12.622 -1.3416 -1.2265 -1.0398
 7014SOL    HW232679   3.311   0.584  12.491  0.6474  1.2020 -1.0956
 7015SOL     OW32680   1.696   2.396  12.316  0.0738  0.5201  0.1697
 7015SOL    HW132681   1.773   2.427  12.364  1.5346 -1.5361 -0.8761
 7015SOL    HW232682   1.707   2.301  12.313  0.7327  0.6274 -1.2247
 7016SOL     OW32683   1.353   4.406   7.258  0.2154  0.3114  0.4271
 7016SOL    HW132684   1.295   4.465   7.305  0.0202 -1.4057  2.3576
 7016SOL    HW232685   1.326   4.441   7.173  1.2148 -1.4671 -0.6370
 7017SOL     OW32686   1.138   3.389   8.254 -0.0042 -0.2085 -0.1832
 7017SOL    HW132687   1.062   3.383   8.312 -0.7857 -0.4632 -1.2424
 7017SOL    HW232688   1.208   3.346   8.304  1.3497 -0.7806 -2.6051
 7018SOL     OW32689   1.429   2.759   5.270 -0.4426  0.2896 -0.3553
 7018SOL    HW132690   1.402   2.711   5.348 -0.2807  1.9385  0.7168
 7018SOL    HW232691   1.370   2.834   5.267 -1.8403 -0.6591  3.0627
 7019SOL     OW32692   0.015   3.314   5.490 -0.3263 -0.1894 -0.3103
 7019SOL    HW132693   4.710   3.311   5.575  2.8432  0.3737  1.3539
 7019SOL    HW232694   4.698   3.377   5.446  0.9689  2.5740  1.9540
 7020SOL     OW32695   1.366   2.337   3.574  0.1404  0.2692  0.2058
 7020SOL    HW132696   1.459   2.326   3.558 -0.3355 -1.7172 -1.1112
 7020SOL    HW232697   1.355   2.299   3.662 -0.5758 -0.7132 -0.3085
 7021SOL     OW32698   1.507   2.443   7.695 -0.3115 -0.0885  0.6135
 7021SOL    HW132699   1.584   2.482   7.737  0.0821  0.7033 -0.8273
 7021SOL    HW232700   1.475   2.378   7.758  1.6260 -1.1063  0.5536
 7022SOL     OW32701   3.910   1.698  10.800  0.3330  0.2613 -0.2058
 7022SOL    HW132702   3.962   1.619  10.812 -2.1816 -1.3353  0.2611
 7022SOL    HW232703   3.877   1.710  10.889  0.7204  1.1007 -0.1712
 7023SOL     OW32704   3.541   0.492   5.585  0.5061 -1.5660  0.4664
 7023SOL    HW132705   3.526   0.573   5.634  1.5960 -0.5995 -0.7802
 7023SOL    HW232706   3.453   0.461   5.604 -0.3305 -0.5899 -1.8191
 7024SOL     OW32707   2.241   3.201  10.044 -0.4339  0.7939  0.0541
 7024SOL    HW132708   2.203   3.118  10.015  0.4695  0.7260 -0.9630
 7024SOL    HW232709   2.162   3.255  10.053  0.5928  2.2670  0.3114
 7025SOL     OW32710   2.162   0.437   6.086  0.6221  0.1983  0.1797
 7025SOL    HW132711   2.170   0.519   6.039 -3.2033 -1.0494 -2.7301
 7025SOL    HW232712   2.195   0.458   6.173  1.8455  1.2363 -0.5461
 7026SOL     OW32713   2.902   0.377   3.439 -0.1395  0.7501 -0.3096
 7026SOL    HW132714   2.957   0.454   3.423  0.3378  0.0903 -1.8099
 7026SOL    HW232715   2.826   0.419   3.481  1.6000  2.1638  1.4190
 7027SOL     OW32716   4.253   4.255  15.435  0.1041  0.4327  0.1306
 7027SOL    HW132717   4.305   4.301  15.368  0.7317  0.4556  0.6369
 7027SOL    HW232718   4.222   4.179  15.385  2.4011  2.1857 -3.9432
 7028SOL     OW32719   0.512   0.524  10.344  0.0073 -0.8699  0.1934
 7028SOL    HW132720   0.567   0.582  10.293  1.2573 -0.8428  1.5690
 7028SOL    HW232721   0.566   0.505  10.421  0.3757 -0.9650 -0.0911
 7029SOL     OW32722   0.069   2.851   7.196  0.0031  0.0641 -0.2106
 7029SOL    HW132723   0.093   2.784   7.133  3.3872  0.0492  1.1029
 7029SOL    HW232724   0.150   2.902   7.191 -0.2710  0.3507 -1.8763
 7030SOL     OW32725   4.446   1.173   5.703 -0.7523  0.8750 -0.0408
 7030SOL    HW132726   4.521   1.233   5.706  0.0694 -0.1227 -0.4314
 7030SOL    HW232727   4.409   1.166   5.791 -0.2272  1.5090  0.2285
 7031SOL     OW32728   1.312   4.158   5.646  0.2680 -0.6435  0.7239
 7031SOL    HW132729   1.280   4.228   5.703  1.5367  0.8226 -0.3757
 7031SOL    HW232730   1.361   4.111   5.714  2.7997 -1.1673 -1.4579
 7032SOL     OW32731   2.841   2.262  13.237  0.0727 -0.3650  0.2607
 7032SOL    HW132732   2.750   2.264  13.207  0.7295 -1.2159 -1.7644
 7032SOL    HW232733   2.836   2.206  13.314  2.9999 -0.4293  0.3861
 7033SOL     OW32734   4.036   2.787  11.150  0.1925 -0.4923  0.1471
 7033SOL    HW132735   4.128   2.766  11.167  0.4685 -0.3535 -1.2210
 7033SOL    HW232736   4.001   2.711  11.196  1.0045  0.1985  1.9337
 7034SOL     OW32737   3.188   2.548   8.055  0.1083  0.1187 -0.5339
 7034SOL    HW132738   3.270   2.517   8.017  1.0454  1.0869  0.7230
 7034SOL    HW232739   3.224   2.627   8.096  0.3507  0.1102 -0.7349
 7035SOL     OW32740   0.547   2.403  14.607 -0.8409  0.3022  0.0526
 7035SOL    HW132741   0.502   2.319  14.612 -1.6114  0.6958 -0.2132
 7035SOL    HW232742   0.513   2.459  14.677  1.3466 -0.9549  2.0909
 7036SOL     OW32743   0.463   4.177   3.857 -0.0189 -0.5973  0.2566
 7036SOL    HW132744   0.513   4.097   3.844 -1.2114 -0.6204 -4.0509
 7036SOL    HW232745   0.529   4.230   3.901  0.5810 -2.0355  1.0964
 7037SOL     OW32746   2.216   2.309  13.027  0.7549 -0.4543  0.0479
 7037SOL    HW132747   2.264   2.387  13.054  0.0425 -0.1272  0.3831
 7037SOL    HW232748   2.253   2.231  13.068  0.4399 -0.6474 -0.0340
 7038SOL     OW32749   3.267   2.801   5.490 -0.4044 -0.3328  0.0354
 7038SOL    HW132750   3.174   2.797   5.465 -0.3061  1.5830 -0.6835
 7038SOL    HW232751   3.272   2.893   5.516 -1.6093  0.1442 -1.3599
 7039SOL     OW32752   1.768   1.978   7.701 -0.5412  0.1693 -0.0702
 7039SOL    HW132753   1.718   1.973   7.783 -0.4117  1.3746  0.0897
 7039SOL    HW232754   1.745   2.068   7.676  2.7867  1.6694  2.3080
 7040SOL     OW32755   0.639   3.539   6.914  0.0960 -0.1082 -0.3797
 7040SOL    HW132756   0.555   3.494   6.916 -0.2074  0.4615 -0.3367
 7040SOL    HW232757   0.654   3.573   6.826  1.5103  2.7969  0.9849
 7041SOL     OW32758   2.584   3.118   3.029  0.0934 -0.7554 -0.3434
 7041SOL    HW132759   2.604   3.109   2.935 -0.3570 -0.9726 -0.4194
 7041SOL    HW232760   2.643   3.052   3.066  0.6191  0.6893  1.3434
 7042SOL     OW32761   2.265   4.076   0.507 -0.0460  0.1743  0.1525
 7042SOL    HW132762   2.175   4.049   0.524  0.7184 -2.5860 -0.1094
 7042SOL    HW232763   2.259   4.143   0.439  0.9027  0.4709  0.3676
 7043SOL     OW32764   3.797   3.865   6.611 -0.4789  0.1636 -0.1339
 7043SOL    HW132765   3.736   3.791   6.618 -1.6484  1.1547  0.1383
 7043SOL    HW232766   3.780   3.907   6.695 -0.1383 -2.3289  1.2027
 7044SOL     OW32767   2.417   2.782   1.553  0.2332 -0.1189 -0.3630
 7044SOL    HW132768   2.344   2.735   1.514  0.4763 -1.4187  0.7433
 7044SOL    HW232769   2.388   2.830   1.630 -2.2125  0.5995 -1.7401
 7045SOL     OW32770   0.178   2.465   6.337  0.3138  0.6463 -0.0219
 7045SOL    HW132771   0.149   2.533   6.276 -2.4100  0.0247  0.5693
 7045SOL    HW232772   0.258   2.492   6.383  0.5085 -1.8491  1.1262
 7046SOL     OW32773   4.039   0.423   3.686 -0.1152 -0.3654 -0.0922
 7046SOL    HW132774   3.986   0.501   3.707  0.5082 -0.3934  1.5715
 7046SOL    HW232775   4.044   0.431   3.590  0.3748 -0.8131 -0.1036
 7047SOL     OW32776   3.731   2.732   7.767 -0.3871  0.1776  0.2867
 7047SOL    HW132777   3.758   2.690   7.685 -1.0762  0.1748  0.0567
 7047SOL    HW232778   3.794   2.803   7.768  0.2429 -0.3363 -1.9301
 7048SOL     OW32779   0.913   0.304   6.025  0.1643  0.1230 -0.0010
 7048SOL    HW132780   0.928   0.397   6.043 -1.0859  0.5620 -1.2846
 7048SOL    HW232781   0.849   0.301   5.955 -2.0974  0.4844  2.0527
 7049SOL     OW32782   2.019   2.303   5.243 -0.0956 -0.7809 -0.0508
 7049SOL    HW132783   1.993   2.246   5.316  1.2435 -1.1699  0.1129
 7049SOL    HW232784   1.970   2.258   5.174 -1.0958  0.3665 -0.0783
 7050SOL     OW32785   3.709   1.192   2.945  0.1236  0.0716  0.4905
 7050SOL    HW132786   3.755   1.115   2.912 -2.1439 -0.7739 -0.6382
 7050SOL    HW232787   3.695   1.165   3.036  0.6655  2.5504  1.3181
 7051SOL     OW32788   0.835   0.915   7.240 -0.2567 -0.0616  0.0318
 7051SOL    HW132789   0.754   0.922   7.290 -0.3697  2.1137 -0.4400
 7051SOL    HW232790   0.846   0.820   7.243 -0.1288 -0.0644 -0.4475
 7052SOL     OW32791   1.278   2.408   4.761  0.1001 -0.2369  0.5416
 7052SOL    HW132792   1.373   2.400   4.756  0.3487  3.3314 -0.3243
 7052SOL    HW232793   1.245   2.318   4.763  1.6434 -0.7531  2.1496
 7053SOL     OW32794   0.569   4.228   2.450 -0.0851  0.3906 -0.4466
 7053SOL    HW132795   0.526   4.188   2.374  0.3090  0.0901 -0.5065
 7053SOL    HW232796   0.646   4.172   2.460 -0.1305 -0.3643 -4.3459
 7054SOL     OW32797   3.211   3.795  16.333  0.3255  0.4350  0.4684
 7054SOL    HW132798   3.304   3.807  16.313  0.7152  0.1826  2.0972
 7054SOL    HW232799   3.209   3.701  16.312 -0.5468  0.1171  1.9472
 7055SOL     OW32800   0.202   1.975   5.942  0.4231 -0.5227  0.0937
 7055SOL    HW132801   0.162   1.944   6.023  0.1292 -2.2675 -0.7136
 7055SOL    HW232802   0.124   1.983   5.887 -0.9199 -3.3446  1.5469
 7056SOL     OW32803   2.617   2.956   5.836  0.1356  0.2619  0.0956
 7056SOL    HW132804   2.606   2.862   5.818  0.0350 -0.0071  1.5674
 7056SOL    HW232805   2.527   2.987   5.848  0.7119  0.9853  2.5350
 7057SOL     OW32806   2.077   4.390   6.221  0.5233  0.1681  0.3032
 7057SOL    HW132807   2.009   4.399   6.154 -0.3757  0.6811  1.2832
 7057SOL    HW232808   2.116   4.476   6.203 -1.1775  0.7618 -0.5274
 7058SOL     OW32809   2.192   0.531   1.578 -0.8009  0.2092 -0.0543
 7058SOL    HW132810   2.248   0.454   1.590 -1.3384 -0.2785 -0.7509
 7058SOL    HW232811   2.178   0.540   1.484 -0.1236 -0.0321 -0.1811
 7059SOL     OW32812   2.590   0.229  14.157 -0.1144  0.0933 -0.2393
 7059SOL    HW132813   2.509   0.179  14.143 -1.5409  3.0287 -2.4077
 7059SOL    HW232814   2.636   0.230  14.074  2.6013 -0.4576  1.2464
 7060SOL     OW32815   3.729   1.849   3.583  0.2439  0.2467 -0.2213
 7060SOL    HW132816   3.691   1.816   3.501  0.0571  0.1449 -0.0928
 7060SOL    HW232817   3.789   1.778   3.607  1.8928  1.4524 -0.7510
 7061SOL     OW32818   3.431   2.746  10.712 -0.2808 -0.5295  0.0056
 7061SOL    HW132819   3.358   2.703  10.667  1.3311 -1.5325 -1.6475
 7061SOL    HW232820   3.406   2.837  10.698  1.3567 -0.2778 -1.2446
 7062SOL     OW32821   0.804   2.592   8.265  0.0980 -0.0483  0.4092
 7062SOL    HW132822   0.837   2.665   8.316  0.4830  0.6893 -0.8959
 7062SOL    HW232823   0.883   2.566   8.218 -0.5756  0.4932 -1.0176
 7063SOL     OW32824   4.418   3.161   3.654 -1.1302  0.0831  0.0093
 7063SOL    HW132825   4.391   3.162   3.563 -1.2233  0.2776  0.0396
 7063SOL    HW232826   4.383   3.244   3.688  1.0923  0.7193  0.7778
 7064SOL     OW32827   3.071   0.069   0.943 -0.3668 -0.4998 -0.5657
 7064SOL    HW132828   3.139   0.052   1.008  0.3704  0.4363 -1.0939
 7064SOL    HW232829   3.113   0.100   0.863  0.8950 -0.6420  0.0423
 7065SOL     OW32830   3.426   4.270  14.114 -0.3461 -0.2224 -0.4227
 7065SOL    HW132831   3.461   4.355  14.087  0.6383 -0.6270 -0.4038
 7065SOL    HW232832   3.503   4.215  14.099  2.3068  2.4975  3.1461
 7066SOL     OW32833   2.839   2.204  17.532  0.7215  0.2058 -0.7508
 7066SOL    HW132834   2.769   2.191  17.467 -0.4167 -0.4018  0.6041
 7066SOL    HW232835   2.812   2.144  17.602  0.3266 -1.3635 -2.2385
 7067SOL     OW32836   4.446   1.291  15.282  0.3645  0.1820 -1.0408
 7067SOL    HW132837   4.413   1.307  15.370  1.9190  1.5556 -0.6953
 7067SOL    HW232838   4.515   1.357  15.281  0.8660 -0.3423 -1.0603
 7068SOL     OW32839   3.916   2.805   7.255 -0.3767  0.0398 -0.3755
 7068SOL    HW132840   3.995   2.858   7.249  0.0250 -0.7500 -2.0427
 7068SOL    HW232841   3.865   2.860   7.194 -0.1606 -1.1933 -1.6728
 7069SOL     OW32842   4.084   4.522   5.212 -0.3379  0.0666  0.0795
 7069SOL    HW132843   4.051   4.563   5.292  1.9381  0.9017  0.5734
 7069SOL    HW232844   4.010   4.514   5.152 -0.5095  2.6205 -0.0217
 7070SOL     OW32845   1.405   1.098   6.047  0.3328  0.1204  0.4590
 7070SOL    HW132846   1.346   1.089   6.122 -1.6416  0.5686 -1.0224
 7070SOL    HW232847   1.479   1.130   6.098  1.3529 -0.0422 -0.9173
 7071SOL     OW32848   1.878   1.440  11.241 -0.0801  0.3143 -0.7235
 7071SOL    HW132849   1.860   1.513  11.182 -1.3844 -1.0178 -1.9730
 7071SOL    HW232850   1.834   1.372  11.190  0.0515 -0.1651 -0.1965
 7072SOL     OW32851   1.883   4.538   0.915 -0.0291  0.0841 -0.3540
 7072SOL    HW132852   1.841   4.538   1.001 -1.1428  2.2084 -0.9043
 7072SOL    HW232853   1.815   4.502   0.859 -0.2708  0.6225 -0.4076
 7073SOL     OW32854   4.299   1.655   8.238 -0.3416 -0.1219  0.0726
 7073SOL    HW132855   4.369   1.680   8.177 -0.8869 -1.8852 -1.2705
 7073SOL    HW232856   4.343   1.622   8.317 -1.1200  1.5598  1.2131
 7074SOL     OW32857   2.362   3.587   7.872 -0.1130 -0.5388 -0.1850
 7074SOL    HW132858   2.327   3.641   7.943  1.3106  1.1993 -0.8116
 7074SOL    HW232859   2.326   3.632   7.795  3.2336 -0.4616 -1.6955
 7075SOL     OW32860   2.644   0.928   6.924 -0.0227 -0.1761 -0.0230
 7075SOL    HW132861   2.589   0.957   6.997 -2.1394 -3.4629 -0.2877
 7075SOL    HW232862   2.702   1.004   6.923  0.6977 -0.7216  0.3202
 7076SOL     OW32863   1.595   1.854   0.567 -0.1719  0.1880  0.1766
 7076SOL    HW132864   1.526   1.790   0.548 -0.0618 -0.3721  1.7293
 7076SOL    HW232865   1.582   1.923   0.502 -1.1964 -0.5990 -0.4553
 7077SOL     OW32866   1.186   4.397   8.231 -0.3779  0.2993  0.1385
 7077SOL    HW132867   1.202   4.456   8.158 -1.2107 -1.5762 -1.5707
 7077SOL    HW232868   1.177   4.312   8.187 -0.5982 -0.9926  2.6465
 7078SOL     OW32869   0.452   4.172   7.716  0.0457  0.2098  0.6861
 7078SOL    HW132870   0.486   4.087   7.743 -2.8309 -1.1355  0.0258
 7078SOL    HW232871   0.516   4.191   7.647 -1.5680  0.0209 -0.8657
 7079SOL     OW32872   0.561   0.062   4.619 -0.5770 -0.5142 -0.7487
 7079SOL    HW132873   0.580   0.077   4.526 -0.1564 -1.3705 -0.8002
 7079SOL    HW232874   0.508   4.721   4.618  0.5699 -1.3014  1.1766
 7080SOL     OW32875   3.138   0.863   4.110  0.1538  0.3522  0.0125
 7080SOL    HW132876   3.131   0.768   4.109 -1.5728  0.4692  0.8279
 7080SOL    HW232877   3.159   0.878   4.018 -0.5377 -1.2421 -0.4137
 7081SOL     OW32878   2.887   3.083   4.084  0.2665  0.1215  0.5922
 7081SOL    HW132879   2.911   3.044   4.169 -0.5083  2.3891  1.8633
 7081SOL    HW232880   2.850   3.011   4.033  0.8937 -0.2179  0.6116
 7082SOL     OW32881   1.179   0.500   2.230  0.3881 -0.0201  0.2754
 7082SOL    HW132882   1.242   0.493   2.301 -1.2305  0.5797  1.7711
 7082SOL    HW232883   1.137   0.586   2.241  0.0592  0.0683 -1.6298
 7083SOL     OW32884   0.868   3.866  12.931  0.1432  0.2693 -0.0236
 7083SOL    HW132885   0.777   3.883  12.909  0.3406 -0.1546 -1.2116
 7083SOL    HW232886   0.892   3.957  12.947  0.6386  0.3018 -0.9057
 7084SOL     OW32887   0.859   3.848  11.049  0.1380 -0.0802 -0.1075
 7084SOL    HW132888   0.774   3.811  11.071  0.4742 -0.0749  1.2193
 7084SOL    HW232889   0.919   3.776  11.028  2.5244  2.4172 -2.0232
 7085SOL     OW32890   1.443   1.318   9.500  0.0554  0.1959  0.8790
 7085SOL    HW132891   1.394   1.399   9.490  2.2597  1.2849 -0.9914
 7085SOL    HW232892   1.430   1.311   9.595 -1.9667 -1.5328  0.4609
 7086SOL     OW32893   1.966   2.795  10.846  0.1956  0.2935  0.1823
 7086SOL    HW132894   1.978   2.749  10.929 -0.6529  0.0886  0.1904
 7086SOL    HW232895   1.926   2.731  10.786 -0.4599 -0.7730  1.7725
 7087SOL     OW32896   0.659   0.148   7.812 -0.2775 -0.1246  0.5641
 7087SOL    HW132897   0.606   0.118   7.739 -2.5267  1.8275  1.3831
 7087SOL    HW232898   0.602   0.140   7.888  0.3350  1.0148  1.1455
 7088SOL     OW32899   1.724   1.590  16.817 -0.4465  0.2506  0.1017
 7088SOL    HW132900   1.781   1.665  16.802 -0.1767  0.0841  0.3073
 7088SOL    HW232901   1.639   1.628  16.839 -1.4636 -1.0246 -1.5690
 7089SOL     OW32902   4.360   3.543   5.215 -0.5192 -0.1739  0.3919
 7089SOL    HW132903   4.281   3.596   5.212 -0.9481 -0.9559 -2.0643
 7089SOL    HW232904   4.411   3.588   5.147 -2.9053 -0.1517 -1.3903
 7090SOL     OW32905   2.795   4.174   3.581  0.1626 -0.0205 -0.5536
 7090SOL    HW132906   2.764   4.159   3.670 -1.3416  0.1181 -1.0601
 7090SOL    HW232907   2.791   4.270   3.588  0.8677  0.0468 -1.0955
 7091SOL     OW32908   4.360   0.157   7.706  0.4558  0.0749  0.2632
 7091SOL    HW132909   4.364   0.077   7.654 -0.7514  0.5445 -0.5720
 7091SOL    HW232910   4.298   0.213   7.658 -0.3877 -0.7900  0.3405
 7092SOL     OW32911   3.508   0.236   3.032 -0.2076 -0.0674  0.6157
 7092SOL    HW132912   3.477   0.258   3.120 -2.5658 -0.1347 -0.2242
 7092SOL    HW232913   3.424   0.206   2.999 -0.2134  0.9354 -0.2641
 7093SOL     OW32914   1.707   0.009  11.609  0.2566  0.4114  0.2741
 7093SOL    HW132915   1.658   4.687  11.554  1.8481 -0.6313  0.0210
 7093SOL    HW232916   1.776   4.691  11.644  0.0202  0.7107  1.2235
 7094SOL     OW32917   2.174   1.440   7.959 -0.4272 -0.4570  0.1583
 7094SOL    HW132918   2.213   1.474   7.879  1.2608 -1.3816  0.5774
 7094SOL    HW232919   2.129   1.519   7.988 -0.4842 -0.3905 -0.1152
 7095SOL     OW32920   4.345   4.213   9.060 -0.1341  0.2036 -0.2499
 7095SOL    HW132921   4.287   4.289   9.054 -0.6180 -0.2730 -1.6166
 7095SOL    HW232922   4.301   4.152   9.000  1.5337  0.4559 -1.7003
 7096SOL     OW32923   1.417   3.950   7.761 -0.3365 -0.4664  0.0816
 7096SOL    HW132924   1.392   4.018   7.823 -0.9025 -1.7359  1.2420
 7096SOL    HW232925   1.382   3.872   7.803 -0.8198 -0.0546  0.4388
 7097SOL     OW32926   4.454   3.248   4.435 -0.6015 -0.4489 -0.1886
 7097SOL    HW132927   4.462   3.343   4.450 -1.6227 -0.6049  1.3778
 7097SOL    HW232928   4.549   3.234   4.429 -0.1438  1.8510  1.4298
 7098SOL     OW32929   1.970   1.165   6.587  0.4951  0.7281  0.2515
 7098SOL    HW132930   2.000   1.177   6.677  0.5447  2.0785  0.0527
 7098SOL    HW232931   2.024   1.232   6.545 -0.8922  2.7075  1.6246
 7099SOL     OW32932   1.847   2.237   4.501  0.4978  0.4713  0.1891
 7099SOL    HW132933   1.847   2.328   4.471 -1.1367  0.4765  0.1932
 7099SOL    HW232934   1.779   2.214   4.437  0.6196 -0.4579  0.3989
 7100SOL     OW32935   0.155   4.387  17.152 -0.5461  0.1245 -0.6661
 7100SOL    HW132936   0.235   4.439  17.143 -0.6278  0.1728 -1.0898
 7100SOL    HW232937   0.177   4.342  17.234 -1.3360 -0.5826 -0.8368
 7101SOL     OW32938   3.479   3.857   6.758  0.3084 -0.4555  0.6338
 7101SOL    HW132939   3.533   3.781   6.737  0.5461 -0.4045  1.0590
 7101SOL    HW232940   3.386   3.847   6.737  0.1857 -1.3146  1.5774
 7102SOL     OW32941   0.655   3.477   3.072  0.1014 -0.1071 -0.0154
 7102SOL    HW132942   0.708   3.442   3.001 -1.5871 -3.3421  0.3017
 7102SOL    HW232943   0.591   3.529   3.022 -0.8091 -0.5160  0.7188
 7103SOL     OW32944   2.769   1.861   2.930  0.2064  0.1235 -0.4899
 7103SOL    HW132945   2.837   1.925   2.952  2.6005 -1.8108 -2.3110
 7103SOL    HW232946   2.699   1.913   2.890 -1.8964  0.2392  3.2601
 7104SOL     OW32947   3.556   0.507   1.819  0.3542 -0.2424  0.5807
 7104SOL    HW132948   3.572   0.454   1.741  1.8658  0.2827  0.5522
 7104SOL    HW232949   3.552   0.597   1.789  1.1662 -0.7684 -1.0764
 7105SOL     OW32950   0.110   4.025   4.937 -0.2105  0.5295 -0.1304
 7105SOL    HW132951   0.081   4.001   5.025  0.4606 -0.9589 -0.3305
 7105SOL    HW232952   0.094   4.119   4.945  0.7459  0.5934  1.0491
 7106SOL     OW32953   2.213   3.787   3.129 -0.0484  0.3373 -0.2692
 7106SOL    HW132954   2.230   3.818   3.218 -2.3696 -0.0919  0.3146
 7106SOL    HW232955   2.282   3.720   3.130  0.3808  0.7970  0.6339
 7107SOL     OW32956   3.636   4.246   6.647  0.0227  0.1213 -0.6101
 7107SOL    HW132957   3.695   4.245   6.572 -0.5292  0.9536 -1.0581
 7107SOL    HW232958   3.546   4.248   6.614 -0.1349  0.8722 -0.1295
 7108SOL     OW32959   2.453   0.511  17.420 -0.2249  0.4614  0.5516
 7108SOL    HW132960   2.506   0.437  17.450  0.6319  0.4452 -0.9906
 7108SOL    HW232961   2.435   0.489  17.328  1.7809 -2.1210  0.7833
 7109SOL     OW32962   2.818   1.404   2.225 -0.1716 -0.7838  0.5824
 7109SOL    HW132963   2.877   1.422   2.299 -2.0146  1.3735  1.5307
 7109SOL    HW232964   2.878   1.410   2.151 -1.2302 -2.1217 -0.3789
 7110SOL     OW32965   4.021   4.560   4.091  0.3689  0.1662  0.0136
 7110SOL    HW132966   4.068   4.483   4.057 -0.3251 -0.1597 -0.2071
 7110SOL    HW232967   3.948   4.559   4.030  1.5570 -1.4135 -1.3793
 7111SOL     OW32968   2.364   2.647   2.728 -0.4121 -0.6332 -0.1153
 7111SOL    HW132969   2.411   2.566   2.707  2.0190  0.7692 -0.0852
 7111SOL    HW232970   2.276   2.629   2.694 -1.0511  2.2954 -0.0040
 7112SOL     OW32971   2.904   1.071  13.804  0.0713 -0.2873 -0.4433
 7112SOL    HW132972   2.921   1.108  13.891 -1.9439  0.3845 -0.3113
 7112SOL    HW232973   2.974   1.007  13.797  1.2856  0.6920  2.3903
 7113SOL     OW32974   0.697   2.631   3.919  0.4914 -0.2069 -0.6044
 7113SOL    HW132975   0.710   2.626   3.825  1.3438  1.1339 -0.5587
 7113SOL    HW232976   0.725   2.544   3.946  1.8919  0.4996  0.2638
 7114SOL     OW32977   4.414   1.937   4.793  0.1499  0.2208 -0.1952
 7114SOL    HW132978   4.403   1.865   4.855  1.1275  0.5398  0.3609
 7114SOL    HW232979   4.378   2.015   4.835 -0.3262 -0.8486  1.3749
 7115SOL     OW32980   0.338   2.362  17.532  0.0611 -0.3934  0.1164
 7115SOL    HW132981   0.336   2.289  17.469  0.5754 -0.2836 -0.0276
 7115SOL    HW232982   0.300   2.330  17.613  2.0020 -3.3071 -0.1166
 7116SOL     OW32983   4.617   0.356   5.536  0.6519  0.1886  0.2703
 7116SOL    HW132984   4.521   0.359   5.531  0.6208 -2.9394 -0.3555
 7116SOL    HW232985   4.644   0.396   5.453  0.5638  0.0431  0.1734
 7117SOL     OW32986   1.201   4.563  16.670  0.0723  0.2186 -0.4695
 7117SOL    HW132987   1.198   4.567  16.766 -0.3445  5.2394 -0.7184
 7117SOL    HW232988   1.291   4.535  16.654 -0.1756 -1.4993  1.1037
 7118SOL     OW32989   4.171   1.934   2.472  0.1087 -0.2621 -0.2528
 7118SOL    HW132990   4.141   1.928   2.381 -1.6228 -3.4126  0.5430
 7118SOL    HW232991   4.242   1.871   2.477 -0.6692 -1.1339 -0.3140
 7119SOL     OW32992   2.286   2.836  13.185 -0.1195 -0.0556 -0.4031
 7119SOL    HW132993   2.362   2.879  13.224  1.5318 -2.4899 -0.9620
 7119SOL    HW232994   2.233   2.846  13.264 -0.9166  0.7408 -1.0312
 7120SOL     OW32995   1.518   2.363   9.302  0.6092 -0.3732 -0.5288
 7120SOL    HW132996   1.574   2.438   9.322  2.4771 -2.2803  1.4616
 7120SOL    HW232997   1.559   2.333   9.221  1.5711  1.7547 -0.8421
 7121SOL     OW32998   1.278   2.179  14.231  0.8249  0.0433 -0.1569
 7121SOL    HW132999   1.343   2.249  14.240  1.0788 -0.0796 -1.1017
 7121SOL    HW233000   1.212   2.218  14.174  1.5755  1.3300 -0.1408
 7122SOL     OW33001   2.750   1.408   1.111 -0.0175  0.1426 -0.3782
 7122SOL    HW133002   2.806   1.464   1.058  0.4430 -0.3040 -0.3701
 7122SOL    HW233003   2.667   1.410   1.063 -1.0174  2.3434  1.4601
 7123SOL     OW33004   2.812   0.291  15.678  0.3862 -0.6501 -0.7689
 7123SOL    HW133005   2.824   0.384  15.659  1.0006 -1.3557 -3.7966
 7123SOL    HW233006   2.875   0.293  15.750  1.5700 -0.0600 -1.8251
 7124SOL     OW33007   3.802   1.816   8.451 -0.1977  0.1707  0.0003
 7124SOL    HW133008   3.744   1.740   8.449 -1.6230  1.2509 -0.2423
 7124SOL    HW233009   3.833   1.828   8.541 -0.5533  2.9377 -0.2299
 7125SOL     OW33010   0.574   1.409   5.970  0.2782  0.2202  0.2692
 7125SOL    HW133011   0.502   1.448   5.920 -1.8833 -1.6374  1.9347
 7125SOL    HW233012   0.649   1.445   5.921  0.9208  0.9667  1.7904
 7126SOL     OW33013   2.825   1.372   9.156 -0.1704 -0.1560 -0.5254
 7126SOL    HW133014   2.871   1.403   9.078 -0.5367 -0.6815 -0.9460
 7126SOL    HW233015   2.891   1.358   9.224 -0.4421 -1.1647 -0.4698
 7127SOL     OW33016   0.849   3.527   4.226 -0.2626  0.0268 -0.7624
 7127SOL    HW133017   0.763   3.486   4.220  0.2682 -1.1765 -0.1110
 7127SOL    HW233018   0.902   3.461   4.181  0.4635 -1.3065  2.0641
 7128SOL     OW33019   4.366   1.510   8.695 -0.2290  0.1093  0.4026
 7128SOL    HW133020   4.329   1.422   8.685  2.1189 -0.7831 -0.4925
 7128SOL    HW233021   4.309   1.534   8.768  1.8535  3.4742  0.9265
 7129SOL     OW33022   3.616   0.849  13.691  0.3950 -0.6126 -0.1820
 7129SOL    HW133023   3.606   0.940  13.665  0.1062 -0.4092  0.6683
 7129SOL    HW233024   3.541   0.832  13.748  1.0893 -0.3961  0.7818
 7130SOL     OW33025   2.823   4.151   9.079 -0.1226  0.2288 -0.1302
 7130SOL    HW133026   2.731   4.163   9.055 -0.7408 -1.7600  1.2702
 7130SOL    HW233027   2.811   4.074   9.135 -2.3423 -1.7076 -3.3009
 7131SOL     OW33028   3.221   0.653  12.758 -0.6296  0.2971  0.1542
 7131SOL    HW133029   3.144   0.692  12.800 -0.7061 -1.1477  1.3682
 7131SOL    HW233030   3.258   0.624  12.841 -2.2140 -0.7912  0.4843
 7132SOL     OW33031   2.400   1.673   1.912 -0.2461 -0.2158 -0.1298
 7132SOL    HW133032   2.491   1.686   1.885 -0.5092  2.0735  0.0731
 7132SOL    HW233033   2.390   1.580   1.892 -0.1061 -0.0573 -0.9282
 7133SOL     OW33034   4.035   1.651   5.486 -0.6366  0.3164  0.9884
 7133SOL    HW133035   4.019   1.645   5.580 -1.0243 -0.0055  0.8963
 7133SOL    HW233036   4.059   1.563   5.458  0.9496  0.2980  2.3693
 7134SOL     OW33037   0.878   0.676   9.413 -0.2881 -0.2232  0.1991
 7134SOL    HW133038   0.793   0.681   9.456 -1.0685 -0.9047 -1.2602
 7134SOL    HW233039   0.900   0.769   9.409  1.6173 -0.7355 -1.3925
 7135SOL     OW33040   3.030   2.150   8.187 -0.1459 -0.3868 -0.1253
 7135SOL    HW133041   3.124   2.161   8.197 -0.0596 -0.2781 -1.0894
 7135SOL    HW233042   2.995   2.234   8.215 -0.3934  0.0683 -1.8311
 7136SOL     OW33043   4.385   4.070  11.139  0.8115  0.1325  0.0198
 7136SOL    HW133044   4.472   4.101  11.164  0.1880  2.6665 -0.9815
 7136SOL    HW233045   4.416   4.029  11.058  2.3565 -3.1124  2.2203
 7137SOL     OW33046   0.251   2.255   3.529 -0.5278 -0.0113 -0.0442
 7137SOL    HW133047   0.272   2.328   3.587 -1.3013  0.5076 -0.4139
 7137SOL    HW233048   0.253   2.305   3.447 -0.8780  0.2040  0.0755
 7138SOL     OW33049   0.187   1.399   1.619 -0.3602 -0.7357 -0.1047
 7138SOL    HW133050   0.189   1.315   1.574  0.1698 -1.7242  1.7806
 7138SOL    HW233051   0.092   1.401   1.635 -0.1886 -0.3399  0.9215
 7139SOL     OW33052   0.283   0.549   8.697  0.2819  0.1784 -0.3662
 7139SOL    HW133053   0.338   0.565   8.774  0.1169 -0.5920 -0.0875
 7139SOL    HW233054   0.201   0.536   8.744  0.1835  0.3853 -0.4830
 7140SOL     OW33055   1.424   4.708  14.173  0.2096  0.4199 -0.2250
 7140SOL    HW133056   1.426   0.009  14.259  1.2913 -1.4889  0.6434
 7140SOL    HW233057   1.331   4.717  14.152  0.6259  1.7167 -1.4976
 7141SOL     OW33058   1.200   1.632  12.979 -0.0950  0.0307 -0.2599
 7141SOL    HW133059   1.252   1.575  12.922  1.0736  0.9919 -0.1486
 7141SOL    HW233060   1.244   1.714  12.958 -0.2725 -0.3670 -2.1379
 7142SOL     OW33061   2.093   2.710   5.447 -0.0658  0.0492  0.2213
 7142SOL    HW133062   2.043   2.640   5.489  1.3731 -0.2044  1.5232
 7142SOL    HW233063   2.059   2.704   5.357  2.0337  1.1576 -0.6322
 7143SOL     OW33064   2.664   2.583   8.049 -0.4167  0.4900  0.9323
 7143SOL    HW133065   2.756   2.585   8.022 -0.7671  2.2091 -0.1110
 7143SOL    HW233066   2.637   2.521   7.981 -1.0512 -0.4804  2.0700
 7144SOL     OW33067   0.216   4.636  12.063  0.2130  0.6784  0.1987
 7144SOL    HW133068   0.274   4.683  12.003 -0.2710  0.1833 -0.6608
 7144SOL    HW233069   0.134   4.665  12.023 -0.6061 -2.4325 -0.3919
 7145SOL     OW33070   3.313   2.078   8.181  0.1567  0.6354  0.2163
 7145SOL    HW133071   3.319   2.079   8.086  0.9077 -3.3520  0.1917
 7145SOL    HW233072   3.403   2.059   8.208  0.0248  0.8150  0.7979
 7146SOL     OW33073   2.612   1.951  17.459  0.7514 -0.1378  0.7667
 7146SOL    HW133074   2.628   1.989  17.372 -1.4418  0.0322  0.4529
 7146SOL    HW233075   2.528   1.991  17.481  0.6421  1.0120 -1.7349
 7147SOL     OW33076   2.191   3.892   6.540 -0.0482 -0.1486  0.2205
 7147SOL    HW133077   2.145   3.819   6.581 -0.5591 -0.6395 -1.2451
 7147SOL    HW233078   2.204   3.945   6.619  1.0734 -0.8522  0.5100
 7148SOL     OW33079   4.357   1.770   6.968 -0.6264 -0.4145 -0.3242
 7148SOL    HW133080   4.350   1.852   6.919  2.7806 -0.8324 -1.5004
 7148SOL    HW233081   4.391   1.822   7.041  0.8629 -0.6626 -0.8421
 7149SOL     OW33082   1.653   2.495  13.713  1.0737  0.0088  0.1249
 7149SOL    HW133083   1.628   2.410  13.678  1.3169  0.6536 -1.6210
 7149SOL    HW233084   1.653   2.549  13.634  0.2466 -0.4802 -0.2037
 7150SOL     OW33085   3.912   0.966   4.984 -0.8749  0.5448 -0.9154
 7150SOL    HW133086   3.921   0.920   4.900 -1.9044 -3.0213  0.8942
 7150SOL    HW233087   3.992   1.018   4.989 -0.4586 -0.0255 -1.5853
 7151SOL     OW33088   1.292   2.645   7.662 -0.1482 -0.3898  0.1115
 7151SOL    HW133089   1.209   2.601   7.643 -0.9287  0.7654  0.8394
 7151SOL    HW233090   1.354   2.572   7.655  0.0942 -0.2610  0.9542
 7152SOL     OW33091   3.297   1.816  11.337  0.0954  0.0020  0.5102
 7152SOL    HW133092   3.293   1.909  11.359  1.7810  0.2984 -0.4336
 7152SOL    HW233093   3.329   1.783  11.422  1.2475 -1.1337 -0.3645
 7153SOL     OW33094   3.825   1.779   4.265 -0.0858 -0.1207 -0.3093
 7153SOL    HW133095   3.837   1.862   4.219  0.2588  0.3849  0.6913
 7153SOL    HW233096   3.914   1.745   4.260 -0.2165 -0.4473 -0.4556
 7154SOL     OW33097   3.381   2.334   6.653 -0.1295 -0.7045 -0.0138
 7154SOL    HW133098   3.386   2.418   6.699 -0.2256 -1.5115  1.4930
 7154SOL    HW233099   3.454   2.340   6.592 -1.7244 -0.2345 -1.8809
 7155SOL     OW33100   3.370   0.412   1.538 -0.3997  0.4552 -0.2703
 7155SOL    HW133101   3.362   0.318   1.519 -3.6206  0.8942 -1.1125
 7155SOL    HW233102   3.424   0.442   1.465 -1.3210  2.4776 -0.1109
 7156SOL     OW33103   0.261   1.066  16.071  0.2224  0.4858  0.1036
 7156SOL    HW133104   0.198   0.998  16.049  1.3727  0.3906 -2.8904
 7156SOL    HW233105   0.221   1.127  16.134  1.4496  1.4048 -0.0141
 7157SOL     OW33106   1.656   3.591  11.204 -0.8193  0.1737  0.2713
 7157SOL    HW133107   1.603   3.610  11.281 -0.0579 -0.0943  0.8579
 7157SOL    HW233108   1.591   3.561  11.141  2.3623 -2.6741 -1.6114
 7158SOL     OW33109   0.757   2.525   7.747  0.2325  0.1861 -0.3952
 7158SOL    HW133110   0.688   2.532   7.813  1.3791 -0.4920  0.8667
 7158SOL    HW233111   0.772   2.431   7.750  0.4996  0.2289 -0.3811
 7159SOL     OW33112   4.067   0.254   8.146  0.2142 -0.7946 -0.1950
 7159SOL    HW133113   4.111   0.265   8.230  1.2183  1.8990 -1.0644
 7159SOL    HW233114   4.102   0.329   8.098  1.5406 -0.8710  0.6510
 7160SOL     OW33115   3.853   0.263   9.213 -1.0980 -0.4334 -0.3217
 7160SOL    HW133116   3.835   0.301   9.298  0.2662 -0.3532 -0.0657
 7160SOL    HW233117   3.892   0.184   9.250 -2.7996 -1.4494 -0.7378
 7161SOL     OW33118   2.400   2.096   1.944  0.3359  0.2165  0.1632
 7161SOL    HW133119   2.423   2.062   2.030  0.9628  0.3230  0.0451
 7161SOL    HW233120   2.306   2.085   1.951 -0.0394  2.2763 -1.6373
 7162SOL     OW33121   2.951   2.697  13.036 -0.3251 -0.6728  0.3416
 7162SOL    HW133122   3.035   2.662  13.007  0.2800  0.5475  0.6130
 7162SOL    HW233123   2.943   2.647  13.117  0.0887 -2.4719 -0.7346
 7163SOL     OW33124   3.277   0.902   9.038  0.2831 -0.0685  0.0682
 7163SOL    HW133125   3.310   0.935   9.121 -0.5550 -3.6057  1.8151
 7163SOL    HW233126   3.286   0.807   9.042  0.2422 -0.0729  0.0538
 7164SOL     OW33127   1.233   0.165   6.854 -0.1308 -0.3528  0.2640
 7164SOL    HW133128   1.224   0.149   6.948 -0.8935 -0.0131  0.2519
 7164SOL    HW233129   1.265   0.082   6.817  0.5093 -0.4183  0.9723
 7165SOL     OW33130   2.833   3.387  10.321  0.1962  0.5858 -0.3312
 7165SOL    HW133131   2.909   3.332  10.341  0.8555  1.3917 -0.6245
 7165SOL    HW233132   2.819   3.392  10.227  3.4592 -1.2474 -0.9173
 7166SOL     OW33133   1.126   0.564   4.647  0.4029 -0.4460  0.0310
 7166SOL    HW133134   1.163   0.597   4.728 -0.1418  1.2873 -0.4300
 7166SOL    HW233135   1.135   0.639   4.588 -1.2719  0.4804  0.9516
 7167SOL     OW33136   3.118   4.554  17.455  0.0015 -1.0507  0.6585
 7167SOL    HW133137   3.102   4.465  17.425  0.3740 -0.7578 -0.4200
 7167SOL    HW233138   3.057   4.565  17.528 -2.5192 -2.2354 -1.3129
 7168SOL     OW33139   1.948   0.270  17.676 -0.4584  0.0816  0.7888
 7168SOL    HW133140   1.908   0.274   0.009 -0.3342 -1.2274  0.9128
 7168SOL    HW233141   2.037   0.271  17.711 -0.7071 -1.5182  1.4828
 7169SOL     OW33142   0.706   1.147  12.003 -0.1489  0.3146 -0.6736
 7169SOL    HW133143   0.697   1.222  12.063  0.0632 -0.2074  0.0120
 7169SOL    HW233144   0.783   1.168  11.951  0.3399  2.1758  0.7958
 7170SOL     OW33145   0.729   0.367  16.742 -0.4035  0.0924 -0.0751
 7170SOL    HW133146   0.667   0.298  16.767  2.2621 -1.6438  1.7059
 7170SOL    HW233147   0.764   0.333  16.660 -2.4827 -0.4166 -0.7387
 7171SOL     OW33148   4.236   2.370   1.854 -0.3077 -0.1518 -0.2986
 7171SOL    HW133149   4.327   2.393   1.870 -0.0455 -0.7506 -0.9482
 7171SOL    HW233150   4.191   2.394   1.935  2.1814  1.3302  0.6278
 7172SOL     OW33151   0.274   0.333   9.017 -0.6913 -0.1610 -0.0019
 7172SOL    HW133152   0.220   0.264   8.979 -1.1698 -0.1723  0.7049
 7172SOL    HW233153   0.318   0.276   9.079 -1.9445 -0.3680  0.7061
 7173SOL     OW33154   1.407   1.643  15.227 -0.2002 -0.1676  0.1109
 7173SOL    HW133155   1.394   1.552  15.255 -2.6229 -0.3608 -1.5909
 7173SOL    HW233156   1.322   1.680  15.251 -0.5769 -1.8228  1.2961
 7174SOL     OW33157   2.678   2.980   3.854 -0.4251  0.3929 -0.1421
 7174SOL    HW133158   2.699   3.034   3.778  0.0090 -0.6590 -0.7749
 7174SOL    HW233159   2.748   2.915   3.847 -1.1942 -0.4869  0.4672
 7175SOL     OW33160   3.258   3.365   4.945 -0.3842 -0.0836  0.0025
 7175SOL    HW133161   3.331   3.412   4.904  0.8112 -0.8220  1.3276
 7175SOL    HW233162   3.266   3.280   4.903  1.2582 -0.5982  1.4047
 7176SOL     OW33163   2.276   2.803  11.726  0.4447  0.5282 -0.1262
 7176SOL    HW133164   2.229   2.853  11.659  3.4010  0.5285 -2.2071
 7176SOL    HW233165   2.222   2.729  11.753 -0.4626  0.3868 -2.3177
 7177SOL     OW33166   0.721   4.122   4.899 -0.0626 -0.0496  0.4051
 7177SOL    HW133167   0.648   4.164   4.946  0.1747  1.4995 -0.6094
 7177SOL    HW233168   0.701   4.123   4.806  2.1975 -1.9139 -0.1019
 7178SOL     OW33169   3.412   0.727  17.127  0.2483 -0.0953 -0.4033
 7178SOL    HW133170   3.390   0.731  17.220 -1.2623 -0.0961 -0.7517
 7178SOL    HW233171   3.356   0.651  17.111  1.3456 -1.8068  3.9755
 7179SOL     OW33172   1.554   3.201   2.544 -0.0787 -0.4346 -0.1774
 7179SOL    HW133173   1.475   3.158   2.511  0.3654 -0.7025 -0.8788
 7179SOL    HW233174   1.616   3.158   2.485 -0.4090 -1.6490  0.3563
 7180SOL     OW33175   2.979   3.487   7.567  0.2885  0.2386 -0.2502
 7180SOL    HW133176   2.903   3.432   7.586  1.8301 -0.9289  2.7272
 7180SOL    HW233177   3.011   3.496   7.657 -0.1972  2.0442 -0.2633
 7181SOL     OW33178   4.556   3.678   6.751  0.4342 -0.1707  0.1545
 7181SOL    HW133179   4.630   3.635   6.794  1.3966  1.9255  0.5526
 7181SOL    HW233180   4.540   3.632   6.669 -0.5486 -1.4300  1.0525
 7182SOL     OW33181   0.354   1.929  12.707  0.2425  0.0897 -0.2286
 7182SOL    HW133182   0.421   1.990  12.737  1.4829 -1.2097 -0.3208
 7182SOL    HW233183   0.301   1.992  12.659 -0.6324 -2.3078 -2.4220
 7183SOL     OW33184   4.601   4.620   8.387  0.4385 -0.8723 -0.4134
 7183SOL    HW133185   4.653   4.556   8.436  1.5955  0.1870 -0.2745
 7183SOL    HW233186   4.553   4.564   8.326  2.5048 -1.3562 -1.6032
 7184SOL     OW33187   4.645   0.887   3.760 -0.2401 -0.3396  0.0174
 7184SOL    HW133188   4.653   0.795   3.735 -0.0480 -1.3225  3.6643
 7184SOL    HW233189   4.555   0.902   3.789 -1.0403  0.2876 -2.7523
 7185SOL     OW33190   0.845   3.970   8.586 -0.3129  0.2884 -0.2162
 7185SOL    HW133191   0.769   3.988   8.531 -0.9248 -2.5857 -0.2741
 7185SOL    HW233192   0.883   3.894   8.543  0.3504 -0.8190  2.3067
 7186SOL     OW33193   1.228   2.675   6.191  0.6856  0.5255  0.2045
 7186SOL    HW133194   1.298   2.734   6.165  0.0499  1.3474  0.3424
 7186SOL    HW233195   1.209   2.636   6.106 -0.2599 -0.4397  0.8548
 7187SOL     OW33196   0.461   0.683   6.919 -0.3043 -0.2578 -0.5066
 7187SOL    HW133197   0.528   0.732   6.966  1.1199 -0.4116 -2.3637
 7187SOL    HW233198   0.378   0.702   6.963 -0.3431 -3.6431  0.8772
 7188SOL     OW33199   1.636   3.268   6.392 -0.1269  0.3497 -0.0945
 7188SOL    HW133200   1.667   3.178   6.378  2.3830  1.6810 -2.8169
 7188SOL    HW233201   1.550   3.274   6.351 -0.7340 -2.3165  0.7124
 7189SOL     OW33202   0.206   1.738   8.011  0.0490 -0.0950  0.2642
 7189SOL    HW133203   0.163   1.726   8.096 -0.2724  1.2343  0.2888
 7189SOL    HW233204   0.292   1.706   8.039 -0.3872  1.2104  3.2239
 7190SOL     OW33205   4.565   2.341  10.727  0.1921 -0.0436 -0.1525
 7190SOL    HW133206   4.472   2.352  10.710  0.4753  1.6981 -0.5886
 7190SOL    HW233207   4.598   2.431  10.736  2.3305 -0.7667 -0.6610
 7191SOL     OW33208   0.747   0.047   3.499 -0.2344 -0.1421  1.0369
 7191SOL    HW133209   0.653   0.060   3.489 -0.2229 -1.0077 -0.2471
 7191SOL    HW233210   0.782   0.119   3.447  1.6124 -0.4686  1.8403
 7192SOL     OW33211   1.955   4.099   6.195  0.2986 -0.4122 -0.1271
 7192SOL    HW133212   2.017   4.029   6.217  0.0101 -1.2002 -1.8188
 7192SOL    HW233213   2.012   4.172   6.170  0.0445 -1.0354 -2.5854
 7193SOL     OW33214   1.847   4.557   3.352  0.4296 -0.7488 -0.0002
 7193SOL    HW133215   1.911   4.603   3.406  0.8350 -0.9593 -0.2973
 7193SOL    HW233216   1.889   4.472   3.340 -1.7827 -2.0890  1.5342
 7194SOL     OW33217   1.496   3.346   8.245 -0.6233 -0.0730 -0.4433
 7194SOL    HW133218   1.518   3.337   8.152 -0.6542  0.2134 -0.4785
 7194SOL    HW233219   1.483   3.440   8.259 -1.3642 -0.3617  0.7501
 7195SOL     OW33220   1.730   3.065   1.333 -0.2571  0.1686  0.1344
 7195SOL    HW133221   1.774   3.050   1.417 -0.1840 -0.8654 -0.0813
 7195SOL    HW233222   1.732   2.982   1.286  0.5902  0.9050 -1.1341
 7196SOL     OW33223   0.677   1.690   2.733 -0.2807 -0.0586 -0.2428
 7196SOL    HW133224   0.675   1.594   2.733 -2.9864  0.0045  0.7172
 7196SOL    HW233225   0.763   1.706   2.694 -0.8264 -3.3473 -2.7338
 7197SOL     OW33226   2.588   4.124   7.598 -0.0528  0.3489 -0.4527
 7197SOL    HW133227   2.530   4.191   7.634 -2.6082 -2.0680 -0.1090
 7197SOL    HW233228   2.569   4.137   7.506  2.8345  0.1350 -1.0966
 7198SOL     OW33229   3.336   3.986   6.977 -0.6616  0.9670 -0.5535
 7198SOL    HW133230   3.355   4.050   6.908  0.6513 -0.3470 -1.3951
 7198SOL    HW233231   3.368   4.036   7.053 -0.2903 -0.6453  0.3500
 7199SOL     OW33232   2.758   2.411   9.482  0.5425 -0.4009  0.3449
 7199SOL    HW133233   2.789   2.355   9.411  0.7049 -0.3654  0.3886
 7199SOL    HW233234   2.699   2.351   9.529 -0.2951 -0.3783 -0.6742
 7200SOL     OW33235   0.550   1.896   8.662  0.5479  0.7158 -0.2254
 7200SOL    HW133236   0.607   1.927   8.732  0.4401 -0.3310  0.3350
 7200SOL    HW233237   0.562   1.801   8.654  1.4167  0.9131 -1.1782
 7201SOL     OW33238   1.478   3.543  10.977  0.2847 -0.0531 -0.2181
 7201SOL    HW133239   1.399   3.556  11.030  0.1741 -1.8029  0.0300
 7201SOL    HW233240   1.487   3.634  10.948  1.7724 -0.7608 -1.9499
 7202SOL     OW33241   2.822   0.120  11.941  0.7269  0.5831  0.3564
 7202SOL    HW133242   2.890   0.118  12.008  0.2935  1.0171  0.8047
 7202SOL    HW233243   2.870   0.109  11.858  0.7125 -1.3664  0.5924
 7203SOL     OW33244   4.006   1.775   6.509 -0.0427 -0.2322  0.0168
 7203SOL    HW133245   4.066   1.825   6.564 -1.4267 -0.6626  1.9493
 7203SOL    HW233246   4.031   1.688   6.539  2.1583  0.2545 -0.4104
 7204SOL     OW33247   1.099   1.238   3.285  0.4672  0.2575  0.0849
 7204SOL    HW133248   1.103   1.308   3.221  0.1212 -0.4913 -0.7580
 7204SOL    HW233249   1.027   1.184   3.253  1.2339 -0.8265  0.1663
 7205SOL     OW33250   3.136   2.083  16.435 -0.0391  0.1033 -0.4731
 7205SOL    HW133251   3.207   2.031  16.473 -1.1415 -1.1482 -0.1540
 7205SOL    HW233252   3.182   2.126  16.362 -0.0019 -0.2600 -0.6613
 7206SOL     OW33253   4.734   4.001   5.173  0.2102  0.0654 -0.5579
 7206SOL    HW133254   4.662   3.952   5.212  0.3043  2.2678  2.4114
 7206SOL    HW233255   4.677   4.073   5.145 -1.7647 -2.1403 -2.2239
 7207SOL     OW33256   3.865   1.277   2.038 -0.1051  0.1478  0.1190
 7207SOL    HW133257   3.799   1.295   1.971 -1.1907 -1.1741  0.8338
 7207SOL    HW233258   3.920   1.356   2.039  0.6107 -0.3273 -0.7271
 7208SOL     OW33259   3.798   3.925  14.777  0.2283 -0.0293 -0.0989
 7208SOL    HW133260   3.848   3.959  14.702 -1.3601 -0.2196 -1.2433
 7208SOL    HW233261   3.791   3.833  14.754  3.0836  0.1621 -1.7475
 7209SOL     OW33262   3.325   3.409   4.562 -0.1047  0.1091  0.3654
 7209SOL    HW133263   3.268   3.380   4.490 -1.1211 -1.4963  1.8143
 7209SOL    HW233264   3.410   3.369   4.542 -0.4089  0.2558 -1.2272
 7210SOL     OW33265   3.856   3.683   0.036 -0.0036 -0.1894 -0.0555
 7210SOL    HW133266   3.951   3.670   0.035 -0.0767 -0.4389 -3.6220
 7210SOL    HW233267   3.819   3.595   0.029  2.6917 -1.4444  1.4665
 7211SOL     OW33268   3.351   3.523  10.724 -0.5508 -0.0929  0.4281
 7211SOL    HW133269   3.373   3.529  10.817  0.3442 -0.5406  0.2409
 7211SOL    HW233270   3.304   3.605  10.707 -1.5838 -0.5508  1.0757
 7212SOL     OW33271   1.630   1.713   6.352  0.3872 -0.1013 -0.0252
 7212SOL    HW133272   1.610   1.719   6.445 -0.7016  1.8455 -0.4019
 7212SOL    HW233273   1.616   1.804   6.326 -0.1549 -0.4899 -1.0962
 7213SOL     OW33274   3.699   1.292   8.024  0.3818  0.1309 -0.2092
 7213SOL    HW133275   3.637   1.356   8.060  0.3535 -0.1238  0.2021
 7213SOL    HW233276   3.644   1.240   7.965 -0.2355  0.7001 -0.1389
 7214SOL     OW33277   1.534   3.498  15.714 -0.1175 -0.3330  0.0293
 7214SOL    HW133278   1.509   3.451  15.634 -1.9336 -0.3550  0.6140
 7214SOL    HW233279   1.513   3.434  15.781 -0.4267 -0.2732 -0.0111
 7215SOL     OW33280   1.515   3.638   4.198  0.1599  0.0640  0.0224
 7215SOL    HW133281   1.466   3.556   4.195  2.2697 -1.0647 -2.9698
 7215SOL    HW233282   1.546   3.656   4.110 -0.1167  0.0054 -0.0856
 7216SOL     OW33283   2.304   2.064   3.639 -0.6320  0.0122  0.0317
 7216SOL    HW133284   2.254   1.994   3.598 -0.6498  0.6949 -1.1236
 7216SOL    HW233285   2.234   2.096   3.695 -1.1646 -1.8526  0.4071
 7217SOL     OW33286   2.232   0.908   7.270  0.0776 -0.3307  0.4181
 7217SOL    HW133287   2.154   0.958   7.246  0.3118 -0.0437  0.2498
 7217SOL    HW233288   2.196   0.820   7.265 -1.9242  0.3946  2.2845
 7218SOL     OW33289   0.411   0.664   4.403  0.0088 -0.5737 -0.5783
 7218SOL    HW133290   0.338   0.682   4.463  2.4555 -0.1103  2.2277
 7218SOL    HW233291   0.375   0.583   4.367 -1.1176  0.1654 -1.1158
 7219SOL     OW33292   4.025   2.062   3.074  0.0645  0.0822 -0.3169
 7219SOL    HW133293   4.038   2.043   3.167  0.7753  0.5422 -0.3244
 7219SOL    HW233294   4.095   2.013   3.031  1.1310 -0.4402  2.0067
 7220SOL     OW33295   2.972   4.691   1.425 -0.0831  0.1982 -0.9215
 7220SOL    HW133296   3.025   4.611   1.428  0.1744  0.3059 -2.3891
 7220SOL    HW233297   2.892   4.648   1.455  0.0402  0.1911 -0.6020
 7221SOL     OW33298   2.703   0.497   8.823 -0.7188  0.1752 -0.1722
 7221SOL    HW133299   2.610   0.476   8.823 -0.7513  0.3511  1.9824
 7221SOL    HW233300   2.691   0.587   8.794 -0.6152  0.2862  0.1326
 7222SOL     OW33301   0.497   1.831   6.352  0.1074 -0.6648  0.1516
 7222SOL    HW133302   0.419   1.877   6.321  0.3724 -0.6530 -0.5186
 7222SOL    HW233303   0.544   1.902   6.395 -0.9990 -0.1265  0.4484
 7223SOL     OW33304   0.749   1.728   3.566  0.1219 -0.0956  0.3637
 7223SOL    HW133305   0.775   1.816   3.592 -1.5477  0.7194 -0.7469
 7223SOL    HW233306   0.656   1.738   3.586  0.1783  0.0525  0.5455
 7224SOL     OW33307   2.586   1.029   1.652  0.2076  0.3287  0.0375
 7224SOL    HW133308   2.574   1.121   1.677 -1.0028 -0.1306  1.1546
 7224SOL    HW233309   2.584   0.995   1.742  1.3033  3.1953  1.1636
 7225SOL     OW33310   2.160   3.138   6.465 -0.0837  0.2089 -0.7401
 7225SOL    HW133311   2.110   3.220   6.468  0.1677  0.3725 -0.9678
 7225SOL    HW233312   2.245   3.161   6.426  1.0063 -2.1909  0.2108
 7226SOL     OW33313   1.176   0.558   2.846 -0.7549  0.6005 -0.4605
 7226SOL    HW133314   1.153   0.557   2.939  0.7938 -0.9519 -0.0689
 7226SOL    HW233315   1.123   0.491   2.804  0.8232 -0.8868 -0.0944
 7227SOL     OW33316   3.304   1.730  11.654  0.3459 -0.2611 -0.0882
 7227SOL    HW133317   3.278   1.801  11.713  3.2261  0.6858  0.0635
 7227SOL    HW233318   3.399   1.743  11.650 -0.1119  3.4948  1.1257
 7228SOL     OW33319   0.179   3.163   9.417 -0.0192  0.0266  0.1093
 7228SOL    HW133320   0.109   3.133   9.475 -0.8906 -0.2264 -1.0734
 7228SOL    HW233321   0.255   3.128   9.464  0.3910  0.0034 -0.5647
 7229SOL     OW33322   3.685   1.242   5.877 -0.7620 -0.2099 -0.2924
 7229SOL    HW133323   3.713   1.153   5.855  1.0078  0.4681 -0.8276
 7229SOL    HW233324   3.695   1.290   5.795  1.1750 -0.9264 -0.4772
 7230SOL     OW33325   1.344   2.572   2.758  0.1160 -0.0689  0.2695
 7230SOL    HW133326   1.399   2.567   2.679  0.1099 -2.0806  0.3971
 7230SOL    HW233327   1.259   2.562   2.716  0.3138  0.6753 -0.3054
 7231SOL     OW33328   3.952   3.546   7.662  0.2111 -0.2058 -0.2351
 7231SOL    HW133329   3.927   3.500   7.742 -1.5527  0.0238 -0.6584
 7231SOL    HW233330   4.020   3.486   7.630 -0.0442 -0.5895 -0.0558
 7232SOL     OW33331   2.946   1.315   1.492 -0.3847  0.7220 -0.0381
 7232SOL    HW133332   3.036   1.320   1.459 -0.3392  0.3357  0.0338
 7232SOL    HW233333   2.957   1.265   1.572  0.6569  0.2045 -0.5124
 7233SOL     OW33334   0.928   2.865   1.032  0.7805  0.3183  0.0179
 7233SOL    HW133335   0.940   2.921   1.109 -1.7027 -0.2487  0.8178
 7233SOL    HW233336   0.836   2.839   1.038  0.7353  0.1746 -1.3077
 7234SOL     OW33337   4.190   0.137   7.195  0.3960  0.0895  0.3548
 7234SOL    HW133338   4.153   0.060   7.238  0.3303 -0.4760 -0.7286
 7234SOL    HW233339   4.256   0.097   7.138 -0.1570 -1.9547  1.1599
 7235SOL     OW33340   2.382   3.250   6.322  0.1746 -0.2231 -0.0508
 7235SOL    HW133341   2.476   3.269   6.319 -0.2796  1.8202 -1.2096
 7235SOL    HW233342   2.374   3.163   6.282  0.0889  0.4138 -1.4160
 7236SOL     OW33343   2.428   2.885   1.041 -0.5575 -0.0836  0.4368
 7236SOL    HW133344   2.477   2.802   1.043 -2.9115 -1.5209 -1.1460
 7236SOL    HW233345   2.485   2.944   0.993 -3.8402  3.0674  0.3832
 7237SOL     OW33346   3.627   2.360  13.091 -0.5662 -0.4275  0.2528
 7237SOL    HW133347   3.551   2.305  13.074 -1.7285  0.9498  1.0420
 7237SOL    HW233348   3.623   2.373  13.186 -1.0759 -0.5117  0.2416
 7238SOL     OW33349   1.547   4.704   4.902 -0.8230 -0.0414  0.2458
 7238SOL    HW133350   1.527   4.693   4.995  0.3103 -1.0050  0.3750
 7238SOL    HW233351   1.633   0.006   4.906 -0.9286  0.2963 -0.7305
 7239SOL     OW33352   0.490   1.257  12.595  0.5400 -0.5466 -0.7685
 7239SOL    HW133353   0.547   1.211  12.534 -0.4273 -0.0638 -2.0484
 7239SOL    HW233354   0.552   1.290  12.660 -1.1187 -2.2524  1.6791
 7240SOL     OW33355   1.468   3.057  15.464 -0.4112  0.2416 -0.4347
 7240SOL    HW133356   1.511   3.042  15.548 -2.2834  0.0024  0.4874
 7240SOL    HW233357   1.389   3.101  15.498 -2.0995 -2.4631 -0.8647
 7241SOL     OW33358   2.663   4.260  10.593  0.1561  0.8707  0.2133
 7241SOL    HW133359   2.611   4.191  10.552  1.0749  0.3744 -0.1209
 7241SOL    HW233360   2.626   4.342  10.560 -1.9568  0.4470  1.5324
 7242SOL     OW33361   3.600   2.274  13.404 -0.5499  0.1624 -0.0922
 7242SOL    HW133362   3.523   2.288  13.459 -0.4470  0.0389  0.0832
 7242SOL    HW233363   3.615   2.180  13.420  2.4512  0.8067  0.7977
 7243SOL     OW33364   3.825   3.693   5.166  0.2223 -0.1578 -0.2178
 7243SOL    HW133365   3.799   3.704   5.257  0.4729 -0.8356 -0.0663
 7243SOL    HW233366   3.816   3.784   5.136 -0.4538 -0.1518  0.0005
 7244SOL     OW33367   0.712   0.281   6.993 -0.2808 -0.3182  0.5531
 7244SOL    HW133368   0.667   0.210   6.948 -0.7133  1.1220 -1.2546
 7244SOL    HW233369   0.801   0.248   7.006 -1.1018 -3.2960 -1.5435
 7245SOL     OW33370   2.585   3.530  10.337 -0.5993 -0.2016 -0.2487
 7245SOL    HW133371   2.675   3.499  10.338 -0.3001  0.6652  1.1601
 7245SOL    HW233372   2.547   3.466  10.277  1.1476 -1.4607 -0.0100
 7246SOL     OW33373   0.138   4.022   4.638 -0.2734  0.0607  0.0680
 7246SOL    HW133374   0.224   3.988   4.614 -0.1920  0.1016  0.3053
 7246SOL    HW233375   0.092   4.021   4.555 -0.1345 -2.6374  0.0177
 7247SOL     OW33376   3.284   0.848   2.506 -0.0408 -0.3436 -0.0808
 7247SOL    HW133377   3.298   0.792   2.430 -0.1809  0.8025 -0.9519
 7247SOL    HW233378   3.345   0.919   2.486 -0.9050  0.3311 -0.3193
 7248SOL     OW33379   4.337   2.774  14.081  0.3146  0.2647  0.2504
 7248SOL    HW133380   4.246   2.769  14.051 -0.1781  2.2933  1.4395
 7248SOL    HW233381   4.374   2.834  14.017  2.4922 -3.0216 -1.5899
 7249SOL     OW33382   1.494   3.499   8.988  0.2097  0.0589  0.2334
 7249SOL    HW133383   1.554   3.437   9.028  1.1783  0.7296 -0.1622
 7249SOL    HW233384   1.528   3.582   9.021 -0.7921  1.8513 -3.2464
 7250SOL     OW33385   3.567   0.767   3.875  0.2503  0.4456  0.4019
 7250SOL    HW133386   3.512   0.689   3.884  2.1519 -0.9242  0.1245
 7250SOL    HW233387   3.598   0.776   3.966 -0.6419  1.4524  0.6009
 7251SOL     OW33388   2.704   0.264  12.964 -0.3538  0.3339 -0.2499
 7251SOL    HW133389   2.740   0.318  13.035 -1.0521 -1.3991  1.4462
 7251SOL    HW233390   2.610   0.268  12.979 -0.2890 -0.6904  0.4664
 7252SOL     OW33391   2.981   3.564   3.344  0.0629 -0.6653  0.2206
 7252SOL    HW133392   3.028   3.647   3.343 -1.8550  0.4282 -0.0897
 7252SOL    HW233393   3.054   3.502   3.344  1.0467  0.4884  0.4533
 7253SOL     OW33394   0.798   2.767   9.429 -0.9240  0.7642 -0.1334
 7253SOL    HW133395   0.859   2.790   9.500  1.5566 -0.3081 -1.9305
 7253SOL    HW233396   0.830   2.806   9.348  1.3924  0.3536  0.5758
 7254SOL     OW33397   0.105   4.041   1.013  0.1249 -0.1267 -0.1925
 7254SOL    HW133398   0.097   3.969   0.950  1.9917  2.1670 -3.0732
 7254SOL    HW233399   0.130   4.113   0.955 -1.3220 -0.2705 -0.9814
 7255SOL     OW33400   0.523   4.603   1.865 -0.5336 -0.0754  0.3251
 7255SOL    HW133401   0.587   4.600   1.936  0.9541 -1.1497 -1.0788
 7255SOL    HW233402   0.572   4.646   1.795  1.9174  0.0307  2.0860
 7256SOL     OW33403   0.696   4.405  13.419  0.2711  0.0129 -0.2261
 7256SOL    HW133404   0.709   4.312  13.438 -1.1726  0.6189  3.7580
 7256SOL    HW233405   0.645   4.407  13.338 -0.9457  0.5350  0.5571
 7257SOL     OW33406   0.865   4.378   6.755  0.2213  0.4137 -0.0910
 7257SOL    HW133407   0.807   4.372   6.831  2.1761  0.9731  1.4692
 7257SOL    HW233408   0.945   4.342   6.794  0.6842  1.5272  0.0022
 7258SOL     OW33409   1.983   4.074   5.136 -0.2254  0.1027 -0.1567
 7258SOL    HW133410   2.056   4.101   5.191  0.8665  0.7528 -1.9154
 7258SOL    HW233411   2.008   4.120   5.055  0.1061 -1.0307 -0.6921
 7259SOL     OW33412   2.755   0.354  10.850  0.1523 -0.4602 -0.1575
 7259SOL    HW133413   2.721   0.311  10.928  0.4294 -0.3057  0.0472
 7259SOL    HW233414   2.848   0.370  10.868  0.5639 -0.4731 -2.3080
 7260SOL     OW33415   3.192   1.240   8.076 -0.6438 -0.7650 -0.1777
 7260SOL    HW133416   3.226   1.316   8.123  1.1755 -1.3484 -0.5731
 7260SOL    HW233417   3.272   1.206   8.036  0.2780 -0.1677  1.1797
 7261SOL     OW33418   2.904   0.011   5.728 -0.1092  0.5551  0.1978
 7261SOL    HW133419   2.817   0.011   5.768  1.1692  0.5947  2.9600
 7261SOL    HW233420   2.949   4.692   5.789 -1.6416 -1.0499 -0.1720
 7262SOL     OW33421   2.132   2.236   3.194 -0.0163 -0.1129 -0.0198
 7262SOL    HW133422   2.190   2.160   3.205  0.9184  0.7089  0.7200
 7262SOL    HW233423   2.048   2.196   3.216  0.2736 -0.5474  0.3227
 7263SOL     OW33424   4.458   0.054   9.212 -0.1002  0.0733  0.7402
 7263SOL    HW133425   4.466   4.699   9.226 -3.0979  0.1855  3.1348
 7263SOL    HW233426   4.365   0.077   9.220 -0.5264 -1.1905 -0.5113
 7264SOL     OW33427   3.090   4.640   2.972 -0.8134 -0.6893  0.4633
 7264SOL    HW133428   3.080   4.551   3.005  0.2723  0.3794  3.6866
 7264SOL    HW233429   3.070   4.635   2.878  3.4672  2.9947 -0.6726
 7265SOL     OW33430   4.688   2.560  11.167  0.0055 -0.3309 -0.1675
 7265SOL    HW133431   0.041   2.582  11.153 -0.2353 -0.1765 -1.5456
 7265SOL    HW233432   4.705   2.504  11.243 -0.5127 -3.2258 -2.1815
 7266SOL     OW33433   2.785   4.530   4.111 -0.1727 -0.6478 -0.4839
 7266SOL    HW133434   2.872   4.570   4.120 -0.6882  0.5343 -0.7008
 7266SOL    HW233435   2.784   4.470   4.186 -1.3953  1.0205  0.8396
 7267SOL     OW33436   2.642   0.692   1.838  0.4445  0.3270  0.0481
 7267SOL    HW133437   2.695   0.667   1.914 -0.4265 -1.9509 -0.1210
 7267SOL    HW233438   2.706   0.670   1.771  0.5848  1.2641 -0.1284
 7268SOL     OW33439   3.781   4.513   8.937 -0.0697 -0.3110  0.4880
 7268SOL    HW133440   3.820   4.509   8.850  1.1166  2.5006  0.9214
 7268SOL    HW233441   3.792   4.422   8.967 -0.1560 -0.0292  1.3799
 7269SOL     OW33442   3.082   3.611  17.739  0.5963  0.0778  0.9525
 7269SOL    HW133443   3.069   3.527  17.696  0.7277  0.4695  0.1481
 7269SOL    HW233444   3.177   3.610  17.747  0.6863  0.3701 -0.0909
 7270SOL     OW33445   2.242   3.791   8.712 -0.7556  0.1662 -0.1387
 7270SOL    HW133446   2.180   3.789   8.785 -0.2310  0.1030  0.3013
 7270SOL    HW233447   2.295   3.717   8.740 -0.9427  0.6737  1.5588
 7271SOL     OW33448   0.437   3.683   7.992  0.2354  0.1450 -0.2684
 7271SOL    HW133449   0.436   3.645   7.904 -0.6912 -0.1300 -0.1433
 7271SOL    HW233450   0.344   3.704   8.006  0.4943  0.9329  0.3047
 7272SOL     OW33451   4.201   0.769   5.251 -0.1884 -0.4252  0.2167
 7272SOL    HW133452   4.229   0.822   5.177  1.2259 -0.8245  0.4784
 7272SOL    HW233453   4.272   0.705   5.246  1.5126  1.3601  1.4279
 7273SOL     OW33454   2.233   3.147   9.431 -0.4753  0.4090  0.1462
 7273SOL    HW133455   2.312   3.116   9.386 -1.0130  0.6865 -0.9969
 7273SOL    HW233456   2.187   3.197   9.363 -0.0889 -1.4484 -1.4857
 7274SOL     OW33457   4.063   0.373   8.513 -0.3365 -0.1347 -0.1924
 7274SOL    HW133458   4.038   0.464   8.530  1.1449  0.3174 -0.4811
 7274SOL    HW233459   4.143   0.384   8.463 -0.5681 -3.6678 -1.3147
 7275SOL     OW33460   4.336   2.054  12.652 -0.4300  0.3858 -0.5777
 7275SOL    HW133461   4.339   2.042  12.557  1.4904 -0.0921 -0.4527
 7275SOL    HW233462   4.367   1.971  12.689 -2.0900  0.3313  0.7225
 7276SOL     OW33463   1.249   1.326   4.386  0.1910 -0.2220 -0.4029
 7276SOL    HW133464   1.256   1.317   4.291  1.5268  1.2321 -0.4358
 7276SOL    HW233465   1.192   1.403   4.389 -0.9878 -1.1442  0.9863
 7277SOL     OW33466   3.602   0.200   6.253  0.1953 -0.1462 -0.0121
 7277SOL    HW133467   3.617   0.205   6.348  0.4963  1.5236 -0.1312
 7277SOL    HW233468   3.536   0.132   6.241 -0.8782  0.7285  0.8671
 7278SOL     OW33469   0.657   3.579   2.297 -0.7533  0.3841  0.8201
 7278SOL    HW133470   0.626   3.509   2.354  0.3431 -1.5513 -0.9955
 7278SOL    HW233471   0.572   3.622   2.286 -0.8521 -0.6008 -2.1436
 7279SOL     OW33472   3.966   0.024   9.305 -0.6344  0.0808  0.3917
 7279SOL    HW133473   3.900   4.705   9.342  0.5679 -1.1312  0.6116
 7279SOL    HW233474   3.975   0.068   9.390 -0.4455  2.4862 -0.8889
 7280SOL     OW33475   2.859   1.235  16.439  0.6232  0.4030 -0.5190
 7280SOL    HW133476   2.912   1.313  16.422  2.7216 -1.3932 -2.0270
 7280SOL    HW233477   2.910   1.173  16.388 -1.3448 -1.7630  0.1338
 7281SOL     OW33478   4.676   4.281   8.027 -0.1444 -0.2857  0.1512
 7281SOL    HW133479   4.666   4.186   8.034 -0.2820 -0.5466 -3.8863
 7281SOL    HW233480   4.643   4.305   7.941  0.3420 -0.8265 -0.1837
 7282SOL     OW33481   4.182   1.179   1.591  0.4181  0.2041 -0.0076
 7282SOL    HW133482   4.124   1.169   1.666 -0.3702  0.3026 -0.5965
 7282SOL    HW233483   4.122   1.213   1.524  1.2492  1.0287 -0.3253
 7283SOL     OW33484   4.604   2.944   9.317  0.4125  0.5417 -0.5494
 7283SOL    HW133485   4.695   2.926   9.291  0.5758 -0.4790  0.6928
 7283SOL    HW233486   4.558   2.875   9.268  0.9508 -1.0754  1.2042
 7284SOL     OW33487   4.272   0.526   2.332 -0.1329  0.0455  0.3280
 7284SOL    HW133488   4.364   0.512   2.353 -0.0003  1.9843  1.0419
 7284SOL    HW233489   4.280   0.621   2.324 -0.8856  0.0670 -0.2070
 7285SOL     OW33490   1.511   3.098   3.767 -0.2727 -0.0098  0.7460
 7285SOL    HW133491   1.447   3.029   3.752 -0.1404 -0.0587  0.4068
 7285SOL    HW233492   1.568   3.052   3.829  0.1307 -1.7189 -0.8782
 7286SOL     OW33493   3.971   3.382  10.017  0.2862 -0.3822  0.5691
 7286SOL    HW133494   3.961   3.288  10.026 -2.6775 -0.0481  0.7188
 7286SOL    HW233495   3.881   3.414  10.018 -0.4939 -2.6469  1.5825
 7287SOL     OW33496   2.844   4.027   3.986 -0.4279 -0.1138  0.5830
 7287SOL    HW133497   2.824   4.066   4.071 -0.0378 -1.2653  1.2050
 7287SOL    HW233498   2.792   4.079   3.924  0.6602  1.0908  0.6905
 7288SOL     OW33499   1.990   0.975   3.831  0.3478 -0.4232  0.1691
 7288SOL    HW133500   2.021   0.886   3.848  0.2175  0.1206  3.2376
 7288SOL    HW233501   2.041   1.020   3.898  1.3887 -2.6756  0.9003
 7289SOL     OW33502   3.125   1.597   1.865 -0.4751  0.0597  0.2534
 7289SOL    HW133503   3.198   1.658   1.878  0.3690 -1.2662  1.7445
 7289SOL    HW233504   3.137   1.570   1.774  0.2556  0.4337  0.2320
 7290SOL     OW33505   1.379   2.748   5.561 -0.3840 -0.3718  0.6230
 7290SOL    HW133506   1.290   2.778   5.542 -0.4895  0.0624  1.7702
 7290SOL    HW233507   1.349   2.668   5.603  1.3430 -0.8222  0.9811
 7291SOL     OW33508   0.062   0.732   3.274  0.1776 -0.2732 -0.5740
 7291SOL    HW133509   0.101   0.743   3.361  0.0772  1.8957 -0.8084
 7291SOL    HW233510   0.039   0.823   3.255 -0.3328 -0.0975  0.8792
 7292SOL     OW33511   4.600   1.785   6.760  0.6298  0.3713 -0.2615
 7292SOL    HW133512   4.538   1.858   6.761 -0.7938 -0.8709  1.8525
 7292SOL    HW233513   4.592   1.767   6.666  2.1847  0.3851 -0.3914
 7293SOL     OW33514   1.615   4.714   2.997 -0.3072 -0.0910  0.8342
 7293SOL    HW133515   1.541   0.028   3.025  0.3686  1.0089  0.5937
 7293SOL    HW233516   1.646   4.689   3.084 -2.1232 -1.8125  0.9507
 7294SOL     OW33517   2.067   0.521   6.357  0.0878 -0.0693  0.4639
 7294SOL    HW133518   1.989   0.537   6.303 -0.7001 -2.2437  0.9399
 7294SOL    HW233519   2.030   0.458   6.419 -0.4371 -0.1306  0.0940
 7295SOL     OW33520   0.361   1.558  17.106 -0.2593  0.0117 -0.0741
 7295SOL    HW133521   0.448   1.530  17.136 -0.3916  0.2228  0.4999
 7295SOL    HW233522   0.369   1.523  17.017  1.8028 -1.4946  0.6902
 7296SOL     OW33523   3.482   4.663   7.386 -0.2946 -0.1920 -0.1186
 7296SOL    HW133524   3.440   4.726   7.446  1.1283  1.4024 -0.7964
 7296SOL    HW233525   3.501   4.709   7.304 -0.5378 -2.5240 -1.4671
 7297SOL     OW33526   1.409   0.506   6.316  0.2832  0.4626  0.1114
 7297SOL    HW133527   1.411   0.456   6.398  0.1842  0.6297  0.2140
 7297SOL    HW233528   1.316   0.491   6.298  0.9940 -2.2340 -1.3296
 7298SOL     OW33529   2.653   3.897  15.519  0.3083 -0.4588 -0.1122
 7298SOL    HW133530   2.636   3.814  15.475 -1.9685 -1.6745  3.0143
 7298SOL    HW233531   2.598   3.960  15.473  3.7240  1.3546 -1.7379
 7299SOL     OW33532   0.632   3.818   6.994 -0.3507 -0.7492  0.1341
 7299SOL    HW133533   0.542   3.822   6.962 -0.0581 -1.8562 -0.8590
 7299SOL    HW233534   0.652   3.733   6.954 -3.5784 -1.9207  1.0203
 7300SOL     OW33535   2.164   3.052   3.894  0.4646  0.1247 -0.3074
 7300SOL    HW133536   2.251   3.086   3.912  0.9986 -0.0440 -2.4927
 7300SOL    HW233537   2.190   2.961   3.878  0.0743  0.0931 -0.7884
 7301SOL     OW33538   0.786   3.122  11.660 -0.0822  0.3053  0.1350
 7301SOL    HW133539   0.869   3.121  11.614 -0.5845  0.2873 -0.7759
 7301SOL    HW233540   0.775   3.212  11.689 -2.5836  1.0999 -3.2762
 7302SOL     OW33541   0.588   4.224   6.706  0.0401 -0.2570 -0.5635
 7302SOL    HW133542   0.670   4.271   6.689  0.1941 -0.9843 -1.8620
 7302SOL    HW233543   0.624   4.190   6.788 -1.6486  0.2007  0.3738
 7303SOL     OW33544   1.056   0.155   8.698  0.2116 -0.5597  0.0592
 7303SOL    HW133545   1.037   0.155   8.792  1.3946  0.8251  0.3032
 7303SOL    HW233546   0.969   0.148   8.657  0.2838  1.4549 -0.4393
 7304SOL     OW33547   2.917   3.653  11.871  0.6710 -0.0036  0.0862
 7304SOL    HW133548   2.908   3.667  11.965 -1.9197 -0.6823 -0.0623
 7304SOL    HW233549   2.951   3.737  11.839  0.1346  0.2295  0.1353
 7305SOL     OW33550   0.050   4.266  10.017  0.8666  0.9055  0.0161
 7305SOL    HW133551   4.728   4.338  10.033  1.9818  1.9713 -0.5535
 7305SOL    HW233552   0.043   4.254   9.922 -0.4851 -3.6392  0.6998
 7306SOL     OW33553   1.553   3.407   0.701  0.4771 -0.2308  0.0944
 7306SOL    HW133554   1.514   3.416   0.788  0.6570  2.3281 -0.0777
 7306SOL    HW233555   1.639   3.372   0.725  1.1833  1.4287  0.0415
 7307SOL     OW33556   4.359   2.751   8.272  0.0766  0.1298 -0.3124
 7307SOL    HW133557   4.409   2.682   8.314 -1.4693 -1.5675 -1.2681
 7307SOL    HW233558   4.283   2.737   8.328 -0.7330  3.8751 -0.4450
 7308SOL     OW33559   1.730   0.821   4.821  0.5006  0.0376  0.0437
 7308SOL    HW133560   1.733   0.771   4.740 -1.3971  0.6530 -0.4121
 7308SOL    HW233561   1.740   0.752   4.887  4.6433  2.4278  1.9381
 7309SOL     OW33562   3.371   1.895   9.844 -0.1331 -0.3447  0.2291
 7309SOL    HW133563   3.406   1.984   9.833 -0.6017 -0.1902  0.0002
 7309SOL    HW233564   3.369   1.864   9.754 -0.7510  1.9326 -0.5593
 7310SOL     OW33565   0.416   4.375   6.949 -0.0162  0.1774 -0.3889
 7310SOL    HW133566   0.324   4.397   6.968 -0.8901 -2.4959 -1.5108
 7310SOL    HW233567   0.422   4.285   6.982 -2.8044  0.4884  0.9872
 7311SOL     OW33568   4.059   0.831   1.546 -0.2662 -0.0250  0.0319
 7311SOL    HW133569   4.103   0.747   1.555 -0.9518 -0.7861 -3.8598
 7311SOL    HW233570   4.066   0.843   1.451  1.5142 -4.5993 -0.3762
 7312SOL     OW33571   3.951   2.555  11.544 -0.8239 -0.6082  0.1414
 7312SOL    HW133572   3.881   2.557  11.609  1.1363  0.4677  2.2243
 7312SOL    HW233573   4.006   2.626  11.578  0.5882 -0.0817 -3.1742
 7313SOL     OW33574   2.076   4.228   4.179  0.5802  0.0009  0.3910
 7313SOL    HW133575   2.157   4.242   4.130 -0.3673 -1.5827 -1.6666
 7313SOL    HW233576   2.101   4.176   4.255  1.8752  1.0825  0.6998
 7314SOL     OW33577   3.361   0.838   5.980 -0.4769  0.5667 -0.3533
 7314SOL    HW133578   3.417   0.908   6.015  1.4601 -0.2003 -1.9964
 7314SOL    HW233579   3.350   0.790   6.062  3.1773  0.3287 -0.0312
 7315SOL     OW33580   0.297   0.994   4.843  0.2685  0.2211  0.3460
 7315SOL    HW133581   0.357   0.928   4.809 -0.2924  0.5989 -1.3545
 7315SOL    HW233582   0.214   0.945   4.837  0.1573  0.4564 -0.0088
 7316SOL     OW33583   3.373   4.656  17.540  0.0014  0.1338  0.4659
 7316SOL    HW133584   3.369   4.722  17.470  3.6197 -0.4071 -0.2398
 7316SOL    HW233585   3.295   4.607  17.515 -0.6993  0.8971  1.1661
 7317SOL     OW33586   3.466   2.093   8.641  0.3485  0.2363  0.7931
 7317SOL    HW133587   3.490   2.135   8.558 -0.7766 -3.9399 -1.6809
 7317SOL    HW233588   3.457   2.174   8.691 -0.3682  1.6924 -1.6742
 7318SOL     OW33589   3.469   2.622   7.727 -0.1713 -0.3603  0.2529
 7318SOL    HW133590   3.506   2.551   7.779  0.7745 -0.3238 -0.3731
 7318SOL    HW233591   3.545   2.676   7.750  0.7718 -1.5498 -0.0267
 7319SOL     OW33592   0.175   3.946   2.536 -0.9307 -0.4472  0.0560
 7319SOL    HW133593   0.220   3.889   2.599 -2.6174 -0.2611  1.4079
 7319SOL    HW233594   0.132   3.885   2.476 -0.9297  0.9211 -1.3368
 7320SOL     OW33595   0.447   2.395   1.031  0.4621  0.3107 -0.1185
 7320SOL    HW133596   0.402   2.461   1.082 -0.9818  0.0707 -1.0922
 7320SOL    HW233597   0.541   2.415   1.034  0.4740  0.2882 -0.3018
 7321SOL     OW33598   3.818   0.764   8.680 -0.9500 -0.6137 -0.6007
 7321SOL    HW133599   3.854   0.708   8.610  3.3865  1.0485  0.2867
 7321SOL    HW233600   3.837   0.848   8.639 -0.0375 -1.2673 -1.5295
 7322SOL     OW33601   3.240   3.699   0.805 -0.3613  0.4272 -0.1565
 7322SOL    HW133602   3.325   3.683   0.765  0.3712  1.2265  1.0780
 7322SOL    HW233603   3.178   3.682   0.734  0.1032  0.9268 -0.6798
 7323SOL     OW33604   4.625   4.566   1.973 -0.1228 -0.1103  0.3485
 7323SOL    HW133605   4.578   4.512   1.909 -0.7628  0.0597  0.6737
 7323SOL    HW233606   4.548   4.581   2.029 -1.3154 -0.8813 -1.0960
 7324SOL     OW33607   4.561   4.116   3.267 -0.0827  0.2132  0.6883
 7324SOL    HW133608   4.623   4.189   3.262 -0.1904  0.1452 -2.0161
 7324SOL    HW233609   4.511   4.149   3.341 -1.0231  2.2327 -0.8499
 7325SOL     OW33610   2.015   0.040   3.456 -0.2209  0.0371  0.3098
 7325SOL    HW133611   2.045   0.109   3.516 -1.8026  3.0418 -2.3914
 7325SOL    HW233612   2.093   4.729   3.433 -1.0601 -1.5324  0.9134
 7326SOL     OW33613   0.108   3.056   5.039 -0.3599 -0.1390  0.6566
 7326SOL    HW133614   0.024   3.043   4.993 -0.4829 -0.4638  0.9718
 7326SOL    HW233615   0.078   3.107   5.114 -0.4289 -0.7648  1.0556
 7327SOL     OW33616   2.585   1.985  14.942 -0.2439 -0.2003 -0.1081
 7327SOL    HW133617   2.496   1.996  14.911  0.6019 -0.0218 -2.4579
 7327SOL    HW233618   2.576   2.042  15.018 -0.7753 -1.6401  0.9060
 7328SOL     OW33619   2.378   0.687   1.773  0.1394  0.0674  0.5224
 7328SOL    HW133620   2.360   0.620   1.707 -1.0217  0.5960  0.3177
 7328SOL    HW233621   2.473   0.674   1.784 -0.0839 -0.0979  2.1890
 7329SOL     OW33622   3.604   4.090   1.439  0.4169  0.3520 -0.0495
 7329SOL    HW133623   3.523   4.129   1.473 -0.7776 -1.0270 -1.2897
 7329SOL    HW233624   3.656   4.072   1.517 -2.4524  1.5130  2.1528
 7330SOL     OW33625   2.393   1.360  11.375 -0.1017  0.0096 -0.0419
 7330SOL    HW133626   2.301   1.386  11.381 -0.0675 -0.2746  1.7960
 7330SOL    HW233627   2.419   1.394  11.289 -0.2591  2.1700  0.7515
 7331SOL     OW33628   4.049   2.807   4.978  0.7764  0.7413 -0.0946
 7331SOL    HW133629   4.102   2.789   4.900  1.2951  0.3857  0.3419
 7331SOL    HW233630   3.980   2.861   4.940  0.7667  0.6623 -0.1894
 7332SOL     OW33631   3.284   0.109   7.821 -0.2024 -0.1114  0.4509
 7332SOL    HW133632   3.303   0.044   7.888 -0.1262  1.8955  2.3820
 7332SOL    HW233633   3.199   0.140   7.851 -0.2236 -0.8195  1.0898
 7333SOL     OW33634   3.080   2.815   9.839 -0.4783  0.1425 -0.2538
 7333SOL    HW133635   3.082   2.851   9.927 -0.5715 -1.4669  0.4057
 7333SOL    HW233636   3.016   2.744   9.848  0.1663 -0.6759 -1.9775
 7334SOL     OW33637   2.849   2.359   1.064  0.1877 -0.0022 -0.1502
 7334SOL    HW133638   2.812   2.440   1.098 -0.5862  0.0789 -1.1871
 7334SOL    HW233639   2.940   2.383   1.048  0.5903 -1.2375  0.2192
 7335SOL     OW33640   0.562   1.868   2.026 -0.0018 -0.6182  0.7260
 7335SOL    HW133641   0.494   1.830   2.082 -2.2883  2.4360 -0.0072
 7335SOL    HW233642   0.558   1.804   1.955 -0.3313  0.7070 -0.4346
 7336SOL     OW33643   0.903   2.188   4.831 -0.1850  0.0703 -0.3879
 7336SOL    HW133644   0.950   2.157   4.754 -1.1510 -0.6365 -0.6886
 7336SOL    HW233645   0.950   2.141   4.900  3.3507  1.9558 -1.5149
 7337SOL     OW33646   4.103   2.457   4.551  0.4464  0.0555 -0.1787
 7337SOL    HW133647   4.012   2.429   4.547  0.6693 -0.7562  0.3130
 7337SOL    HW233648   4.150   2.376   4.572  1.2270  0.1931 -1.4099
 7338SOL     OW33649   0.516   1.687   1.829 -0.5178 -0.1742 -0.1325
 7338SOL    HW133650   0.487   1.723   1.745 -1.0357 -1.2674 -0.4164
 7338SOL    HW233651   0.438   1.645   1.866 -1.0427  0.9891  0.0935
 7339SOL     OW33652   2.437   4.074   9.371 -0.8131  0.3710 -0.4083
 7339SOL    HW133653   2.342   4.077   9.382 -0.6646  1.4210  0.6345
 7339SOL    HW233654   2.449   4.161   9.333 -0.3548 -0.3165 -1.8239
 7340SOL     OW33655   2.689   4.480   7.862  0.1571  0.1233  0.1952
 7340SOL    HW133656   2.721   4.474   7.952 -0.4827 -2.1542  0.2800
 7340SOL    HW233657   2.604   4.521   7.876  0.2381 -0.1298  1.4273
 7341SOL     OW33658   2.584   3.035   6.773  0.1923 -0.2322 -0.8098
 7341SOL    HW133659   2.569   2.955   6.723 -1.1670 -0.7736  0.4633
 7341SOL    HW233660   2.551   3.009   6.859  0.7441 -0.6686 -0.7334
 7342SOL     OW33661   3.713   0.976   5.742 -0.4649  0.0985  0.3500
 7342SOL    HW133662   3.635   0.962   5.688  0.8716  0.7397 -1.7416
 7342SOL    HW233663   3.774   1.017   5.680  0.4943  0.8171  1.7542
 7343SOL     OW33664   3.991   1.967   3.317  0.2860  0.3756 -0.4465
 7343SOL    HW133665   3.989   1.896   3.380 -1.9196 -0.6999 -1.7371
 7343SOL    HW233666   3.942   2.031   3.368 -1.7749 -1.2847 -0.3632
 7344SOL     OW33667   2.104   2.906  15.306  0.2040  0.1285  0.2055
 7344SOL    HW133668   2.046   2.899  15.382  1.1053 -1.7686  0.7146
 7344SOL    HW233669   2.050   2.889  15.229  0.9139 -0.2044 -0.2190
 7345SOL     OW33670   2.703   4.682   1.212 -0.0438 -0.0546  0.2582
 7345SOL    HW133671   2.770   4.716   1.272 -0.4163  2.0896 -0.5286
 7345SOL    HW233672   2.717   4.593   1.244  0.0385  0.7238  2.3778
 7346SOL     OW33673   3.923   3.385  14.078 -0.2156  0.1476  0.5575
 7346SOL    HW133674   3.950   3.412  13.990  0.2140  0.1887  0.7062
 7346SOL    HW233675   3.912   3.465  14.129  2.9368 -1.3530  3.5369
 7347SOL     OW33676   1.051   1.906   1.728 -0.3798 -0.7989 -0.1240
 7347SOL    HW133677   1.039   1.933   1.819  1.3350  0.8027 -0.3733
 7347SOL    HW233678   1.048   1.995   1.692  0.0201 -1.4401 -1.7413
 7348SOL     OW33679   4.297   4.575  12.546  0.2593  0.3962  0.2767
 7348SOL    HW133680   4.315   4.511  12.616 -1.4115  1.0440  1.2966
 7348SOL    HW233681   4.266   4.652  12.593 -0.5950  0.6227 -0.6688
 7349SOL     OW33682   4.529   3.854   1.839 -0.9706 -0.6036 -0.0860
 7349SOL    HW133683   4.518   3.760   1.822 -3.0184 -0.5253  0.8096
 7349SOL    HW233684   4.541   3.852   1.934 -1.0516 -2.3463 -0.1182
 7350SOL     OW33685   0.000   2.298   5.106 -0.2914 -0.0184 -0.2294
 7350SOL    HW133686   0.055   2.374   5.127  0.0727 -0.2331 -0.3932
 7350SOL    HW233687   0.064   2.253   5.050  0.7954 -0.3582  1.2956
 7351SOL     OW33688   2.000   3.164  10.585 -0.0582  0.0819 -0.7884
 7351SOL    HW133689   1.919   3.193  10.625  0.2059  1.4566 -1.2707
 7351SOL    HW233690   2.038   3.248  10.560  2.7946 -1.3645 -1.3791
 7352SOL     OW33691   3.551   1.821  11.657 -0.3749 -0.1604 -0.0962
 7352SOL    HW133692   3.549   1.892  11.721  0.3533 -0.2562  0.0271
 7352SOL    HW233693   3.628   1.851  11.609 -0.0357  2.3240  1.9806
 7353SOL     OW33694   3.438   4.498  15.347 -0.2441 -0.2490  0.0971
 7353SOL    HW133695   3.471   4.586  15.327  2.3293 -0.8542  1.6333
 7353SOL    HW233696   3.346   4.513  15.325 -0.5872 -1.5188  0.6741
 7354SOL     OW33697   3.846   0.354   8.963  0.2151 -0.4332 -0.4222
 7354SOL    HW133698   3.844   0.275   8.909 -1.3376 -1.0852  0.5771
 7354SOL    HW233699   3.828   0.316   9.049  1.2881 -0.5466 -0.2539
 7355SOL     OW33700   0.468   0.952   6.237  0.0350 -0.0630  0.0976
 7355SOL    HW133701   0.452   0.954   6.142 -2.2462  0.2072  0.4748
 7355SOL    HW233702   0.417   1.024   6.275  0.3093  0.3579 -0.3246
 7356SOL     OW33703   2.303   3.817  11.243 -0.0779 -0.1321 -0.2525
 7356SOL    HW133704   2.330   3.837  11.332 -0.7927 -0.3865  0.0173
 7356SOL    HW233705   2.387   3.823  11.198  0.3438 -2.3513  0.2439
 7357SOL     OW33706   4.397   3.535  12.995 -0.3742  0.3983  0.2609
 7357SOL    HW133707   4.422   3.476  12.924 -0.2483 -0.7415  1.2459
 7357SOL    HW233708   4.318   3.493  13.030  0.9230 -1.3124  1.1610
 7358SOL     OW33709   0.753   1.663   8.935  0.6029  0.0500  0.2510
 7358SOL    HW133710   0.709   1.649   9.019  0.4143 -1.4755 -0.0982
 7358SOL    HW233711   0.779   1.755   8.948  1.5301 -0.2706  0.6878
 7359SOL     OW33712   0.930   2.565   7.086 -0.3903 -0.0626  0.0633
 7359SOL    HW133713   1.021   2.536   7.098 -0.1883 -0.3359 -2.1547
 7359SOL    HW233714   0.951   2.642   7.032 -2.6393  1.6075  1.6094
 7360SOL     OW33715   0.482   0.551  17.657 -0.0751  0.0639  0.3246
 7360SOL    HW133716   0.419   0.543  17.729 -0.9075 -2.4046 -0.6597
 7360SOL    HW233717   0.489   0.644  17.638  2.0471 -0.4814 -1.5256
 7361SOL     OW33718   1.542   1.497   7.655 -0.4193  0.1569  0.2655
 7361SOL    HW133719   1.454   1.472   7.627 -1.0328  1.4903  0.9666
 7361SOL    HW233720   1.538   1.591   7.635  3.2200  0.6376  1.7044
 7362SOL     OW33721   3.304   1.544   0.596  0.1850 -0.1289 -0.6256
 7362SOL    HW133722   3.231   1.482   0.595  0.4215 -0.4006 -1.3669
 7362SOL    HW233723   3.375   1.493   0.634 -0.1967  1.3746  2.0996
 7363SOL     OW33724   3.933   1.248   7.008  0.3393  0.0976 -0.0280
 7363SOL    HW133725   3.864   1.196   7.050 -0.4854  0.7490 -0.5920
 7363SOL    HW233726   3.893   1.334   7.021  0.3973  0.4262 -2.0158
 7364SOL     OW33727   2.773   2.030   6.636  0.2121  0.4497 -0.3292
 7364SOL    HW133728   2.748   1.996   6.722  1.1990 -0.3588 -0.3618
 7364SOL    HW233729   2.699   2.075   6.597 -0.0405 -0.2655 -0.6716
 7365SOL     OW33730   1.846   4.335   1.614  0.0533 -0.3039  0.2470
 7365SOL    HW133731   1.764   4.324   1.663 -1.8968  0.1513 -2.8738
 7365SOL    HW233732   1.839   4.422   1.575  0.2550  0.3826  1.7658
 7366SOL     OW33733   0.370   1.632   7.471 -0.7161  0.2340 -0.4690
 7366SOL    HW133734   0.429   1.560   7.494 -1.6162 -0.1973  0.4876
 7366SOL    HW233735   0.308   1.586   7.414 -0.0801 -1.1195 -0.0725
 7367SOL     OW33736   0.384   3.960   4.568  0.4046 -0.3815  0.1295
 7367SOL    HW133737   0.363   3.868   4.557  1.0470 -0.6367  1.0841
 7367SOL    HW233738   0.434   3.945   4.648 -0.0362 -0.1378  0.4533
 7368SOL     OW33739   3.975   1.173   4.623  0.0910  0.1645  0.2968
 7368SOL    HW133740   4.020   1.089   4.615 -0.2646 -0.1362  1.5078
 7368SOL    HW233741   3.894   1.133   4.592  0.5119 -1.5604  1.4717
 7369SOL     OW33742   3.583   4.041   1.180  0.1965 -0.2136  0.4002
 7369SOL    HW133743   3.600   3.946   1.178 -1.1374 -0.5301  2.8461
 7369SOL    HW233744   3.580   4.048   1.276  1.9422 -2.2941  0.6063
 7370SOL     OW33745   0.905   1.825   7.370  0.1443  0.2818  0.3796
 7370SOL    HW133746   0.951   1.764   7.312  0.7639 -1.6996  2.9329
 7370SOL    HW233747   0.848   1.765   7.419 -1.4674  0.7581 -0.9173
 7371SOL     OW33748   4.365   1.312   2.821  1.1544  0.0845 -0.1162
 7371SOL    HW133749   4.449   1.291   2.778  0.0109  0.0407 -2.3500
 7371SOL    HW233750   4.367   1.253   2.896  1.2372 -1.3583 -1.2398
 7372SOL     OW33751   3.257   1.582   8.663 -0.4205 -0.1644  0.1898
 7372SOL    HW133752   3.340   1.558   8.621 -1.0769 -1.3457 -0.4270
 7372SOL    HW233753   3.264   1.677   8.657 -4.0073  0.1143  0.4034
 7373SOL     OW33754   1.059   1.751   5.325  0.0708 -0.4048  0.7415
 7373SOL    HW133755   1.151   1.734   5.305  0.2054 -0.4629  1.4138
 7373SOL    HW233756   1.059   1.842   5.296 -1.4895 -0.5161  0.3799
 7374SOL     OW33757   2.704   3.604   5.481  0.3195 -0.3711 -0.4065
 7374SOL    HW133758   2.628   3.586   5.536 -0.1639  0.4758 -0.7903
 7374SOL    HW233759   2.744   3.517   5.476 -1.1816 -1.0684 -0.5751
 7375SOL     OW33760   4.126   4.029   1.581  0.3539  0.8334  0.1946
 7375SOL    HW133761   4.156   4.093   1.516  2.3216 -0.3120 -0.0260
 7375SOL    HW233762   4.190   4.032   1.652  0.3502 -0.2144  0.2436
 7376SOL     OW33763   1.990   1.496   3.975 -0.6071 -0.2636 -0.1557
 7376SOL    HW133764   1.925   1.429   3.995  2.0610 -2.1249  2.3321
 7376SOL    HW233765   2.051   1.485   4.048 -0.0795  0.3284 -0.5035
 7377SOL     OW33766   3.951   2.651  10.606  0.2663  0.2659 -0.6167
 7377SOL    HW133767   3.890   2.722  10.584 -0.1035 -0.0824 -0.7122
 7377SOL    HW233768   3.897   2.604  10.670 -0.2604  2.3613  0.4945
 7378SOL     OW33769   0.778   3.598   0.592 -0.0865 -0.0799  0.0386
 7378SOL    HW133770   0.726   3.545   0.530 -0.1254 -0.1413  0.1231
 7378SOL    HW233771   0.867   3.570   0.572 -0.3354 -0.9334  0.0994
 7379SOL     OW33772   3.110   0.842   2.889  0.1259 -0.1290 -0.2838
 7379SOL    HW133773   3.166   0.886   2.825  3.0396 -0.6862  1.8883
 7379SOL    HW233774   3.097   0.915   2.950  0.4227 -0.1470 -0.1978
 7380SOL     OW33775   3.051   4.476  16.091  0.0666  0.0360  0.1304
 7380SOL    HW133776   3.113   4.537  16.131  0.5469 -0.9485  0.8862
 7380SOL    HW233777   3.114   4.430  16.035  0.0414  0.5726 -0.3447
 7381SOL     OW33778   4.037   4.640   5.497 -0.4521  0.4177 -0.5974
 7381SOL    HW133779   3.943   4.654   5.487 -0.6272  0.0448  0.5583
 7381SOL    HW233780   4.036   4.638   5.592 -0.9670  0.4725 -0.5977
 7382SOL     OW33781   3.762   4.041   8.370 -0.1660  0.1055  0.4565
 7382SOL    HW133782   3.847   4.052   8.411  0.7675 -0.9173 -1.1942
 7382SOL    HW233783   3.772   3.969   8.308 -0.9550 -1.6856  2.4228
 7383SOL     OW33784   2.589   0.851   5.187 -0.1081  0.3259  0.2156
 7383SOL    HW133785   2.653   0.921   5.175  1.5693 -1.4047 -0.9491
 7383SOL    HW233786   2.616   0.782   5.127 -2.8014 -1.0862  0.5912
 7384SOL     OW33787   0.262   0.472   5.475 -0.1447  0.3613 -0.0978
 7384SOL    HW133788   0.281   0.480   5.568  1.0169 -0.4545 -0.2646
 7384SOL    HW233789   0.308   0.389   5.462 -0.2499  0.3587 -0.4737
 7385SOL     OW33790   0.726   0.121   6.198 -0.3550 -0.2839 -1.1934
 7385SOL    HW133791   0.636   0.106   6.170 -0.6585 -1.4024  0.3986
 7385SOL    HW233792   0.757   0.185   6.133  1.6853  0.1127  0.1527
 7386SOL     OW33793   0.524   0.710   5.048  0.5832  0.0970 -0.2228
 7386SOL    HW133794   0.542   0.725   4.956 -1.1452  0.9684 -0.4237
 7386SOL    HW233795   0.608   0.733   5.088  0.1405 -0.6245  1.1227
 7387SOL     OW33796   1.053   1.098   3.001  0.5791 -0.4056  0.0468
 7387SOL    HW133797   0.991   1.048   3.054 -1.3762  2.3345  0.2903
 7387SOL    HW233798   0.992   1.168   2.980  1.9623  0.5153 -0.8703
 7388SOL     OW33799   3.200   0.248  14.529 -0.0088  0.0410 -0.1541
 7388SOL    HW133800   3.138   0.178  14.511  3.0333 -1.8782 -3.0538
 7388SOL    HW233801   3.204   0.234  14.624  3.0299 -1.4145 -0.5064
 7389SOL     OW33802   1.228   4.667   8.170  0.1889  0.1612  0.0525
 7389SOL    HW133803   1.300   4.659   8.233 -1.4503  0.9546  2.0454
 7389SOL    HW233804   1.261   4.664   8.080  0.7913 -2.2059  0.3526
 7390SOL     OW33805   1.078   0.378   3.993 -0.4229  0.1473 -0.7321
 7390SOL    HW133806   1.067   0.336   3.907 -1.4770 -1.3058  0.0888
 7390SOL    HW233807   1.136   0.450   3.971 -0.0250  0.1013  0.1982
 7391SOL     OW33808   4.055   1.756   8.142  0.8598  0.3692 -0.1342
 7391SOL    HW133809   4.036   1.668   8.110 -0.0584  1.3275 -2.2114
 7391SOL    HW233810   4.137   1.734   8.185 -0.5745 -2.5947  1.1134
 7392SOL     OW33811   1.400   3.439   4.586 -0.5372  0.1828  0.2132
 7392SOL    HW133812   1.493   3.417   4.582 -1.1744 -2.3161 -1.6191
 7392SOL    HW233813   1.407   3.528   4.552 -0.3406  0.6204  1.4103
 7393SOL     OW33814   2.259   4.621   2.938 -0.0235  0.0204  0.1956
 7393SOL    HW133815   2.335   4.570   2.966  1.8011  1.2240 -2.6260
 7393SOL    HW233816   2.295   4.670   2.864 -2.8208  0.4336 -0.9208
 7394SOL     OW33817   4.331   4.535   8.527  0.2856  0.3549 -0.2260
 7394SOL    HW133818   4.396   4.605   8.526 -0.5769  1.1726  1.7506
 7394SOL    HW233819   4.293   4.547   8.614  0.7979 -0.7614  0.1420
 7395SOL     OW33820   4.392   3.944   4.151 -0.0233  0.6109  0.3847
 7395SOL    HW133821   4.440   3.916   4.229  0.6097 -1.4488 -0.7453
 7395SOL    HW233822   4.318   3.883   4.150 -0.6489  1.3823 -0.2847
 7396SOL     OW33823   2.838   0.295   8.678  0.1719 -0.3540 -0.2637
 7396SOL    HW133824   2.777   0.357   8.718 -0.8508 -1.6988  0.2259
 7396SOL    HW233825   2.834   0.319   8.585 -0.3953 -3.1040 -0.9343
 7397SOL     OW33826   2.765   0.275   0.460  0.5730 -0.4128 -0.2246
 7397SOL    HW133827   2.788   0.188   0.493 -1.3389 -0.1814  1.6687
 7397SOL    HW233828   2.697   0.291   0.525  0.0374 -0.3137 -0.8055
 7398SOL     OW33829   3.920   0.867   1.128  0.4421  0.1154 -0.5122
 7398SOL    HW133830   4.003   0.852   1.172  0.1707 -3.0765 -1.1396
 7398SOL    HW233831   3.894   0.775   1.125  0.8147  0.0356 -1.1628
 7399SOL     OW33832   1.367   1.908  16.731  0.6174  0.6094 -0.0584
 7399SOL    HW133833   1.302   1.974  16.756 -0.6747 -1.1156  1.0700
 7399SOL    HW233834   1.423   1.957  16.670  0.8404  0.7880  0.2879
 7400SOL     OW33835   4.598   0.598   7.325  0.5348 -0.3427  0.3576
 7400SOL    HW133836   4.541   0.625   7.252 -1.6873  2.4040  3.0998
 7400SOL    HW233837   4.579   0.663   7.393 -1.3022 -1.4109  0.8556
 7401SOL     OW33838   3.216   2.911  14.695 -0.3869 -0.0187 -0.0780
 7401SOL    HW133839   3.293   2.868  14.732 -3.2381 -2.7560  2.6202
 7401SOL    HW233840   3.182   2.833  14.651 -2.0626 -0.0124  1.2269
 7402SOL     OW33841   4.561   1.424  16.386  0.3815  0.4326 -0.6357
 7402SOL    HW133842   4.490   1.472  16.343 -1.3181 -0.4394  1.1664
 7402SOL    HW233843   4.569   1.472  16.468  0.4449  0.4133 -0.6304
 7403SOL     OW33844   2.812   0.001   8.769 -0.0135 -0.0689 -0.0385
 7403SOL    HW133845   2.830   0.041   8.854  3.6441  0.2403 -0.9553
 7403SOL    HW233846   2.810   0.086   8.724 -0.8410 -0.0171  0.0995
 7404SOL     OW33847   1.683   2.445   2.286  0.5021 -0.0181  0.6018
 7404SOL    HW133848   1.634   2.371   2.251 -0.6604  2.1804 -2.5103
 7404SOL    HW233849   1.752   2.464   2.222  1.1877 -0.7776  1.1138
 7405SOL     OW33850   4.584   0.841  13.822  0.1947  0.1742 -0.3817
 7405SOL    HW133851   4.495   0.807  13.814 -1.1975  3.5296  0.7617
 7405SOL    HW233852   4.620   0.768  13.871  1.2288  0.1758 -1.1232
 7406SOL     OW33853   4.246   1.581   1.062  0.0790  0.1339  0.4845
 7406SOL    HW133854   4.225   1.566   0.970 -1.8330  0.7318  0.8244
 7406SOL    HW233855   4.296   1.661   1.051  0.1659  0.0695  0.4134
 7407SOL     OW33856   2.544   0.477   9.147  0.0858  0.1107 -0.1920
 7407SOL    HW133857   2.493   0.523   9.213  2.0819  1.1694  0.6109
 7407SOL    HW233858   2.554   0.388   9.180  1.7414  0.5196  0.3836
 7408SOL     OW33859   1.272   0.799   2.685  0.0423  0.1597 -0.4301
 7408SOL    HW133860   1.267   0.724   2.745 -0.4998  0.6308  0.1151
 7408SOL    HW233861   1.221   0.870   2.723 -0.4055  0.4417 -1.5680
 7409SOL     OW33862   0.886   1.089  16.439 -0.2300  0.3451  0.2320
 7409SOL    HW133863   0.916   1.099  16.349 -0.1988 -0.5690  0.1442
 7409SOL    HW233864   0.826   1.163  16.447  0.4870  1.2296 -2.8123
 7410SOL     OW33865   0.444   2.079   6.011 -0.1003 -0.1020  0.3571
 7410SOL    HW133866   0.375   2.045   5.954 -1.2333  0.5845  1.3207
 7410SOL    HW233867   0.463   2.157   5.959  1.7948  0.2614  1.5631
 7411SOL     OW33868   3.911   3.913   7.242  0.3134 -0.1486 -0.8387
 7411SOL    HW133869   3.918   3.858   7.320  1.5938  1.0010 -0.1482
 7411SOL    HW233870   3.831   3.961   7.262  0.2878 -0.6501  0.2335
 7412SOL     OW33871   1.123   1.884   9.182  0.1233 -0.7117 -0.0029
 7412SOL    HW133872   1.149   1.976   9.179  0.4311 -0.8140 -0.4475
 7412SOL    HW233873   1.192   1.847   9.237  0.7823  0.0565 -0.3218
 7413SOL     OW33874   1.756   1.307   3.004  0.0637  0.0080  0.6515
 7413SOL    HW133875   1.752   1.264   3.089 -1.0049 -0.7718  0.2077
 7413SOL    HW233876   1.842   1.349   2.995  0.8091 -1.2891  1.8907
 7414SOL     OW33877   0.295   1.573   8.247  0.1046  0.0039 -0.0742
 7414SOL    HW133878   0.371   1.612   8.292  0.8829 -2.4408  0.7563
 7414SOL    HW233879   0.270   1.513   8.318 -1.3745  1.6302  0.7731
 7415SOL     OW33880   4.653   4.714   5.683 -0.1330 -0.2656 -0.2948
 7415SOL    HW133881   4.708   0.027   5.624  2.2563 -0.6978  1.5502
 7415SOL    HW233882   4.611   4.648   5.628  0.6546 -0.3890 -0.7535
 7416SOL     OW33883   0.843   2.078  12.295 -0.0133 -0.1475 -0.4075
 7416SOL    HW133884   0.755   2.113  12.306 -0.5434 -1.0095 -1.9012
 7416SOL    HW233885   0.846   2.021  12.372  0.0732  0.8603  0.3301
 7417SOL     OW33886   4.613   4.217   4.199 -0.3862 -0.3118 -0.1082
 7417SOL    HW133887   4.588   4.236   4.290 -2.1853  1.2350 -0.9241
 7417SOL    HW233888   4.702   4.251   4.207 -1.0067  1.3435 -0.1388
 7418SOL     OW33889   2.868   3.882   6.035 -0.3007  0.4225  0.2763
 7418SOL    HW133890   2.906   3.922   6.113  0.2015  0.3535  0.0708
 7418SOL    HW233891   2.932   3.811   6.026 -0.0894  0.4749  1.4480
 7419SOL     OW33892   1.669   3.303   9.101  0.4436  0.1600  0.2623
 7419SOL    HW133893   1.683   3.286   9.194 -0.0170  1.8180  0.6385
 7419SOL    HW233894   1.656   3.218   9.060 -0.1695  0.4117 -0.0739
 7420SOL     OW33895   1.858   1.847  12.767 -0.3045  0.2971  0.3817
 7420SOL    HW133896   1.905   1.856  12.849 -0.1028  0.8397  0.2010
 7420SOL    HW233897   1.920   1.895  12.713 -0.0200 -0.2213  0.2509
 7421SOL     OW33898   0.949   0.605   6.116  0.1480  0.0305 -0.5824
 7421SOL    HW133899   0.898   0.657   6.179 -0.4321 -0.5868 -0.5431
 7421SOL    HW233900   1.031   0.579   6.157 -0.6505  1.1650  1.7372
 7422SOL     OW33901   0.145   1.536  14.481 -0.0342 -0.0479  0.2370
 7422SOL    HW133902   0.219   1.478  14.464  1.7268  1.7988  1.6102
 7422SOL    HW233903   0.187   1.600  14.538 -2.0883 -0.8551  2.6669
 7423SOL     OW33904   3.188   4.253   6.703  0.0332 -0.0314  0.2438
 7423SOL    HW133905   3.143   4.220   6.781  0.6658 -1.2239  0.1036
 7423SOL    HW233906   3.116   4.281   6.647 -0.1789 -0.9504  0.0628
 7424SOL     OW33907   2.161   4.690  16.620 -0.0205  0.2455  0.2802
 7424SOL    HW133908   2.153   0.001  16.539  0.5470  0.0192  0.0824
 7424SOL    HW233909   2.255   4.677  16.608  0.2851  0.7205  2.1734
 7425SOL     OW33910   0.016   3.939   8.733  0.7921  0.1232  0.1436
 7425SOL    HW133911   4.707   3.860   8.709 -0.5541  0.9559  0.0869
 7425SOL    HW233912   0.044   3.930   8.824 -0.5581  0.8266  0.6387
 7426SOL     OW33913   3.528   0.950   4.563 -0.3485 -0.3048 -0.3645
 7426SOL    HW133914   3.525   0.981   4.653 -0.7951 -1.2421 -0.0571
 7426SOL    HW233915   3.543   0.857   4.579  0.1368  0.1273  1.6641
 7427SOL     OW33916   4.090   3.250   6.593 -0.1444 -0.6180  0.3094
 7427SOL    HW133917   4.109   3.332   6.547 -3.4962  0.2624  0.5388
 7427SOL    HW233918   4.155   3.192   6.554 -0.9022 -1.9454  1.0245
 7428SOL     OW33919   0.347   0.593   7.515 -0.2121 -0.2019  0.5688
 7428SOL    HW133920   0.265   0.613   7.469 -0.8626 -3.9865  0.0693
 7428SOL    HW233921   0.347   0.670   7.571 -1.9542  0.6753 -0.6666
 7429SOL     OW33922   3.092   0.946  13.988 -0.1484 -0.2973 -0.5539
 7429SOL    HW133923   3.160   0.977  13.929 -1.1626 -0.1974 -1.6547
 7429SOL    HW233924   3.068   1.021  14.042  1.4848 -0.9950  1.1640
 7430SOL     OW33925   4.675   2.222   2.729 -0.0271  0.4530 -0.3606
 7430SOL    HW133926   4.627   2.185   2.803 -0.7763  0.9294 -0.6094
 7430SOL    HW233927   4.700   2.144   2.680 -0.1992  0.6557 -0.7670
 7431SOL     OW33928   0.148   2.076   4.618  0.4081 -0.0762 -0.4553
 7431SOL    HW133929   0.062   2.058   4.580  1.0129 -2.8977 -0.4949
 7431SOL    HW233930   0.195   2.111   4.543 -0.1163  1.8752  0.1270
 7432SOL     OW33931   0.555   1.262   8.568 -0.0689 -0.1174 -0.0483
 7432SOL    HW133932   0.465   1.255   8.600 -0.0232 -1.2637 -0.1892
 7432SOL    HW233933   0.565   1.173   8.535 -0.9509  0.1896 -1.1278
 7433SOL     OW33934   4.386   1.453   7.758  0.3122  0.0973 -0.0647
 7433SOL    HW133935   4.398   1.475   7.666 -0.2103  1.9875  0.3069
 7433SOL    HW233936   4.304   1.405   7.765  1.5709 -2.0887 -0.4150
 7434SOL     OW33937   0.450   0.901   3.947  0.4144  0.1948  0.1458
 7434SOL    HW133938   0.419   0.942   4.028  1.4122  1.2695 -0.0083
 7434SOL    HW233939   0.424   0.810   3.963 -0.6146  0.1367 -1.8903
 7435SOL     OW33940   0.130   4.203  11.724  0.3433  0.0142  0.2826
 7435SOL    HW133941   0.069   4.165  11.787  0.4097 -0.7165 -0.0997
 7435SOL    HW233942   0.144   4.292  11.757  1.4163 -0.3838  0.9007
 7436SOL     OW33943   3.201   2.456   4.408 -0.1977 -0.2361 -0.1381
 7436SOL    HW133944   3.292   2.481   4.419  0.0360 -2.0726  2.0716
 7436SOL    HW233945   3.162   2.542   4.427  1.1506  0.4693 -0.5484
 7437SOL     OW33946   1.367   3.561   4.941 -0.2066  0.1906 -0.7773
 7437SOL    HW133947   1.418   3.611   4.877  1.5852  0.4668  0.8373
 7437SOL    HW233948   1.336   3.627   5.004 -1.6461  0.6156 -1.9411
 7438SOL     OW33949   1.659   0.772   9.012 -0.7591 -0.2241 -0.2375
 7438SOL    HW133950   1.572   0.738   9.032  0.1482 -1.4549  1.6370
 7438SOL    HW233951   1.708   0.765   9.094 -1.5154  0.7219  0.2848
 7439SOL     OW33952   3.910   2.583  11.264 -1.0302  0.2825  0.0233
 7439SOL    HW133953   3.927   2.537  11.346  0.5754 -0.0922 -0.5179
 7439SOL    HW233954   3.816   2.595  11.278 -1.0587 -1.9675  1.7303
 7440SOL     OW33955   2.477   1.579   2.422 -0.0791  0.4679  0.0716
 7440SOL    HW133956   2.515   1.589   2.335  1.4055  0.1699  0.6965
 7440SOL    HW233957   2.420   1.503   2.405  2.4759 -1.7971  1.7022
 7441SOL     OW33958   1.254   1.789  17.397 -0.1117 -0.2140  0.3487
 7441SOL    HW133959   1.172   1.827  17.366  1.0015  1.7956 -0.1974
 7441SOL    HW233960   1.214   1.730  17.460 -1.2570 -1.1600 -1.2554
 7442SOL     OW33961   0.727   3.292  17.154 -0.4560 -1.2083 -0.0161
 7442SOL    HW133962   0.708   3.343  17.233  2.6368 -1.4867  0.9261
 7442SOL    HW233963   0.716   3.200  17.180 -2.1494 -0.5946  1.4127
 7443SOL     OW33964   0.363   2.014   0.006 -0.2566  0.6059  0.2826
 7443SOL    HW133965   0.395   1.949  17.698  0.7356  1.1479  0.2210
 7443SOL    HW233966   0.293   2.053  17.709  0.5679 -0.6378 -1.8320
 7444SOL     OW33967   0.613   0.291   8.657 -0.3605  0.4464  0.5148
 7444SOL    HW133968   0.594   0.365   8.600  0.5287 -1.4694 -2.2911
 7444SOL    HW233969   0.534   0.238   8.646 -0.2122  0.1751  0.7660
 7445SOL     OW33970   2.669   3.443   6.124  0.4841 -0.2931 -0.5084
 7445SOL    HW133971   2.644   3.535   6.117  0.7873 -0.1432  0.4579
 7445SOL    HW233972   2.673   3.434   6.219  0.7715  0.8907 -0.4076
 7446SOL     OW33973   0.259   1.768  13.368  0.3638 -0.5502 -0.2943
 7446SOL    HW133974   0.274   1.755  13.274  0.3799  0.0455 -0.3748
 7446SOL    HW233975   0.215   1.691  13.404 -0.5540 -0.9965 -2.3678
 7447SOL     OW33976   2.698   0.900   3.115  0.7524  0.3865 -0.6175
 7447SOL    HW133977   2.747   0.822   3.089  0.1654  0.0410 -0.6968
 7447SOL    HW233978   2.717   0.956   3.040 -2.3774 -2.3801 -3.4862
 7448SOL     OW33979   1.891   1.507   8.284 -0.1913  0.1356 -0.0044
 7448SOL    HW133980   1.855   1.424   8.316 -1.6855  1.0283  0.6398
 7448SOL    HW233981   1.979   1.473   8.267  0.3665  1.6995 -0.1973
 7449SOL     OW33982   0.900   1.082  17.059 -0.0200  0.3839 -0.3873
 7449SOL    HW133983   0.871   1.060  17.148 -1.3554 -0.2472 -0.9690
 7449SOL    HW233984   0.818   1.080  17.010  0.1954 -2.1015 -0.6620
 7450SOL     OW33985   1.955   0.278   5.981 -0.3868 -0.3473 -0.3616
 7450SOL    HW133986   2.033   0.333   5.969 -1.1946  0.5201 -1.6292
 7450SOL    HW233987   1.906   0.331   6.043  0.6509 -1.7855  1.6994
 7451SOL     OW33988   4.608   2.984   4.947 -0.0555 -0.0031 -0.3401
 7451SOL    HW133989   4.576   3.065   4.909  1.0740  0.5440 -0.1279
 7451SOL    HW233990   4.543   2.916   4.931  0.3721 -0.1495 -1.4905
 7452SOL     OW33991   4.031   1.327  12.892  0.4015 -0.1900  0.2673
 7452SOL    HW133992   3.953   1.321  12.838  0.4925  0.1631  0.0925
 7452SOL    HW233993   3.994   1.350  12.978 -1.5405 -0.8634 -0.3871
 7453SOL     OW33994   2.322   0.216   2.681  0.7424 -0.0729 -0.4328
 7453SOL    HW133995   2.254   0.253   2.737 -0.0197  0.1346 -1.4994
 7453SOL    HW233996   2.322   0.271   2.603 -1.3547 -0.0463 -0.4161
 7454SOL     OW33997   0.528   3.992  15.049  0.0385 -0.2657 -0.1893
 7454SOL    HW133998   0.461   3.967  15.112 -0.2169 -0.0663 -0.3803
 7454SOL    HW233999   0.573   3.907  15.045 -0.1923 -0.4019  0.0773
 7455SOL     OW34000   2.856   1.869  16.799  0.1980  0.4533 -0.1123
 7455SOL    HW134001   2.768   1.907  16.802 -0.2864 -0.4795 -2.3375
 7455SOL    HW234002   2.883   1.933  16.733 -0.6464 -0.9499 -1.8247
 7456SOL     OW34003   0.553   1.320  11.828 -0.0223  0.0120 -0.4554
 7456SOL    HW134004   0.501   1.240  11.837  3.0079 -1.9348 -0.0995
 7456SOL    HW234005   0.486   1.388  11.821 -1.8041 -1.5032  1.8758
 7457SOL     OW34006   1.098   3.122  14.844  0.1294  0.9766  0.8020
 7457SOL    HW134007   1.135   3.204  14.812  1.7716 -0.3482 -0.6842
 7457SOL    HW234008   1.041   3.145  14.917  1.2952  1.2217  1.6286
 7458SOL     OW34009   0.506   4.547   6.270 -0.4147 -0.2618  0.1898
 7458SOL    HW134010   0.560   4.554   6.191  0.4253 -0.0094  0.7847
 7458SOL    HW234011   0.430   4.505   6.229 -0.8124 -0.8533  1.5578
 7459SOL     OW34012   0.613   4.302   9.037 -0.2542 -0.0264  0.2684
 7459SOL    HW134013   0.652   4.344   8.960  0.2791  0.6880  0.9271
 7459SOL    HW234014   0.695   4.290   9.085 -0.7886 -0.8367  0.9738
 7460SOL     OW34015   4.728   0.464   3.256  0.8403  0.0948 -0.0905
 7460SOL    HW134016   0.018   0.548   3.222 -0.7757  0.1870 -1.2471
 7460SOL    HW234017   4.660   0.446   3.191  0.7876  4.7784 -1.3391
 7461SOL     OW34018   2.261   1.611   7.730  0.1120  0.5510 -0.0163
 7461SOL    HW134019   2.183   1.664   7.714 -0.8815  0.1416  3.5200
 7461SOL    HW234020   2.302   1.629   7.645  0.4666  0.6682  0.1790
 7462SOL     OW34021   0.235   1.502   0.520  0.4796 -0.2274 -0.5056
 7462SOL    HW134022   0.295   1.458   0.580  1.8981  0.3620 -1.4873
 7462SOL    HW234023   0.235   1.585   0.568 -0.1431 -1.3566  1.4357
 7463SOL     OW34024   1.219   2.659   4.559 -0.8447 -0.5915  0.3770
 7463SOL    HW134025   1.285   2.696   4.618  0.6938  0.5020 -2.0410
 7463SOL    HW234026   1.173   2.738   4.531  0.7621  0.0639 -0.4217
 7464SOL     OW34027   1.136   1.348   8.983 -0.2979  0.2387 -0.4364
 7464SOL    HW134028   1.070   1.304   8.930  2.2701 -2.6824 -1.2280
 7464SOL    HW234029   1.145   1.437   8.950  1.9865  0.6451  1.2764
 7465SOL     OW34030   1.646   0.577   7.272  0.0204 -0.0594 -0.2220
 7465SOL    HW134031   1.627   0.670   7.289 -0.1946 -0.2420  0.5066
 7465SOL    HW234032   1.702   0.562   7.348 -1.2257 -0.5664  0.5910
 7466SOL     OW34033   1.775   3.495   8.007 -0.2206  0.6208  0.0273
 7466SOL    HW134034   1.839   3.432   7.974  0.1790  2.1620 -2.1344
 7466SOL    HW234035   1.707   3.430   7.991  0.1518  1.5927 -5.3138
 7467SOL     OW34036   4.082   4.581   2.218  0.7743  0.2052  0.3773
 7467SOL    HW134037   4.082   4.616   2.129 -1.9996  1.2941  0.7975
 7467SOL    HW234038   4.102   4.489   2.200 -3.0809 -0.6335  0.2840
 7468SOL     OW34039   4.068   3.197   1.567 -0.0809  0.0784  0.3184
 7468SOL    HW134040   4.097   3.287   1.556 -1.5940  0.7367  1.6356
 7468SOL    HW234041   4.030   3.196   1.655  0.4545 -1.7049  0.5276
 7469SOL     OW34042   0.495   1.288   7.309 -0.7760 -0.6027 -0.3060
 7469SOL    HW134043   0.588   1.305   7.324 -0.5583 -3.9623  1.8281
 7469SOL    HW234044   0.447   1.317   7.386  1.0347  0.0205  0.5909
 7470SOL     OW34045   1.174   3.642   1.578 -0.0980  0.0298 -0.0682
 7470SOL    HW134046   1.247   3.647   1.639 -0.0211 -3.4192  0.1265
 7470SOL    HW234047   1.113   3.600   1.639 -1.0860  2.4826  0.6272
 7471SOL     OW34048   2.477   0.838   6.747  0.1648 -0.0009  0.4413
 7471SOL    HW134049   2.513   0.817   6.661 -0.9910 -0.2414  0.0104
 7471SOL    HW234050   2.558   0.871   6.786  0.8063  0.1547 -1.0266
 7472SOL     OW34051   1.520   2.583   9.727 -0.7774 -0.0671  0.6590
 7472SOL    HW134052   1.522   2.512   9.792  1.2866 -0.9979 -0.4258
 7472SOL    HW234053   1.455   2.631   9.779 -1.5560 -0.2944 -0.1081
 7473SOL     OW34054   3.149   3.300  16.352  0.2901 -0.2458  0.2139
 7473SOL    HW134055   3.181   3.297  16.442  1.5390 -0.3976 -0.2340
 7473SOL    HW234056   3.115   3.388  16.341  1.5379  0.2845  0.6394
 7474SOL     OW34057   3.434   4.643   2.969 -0.0488 -0.1773 -0.1192
 7474SOL    HW134058   3.405   4.728   2.936  0.9180 -0.8927 -2.7874
 7474SOL    HW234059   3.374   4.588   2.919  0.2424 -1.1217  0.5707
 7475SOL     OW34060   2.798   1.741   3.440  0.0037 -0.2852  0.4576
 7475SOL    HW134061   2.780   1.764   3.349 -2.3643 -0.1481  0.9699
 7475SOL    HW234062   2.786   1.646   3.436  0.0030 -0.2416 -0.5197
 7476SOL     OW34063   1.694   0.238  15.892 -0.3655 -0.0521  0.8131
 7476SOL    HW134064   1.616   0.212  15.843  0.4183  0.7632 -0.8898
 7476SOL    HW234065   1.663   0.252  15.982 -0.8292  0.9774  0.4908
 7477SOL     OW34066   3.987   4.694   0.898  0.6594 -0.3287 -0.2009
 7477SOL    HW134067   3.947   0.042   0.901 -0.7839 -1.0197  0.7160
 7477SOL    HW234068   3.948   4.665   0.815 -1.6736  0.9319  0.4271
 7478SOL     OW34069   0.642   2.302  17.038 -0.8759 -0.2896  0.2161
 7478SOL    HW134070   0.697   2.321  17.113 -0.0452 -1.8179  0.0063
 7478SOL    HW234071   0.679   2.221  17.002 -0.7825 -0.6738  1.1711
 7479SOL     OW34072   4.694   2.106   8.424  0.1722 -0.0053  0.1724
 7479SOL    HW134073   4.664   2.084   8.512 -0.0628 -3.7723 -0.8458
 7479SOL    HW234074   4.615   2.067   8.384 -0.7873  0.3862  1.6830
 7480SOL     OW34075   2.390   4.579  17.708  0.3553 -0.1611  0.4007
 7480SOL    HW134076   2.338   4.654  17.735  0.0088  0.1863 -1.2723
 7480SOL    HW234077   2.417   4.609  17.621 -1.0720  1.0849  0.3937
 7481SOL     OW34078   1.541   0.108  17.710  0.1188  0.5118 -0.0468
 7481SOL    HW134079   1.499   0.153   0.029 -0.9627 -0.8910  0.1898
 7481SOL    HW234080   1.602   0.052   0.004  0.7527  1.0935 -0.1531
 7482SOL     OW34081   2.117   3.552  12.287 -0.1243  0.2751 -0.1981
 7482SOL    HW134082   2.186   3.520  12.345  0.3391  0.6816 -0.5247
 7482SOL    HW234083   2.036   3.548  12.338 -1.0675  0.4257 -1.6513
 7483SOL     OW34084   4.628   0.013   2.328 -0.0275  0.6028 -0.1961
 7483SOL    HW134085   4.608   4.695   2.402  0.0678 -0.7713 -1.2396
 7483SOL    HW234086   4.537   0.032   2.307 -0.0983  1.3433  0.7478
 7484SOL     OW34087   3.604   0.642  12.673 -0.3953  0.3621 -0.1229
 7484SOL    HW134088   3.618   0.556  12.713  1.0575 -0.4666 -2.4062
 7484SOL    HW234089   3.534   0.631  12.609 -0.3033  2.7377 -0.6131
 7485SOL     OW34090   1.367   3.449   7.057  0.0445 -0.3826  0.1187
 7485SOL    HW134091   1.357   3.415   6.968 -1.9590  1.7418 -0.4592
 7485SOL    HW234092   1.409   3.531   7.031  2.1879 -1.3942  0.3569
 7486SOL     OW34093   3.855   2.638   5.059  0.6507 -0.5216 -0.0638
 7486SOL    HW134094   3.872   2.619   5.151 -1.7978 -1.6613  0.1537
 7486SOL    HW234095   3.925   2.697   5.033  1.2319 -0.5461  1.4670
 7487SOL     OW34096   0.334   1.678  10.242  0.8193  0.4863 -0.0433
 7487SOL    HW134097   0.315   1.707  10.331 -0.1384 -2.2282  0.6384
 7487SOL    HW234098   0.316   1.761  10.197 -2.7900 -0.1936  0.1249
 7488SOL     OW34099   0.421   1.259   3.323  0.1439  0.1483  0.1571
 7488SOL    HW134100   0.364   1.334   3.307 -0.7728 -0.3367  1.1656
 7488SOL    HW234101   0.355   1.202   3.363  0.6101  0.6674  1.6400
 7489SOL     OW34102   4.036   4.328  17.712 -0.2475  0.2783  0.8363
 7489SOL    HW134103   3.950   4.367  17.726 -0.0725  0.5650  1.1128
 7489SOL    HW234104   4.092   4.368   0.023  1.4104 -0.4925 -0.1039
 7490SOL     OW34105   1.944   1.546   3.320 -0.1214  0.1919  0.4654
 7490SOL    HW134106   1.888   1.474   3.349  0.0403 -0.8946 -1.9151
 7490SOL    HW234107   1.902   1.621   3.361 -0.4829  0.7233 -0.8753
 7491SOL     OW34108   1.277   0.648   7.551 -0.1991 -0.3053  0.2580
 7491SOL    HW134109   1.261   0.730   7.504 -0.9218  0.6300  2.1299
 7491SOL    HW234110   1.187   0.639   7.583 -0.2150 -0.2072  0.2405
 7492SOL     OW34111   1.757   1.402   9.015  0.8103 -0.0786  0.7421
 7492SOL    HW134112   1.729   1.439   8.932 -0.3644 -1.5796  0.4745
 7492SOL    HW234113   1.673   1.384   9.058  0.6792 -1.9842 -0.3187
 7493SOL     OW34114   3.868   1.065  12.562  0.3250  0.2268  0.2063
 7493SOL    HW134115   3.778   1.090  12.538  0.6391  0.6160 -0.5776
 7493SOL    HW234116   3.918   1.146  12.555  1.9369 -0.6856  1.2039
 7494SOL     OW34117   3.368   4.422   7.165  0.6114  0.0844  0.0618
 7494SOL    HW134118   3.376   4.498   7.107  0.3640  0.5232  0.6117
 7494SOL    HW234119   3.441   4.362   7.146 -0.5405 -1.5637  0.8214
 7495SOL     OW34120   2.032   0.411   7.952  0.2614 -0.0004 -0.0096
 7495SOL    HW134121   2.102   0.363   7.996  0.0342  0.5396  0.9374
 7495SOL    HW234122   2.065   0.427   7.864  0.4126 -0.3868 -0.0225
 7496SOL     OW34123   1.725   1.716   0.219 -0.8626 -0.1651  0.4719
 7496SOL    HW134124   1.753   1.801   0.252  0.1669 -0.4339  0.2843
 7496SOL    HW234125   1.799   1.664   0.249 -0.8773 -0.0139  0.7662
 7497SOL     OW34126   0.291   4.724  14.336 -0.0614 -0.5845  0.3925
 7497SOL    HW134127   0.200   4.696  14.332 -0.2967  0.3507 -0.6358
 7497SOL    HW234128   0.284   0.046  14.409  1.2797  0.6007 -0.4636
 7498SOL     OW34129   4.523   3.676   7.395 -0.9252 -0.3424  0.0584
 7498SOL    HW134130   4.481   3.648   7.476 -2.2987 -1.0273 -0.9083
 7498SOL    HW234131   4.522   3.598   7.340  2.0698 -1.3171  1.3933
 7499SOL     OW34132   3.685   4.660   1.263 -0.5053  0.7139  1.0804
 7499SOL    HW134133   3.681   4.708   1.181 -1.4405  0.7444  1.1389
 7499SOL    HW234134   3.743   4.585   1.250  0.2494  1.4384  0.2689
 7500SOL     OW34135   3.142   2.989   4.292  0.1769 -0.0431  0.0358
 7500SOL    HW134136   3.114   2.944   4.213  0.0391 -2.4564  1.4660
 7500SOL    HW234137   3.232   2.959   4.306  0.5039  0.5789 -0.7225
 7501SOL     OW34138   2.691   4.492   4.363  0.1088  0.0732  0.3103
 7501SOL    HW134139   2.756   4.470   4.429 -1.5254 -0.6626  1.6598
 7501SOL    HW234140   2.617   4.507   4.422  0.0317  0.1980  0.1834
 7502SOL     OW34141   1.749   4.004   0.423  0.0145 -0.8653  0.5002
 7502SOL    HW134142   1.730   4.090   0.461  0.5604 -0.2652 -0.5775
 7502SOL    HW234143   1.790   4.023   0.338 -1.3506  0.7451  0.2085
 7503SOL     OW34144   0.938   3.998   5.827 -0.2676  0.5211  0.5548
 7503SOL    HW134145   0.936   3.904   5.811  0.3368  0.2550  2.0560
 7503SOL    HW234146   0.855   4.007   5.874 -0.7801 -0.8923 -0.0809
 7504SOL     OW34147   3.026   3.658  14.643 -0.2225  0.1821 -0.2243
 7504SOL    HW134148   3.045   3.568  14.614 -4.9097 -1.1627  0.8306
 7504SOL    HW234149   2.968   3.685  14.572  2.5450 -1.7926 -3.2349
 7505SOL     OW34150   3.251   2.944  13.694 -0.0304 -0.2450 -0.3307
 7505SOL    HW134151   3.196   3.022  13.696  0.5518  0.1549 -0.1559
 7505SOL    HW234152   3.326   2.985  13.652  0.0154 -0.4535 -0.4531
 7506SOL     OW34153   0.043   3.143   7.308  0.5087 -0.0047  0.0991
 7506SOL    HW134154   4.709   3.081   7.318 -0.8269  1.2992 -1.6037
 7506SOL    HW234155   0.088   3.126   7.390  2.1589  2.2709 -0.3349
 7507SOL     OW34156   3.308   1.223   5.669 -0.2001 -0.3877 -0.2081
 7507SOL    HW134157   3.364   1.233   5.746 -0.6164  1.3079 -0.1309
 7507SOL    HW234158   3.237   1.170   5.705 -0.7238  0.6585  0.2959
 7508SOL     OW34159   0.478   1.098   6.516 -0.5649 -0.6102  0.1342
 7508SOL    HW134160   0.570   1.114   6.495  0.3005 -2.1475  2.7429
 7508SOL    HW234161   0.459   1.155   6.591  0.2133 -0.2544  0.0559
 7509SOL     OW34162   3.988   0.690   2.162  0.4605 -0.4799  0.5518
 7509SOL    HW134163   3.894   0.707   2.160  0.3129 -1.3518 -0.0832
 7509SOL    HW234164   3.971   0.600   2.192 -1.0668 -0.0294  1.0166
 7510SOL     OW34165   4.277   2.341  10.676  0.1387 -0.5761 -0.2226
 7510SOL    HW134166   4.198   2.375  10.717  0.7008 -0.5289  0.8273
 7510SOL    HW234167   4.285   2.264  10.732  0.8556 -1.4385 -1.5117
 7511SOL     OW34168   2.942   0.313   7.518 -0.2778 -0.7752 -0.4537
 7511SOL    HW134169   2.874   0.353   7.464  0.1583  1.1619  0.4515
 7511SOL    HW234170   2.953   0.379   7.587  0.1394 -1.3174  0.0051
 7512SOL     OW34171   2.801   4.540   8.524 -0.5121  0.1483 -0.1134
 7512SOL    HW134172   2.768   4.610   8.581 -1.1450 -1.5414  1.6003
 7512SOL    HW234173   2.849   4.588   8.457 -0.7407  0.6462  0.0803
 7513SOL     OW34174   0.107   4.538   5.904  0.9222 -0.3013  0.3370
 7513SOL    HW134175   0.095   4.497   5.990 -2.4202  2.2507  1.0596
 7513SOL    HW234176   0.018   4.541   5.870  0.7309  1.9900  1.0387
 7514SOL     OW34177   1.892   2.904   6.025  0.0325  0.2504  0.2732
 7514SOL    HW134178   1.832   2.867   6.089  0.1694 -1.4817 -0.6122
 7514SOL    HW234179   1.881   2.843   5.952  0.3287  1.3836 -0.7194
 7515SOL     OW34180   4.403   4.391  11.614  0.3600  0.3316 -0.3517
 7515SOL    HW134181   4.314   4.417  11.590 -0.2869 -3.3212 -2.0235
 7515SOL    HW234182   4.406   4.307  11.568  0.8721 -1.0121  2.0915
 7516SOL     OW34183   0.080   0.509   1.391  0.4647  0.2074 -0.6830
 7516SOL    HW134184   0.105   0.423   1.356  0.0362  0.1789 -0.9259
 7516SOL    HW234185   4.730   0.517   1.357  0.5902 -1.1722 -1.3600
 7517SOL     OW34186   0.919   3.759   6.217  0.2510  0.0516  0.5863
 7517SOL    HW134187   0.926   3.690   6.152 -0.6041  1.2951 -0.8328
 7517SOL    HW234188   0.995   3.743   6.273  0.7227 -0.5582 -0.2346
 7518SOL     OW34189   4.059   0.798   8.499 -0.2580  0.3317 -0.2300
 7518SOL    HW134190   4.022   0.711   8.509  2.7631 -1.1817 -2.1548
 7518SOL    HW234191   4.087   0.794   8.407 -1.7385  2.8530 -0.7996
 7519SOL     OW34192   2.299   1.567   1.168  0.6831 -0.1727 -0.5247
 7519SOL    HW134193   2.229   1.501   1.167 -0.0641  0.5958  1.3255
 7519SOL    HW234194   2.318   1.567   1.262  0.2910 -0.1419 -0.4429
 7520SOL     OW34195   0.094   4.531   7.999  0.2470 -0.2541 -0.2137
 7520SOL    HW134196   0.090   4.436   7.997 -2.2255 -0.1630  0.6839
 7520SOL    HW234197   0.119   4.552   8.089 -1.2739  0.1668  0.1187
 7521SOL     OW34198   1.465   1.630   4.342  0.6513 -0.5009 -0.4494
 7521SOL    HW134199   1.519   1.589   4.410 -1.5615 -1.6399  0.6215
 7521SOL    HW234200   1.400   1.669   4.400 -0.2288 -0.1991 -1.6605
 7522SOL     OW34201   0.674   4.383   7.940 -0.3301 -0.7245 -0.1508
 7522SOL    HW134202   0.639   4.370   7.852  0.6151 -1.0190 -0.4810
 7522SOL    HW234203   0.769   4.374   7.931 -0.4331 -3.3132  1.3659
 7523SOL     OW34204   0.360   2.865   7.700  0.8025 -0.1488  0.2533
 7523SOL    HW134205   0.335   2.941   7.753  0.3478 -0.7767  0.9232
 7523SOL    HW234206   0.408   2.904   7.627 -0.4863  1.0626  0.0574
 7524SOL     OW34207   0.064   2.774   4.979 -0.5759  0.1987 -0.7732
 7524SOL    HW134208   0.080   2.860   4.938 -1.6343  0.4842 -0.5817
 7524SOL    HW234209   0.121   2.777   5.055 -1.3456  1.3002 -0.2377
 7525SOL     OW34210   0.696   0.586  17.393 -0.6017 -0.1679 -0.4830
 7525SOL    HW134211   0.730   0.573  17.482 -0.8622 -1.5128 -0.5725
 7525SOL    HW234212   0.773   0.560  17.343 -2.0366 -0.4524 -2.5429
 7526SOL     OW34213   0.671   2.295   5.568 -0.2211 -0.6489  0.4967
 7526SOL    HW134214   0.672   2.364   5.502  0.5943 -0.6132  0.5467
 7526SOL    HW234215   0.697   2.221   5.513  1.5774  0.0912  0.3494
 7527SOL     OW34216   3.434   0.554   7.162 -0.3338  0.2675  0.1446
 7527SOL    HW134217   3.352   0.519   7.198  0.1262  0.5407  1.4493
 7527SOL    HW234218   3.479   0.558   7.246 -0.1405  0.1947  0.0431
 7528SOL     OW34219   4.109   3.826   8.103  0.4396  0.0343  0.5132
 7528SOL    HW134220   4.020   3.812   8.072  1.6274  0.2250 -3.0489
 7528SOL    HW234221   4.127   3.914   8.071  0.9715  0.0710  0.9025
 7529SOL     OW34222   4.518   3.897   8.279 -0.7175 -0.2899  0.0851
 7529SOL    HW134223   4.461   3.973   8.288  0.5286  0.7525 -0.7259
 7529SOL    HW234224   4.464   3.842   8.335 -1.8038  0.3598 -0.3107
 7530SOL     OW34225   2.463   3.335   0.055  0.7054 -0.0450 -0.3869
 7530SOL    HW134226   2.473   3.424   0.089 -3.5077  0.1440  0.4074
 7530SOL    HW234227   2.467   3.347  17.714  2.0734  0.6324 -0.2396
 7531SOL     OW34228   1.563   2.287   2.099 -0.3368  0.4702  0.1365
 7531SOL    HW134229   1.497   2.337   2.051  0.2074 -0.9505 -2.0683
 7531SOL    HW234230   1.591   2.238   2.022 -0.4019 -0.6968  0.8338
 7532SOL     OW34231   2.467   2.058  15.909  0.4510 -0.5008 -0.3464
 7532SOL    HW134232   2.401   1.990  15.921  0.5544 -0.7348 -1.0923
 7532SOL    HW234233   2.538   2.020  15.858  1.2598 -1.4108  1.4779
 7533SOL     OW34234   4.445   1.839  11.267  0.3756 -0.0124 -0.4055
 7533SOL    HW134235   4.513   1.861  11.204  0.4948  2.2694  0.5437
 7533SOL    HW234236   4.416   1.929  11.280  2.5607  0.3123  2.2383
 7534SOL     OW34237   1.513   3.569   6.448  0.3971  0.5772  0.1521
 7534SOL    HW134238   1.575   3.560   6.376  0.6205  1.0929  0.2814
 7534SOL    HW234239   1.468   3.485   6.456  1.7104 -0.0919  0.4552
 7535SOL     OW34240   0.645   2.111  17.715 -0.0749  0.4535 -0.5886
 7535SOL    HW134241   0.560   2.153  17.733  0.0986  0.7723 -0.5151
 7535SOL    HW234242   0.617   2.036  17.663  2.6317  0.6749 -2.3141
 7536SOL     OW34243   3.161   3.456   6.829  0.4937 -0.6045  0.1342
 7536SOL    HW134244   3.224   3.524   6.850  0.1960 -1.0448  2.5105
 7536SOL    HW234245   3.086   3.508   6.801 -1.2988 -2.3769  1.5600
 7537SOL     OW34246   2.707   4.357   4.786  0.8826 -0.0110 -0.2542
 7537SOL    HW134247   2.753   4.282   4.823  0.4075  0.2332  0.8194
 7537SOL    HW234248   2.691   4.420   4.855 -1.7219  1.9301 -2.6220
 7538SOL     OW34249   4.310   2.289   5.248  0.2402 -0.4544 -0.0946
 7538SOL    HW134250   4.328   2.333   5.331  0.6557  0.6661 -0.7773
 7538SOL    HW234251   4.393   2.271   5.203  0.2576 -1.3850  0.3089
 7539SOL     OW34252   3.041   0.334   4.329  0.3155  0.4365 -0.2094
 7539SOL    HW134253   3.051   0.240   4.337  0.3250  0.3375 -1.2933
 7539SOL    HW234254   3.116   0.358   4.383 -0.8554  0.4018  1.4262
 7540SOL     OW34255   2.637   3.706   6.024  0.1723  0.0277  0.9136
 7540SOL    HW134256   2.686   3.775   6.067  0.5259 -0.5787  1.4866
 7540SOL    HW234257   2.649   3.724   5.931 -0.2513 -1.4656  0.5604
 7541SOL     OW34258   2.020   1.047   9.690  0.0907 -0.0694  0.6635
 7541SOL    HW134259   2.001   1.139   9.709  0.4519  0.1934 -0.2641
 7541SOL    HW234260   1.977   1.030   9.607 -0.6271  1.7393  0.6610
 7542SOL     OW34261   2.246   3.911   4.827  0.2403  0.4566  0.0818
 7542SOL    HW134262   2.250   4.006   4.836  4.0521  0.1866  1.1220
 7542SOL    HW234263   2.166   3.882   4.870 -0.5807  2.3559 -0.1502
 7543SOL     OW34264   2.249   0.738  17.383 -0.4018  0.2567  0.5236
 7543SOL    HW134265   2.224   0.652  17.349 -0.2994  1.5662 -2.9469
 7543SOL    HW234266   2.283   0.787  17.308  1.3539 -1.6555  0.0782
 7544SOL     OW34267   2.049   3.957  16.117  0.7316  0.6017  0.1903
 7544SOL    HW134268   2.091   3.907  16.186  1.2146  1.5878  0.5974
 7544SOL    HW234269   1.988   4.014  16.165 -0.0201 -1.6656  1.9320
 7545SOL     OW34270   0.616   1.737  16.907  0.0753 -0.1696  0.0179
 7545SOL    HW134271   0.574   1.682  16.973 -0.6699  1.1105  0.6080
 7545SOL    HW234272   0.633   1.669  16.842 -1.8765 -1.4226  0.8133
 7546SOL     OW34273   0.659   3.256   5.870  0.0900  0.4638 -0.3211
 7546SOL    HW134274   0.664   3.332   5.812  3.0897  1.2502  1.0088
 7546SOL    HW234275   0.751   3.245   5.892 -0.2126 -1.6499 -0.1591
 7547SOL     OW34276   0.097   1.511  13.453  0.1812  0.0123  0.0283
 7547SOL    HW134277   0.005   1.483  13.448  0.3575 -0.3917 -0.9749
 7547SOL    HW234278   0.126   1.484  13.366  2.6797 -1.5274  1.3260
 7548SOL     OW34279   1.204   3.393   7.901  0.6116  0.0987 -0.0152
 7548SOL    HW134280   1.250   3.454   7.844 -1.5514  1.3844 -0.3981
 7548SOL    HW234281   1.162   3.455   7.960 -0.5819 -1.4278  0.7614
 7549SOL     OW34282   2.376   1.082   3.564 -0.1670 -0.3775 -0.0834
 7549SOL    HW134283   2.351   1.026   3.490  1.8242  0.2010 -1.2204
 7549SOL    HW234284   2.286   1.109   3.583 -0.6215 -0.9483 -1.3683
 7550SOL     OW34285   2.044   3.666   2.957  0.5812 -0.1256 -0.1389
 7550SOL    HW134286   2.000   3.751   2.967 -0.3820 -0.6278 -0.1357
 7550SOL    HW234287   2.105   3.680   3.029 -1.3800 -1.5425  1.7871
 7551SOL     OW34288   2.330   0.226   6.433  0.1557  0.7470 -0.6066
 7551SOL    HW134289   2.365   0.138   6.448 -0.2787  0.3759 -1.7866
 7551SOL    HW234290   2.398   0.261   6.375 -0.5742  1.7466 -0.8429
 7552SOL     OW34291   2.851   1.315  11.993  0.5114  0.0222  0.0714
 7552SOL    HW134292   2.763   1.285  11.970  0.5986 -0.6777  0.6410
 7552SOL    HW234293   2.839   1.344  12.084  0.7485  1.5129 -0.3758
 7553SOL     OW34294   1.046   2.938  15.785  0.4126  0.0901  0.1017
 7553SOL    HW134295   1.046   2.865  15.723  2.3883  0.5009 -0.3690
 7553SOL    HW234296   1.139   2.947  15.807  0.0897  1.5936  0.8851
 7554SOL     OW34297   4.155   0.406   6.253  0.6366 -0.1301 -0.1258
 7554SOL    HW134298   4.087   0.338   6.249 -1.5980  2.1243 -0.4036
 7554SOL    HW234299   4.168   0.404   6.348  0.8293  2.4079 -0.0968
 7555SOL     OW34300   1.514   0.156   1.512 -0.4060  0.4259  0.2535
 7555SOL    HW134301   1.588   0.212   1.536 -0.6254 -0.0691  2.0577
 7555SOL    HW234302   1.558   0.080   1.549  1.8594  1.6095 -0.0130
 7556SOL     OW34303   1.537   0.778   5.976  0.1953 -0.2507  1.0048
 7556SOL    HW134304   1.506   0.818   5.895  0.3591 -1.0993  0.5239
 7556SOL    HW234305   1.630   0.796   5.973  0.1329 -0.0995  0.2293
 7557SOL     OW34306   4.323   2.069   6.945 -0.0475  0.0688 -0.3189
 7557SOL    HW134307   4.262   2.072   7.019  0.4874 -2.2302  0.2306
 7557SOL    HW234308   4.390   2.136   6.958  0.2985 -0.1714 -0.8682
 7558SOL     OW34309   0.255   4.638   1.851 -0.4055 -0.2148 -0.0701
 7558SOL    HW134310   0.348   4.633   1.871 -0.2665  1.7343 -0.2107
 7558SOL    HW234311   0.264   4.644   1.756  1.1848 -0.7628  0.0471
 7559SOL     OW34312   3.417   2.855  16.692 -0.3058  0.8349 -0.1744
 7559SOL    HW134313   3.363   2.776  16.691  0.7778  0.0701  3.0081
 7559SOL    HW234314   3.455   2.864  16.779 -1.9751  2.7293  0.3387
 7560SOL     OW34315   1.300   3.632  15.060  0.1844  0.3389 -0.3361
 7560SOL    HW134316   1.355   3.622  15.138  2.6088  0.1083 -2.0516
 7560SOL    HW234317   1.278   3.539  15.054  2.3042 -0.0755 -1.6822
 7561SOL     OW34318   0.494   1.751   3.666  0.3877 -0.3347  0.0384
 7561SOL    HW134319   0.516   1.658   3.678 -2.4791 -1.3128 -2.2786
 7561SOL    HW234320   0.416   1.747   3.611 -0.2443 -1.0341  0.9964
 7562SOL     OW34321   0.322   1.461  15.543 -0.3186  0.5355 -0.1846
 7562SOL    HW134322   0.317   1.373  15.581  2.1336  1.1001  1.4698
 7562SOL    HW234323   0.341   1.439  15.452  1.5145 -1.3912  0.6696
 7563SOL     OW34324   3.875   1.422   3.013  0.1419 -0.6604  0.4368
 7563SOL    HW134325   3.807   1.365   3.048 -1.1110  1.6922  1.8900
 7563SOL    HW234326   3.872   1.492   3.079  0.4223 -0.6490  0.4371
 7564SOL     OW34327   4.213   0.879   2.659  0.0448  0.8829 -0.2208
 7564SOL    HW134328   4.246   0.835   2.738 -3.5890  0.8899  1.3422
 7564SOL    HW234329   4.136   0.928   2.689  0.3974  0.5068  1.2968
 7565SOL     OW34330   2.229   2.926   5.309 -0.1340  0.6883  0.0653
 7565SOL    HW134331   2.193   2.841   5.333 -0.5914  1.5253  2.3328
 7565SOL    HW234332   2.219   2.980   5.387  1.7303 -0.0782  0.8404
 7566SOL     OW34333   3.953   4.397   1.961 -0.3617 -0.9908  0.5986
 7566SOL    HW134334   3.906   4.437   2.034  0.8308 -0.2416  0.9717
 7566SOL    HW234335   3.895   4.325   1.938 -0.6579 -1.0530  1.5459
 7567SOL     OW34336   0.232   2.791   2.752 -0.6051 -0.3784 -0.2530
 7567SOL    HW134337   0.211   2.881   2.725  0.8426  0.1084  0.2525
 7567SOL    HW234338   0.204   2.796   2.844  1.7993  3.1539  0.2915
 7568SOL     OW34339   2.747   2.790   2.502  0.2347  0.0072 -0.1698
 7568SOL    HW134340   2.793   2.870   2.476  0.3147  0.1956  0.5701
 7568SOL    HW234341   2.789   2.783   2.587 -0.3222  0.7129  0.1594
 7569SOL     OW34342   3.912   1.625   3.921 -0.0019 -0.1401  0.2904
 7569SOL    HW134343   3.945   1.544   3.959 -0.1607 -0.4175 -0.1704
 7569SOL    HW234344   3.993   1.676   3.914  0.6365 -1.5333 -2.6557
 7570SOL     OW34345   3.586   3.627  12.892  0.6529 -0.3681 -0.1976
 7570SOL    HW134346   3.628   3.602  12.975 -1.5350  1.9836  1.6028
 7570SOL    HW234347   3.514   3.682  12.923  0.2100 -1.7037  1.1381
 7571SOL     OW34348   2.698   2.781  13.173 -0.4689 -0.2490 -0.0960
 7571SOL    HW134349   2.775   2.815  13.128 -0.8154  1.9226  0.9267
 7571SOL    HW234350   2.678   2.698  13.131  0.7368 -1.4856  1.7461
 7572SOL     OW34351   3.103   2.737   4.465  0.4105 -0.3195  0.2679
 7572SOL    HW134352   3.031   2.748   4.402  1.9437  0.6171 -1.3351
 7572SOL    HW234353   3.124   2.829   4.479  1.2083 -0.6269  1.0798
 7573SOL     OW34354   2.026   1.998  10.243  1.0509 -0.4797  0.4654
 7573SOL    HW134355   2.088   2.066  10.270 -0.8863  0.5831  2.2294
 7573SOL    HW234356   1.952   2.056  10.224  0.0402 -1.8722  0.1014
 7574SOL     OW34357   2.874   1.155  12.378  0.7494 -0.5539 -0.1391
 7574SOL    HW134358   2.909   1.241  12.355 -1.4407 -0.4078 -2.8623
 7574SOL    HW234359   2.884   1.100  12.300 -2.4467 -0.3821 -0.6398
 7575SOL     OW34360   3.279   0.887  10.041 -0.2728  0.4066  0.3845
 7575SOL    HW134361   3.245   0.848   9.961  0.7372 -0.7453  0.5226
 7575SOL    HW234362   3.371   0.862  10.029 -0.7676 -1.3527  0.3011
 7576SOL     OW34363   2.343   3.544   6.284  0.3829 -0.5006 -0.3325
 7576SOL    HW134364   2.368   3.455   6.310 -0.8652 -0.0260  2.5041
 7576SOL    HW234365   2.418   3.594   6.315 -0.3751 -0.1546  0.9388
 7577SOL     OW34366   3.384   1.468   4.088  0.1157  0.2120 -0.2593
 7577SOL    HW134367   3.307   1.422   4.120 -0.3421  0.8871 -0.3743
 7577SOL    HW234368   3.342   1.554   4.085 -2.6940 -1.1329  0.7666
 7578SOL     OW34369   1.219   1.237   2.475  0.1770  0.0204 -0.4917
 7578SOL    HW134370   1.214   1.311   2.414  0.6045  1.6773  1.4958
 7578SOL    HW234371   1.220   1.158   2.420  2.1337  0.3931 -0.9719
 7579SOL     OW34372   3.805   1.467   7.164  0.2052  0.2228 -0.0000
 7579SOL    HW134373   3.772   1.414   7.237  0.0660  1.1217  0.5942
 7579SOL    HW234374   3.743   1.539   7.153  1.8592  1.6153 -0.1974
 7580SOL     OW34375   0.448   2.166  14.627 -0.2824  0.4330 -0.5395
 7580SOL    HW134376   0.467   2.081  14.666  0.4438  0.9772  0.2834
 7580SOL    HW234377   0.451   2.137  14.535 -0.5625  0.1400 -0.4535
 7581SOL     OW34378   0.666   1.517  17.095 -0.7606 -0.4835 -0.1501
 7581SOL    HW134379   0.712   1.596  17.123 -2.6919  0.2575  0.9425
 7581SOL    HW234380   0.702   1.444  17.146 -0.7033 -1.0688 -1.0199
 7582SOL     OW34381   0.807   0.857   9.086 -0.4497  0.2567 -0.0175
 7582SOL    HW134382   0.795   0.829   9.176  0.7607  1.2565  0.4556
 7582SOL    HW234383   0.802   0.953   9.088 -1.4203  0.2634 -2.3503
 7583SOL     OW34384   4.454   0.794   4.634 -0.2170 -0.6050 -0.0699
 7583SOL    HW134385   4.396   0.731   4.592 -0.0893  0.0868 -1.2658
 7583SOL    HW234386   4.420   0.799   4.723  1.2058 -0.3151  0.4640
 7584SOL     OW34387   0.837   1.436   9.152 -0.3795 -0.2126  0.4611
 7584SOL    HW134388   0.929   1.443   9.126 -0.4763 -0.0716  0.1539
 7584SOL    HW234389   0.806   1.374   9.086  3.9714  0.3741 -2.1822
 7585SOL     OW34390   1.008   3.047   7.615 -0.1169 -0.1359 -0.5234
 7585SOL    HW134391   0.956   2.999   7.551 -1.4548 -0.5805  0.8924
 7585SOL    HW234392   1.076   2.984   7.639  0.6226  0.3359 -1.3851
 7586SOL     OW34393   1.367   0.715   1.349  0.4703 -0.1657  0.1242
 7586SOL    HW134394   1.288   0.667   1.325  0.1221 -0.2626  1.4564
 7586SOL    HW234395   1.349   0.753   1.435  0.3580 -0.1138  0.0764
 7587SOL     OW34396   0.737   1.253   2.266 -0.0352 -0.6144 -0.2402
 7587SOL    HW134397   0.704   1.190   2.202 -2.5444  0.7386 -0.3090
 7587SOL    HW234398   0.823   1.272   2.229 -0.3121 -0.8577 -1.0109
 7588SOL     OW34399   4.498   3.589   1.790  0.4459 -0.1595  0.2503
 7588SOL    HW134400   4.476   3.563   1.700  2.6024  0.8190 -0.5557
 7588SOL    HW234401   4.483   3.512   1.845 -1.6538  0.7274  0.9164
 7589SOL     OW34402   3.866   1.633   3.645 -0.4919  1.0535  0.1315
 7589SOL    HW134403   3.877   1.644   3.740  0.2496 -0.4250  0.2178
 7589SOL    HW234404   3.818   1.551   3.637  1.0676  0.2356 -0.6283
 7590SOL     OW34405   0.846   2.224   2.235  0.0374  0.0004  0.3113
 7590SOL    HW134406   0.828   2.135   2.206  1.8341 -0.0336 -0.6761
 7590SOL    HW234407   0.762   2.254   2.269 -0.9585 -0.2379 -1.9789
 7591SOL     OW34408   0.139   4.437   1.534  0.2978 -0.1270  0.7646
 7591SOL    HW134409   0.048   4.468   1.538  0.5386  0.4857  1.3929
 7591SOL    HW234410   0.138   4.361   1.475 -2.7702  2.1933 -2.2135
 7592SOL     OW34411   0.042   3.350  13.828  0.0831 -0.0775  0.2766
 7592SOL    HW134412   0.075   3.429  13.871 -1.0284  0.9739 -0.7666
 7592SOL    HW234413   0.037   3.376  13.736 -4.7801  2.8252  1.3109
 7593SOL     OW34414   2.930   1.036  17.672 -0.1175 -0.2716 -0.6330
 7593SOL    HW134415   2.895   1.125  17.667 -0.5956 -0.4811 -1.0266
 7593SOL    HW234416   2.952   1.022  17.580  0.2734  2.1324 -0.8900
 7594SOL     OW34417   1.299   0.994  15.935 -0.2255 -0.0407 -0.2129
 7594SOL    HW134418   1.357   0.973  15.862 -1.3719  0.9784 -1.4219
 7594SOL    HW234419   1.281   1.085  15.910 -0.4620 -0.3257 -1.0604
 7595SOL     OW34420   0.231   1.623   8.890  0.0498 -0.4741 -0.6871
 7595SOL    HW134421   0.170   1.684   8.932  1.0646 -1.7210  2.6144
 7595SOL    HW234422   0.311   1.670   8.913  0.6973 -1.0195 -1.8469
 7596SOL     OW34423   2.869   1.171   4.660 -0.1938  0.7246 -0.0060
 7596SOL    HW134424   2.925   1.187   4.736 -0.4795  0.7884  0.1928
 7596SOL    HW234425   2.925   1.208   4.593 -1.1739 -0.3017 -1.3841
 7597SOL     OW34426   4.454   0.579  13.675  0.1447  0.8047 -0.5229
 7597SOL    HW134427   4.456   0.548  13.766 -0.2300  0.1847 -0.7259
 7597SOL    HW234428   4.413   0.666  13.681 -0.7394  0.3291  0.4701
 7598SOL     OW34429   0.902   0.092   6.532 -0.1065  0.0020 -0.7797
 7598SOL    HW134430   0.860   0.053   6.456 -0.7614  0.1078 -0.4749
 7598SOL    HW234431   0.939   0.018   6.580 -1.3405  0.0264  0.2097
 7599SOL     OW34432   0.901   1.433   6.349 -0.0615  0.4595 -0.7621
 7599SOL    HW134433   0.831   1.411   6.410  0.7753 -0.5982 -0.1787
 7599SOL    HW234434   0.931   1.345   6.328  1.6872  0.3100  2.3344
 7600SOL     OW34435   0.210   3.702   8.332 -0.3091 -0.6538  0.0376
 7600SOL    HW134436   0.216   3.622   8.279  0.4202 -0.0947 -0.7308
 7600SOL    HW234437   0.129   3.741   8.298  0.9864  0.6436 -1.5969
 7601SOL     OW34438   4.314   0.035   4.074 -0.2023 -0.0735  0.4545
 7601SOL    HW134439   4.356   0.119   4.055 -1.8617  0.3114 -1.5210
 7601SOL    HW234440   4.361   4.729   4.004  0.8456 -0.4234  1.3820
 7602SOL     OW34441   2.904   4.088   2.094  0.3984 -0.6063 -0.0511
 7602SOL    HW134442   2.918   4.175   2.131 -1.5888  0.1946 -1.1947
 7602SOL    HW234443   2.816   4.079   2.130  1.2103  0.9113  2.2655
 7603SOL     OW34444   1.189   0.509   8.875  0.4768  0.1954  0.1138
 7603SOL    HW134445   1.177   0.436   8.936  0.9616  1.1217  1.3093
 7603SOL    HW234446   1.156   0.473   8.792  1.4015 -1.3181  0.4109
 7604SOL     OW34447   3.507   3.716   7.853 -0.0622  0.1150  0.4559
 7604SOL    HW134448   3.415   3.696   7.870  0.0514  0.7361  1.7750
 7604SOL    HW234449   3.523   3.647   7.789 -1.1664  2.4969 -2.4044
 7605SOL     OW34450   1.444   1.812   4.982  0.0494  0.0878  0.3806
 7605SOL    HW134451   1.481   1.883   5.034 -0.1212  0.9013 -0.5930
 7605SOL    HW234452   1.392   1.766   5.047 -3.1455  0.5348 -1.8541
 7606SOL     OW34453   3.134   1.128   2.993  0.1053 -0.0677 -0.1859
 7606SOL    HW134454   3.222   1.157   2.970 -0.8640  2.0680 -1.1965
 7606SOL    HW234455   3.131   1.134   3.089  0.3710  1.8742 -0.3063
 7607SOL     OW34456   3.442   4.008  15.500 -0.0403 -0.0631 -0.5233
 7607SOL    HW134457   3.355   4.037  15.472 -0.1305 -0.2846 -0.4750
 7607SOL    HW234458   3.500   4.073  15.460  0.3370  0.4075  0.7946
 7608SOL     OW34459   0.566   0.733   6.369  0.1058 -0.5481  0.4159
 7608SOL    HW134460   0.531   0.643   6.363 -1.6434  0.2840 -1.8219
 7608SOL    HW234461   0.504   0.784   6.317  1.2631 -0.0444 -0.4414
 7609SOL     OW34462   0.210   0.066   5.849 -0.2795 -0.5939 -0.3291
 7609SOL    HW134463   0.179   0.079   5.939 -0.3623 -0.8614 -0.3172
 7609SOL    HW234464   0.184   4.713   5.846 -0.4353 -0.5666  0.1347
 7610SOL     OW34465   2.259   4.071   9.056 -0.4326 -0.6956  0.0262
 7610SOL    HW134466   2.258   4.127   9.134 -0.1621 -0.2289 -0.3018
 7610SOL    HW234467   2.317   4.120   8.998  0.8182 -2.5263 -0.2338
 7611SOL     OW34468   0.240   0.321   1.587 -0.5542 -0.2405 -0.3444
 7611SOL    HW134469   0.197   0.383   1.647  0.5525 -2.5068  2.7549
 7611SOL    HW234470   0.177   0.249   1.598 -1.9314  1.0060  0.0250
 7612SOL     OW34471   3.596   2.653  16.395 -0.2028  0.5629 -0.1205
 7612SOL    HW134472   3.632   2.565  16.387 -0.7976  0.2045  1.1775
 7612SOL    HW234473   3.608   2.665  16.490 -0.8363 -1.6127  0.2337
 7613SOL     OW34474   3.878   2.452   9.471 -0.0958 -0.1774 -0.6448
 7613SOL    HW134475   3.916   2.486   9.389 -2.2201  3.8639  0.0289
 7613SOL    HW234476   3.784   2.447   9.452 -0.1662  0.3966 -0.4468
 7614SOL     OW34477   2.417   4.518   5.957 -0.2141  0.9054 -0.0956
 7614SOL    HW134478   2.409   4.560   6.042  2.1776 -0.4452  0.7683
 7614SOL    HW234479   2.480   4.579   5.920 -1.7100  1.6226 -1.4634
 7615SOL     OW34480   4.171   3.084   2.728 -0.6631 -0.8796  0.1294
 7615SOL    HW134481   4.077   3.098   2.740 -0.8558 -0.8413 -1.4707
 7615SOL    HW234482   4.190   3.017   2.793  1.9003  1.0956  1.4156
 7616SOL     OW34483   4.520   3.185   1.519 -0.2688  0.3849  0.8910
 7616SOL    HW134484   4.536   3.149   1.432  2.2034  0.6709  1.2154
 7616SOL    HW234485   4.549   3.116   1.579 -0.0442 -0.7326 -0.5024
 7617SOL     OW34486   3.427   0.238   0.988  0.6303  0.1876  0.0239
 7617SOL    HW134487   3.388   0.260   0.903 -1.1008  3.3063  1.6093
 7617SOL    HW234488   3.367   0.170   1.019  1.3528 -0.5618 -0.2299
 7618SOL     OW34489   1.930   3.851   7.767  0.8935  1.0238  0.0238
 7618SOL    HW134490   1.876   3.894   7.700 -3.5105 -0.3455  2.6690
 7618SOL    HW234491   1.871   3.842   7.842 -1.3728  0.2520 -1.8425
 7619SOL     OW34492   3.716   0.633   8.980  0.2379  0.1835 -0.1547
 7619SOL    HW134493   3.740   0.540   8.986 -1.3736 -0.2025  0.1975
 7619SOL    HW234494   3.643   0.628   9.041  0.9903  1.3572  0.8478
 7620SOL     OW34495   0.352   0.384   3.960  0.0376  0.0321  0.3726
 7620SOL    HW134496   0.384   0.294   3.955  1.0859  0.4429 -0.3342
 7620SOL    HW234497   0.260   0.359   3.967 -0.0407  0.4143  0.7099
 7621SOL     OW34498   1.487   3.873   6.428  0.0382  0.3587 -0.2226
 7621SOL    HW134499   1.404   3.911   6.400 -0.3123 -1.2315 -1.3347
 7621SOL    HW234500   1.487   3.781   6.401 -1.3357  0.9436 -2.2273
 7622SOL     OW34501   4.576   0.445  10.484 -0.4790  0.2659  0.3166
 7622SOL    HW134502   4.659   0.399  10.492 -0.9189 -0.6103 -0.1811
 7622SOL    HW234503   4.563   0.489  10.568  0.4910  4.6158 -1.8361
 7623SOL     OW34504   4.315   3.752   3.069  0.5332  0.1100  0.2345
 7623SOL    HW134505   4.264   3.677   3.038 -0.5506  1.5956 -1.5638
 7623SOL    HW234506   4.361   3.713   3.143  1.1470  0.4785  0.0500
 7624SOL     OW34507   1.078   1.338  12.599  0.1088  0.3812  0.3070
 7624SOL    HW134508   1.082   1.326  12.504 -1.9140  0.5556  0.1838
 7624SOL    HW234509   1.092   1.246  12.623  0.0944 -0.3190 -2.3754
 7625SOL     OW34510   2.854   1.668   9.362 -0.2341 -0.2644  0.0674
 7625SOL    HW134511   2.800   1.697   9.435 -0.1941  0.9459 -0.3789
 7625SOL    HW234512   2.867   1.575   9.381 -0.4835 -0.4298 -0.5828
 7626SOL     OW34513   2.916   0.268  15.930 -0.1111 -0.0553  0.3381
 7626SOL    HW134514   2.918   0.345  15.986  1.2630  0.5156 -0.5231
 7626SOL    HW234515   2.876   0.205  15.991 -1.3110  0.1744 -0.2120
 7627SOL     OW34516   2.001   1.893   8.362  0.2649 -0.4917  0.0684
 7627SOL    HW134517   2.057   1.920   8.289 -1.6220 -0.8245 -1.5050
 7627SOL    HW234518   1.928   1.954   8.347  2.1261  1.9549  1.0905
 7628SOL     OW34519   3.409   2.635   5.713  0.1181 -0.5535  0.0094
 7628SOL    HW134520   3.388   2.702   5.648  0.0658 -0.2016  0.3863
 7628SOL    HW234521   3.394   2.689   5.791  1.9271 -1.0160  0.6789
 7629SOL     OW34522   0.112   4.456   3.791 -0.0595 -0.1105 -0.1092
 7629SOL    HW134523   0.079   4.412   3.713 -0.7075  0.1341  0.0223
 7629SOL    HW234524   0.207   4.459   3.782 -0.0996  2.2817  0.0949
 7630SOL     OW34525   0.051   1.696   1.939  0.1641 -0.1753  0.3057
 7630SOL    HW134526   4.719   1.645   1.977  1.8417 -1.7071  1.3625
 7630SOL    HW234527   0.114   1.630   1.910  3.0477  1.8662  1.8058
 7631SOL     OW34528   0.699   1.690   5.374  0.1389  0.4573 -0.6339
 7631SOL    HW134529   0.699   1.615   5.432 -1.6731  0.7281 -0.2796
 7631SOL    HW234530   0.791   1.716   5.383 -0.1056  1.2632 -0.4459
 7632SOL     OW34531   3.883   2.233   2.933  0.0417 -0.2200 -0.5647
 7632SOL    HW134532   3.909   2.163   2.993 -0.8483 -1.1701 -1.3085
 7632SOL    HW234533   3.898   2.306   2.994  2.1196  0.7407 -2.2317
 7633SOL     OW34534   3.829   4.680   7.220 -0.6348  0.5889 -0.3319
 7633SOL    HW134535   3.753   4.624   7.203 -1.7072  1.6845  0.8416
 7633SOL    HW234536   3.875   4.672   7.137 -1.7496 -0.3027 -0.8685
 7634SOL     OW34537   3.181   2.697   9.021  0.4181 -0.2905 -0.4845
 7634SOL    HW134538   3.189   2.717   8.928 -1.2763 -3.8569 -1.3821
 7634SOL    HW234539   3.143   2.610   9.033  2.8068 -1.3547 -0.8161
 7635SOL     OW34540   2.943   4.258   1.597 -0.1917  0.2102  0.2866
 7635SOL    HW134541   2.910   4.302   1.675  1.0416  1.9723 -0.2062
 7635SOL    HW234542   3.029   4.226   1.623  0.1374 -0.6224 -1.8427
 7636SOL     OW34543   4.079   2.370  12.262  0.0775  0.0246  0.2056
 7636SOL    HW134544   4.082   2.454  12.308 -0.4669  0.1531  0.0017
 7636SOL    HW234545   4.172   2.354  12.242  0.0534 -1.7050  1.4765
 7637SOL     OW34546   3.041   2.001   5.726  0.3346 -0.4119  0.0807
 7637SOL    HW134547   3.125   2.041   5.704 -0.5847  1.1378 -0.5862
 7637SOL    HW234548   3.066   1.934   5.790  1.7652  1.1335  1.1487
 7638SOL     OW34549   4.243   1.005  15.677 -0.2918 -0.3292  0.2228
 7638SOL    HW134550   4.190   0.925  15.673 -1.4001  0.3986  0.2500
 7638SOL    HW234551   4.327   0.975  15.644 -0.3346  0.3095 -0.4439
 7639SOL     OW34552   3.947   1.418   4.456  0.2243 -0.3372  0.5091
 7639SOL    HW134553   3.964   1.498   4.507 -0.3132  0.8829 -1.2411
 7639SOL    HW234554   3.969   1.356   4.526  1.9579  1.7838  1.8388
 7640SOL     OW34555   2.925   0.956   1.803  0.1353  0.2621 -0.0505
 7640SOL    HW134556   2.948   0.927   1.714  0.1968 -0.6358  0.2612
 7640SOL    HW234557   2.839   0.917   1.815  0.2638 -0.8911 -2.6327
 7641SOL     OW34558   0.063   3.366   8.916 -0.1451  0.4224 -0.1064
 7641SOL    HW134559   0.000   3.429   8.952 -1.0842 -0.0328 -0.9534
 7641SOL    HW234560   0.004   3.324   8.854  0.0785  2.1275 -1.4519
 7642SOL     OW34561   3.832   2.018   6.765  0.3696 -0.6918 -0.4598
 7642SOL    HW134562   3.743   1.991   6.744 -0.3007  1.9748 -1.0012
 7642SOL    HW234563   3.825   2.102   6.719 -0.1042  0.0305  0.9372
 7643SOL     OW34564   2.554   2.644   3.529  0.2777 -0.0127 -0.1540
 7643SOL    HW134565   2.604   2.721   3.499 -0.2897  0.6414  0.5867
 7643SOL    HW234566   2.562   2.583   3.455 -1.4497 -1.6193  0.9938
 7644SOL     OW34567   3.023   4.401  10.860  0.8677 -0.3796 -0.3159
 7644SOL    HW134568   3.052   4.339  10.794  1.3949 -1.0778  0.5628
 7644SOL    HW234569   3.055   4.371  10.945  0.2841 -2.3662 -0.8135
 7645SOL     OW34570   4.508   1.154   9.896 -0.0844 -0.7499  0.4223
 7645SOL    HW134571   4.464   1.163   9.981  0.8906 -2.2075  1.0685
 7645SOL    HW234572   4.587   1.206   9.909  0.1921 -1.4147  1.3951
 7646SOL     OW34573   3.398   1.924   2.108 -0.1286 -0.1257 -0.1141
 7646SOL    HW134574   3.367   1.910   2.197  4.2055  1.0592  1.5840
 7646SOL    HW234575   3.440   2.010   2.109  0.0971 -0.2598  1.1347
 7647SOL     OW34576   1.365   3.038  12.814  0.5099 -0.0666  0.7930
 7647SOL    HW134577   1.285   2.990  12.793 -0.2703  1.3381  0.6028
 7647SOL    HW234578   1.400   3.036  12.724  2.2909  0.8157  1.4593
 7648SOL     OW34579   3.926   4.125   4.096  0.1093 -0.0329  0.5837
 7648SOL    HW134580   3.830   4.126   4.104  0.0086  1.5595 -0.7797
 7648SOL    HW234581   3.947   4.132   4.189 -1.1754 -0.3690  0.9023
 7649SOL     OW34582   4.081   1.773   2.926  0.3131  0.0986 -0.1237
 7649SOL    HW134583   4.088   1.751   3.019  3.2967 -1.9359 -0.8498
 7649SOL    HW234584   4.153   1.835   2.912  0.9957 -0.5340  0.6324
 7650SOL     OW34585   0.567   2.315  16.344  0.5720 -0.6378 -0.0124
 7650SOL    HW134586   0.497   2.254  16.366 -0.3340  0.4274  0.0665
 7650SOL    HW234587   0.605   2.269  16.270  0.1589 -0.3521 -0.4012
 7651SOL     OW34588   3.211   3.195  15.202  0.2331 -0.0512  0.8472
 7651SOL    HW134589   3.246   3.142  15.273 -2.1414 -0.5005  1.6984
 7651SOL    HW234590   3.196   3.136  15.128  1.0818  0.9158 -0.1016
 7652SOL     OW34591   1.645   0.979   4.518  0.3980 -0.1712 -0.1834
 7652SOL    HW134592   1.645   0.894   4.562  2.2827 -0.3188 -0.4707
 7652SOL    HW234593   1.567   1.017   4.559  1.0934  2.3915 -1.2912
 7653SOL     OW34594   1.764   2.824   4.811  0.6290  0.0919  0.4890
 7653SOL    HW134595   1.719   2.907   4.794 -0.1622 -0.5214 -0.3843
 7653SOL    HW234596   1.692   2.766   4.837  0.4565  0.8520  1.7164
 7654SOL     OW34597   3.957   1.286   7.926 -0.3598  0.5333  0.6879
 7654SOL    HW134598   3.867   1.290   7.958 -0.7521 -1.3990 -0.2036
 7654SOL    HW234599   3.938   1.199   7.890  0.8291  0.7210 -0.3881
 7655SOL     OW34600   0.488   3.696   4.727 -0.0519  0.3301  0.7109
 7655SOL    HW134601   0.478   3.601   4.717 -1.5653  0.2924  2.5764
 7655SOL    HW234602   0.486   3.695   4.823  0.0859 -0.8497  0.7108
 7656SOL     OW34603   3.928   4.455  14.954  0.3145 -0.1691  0.4085
 7656SOL    HW134604   3.868   4.381  14.967  0.0697  0.2160  1.4240
 7656SOL    HW234605   3.988   4.440  15.027 -0.2208  1.7588  1.2417
 7657SOL     OW34606   2.853   3.274  13.846 -0.0060  0.5178 -0.4315
 7657SOL    HW134607   2.811   3.276  13.932  4.1026  3.1152  1.5376
 7657SOL    HW234608   2.786   3.239  13.788 -3.1809  3.2852  1.6168
 7658SOL     OW34609   2.783   0.552   4.424 -0.9783 -0.1192  0.5834
 7658SOL    HW134610   2.730   0.631   4.435  0.6774  0.9193  1.2350
 7658SOL    HW234611   2.751   0.495   4.494 -2.0756  0.3282  0.4422
 7659SOL     OW34612   2.196   3.779  12.107 -0.4598 -0.1967 -0.3546
 7659SOL    HW134613   2.184   3.842  12.178 -0.8143  2.0138 -2.3788
 7659SOL    HW234614   2.178   3.698  12.155 -0.5805  0.0979  0.1014
 7660SOL     OW34615   0.895   0.664   8.177 -0.1995  0.2411 -0.7133
 7660SOL    HW134616   0.951   0.603   8.224 -1.5054 -0.4748 -0.0691
 7660SOL    HW234617   0.940   0.746   8.194 -1.3694  0.5850  0.7156
 7661SOL     OW34618   0.717   2.911   2.198 -0.7261  0.3346  0.1950
 7661SOL    HW134619   0.801   2.929   2.241 -0.3201 -0.4486 -0.2762
 7661SOL    HW234620   0.690   3.000   2.176 -2.3819 -0.4279 -0.8717
 7662SOL     OW34621   3.382   0.763   1.483  0.0408  0.5769 -0.1064
 7662SOL    HW134622   3.435   0.827   1.436 -0.7327  1.1570 -0.1881
 7662SOL    HW234623   3.441   0.757   1.558  3.0725 -0.0486 -2.5798
 7663SOL     OW34624   3.824   2.936  14.282  0.0189  0.4547 -0.1394
 7663SOL    HW134625   3.809   3.009  14.222 -0.7013 -1.4012 -2.2554
 7663SOL    HW234626   3.903   2.963  14.327 -0.7256 -0.8159  1.9265
 7664SOL     OW34627   3.994   0.007   4.829  0.0808  0.0582  0.0800
 7664SOL    HW134628   4.071   0.034   4.878  0.3505  0.2076 -0.4258
 7664SOL    HW234629   4.034   4.665   4.798 -0.2095  0.3824 -1.1335
 7665SOL     OW34630   0.690   1.992  16.963 -0.3965 -0.5894  0.0918
 7665SOL    HW134631   0.667   1.900  16.949  0.2874 -0.7328 -0.0655
 7665SOL    HW234632   0.780   1.979  16.992  0.1667  1.4374 -0.7722
 7666SOL     OW34633   3.686   3.796   3.365 -0.0064  0.3395 -0.2059
 7666SOL    HW134634   3.749   3.859   3.331 -0.0871  1.0747  1.0198
 7666SOL    HW234635   3.650   3.756   3.285 -0.3254  1.2658 -0.5285
 7667SOL     OW34636   2.543   1.807   4.020 -0.9204 -0.5884  0.2225
 7667SOL    HW134637   2.556   1.791   3.926  0.2290 -0.8314  0.4278
 7667SOL    HW234638   2.456   1.847   4.028  0.0361  1.2841  1.1524
 7668SOL     OW34639   3.190   2.338   2.421 -0.3761 -0.3547 -0.5147
 7668SOL    HW134640   3.134   2.341   2.344 -1.1550  3.2545  0.1701
 7668SOL    HW234641   3.200   2.244   2.435  1.1854  0.1521  1.8358
 7669SOL     OW34642   0.458   4.415   5.397  0.2407  0.0062 -0.0751
 7669SOL    HW134643   0.466   4.322   5.376  0.8579  0.2416 -0.8824
 7669SOL    HW234644   0.391   4.440   5.333  1.1765 -1.8220 -1.7561
 7670SOL     OW34645   3.845   2.148   5.440  0.5755 -0.2864  0.4107
 7670SOL    HW134646   3.833   2.143   5.346  0.3068 -0.0778  0.4334
 7670SOL    HW234647   3.838   2.055   5.460 -1.2001 -0.7240 -2.2241
 7671SOL     OW34648   3.419   1.204   7.915  0.3060 -0.2099  0.6432
 7671SOL    HW134649   3.384   1.279   7.868 -0.4201 -1.0737 -0.2230
 7671SOL    HW234650   3.419   1.130   7.853  1.6117 -1.5518  2.2624
 7672SOL     OW34651   0.228   2.124   5.374 -0.3814 -0.3339  0.1345
 7672SOL    HW134652   0.230   2.220   5.375 -1.1840 -0.3241  0.6295
 7672SOL    HW234653   0.277   2.106   5.455  0.0941 -0.0032 -0.0784
 7673SOL     OW34654   2.801   1.691   6.942 -0.3176  0.1690  0.3620
 7673SOL    HW134655   2.823   1.632   6.870 -0.8272 -2.7110  2.5839
 7673SOL    HW234656   2.707   1.672   6.943  0.0168 -1.5574 -1.7194
 7674SOL     OW34657   3.282   1.464   2.238 -0.3626  0.1553 -0.7093
 7674SOL    HW134658   3.275   1.491   2.330  0.8100  2.5937 -1.3523
 7674SOL    HW234659   3.282   1.370   2.258  2.5570  0.4190  0.6321
 7675SOL     OW34660   2.557   2.538   7.571 -0.0844  0.2082  0.2909
 7675SOL    HW134661   2.633   2.483   7.554 -0.2138  0.1105  0.0243
 7675SOL    HW234662   2.563   2.536   7.667  1.9924  0.2042  0.1591
 7676SOL     OW34663   2.597   1.710   5.045 -0.5382 -0.1717 -0.1411
 7676SOL    HW134664   2.556   1.627   5.069  3.1054 -1.7511  0.5693
 7676SOL    HW234665   2.644   1.718   5.128  1.5883 -1.3381 -1.2463
 7677SOL     OW34666   1.500   3.702   9.428 -0.4828 -0.0627  0.0936
 7677SOL    HW134667   1.520   3.745   9.511  0.2736  1.0002 -0.6372
 7677SOL    HW234668   1.575   3.728   9.374  0.4057 -0.8780  0.9362
 7678SOL     OW34669   0.449   3.063  15.318  0.2891 -0.5745 -0.0614
 7678SOL    HW134670   0.460   3.155  15.293  0.3307 -0.9356 -1.3667
 7678SOL    HW234671   0.375   3.073  15.378 -0.0783 -1.5006 -0.3570
 7679SOL     OW34672   3.515   4.677  15.994 -0.0323 -0.2261 -0.3078
 7679SOL    HW134673   3.489   4.589  16.020 -1.2534 -0.5910 -2.7455
 7679SOL    HW234674   3.449   4.693  15.926 -0.5329  1.8536  0.6429
 7680SOL     OW34675   3.080   0.461  15.742 -0.6960 -0.7050 -0.4874
 7680SOL    HW134676   3.148   0.523  15.770 -0.4026 -0.8556 -0.8689
 7680SOL    HW234677   3.061   0.408  15.819 -0.9301  0.6130  0.3725
 7681SOL     OW34678   3.529   1.286  13.332  0.0144 -0.6373  0.3243
 7681SOL    HW134679   3.475   1.265  13.256 -0.3723 -0.0317  0.4336
 7681SOL    HW234680   3.533   1.193  13.356 -1.1615 -0.6082  0.6504
 7682SOL     OW34681   3.119   2.566   2.025  0.6752 -0.1075  0.0121
 7682SOL    HW134682   3.187   2.498   2.030 -0.0196 -0.6960  1.5388
 7682SOL    HW234683   3.114   2.580   1.931  2.4283 -1.7479 -0.3282
 7683SOL     OW34684   3.063   0.525  10.749  0.2315 -0.3397  0.0624
 7683SOL    HW134685   3.107   0.545  10.832 -1.0069 -2.8550  1.3241
 7683SOL    HW234686   2.997   0.594  10.750  2.5952  1.9372 -0.5705
 7684SOL     OW34687   3.119   0.319  12.554 -0.1151 -0.5914 -0.1500
 7684SOL    HW134688   3.145   0.284  12.639  1.4711  3.2162  0.9363
 7684SOL    HW234689   3.118   0.234  12.510  2.7298 -0.6026 -0.2224
 7685SOL     OW34690   4.479   2.167   4.355  0.4298  0.8318  0.1951
 7685SOL    HW134691   4.480   2.101   4.285 -2.4021  0.5778  0.4132
 7685SOL    HW234692   4.422   2.231   4.312  0.0922 -0.2751 -1.0258
 7686SOL     OW34693   1.396   0.697  16.275 -0.3564 -0.2661  0.2055
 7686SOL    HW134694   1.444   0.669  16.197 -1.8970  0.1272 -0.8952
 7686SOL    HW234695   1.330   0.759  16.244  1.0313  0.7800 -0.6519
 7687SOL     OW34696   1.668   4.449  16.900  0.4148 -0.1756 -0.0391
 7687SOL    HW134697   1.588   4.468  16.850  0.3995 -0.2323 -0.0368
 7687SOL    HW234698   1.662   4.354  16.910  1.7342  0.1714  3.9694
 7688SOL     OW34699   2.132   3.923  11.058  0.3489  0.8090 -0.1453
 7688SOL    HW134700   2.173   3.876  11.131 -1.0495  0.4864  0.4196
 7688SOL    HW234701   2.119   4.011  11.094 -0.1922  0.6335  0.0830
 7689SOL     OW34702   2.096   2.628   3.013  0.0231  0.0743  0.4913
 7689SOL    HW134703   2.139   2.544   3.028  2.4148  1.2970  0.4535
 7689SOL    HW234704   2.008   2.631   3.050 -0.1127  1.6613  0.0415
 7690SOL     OW34705   4.629   4.516   5.115  0.5877 -0.2867  0.0678
 7690SOL    HW134706   4.708   4.566   5.135  1.0526 -0.7624 -0.5828
 7690SOL    HW234707   4.564   4.585   5.122  1.0866  0.1449  0.5016
 7691SOL     OW34708   4.429   1.855   6.000 -0.1922  0.0386 -0.0151
 7691SOL    HW134709   4.422   1.939   5.954  1.5820  2.1083  3.4736
 7691SOL    HW234710   4.348   1.848   6.050 -1.0679  3.0718 -0.9859
 7692SOL     OW34711   2.495   2.556   4.528 -0.3297  0.8954  0.1445
 7692SOL    HW134712   2.437   2.623   4.564 -1.0151  0.2364  0.2694
 7692SOL    HW234713   2.569   2.572   4.586 -0.0691 -2.8594  0.8165
 7693SOL     OW34714   3.361   4.132   1.598 -0.0849  0.5262  0.5426
 7693SOL    HW134715   3.356   4.185   1.678  1.4007 -1.1855  1.7675
 7693SOL    HW234716   3.274   4.094   1.584  0.4959 -1.5055  2.3423
 7694SOL     OW34717   3.211   0.754   9.795  0.4393  0.0752 -0.2258
 7694SOL    HW134718   3.252   0.672   9.824 -1.2861 -0.2495  1.2832
 7694SOL    HW234719   3.155   0.723   9.724  0.9599 -0.2626 -0.4883
 7695SOL     OW34720   2.801   4.435   3.664  0.0147 -0.0319  0.5319
 7695SOL    HW134721   2.782   4.497   3.735  0.0624 -1.5323  1.8544
 7695SOL    HW234722   2.896   4.443   3.663 -0.1461  1.4434 -2.0570
 7696SOL     OW34723   1.903   0.182  15.731 -0.0973  0.3278 -0.6301
 7696SOL    HW134724   1.822   0.219  15.766 -0.5413  0.0234 -1.3427
 7696SOL    HW234725   1.956   0.261  15.741  1.4640 -0.4745 -2.5220
 7697SOL     OW34726   0.284   4.300   7.427  0.0592 -0.2788  0.5229
 7697SOL    HW134727   0.366   4.252   7.438 -0.1021 -0.6822 -0.0947
 7697SOL    HW234728   0.280   4.299   7.332 -2.3150  3.2689  0.5516
 7698SOL     OW34729   1.749   1.865   5.566 -0.3324  0.1637  0.5825
 7698SOL    HW134730   1.836   1.892   5.536 -2.2466  3.0326 -2.2460
 7698SOL    HW234731   1.779   1.791   5.619  0.5560  0.4248  0.4607
 7699SOL     OW34732   2.451   2.423   4.033  0.0493 -0.2645 -0.1410
 7699SOL    HW134733   2.496   2.453   3.954 -2.3962  0.9851 -1.0733
 7699SOL    HW234734   2.423   2.340   3.994  0.1397  0.4745 -1.7999
 7700SOL     OW34735   0.292   1.231   8.965 -0.1950  0.2589  0.0284
 7700SOL    HW134736   0.307   1.255   8.874  0.6872 -1.0277 -0.1603
 7700SOL    HW234737   0.222   1.165   8.958  0.4683 -0.4580  0.1338
 7701SOL     OW34738   3.397   2.706  11.126  0.0243  0.2524 -0.2983
 7701SOL    HW134739   3.425   2.783  11.077 -1.6317 -0.5044 -2.4591
 7701SOL    HW234740   3.340   2.748  11.190 -0.1068  0.3342 -0.4703
 7702SOL     OW34741   3.139   2.320  10.507 -0.3886 -0.1055 -0.0302
 7702SOL    HW134742   3.187   2.402  10.518 -3.2366  1.3927  1.0224
 7702SOL    HW234743   3.047   2.346  10.515 -0.2484  0.4606 -0.2740
 7703SOL     OW34744   4.076   3.594   3.960  0.1213  0.0784  0.3780
 7703SOL    HW134745   4.084   3.500   3.976 -0.8965  0.1722  1.4610
 7703SOL    HW234746   3.984   3.595   3.986  0.4993  0.6964  1.7112
 7704SOL     OW34747   0.004   3.304  14.205 -0.0377 -1.0924  0.1272
 7704SOL    HW134748   0.085   3.355  14.207 -0.3201 -0.5977 -1.6000
 7704SOL    HW234749   0.041   3.230  14.254  2.7962  0.1250 -0.1622
 7705SOL     OW34750   1.807   0.022   2.058 -0.1759 -0.3510 -0.3554
 7705SOL    HW134751   1.854   4.698   2.004 -0.8038 -1.4875  0.4304
 7705SOL    HW234752   1.784   0.081   1.986  1.1422  0.3231 -0.2403
 7706SOL     OW34753   1.726   4.192  16.777  0.5079 -0.2246  0.0428
 7706SOL    HW134754   1.802   4.243  16.804 -0.0624  0.0619  1.0964
 7706SOL    HW234755   1.682   4.177  16.861 -0.3460  1.0937 -0.1710
 7707SOL     OW34756   0.730   0.749   8.768 -0.1379  0.0105  0.1616
 7707SOL    HW134757   0.766   0.764   8.855 -1.1031  1.2166  0.3626
 7707SOL    HW234758   0.673   0.673   8.777 -2.3378  1.7369  0.7778
 7708SOL     OW34759   0.223   1.726   7.676  0.0967 -0.4083 -0.0330
 7708SOL    HW134760   0.250   1.700   7.589 -0.0366  0.4033 -0.3178
 7708SOL    HW234761   0.208   1.638   7.709 -1.1044 -0.5699 -1.0323
 7709SOL     OW34762   3.409   2.757   1.967 -0.3349  0.7257 -0.6511
 7709SOL    HW134763   3.407   2.664   1.986 -1.8382  0.5815 -1.5384
 7709SOL    HW234764   3.424   2.789   2.056 -0.3965 -1.3894  0.1201
 7710SOL     OW34765   0.010   0.326   2.943 -0.3357 -0.3883  0.0466
 7710SOL    HW134766   4.668   0.342   2.991 -0.8817 -0.6808 -0.7848
 7710SOL    HW234767   4.716   0.287   2.862 -0.7876 -0.4399  0.2567
 7711SOL     OW34768   4.625   2.149  10.962  0.6031 -0.1956 -0.2346
 7711SOL    HW134769   4.665   2.062  10.965  1.0328 -0.0386 -1.2612
 7711SOL    HW234770   4.585   2.149  10.875 -0.6529 -0.8743  0.3386
 7712SOL     OW34771   0.990   0.601   7.581  0.1821  0.1836 -0.6551
 7712SOL    HW134772   0.997   0.628   7.673  0.1165  1.1315 -0.9247
 7712SOL    HW234773   0.900   0.628   7.562  0.1280  0.0113 -0.6451
 7713SOL     OW34774   3.538   2.950   6.699 -0.4022 -0.4345 -0.0045
 7713SOL    HW134775   3.444   2.963   6.710 -0.0217  2.0936  0.3229
 7713SOL    HW234776   3.573   2.982   6.782  0.0774  0.6742 -0.6263
 7714SOL     OW34777   4.734   3.857   3.405  0.3019  0.3619  0.2397
 7714SOL    HW134778   4.644   3.866   3.438 -0.7208  0.7769 -2.6023
 7714SOL    HW234779   4.735   3.762   3.391  2.3188  0.7101 -1.9617
 7715SOL     OW34780   1.282   3.376  15.036 -0.0184  0.3517  0.0292
 7715SOL    HW134781   1.214   3.324  15.078 -0.6521  0.7331 -0.5323
 7715SOL    HW234782   1.267   3.365  14.942  0.9182 -0.2948 -0.0496
 7716SOL     OW34783   3.781   2.729   2.148  0.7242 -0.2800  0.3150
 7716SOL    HW134784   3.784   2.819   2.116  1.6210 -0.6376 -0.5795
 7716SOL    HW234785   3.775   2.685   2.063 -0.1256 -2.1798  1.3313
 7717SOL     OW34786   0.524   0.735   8.387  0.3779 -0.1344 -0.1483
 7717SOL    HW134787   0.464   0.809   8.399  1.4977  0.7500  0.0358
 7717SOL    HW234788   0.552   0.740   8.295 -0.7345 -0.0953 -0.4922
 7718SOL     OW34789   3.460   3.287   5.564  0.2079  0.0531  0.3506
 7718SOL    HW134790   3.530   3.291   5.499 -0.0380 -0.6356  0.0479
 7718SOL    HW234791   3.459   3.381   5.582 -0.6020 -0.2524  1.9895
 7719SOL     OW34792   1.693   3.126   7.783 -0.2221 -0.2741  0.0438
 7719SOL    HW134793   1.691   3.031   7.796  0.9177 -0.5214 -1.5113
 7719SOL    HW234794   1.603   3.154   7.794  0.0091 -0.2412  1.7661
 7720SOL     OW34795   1.178   2.713   7.345 -0.1605 -0.2495  0.3820
 7720SOL    HW134796   1.162   2.619   7.334 -0.6389 -0.2789  1.3026
 7720SOL    HW234797   1.170   2.716   7.441 -0.4503 -2.6923  0.4412
 7721SOL     OW34798   3.194   2.955   5.077 -0.0599 -0.3768 -0.3034
 7721SOL    HW134799   3.251   3.023   5.114 -1.1368  1.1865 -1.4858
 7721SOL    HW234800   3.124   3.012   5.044  1.1524  1.3075  0.0121
 7722SOL     OW34801   1.563   4.431  11.794 -0.2514 -0.5711 -0.7086
 7722SOL    HW134802   1.601   4.442  11.881 -1.7958 -1.4401  0.0738
 7722SOL    HW234803   1.583   4.338  11.785  1.5387 -0.3213  0.7738
 7723SOL     OW34804   3.606   3.846   7.623  0.0255 -0.2501 -0.2612
 7723SOL    HW134805   3.696   3.842   7.654  0.2384  1.5335 -0.6636
 7723SOL    HW234806   3.565   3.814   7.704  0.9485  2.2084  1.1543
 7724SOL     OW34807   4.602   1.405  13.380 -0.4537  0.0931  0.0048
 7724SOL    HW134808   4.513   1.397  13.414 -0.3137 -2.5158 -0.2624
 7724SOL    HW234809   4.618   1.314  13.355 -2.9887 -0.4170  0.2839
 7725SOL     OW34810   1.331   3.342   7.532  0.4791 -0.2463  0.1343
 7725SOL    HW134811   1.349   3.297   7.615 -1.1545  0.2918  0.7659
 7725SOL    HW234812   1.325   3.272   7.468 -0.3966  0.6946 -0.8040
 7726SOL     OW34813   0.987   2.746   5.253 -0.2387 -0.0598  0.0928
 7726SOL    HW134814   1.047   2.800   5.304 -2.7453  1.4370  1.4636
 7726SOL    HW234815   1.004   2.775   5.163  0.0510  1.8324  0.7529
 7727SOL     OW34816   0.531   2.695   9.389  0.1115  0.3158  0.1167
 7727SOL    HW134817   0.612   2.735   9.420  0.2643  0.6150 -0.6748
 7727SOL    HW234818   0.476   2.677   9.465 -1.5138  1.4303 -0.7887
 7728SOL     OW34819   2.263   4.622   1.671 -0.3380 -0.2617  0.2507
 7728SOL    HW134820   2.293   4.585   1.755  0.1335 -1.1458 -0.3060
 7728SOL    HW234821   2.244   4.542   1.622 -2.7638 -0.0110  0.7590
 7729SOL     OW34822   2.855   2.776   5.701  0.0314  0.1618 -0.7562
 7729SOL    HW134823   2.876   2.826   5.780 -2.0109 -0.7424  0.3482
 7729SOL    HW234824   2.893   2.696   5.735 -0.9447 -0.0320 -0.1356
 7730SOL     OW34825   3.544   3.212   2.991  0.0647 -0.1445  0.1214
 7730SOL    HW134826   3.521   3.131   2.945  2.8871 -0.2247 -1.1259
 7730SOL    HW234827   3.526   3.284   2.931 -1.4097 -0.4253  0.2275
 7731SOL     OW34828   3.369   2.150   6.350 -0.3112 -0.8574 -0.3645
 7731SOL    HW134829   3.339   2.059   6.352 -0.5648 -0.8294 -4.1349
 7731SOL    HW234830   3.361   2.164   6.256  0.0036  0.5183 -0.1878
 7732SOL     OW34831   3.617   2.885   5.421  0.2584  0.5592 -0.0145
 7732SOL    HW134832   3.678   2.851   5.487  2.3897  1.1679 -1.6848
 7732SOL    HW234833   3.546   2.820   5.428  0.7982  0.0430  0.7091
 7733SOL     OW34834   4.379   2.083  13.861  0.1285 -0.3871  0.9185
 7733SOL    HW134835   4.357   2.174  13.840  1.4814  0.3834  2.8467
 7733SOL    HW234836   4.463   2.089  13.905  1.0344  0.2789 -0.9136
 7734SOL     OW34837   2.686   0.176   5.515  0.8005  0.3428  0.7084
 7734SOL    HW134838   2.591   0.176   5.508  0.7736  1.5261  1.0299
 7734SOL    HW234839   2.691   0.150   5.607 -0.3086 -1.2419  0.3277
 7735SOL     OW34840   0.369   0.805   7.704 -0.1028  0.7693 -0.4473
 7735SOL    HW134841   0.431   0.877   7.719  1.1395 -0.3424 -0.2377
 7735SOL    HW234842   0.320   0.806   7.786  1.9286 -2.3917  0.7779
 7736SOL     OW34843   4.316   0.812  13.694 -0.4765  0.1693  0.0238
 7736SOL    HW134844   4.236   0.864  13.682 -1.6253 -1.4800  0.5679
 7736SOL    HW234845   4.362   0.820  13.610 -2.8447 -0.5005 -1.3499
 7737SOL     OW34846   2.972   1.632   1.052  0.0887 -0.2529 -0.4996
 7737SOL    HW134847   2.891   1.682   1.046 -0.5419 -1.4801 -2.2230
 7737SOL    HW234848   3.019   1.660   0.974 -1.4575  2.3441 -0.4820
 7738SOL     OW34849   2.739   4.130   1.473  0.2229 -0.1825  0.0124
 7738SOL    HW134850   2.792   4.200   1.511 -0.4054  0.5162 -0.3826
 7738SOL    HW234851   2.811   4.070   1.453 -0.9695 -2.1054  1.4488
 7739SOL     OW34852   1.050   2.988   8.217  0.4075 -0.0383 -1.0290
 7739SOL    HW134853   1.094   3.023   8.140  1.4273  0.9475 -0.0038
 7739SOL    HW234854   0.966   2.967   8.175  0.3474  0.5680 -1.2250
 7740SOL     OW34855   3.547   2.061   5.661 -0.7908  0.1857 -0.4441
 7740SOL    HW134856   3.616   2.000   5.687 -0.6100  0.4752 -0.2344
 7740SOL    HW234857   3.539   2.123   5.734  0.3204 -0.5116  0.2728
 7741SOL     OW34858   2.702   0.145   5.866 -0.4779  0.0588  0.4573
 7741SOL    HW134859   2.775   0.199   5.897 -0.3758  0.4284 -0.4256
 7741SOL    HW234860   2.630   0.204   5.888  0.2176  0.8066  0.7225
 7742SOL     OW34861   2.508   3.601  14.447  0.4445 -0.1385 -0.1852
 7742SOL    HW134862   2.571   3.533  14.470  0.0976 -1.3492 -2.7322
 7742SOL    HW234863   2.433   3.598  14.506 -0.0340 -1.7682 -0.8803
 7743SOL     OW34864   3.444   3.819   5.181  0.6334 -0.2155 -0.2885
 7743SOL    HW134865   3.387   3.810   5.257 -0.7526  1.1812 -1.1548
 7743SOL    HW234866   3.519   3.866   5.218 -0.5179 -0.2381  2.0665
 7744SOL     OW34867   0.809   3.069  16.736 -0.1594  0.1514  0.4491
 7744SOL    HW134868   0.811   3.160  16.764 -1.2333  0.4576 -0.4577
 7744SOL    HW234869   0.721   3.069  16.698 -0.2236 -0.0904  0.6002
 7745SOL     OW34870   3.471   2.948  16.327  0.6202 -0.0353  0.2715
 7745SOL    HW134871   3.523   2.870  16.350  1.4465  0.6803  0.8328
 7745SOL    HW234872   3.539   2.993  16.277  1.1457 -1.5710 -0.4161
 7746SOL     OW34873   1.455   0.547   2.889  0.2356 -0.0037 -0.4457
 7746SOL    HW134874   1.367   0.555   2.853 -0.4896  2.6794  1.9120
 7746SOL    HW234875   1.501   0.498   2.821  2.0715 -1.3904  1.7870
 7747SOL     OW34876   4.445   0.874   5.735  0.1098  0.0489  0.4720
 7747SOL    HW134877   4.462   0.967   5.721  0.0043 -0.1509 -1.0106
 7747SOL    HW234878   4.534   0.841   5.724  0.1389 -0.6649  2.7381
 7748SOL     OW34879   0.136   2.259  11.073 -0.0449  0.6991  0.1928
 7748SOL    HW134880   0.055   2.222  11.037  1.0394  0.3162 -1.8751
 7748SOL    HW234881   0.198   2.261  11.000 -1.5938 -2.7913 -1.2568
 7749SOL     OW34882   3.167   0.660   3.155  0.0789 -0.1820 -0.8582
 7749SOL    HW134883   3.211   0.587   3.198  0.8322  1.3649  0.9845
 7749SOL    HW234884   3.243   0.705   3.119 -0.9752  2.5522  0.3470
 7750SOL     OW34885   1.498   1.573   3.097  0.8507 -0.4116  0.3327
 7750SOL    HW134886   1.514   1.550   3.188 -3.3208  2.9438  1.9260
 7750SOL    HW234887   1.411   1.534   3.087  0.7110  0.1996 -0.8163
 7751SOL     OW34888   0.540   1.301   5.002 -0.2689 -0.0067  0.6402
 7751SOL    HW134889   0.527   1.389   5.040  2.7926  1.3589 -1.4878
 7751SOL    HW234890   0.502   1.237   5.063  0.4733 -1.3774 -0.3481
 7752SOL     OW34891   0.437   4.563   2.629  0.1268 -0.0463 -0.7686
 7752SOL    HW134892   0.394   4.613   2.560 -1.2592 -0.4475 -0.1827
 7752SOL    HW234893   0.363   4.531   2.680  0.7363  0.8917  0.7124
 7753SOL     OW34894   2.169   4.587   0.344 -0.2133 -0.0372 -0.3634
 7753SOL    HW134895   2.219   4.666   0.322 -1.2063  0.7087  0.0742
 7753SOL    HW234896   2.237   4.521   0.359  0.2682  0.4147 -0.5326
 7754SOL     OW34897   0.457   4.440   2.156 -0.5343  0.2338 -0.0392
 7754SOL    HW134898   0.388   4.448   2.221 -2.0542 -1.1375 -1.4994
 7754SOL    HW234899   0.415   4.464   2.074  1.1466  1.1733 -0.6371
 7755SOL     OW34900   2.531   4.198   1.143  0.4852  0.4340 -0.5487
 7755SOL    HW134901   2.483   4.280   1.153 -1.2400 -0.6563  0.1095
 7755SOL    HW234902   2.602   4.218   1.083  0.6241 -2.1975 -1.2643
 7756SOL     OW34903   4.634   1.988   7.876  0.3086  0.1197 -0.3150
 7756SOL    HW134904   4.575   2.014   7.805 -2.7853 -0.8891  1.9087
 7756SOL    HW234905   4.652   1.898   7.850 -2.3879  0.0410 -1.9276
 7757SOL     OW34906   3.795   3.952   4.676  0.5945  0.3623 -0.3743
 7757SOL    HW134907   3.709   3.974   4.641  0.4919  1.2813  0.4609
 7757SOL    HW234908   3.818   3.894   4.603  0.0953 -0.6024  0.2401
 7758SOL     OW34909   4.279   1.438   4.985  0.4103  0.0883  0.3782
 7758SOL    HW134910   4.252   1.482   4.904  2.4780  0.5495 -0.0610
 7758SOL    HW234911   4.367   1.411   4.960  1.1601  2.9654 -0.1211
 7759SOL     OW34912   0.774   2.615   9.703 -0.6226 -0.2651  0.3883
 7759SOL    HW134913   0.827   2.572   9.635 -0.1377 -0.0474  0.6248
 7759SOL    HW234914   0.685   2.593   9.675 -0.2381 -0.8859 -0.3780
 7760SOL     OW34915   2.259   4.480   8.465 -0.3417 -0.3662  0.0344
 7760SOL    HW134916   2.281   4.465   8.557  1.5788 -1.0523 -0.5372
 7760SOL    HW234917   2.339   4.446   8.426  0.3189  2.5689 -1.1197
 7761SOL     OW34918   4.532   2.821  10.770  0.3669  0.1528 -0.1361
 7761SOL    HW134919   4.495   2.748  10.820  2.0857 -1.2628 -0.9136
 7761SOL    HW234920   4.495   2.826  10.682 -1.1090  1.5699  0.5693
 7762SOL     OW34921   0.922   1.619  13.012 -0.4317 -0.4833  0.1300
 7762SOL    HW134922   0.895   1.548  13.070 -1.1480 -1.5490 -1.5106
 7762SOL    HW234923   1.017   1.609  13.006 -0.3760  1.5635 -2.4866
 7763SOL     OW34924   4.293   2.498   8.659 -0.2455 -0.7194 -0.0788
 7763SOL    HW134925   4.285   2.445   8.579 -0.0903 -1.1350  0.1775
 7763SOL    HW234926   4.298   2.437   8.733  1.4602 -0.2704  0.1710
 7764SOL     OW34927   3.486   2.302  14.883 -0.4016 -0.2900  0.1289
 7764SOL    HW134928   3.573   2.274  14.854  0.0529  1.2953 -0.0678
 7764SOL    HW234929   3.457   2.320  14.794  1.3905  1.0279 -0.2037
 7765SOL     OW34930   0.914   0.619   5.852  0.4685  0.4543  0.5778
 7765SOL    HW134931   0.914   0.616   5.947  1.7713 -3.3265  0.4838
 7765SOL    HW234932   0.832   0.668   5.848 -1.0933 -2.0461  2.2104
 7766SOL     OW34933   2.403   1.612  14.438 -0.0355  0.4249  0.4457
 7766SOL    HW134934   2.465   1.622  14.509  1.0821  0.3086 -0.5219
 7766SOL    HW234935   2.372   1.524  14.457 -1.1261  0.7929  0.3770
 7767SOL     OW34936   2.914   3.789  12.574 -0.3467  0.3047 -0.3283
 7767SOL    HW134937   2.968   3.717  12.608 -0.9260 -0.3943 -0.8981
 7767SOL    HW234938   2.963   3.867  12.599  0.5854 -0.7772  1.2998
 7768SOL     OW34939   0.670   3.811  11.815  0.2540 -0.2071 -1.1303
 7768SOL    HW134940   0.626   3.885  11.856 -0.6937 -0.5704 -1.4894
 7768SOL    HW234941   0.596   3.755  11.793 -1.4046  2.4951 -2.3464
 7769SOL     OW34942   4.135   1.985   3.649  0.6553  0.0566  0.3094
 7769SOL    HW134943   4.228   1.998   3.632  0.1289  2.3908 -0.7705
 7769SOL    HW234944   4.133   1.891   3.668  0.2342 -0.0993 -0.4930
 7770SOL     OW34945   1.131   2.733   5.817  0.9351 -0.2912 -0.4971
 7770SOL    HW134946   1.060   2.721   5.753 -0.1538  0.4451  0.5652
 7770SOL    HW234947   1.168   2.646   5.829  0.5814 -0.7241 -2.5700
 7771SOL     OW34948   3.751   1.295   5.612  0.8781  0.1758 -0.6381
 7771SOL    HW134949   3.830   1.243   5.595  1.2492  0.1872  1.0829
 7771SOL    HW234950   3.725   1.301   5.520  1.1182 -1.1966 -0.7986
 7772SOL     OW34951   0.942   4.482   4.397 -0.0305 -0.0906 -0.2622
 7772SOL    HW134952   1.034   4.460   4.413 -0.6123 -1.1076  1.6761
 7772SOL    HW234953   0.901   4.432   4.468  1.0816 -0.1290  0.3560
 7773SOL     OW34954   1.982   0.724  10.886  0.0062 -0.2321  0.1795
 7773SOL    HW134955   1.931   0.729  10.806 -0.9361  1.4810  0.9011
 7773SOL    HW234956   2.039   0.800  10.872 -0.1388 -0.1612 -0.0185
 7774SOL     OW34957   3.771   2.814  11.606  0.0911 -0.0239  0.4219
 7774SOL    HW134958   3.822   2.895  11.602  1.6474 -1.0224  0.3914
 7774SOL    HW234959   3.752   2.794  11.514 -3.5271 -1.2126  1.4066
 7775SOL     OW34960   2.165   1.815  16.801 -0.0792  0.0773  0.6189
 7775SOL    HW134961   2.071   1.805  16.785 -0.1289 -0.6780  1.3722
 7775SOL    HW234962   2.167   1.900  16.846  3.6769 -0.3775  1.2748
 7776SOL     OW34963   4.024   1.117   1.841 -0.3099 -0.1106 -0.2186
 7776SOL    HW134964   3.989   1.138   1.927 -0.1004  0.8647 -0.3691
 7776SOL    HW234965   4.005   1.023   1.837  0.4532 -0.2528 -0.4904
 7777SOL     OW34966   1.834   4.515   6.524 -0.2799 -0.3333  0.2272
 7777SOL    HW134967   1.809   4.462   6.448  0.4993  1.4388 -1.2539
 7777SOL    HW234968   1.925   4.489   6.533  0.1277  1.4440  1.0506
 7778SOL     OW34969   3.170   1.018   9.676 -0.3095  0.2445  0.0209
 7778SOL    HW134970   3.224   1.084   9.719  0.0544 -2.4839  3.7385
 7778SOL    HW234971   3.188   0.940   9.729 -1.7933 -1.0396 -1.3638
 7779SOL     OW34972   1.932   2.296  17.670 -0.0422 -0.1861  0.0239
 7779SOL    HW134973   1.872   2.357  17.628  0.6430 -0.8974 -1.9984
 7779SOL    HW234974   1.938   2.323   0.007  0.0184 -0.0690 -0.0149
 7780SOL     OW34975   1.695   0.185  16.925 -0.2284 -0.3520  0.5111
 7780SOL    HW134976   1.683   0.248  16.853  0.3587 -1.2943 -0.4258
 7780SOL    HW234977   1.751   0.124  16.878 -0.1513 -0.7046  1.0652
 7781SOL     OW34978   3.025   0.622   4.558  0.0258 -0.5540  0.2291
 7781SOL    HW134979   2.948   0.610   4.504  1.5741 -1.0980 -1.8655
 7781SOL    HW234980   3.038   0.717   4.550  0.1594 -0.3761  2.5611
 7782SOL     OW34981   1.250   3.347   4.328 -0.4917 -0.7079  0.4061
 7782SOL    HW134982   1.190   3.420   4.344 -0.6489 -1.1844  1.9916
 7782SOL    HW234983   1.316   3.361   4.397 -0.5631 -0.3961  0.4137
 7783SOL     OW34984   2.500   4.491   9.070  0.3078  0.3071 -0.2962
 7783SOL    HW134985   2.443   4.537   9.008 -3.2071 -1.3792  1.7105
 7783SOL    HW234986   2.577   4.506   9.016  2.3301 -2.3507  1.8413
 7784SOL     OW34987   2.643   1.717  11.611  0.0631 -0.2673 -0.7019
 7784SOL    HW134988   2.613   1.626  11.614 -1.3695  0.2363  0.4560
 7784SOL    HW234989   2.561   1.757  11.640 -0.4197 -0.1930 -2.1520
 7785SOL     OW34990   3.591   1.701   2.217 -0.1633 -0.1195  0.3802
 7785SOL    HW134991   3.560   1.751   2.142 -0.2196  0.0367  0.5052
 7785SOL    HW234992   3.536   1.735   2.289  1.2042 -2.6247  2.5979
 7786SOL     OW34993   3.250   1.449   7.358  0.7674 -0.1937 -0.7156
 7786SOL    HW134994   3.202   1.526   7.389 -0.8259  0.0875 -3.8761
 7786SOL    HW234995   3.173   1.400   7.331 -0.2006  0.4792  0.8150
 7787SOL     OW34996   4.649   0.892   8.897 -0.2483 -0.1772  0.4451
 7787SOL    HW134997   4.672   0.816   8.951  0.6078  0.5067  1.0413
 7787SOL    HW234998   4.727   0.945   8.881 -0.0868 -0.7537 -0.7180
 7788SOL     OW34999   4.609   0.995   5.155 -0.2608 -0.2701 -0.0828
 7788SOL    HW135000   4.647   0.907   5.155  0.6459  0.1315  1.7980
 7788SOL    HW235001   4.628   1.029   5.067  1.0078 -0.0178  0.2927
 7789SOL     OW35002   4.628   3.437   5.998  0.3670 -0.3570  0.1415
 7789SOL    HW135003   4.708   3.459   6.046  0.4916 -0.2379 -0.1177
 7789SOL    HW235004   4.558   3.447   6.061  1.2220 -0.6118  1.1336
 7790SOL     OW35005   3.101   0.558   2.838 -0.1800 -0.6088 -0.1979
 7790SOL    HW135006   3.124   0.636   2.890  0.6235  0.1009 -1.6263
 7790SOL    HW235007   3.124   0.489   2.900 -0.6510  0.3359  1.0462
 7791SOL     OW35008   3.657   1.765   1.891 -0.0451  0.1808 -0.6495
 7791SOL    HW135009   3.697   1.851   1.904 -0.8002  0.4537 -0.1589
 7791SOL    HW235010   3.662   1.758   1.795  0.8538  2.5370 -0.7763
 7792SOL     OW35011   0.108   3.429   6.199  0.3038  0.1445  0.3959
 7792SOL    HW135012   0.124   3.337   6.220  0.4412  0.0678 -0.0438
 7792SOL    HW235013   0.152   3.438   6.114 -1.8167 -0.1096 -0.7239
 7793SOL     OW35014   0.026   3.340   9.234 -0.2349 -0.0253 -0.6331
 7793SOL    HW135015   0.088   3.287   9.285 -1.6691 -1.1954 -0.1225
 7793SOL    HW235016   4.706   3.267   9.219 -0.7686  0.2805 -0.0262
 7794SOL     OW35017   1.119   3.235  11.786  0.2393 -0.1169 -0.1047
 7794SOL    HW135018   1.074   3.169  11.837  1.4339 -1.5492 -0.8973
 7794SOL    HW235019   1.089   3.227  11.695 -0.0573 -1.5397  0.1194
 7795SOL     OW35020   2.070   2.763  12.158  0.1521 -0.1115  0.4341
 7795SOL    HW135021   2.076   2.693  12.094  1.2279 -1.4702  2.0283
 7795SOL    HW235022   2.027   2.833  12.108 -2.2445 -1.3142  0.8169
 7796SOL     OW35023   0.250   1.098  13.303  0.2644 -0.2018  0.2175
 7796SOL    HW135024   0.248   1.184  13.261 -0.2839  0.1566  0.9770
 7796SOL    HW235025   0.208   1.114  13.388  1.1952  1.5168  0.3595
 7797SOL     OW35026   3.643   1.772   4.452 -0.0563  0.2287 -0.2251
 7797SOL    HW135027   3.583   1.743   4.383  0.1855 -1.0680  0.0953
 7797SOL    HW235028   3.727   1.772   4.406  0.1516  1.3000  0.1562
 7798SOL     OW35029   2.916   2.824   8.856 -0.2250 -0.2730  0.7606
 7798SOL    HW135030   2.869   2.774   8.789  0.3711  1.1188 -0.7167
 7798SOL    HW235031   2.984   2.866   8.803 -2.4299  1.7934 -0.4415
 7799SOL     OW35032   3.117   3.486  11.791 -0.2891  0.2972 -0.0833
 7799SOL    HW135033   3.044   3.532  11.832  0.9911  1.6829  0.6474
 7799SOL    HW235034   3.172   3.455  11.862 -0.2116  1.8249  0.5204
 7800SOL     OW35035   3.433   3.986  11.418 -0.1496 -0.1029  0.1767
 7800SOL    HW135036   3.384   4.047  11.362 -1.4361 -2.3937 -1.2062
 7800SOL    HW235037   3.518   3.998  11.376 -0.5853  1.9903 -0.0945
 7801SOL     OW35038   3.809   1.021   8.560 -0.6250 -0.5107 -0.3682
 7801SOL    HW135039   3.778   0.981   8.479  0.0944 -1.1096 -0.3543
 7801SOL    HW235040   3.742   1.086   8.578  0.9055  0.6229  1.2386
 7802SOL     OW35041   0.682   2.048  15.157  0.5280 -0.0073  0.2453
 7802SOL    HW135042   0.645   2.064  15.070 -0.6236  1.9989  1.1090
 7802SOL    HW235043   0.772   2.028  15.133  0.4600  1.2397 -0.9912
 7803SOL     OW35044   4.046   1.966   2.226 -0.4619  0.0865  0.0702
 7803SOL    HW135045   3.966   2.000   2.267  0.8089  0.5039  2.1750
 7803SOL    HW235046   4.044   2.009   2.140  0.6511  1.3071  0.6628
 7804SOL     OW35047   1.381   4.070   9.261  0.2629  0.2063 -0.3835
 7804SOL    HW135048   1.328   3.992   9.277 -0.3031  0.5410 -0.5959
 7804SOL    HW235049   1.449   4.034   9.205  2.3722  0.7269  1.8860
 7805SOL     OW35050   3.443   0.050  10.324 -0.0054 -0.1704 -0.0031
 7805SOL    HW135051   3.412   0.099  10.247  2.9457  2.6642  0.5966
 7805SOL    HW235052   3.366   0.045  10.380 -1.6767 -0.0619 -2.2652
 7806SOL     OW35053   2.495   4.059   0.855  0.3280 -0.1134 -0.5924
 7806SOL    HW135054   2.566   4.007   0.818  1.3530  0.8272  0.0404
 7806SOL    HW235055   2.521   4.059   0.947 -1.2914 -1.2980 -0.1377
 7807SOL     OW35056   1.614   4.187  17.030 -0.1387  0.3073 -0.2988
 7807SOL    HW135057   1.631   4.102  17.072  1.4299  0.2943 -0.9598
 7807SOL    HW235058   1.639   4.245  17.102 -1.6255  0.8718 -0.2369
 7808SOL     OW35059   3.993   0.402   5.440 -0.0058  0.2763 -0.5231
 7808SOL    HW135060   3.931   0.455   5.492 -2.2522  0.2307 -3.1676
 7808SOL    HW235061   4.016   0.470   5.377 -1.6802  2.3279  1.0656
 7809SOL     OW35062   0.400   2.636   9.975 -0.1735 -0.0569 -0.7489
 7809SOL    HW135063   0.348   2.614   9.897  3.2203 -0.4847 -2.9096
 7809SOL    HW235064   0.363   2.724   9.988 -1.0452 -0.5149 -0.1885
 7810SOL     OW35065   3.315   1.111   1.272  0.2088  0.1773 -0.4348
 7810SOL    HW135066   3.369   1.117   1.192  2.7100  1.3577  1.3246
 7810SOL    HW235067   3.235   1.155   1.244 -1.2986 -1.6995  0.9006
 7811SOL     OW35068   0.063   0.932   2.178 -0.1688 -0.4661 -0.6695
 7811SOL    HW135069   0.020   0.982   2.248  2.7098 -1.0177  1.5063
 7811SOL    HW235070   0.067   0.847   2.222 -4.4436 -1.7009 -2.6593
 7812SOL     OW35071   1.624   0.958   3.224  0.5920 -0.3625 -0.3063
 7812SOL    HW135072   1.558   1.028   3.227  0.3008 -0.4827 -3.7585
 7812SOL    HW235073   1.701   1.010   3.249 -0.3635  0.6412  0.5754
 7813SOL     OW35074   2.206   3.497   3.333  0.6556  0.2069  0.5626
 7813SOL    HW135075   2.167   3.575   3.372  0.6764 -0.0913  1.1829
 7813SOL    HW235076   2.135   3.433   3.338 -0.5268  1.6913  2.7634
 7814SOL     OW35077   0.978   3.891   3.154  0.3357  0.3029  0.2448
 7814SOL    HW135078   0.997   3.852   3.239 -0.6254  1.4963  0.9990
 7814SOL    HW235079   0.993   3.817   3.095 -0.2249  1.2148 -1.0446
 7815SOL     OW35080   1.279   0.374   5.221  0.8926 -0.1305 -0.2459
 7815SOL    HW135081   1.206   0.392   5.280  1.3277  0.3966  0.1293
 7815SOL    HW235082   1.345   0.354   5.287  0.2963  0.4826  0.5263
 7816SOL     OW35083   0.231   2.001  10.663 -0.9566 -0.6117 -0.0792
 7816SOL    HW135084   0.152   2.053  10.653 -0.4251  0.0221 -1.0034
 7816SOL    HW235085   0.206   1.909  10.660 -0.3629 -0.7218 -1.6440
 7817SOL     OW35086   1.159   1.817   2.742 -0.3661 -0.2257  0.7302
 7817SOL    HW135087   1.173   1.909   2.720 -2.1852  0.0634  0.7590
 7817SOL    HW235088   1.249   1.785   2.744 -0.2539  0.0752  0.3728
 7818SOL     OW35089   2.876   0.484   2.341  0.0568 -0.0733  0.2248
 7818SOL    HW135090   2.959   0.437   2.349 -0.2695 -0.5520  0.8355
 7818SOL    HW235091   2.906   0.569   2.308 -1.9418  0.2211 -0.8428
 7819SOL     OW35092   0.637   0.852   7.042  0.1509 -0.1544  0.3736
 7819SOL    HW135093   0.679   0.937   7.031  0.0954 -0.3935 -1.6011
 7819SOL    HW235094   0.705   0.787   7.025  0.2505  0.3069 -0.9337
 7820SOL     OW35095   1.621   2.020   4.125 -0.8185 -0.1819  1.0758
 7820SOL    HW135096   1.538   2.001   4.169 -1.6706  0.1335 -0.3873
 7820SOL    HW235097   1.664   1.936   4.141  1.0557  0.7025  0.6496
 7821SOL     OW35098   0.059   2.795  14.406 -0.2551 -0.0512 -0.3004
 7821SOL    HW135099   0.078   2.705  14.381  0.2432 -0.4126  1.3845
 7821SOL    HW235100   4.703   2.787  14.397 -0.3857  3.0932 -1.8650
 7822SOL     OW35101   2.468   2.767   7.668  0.0392 -0.0294  0.3607
 7822SOL    HW135102   2.514   2.690   7.636 -0.4005 -0.7137  1.3548
 7822SOL    HW235103   2.392   2.718   7.699 -0.0025 -0.2670 -0.1276
 7823SOL     OW35104   4.624   2.181  13.970  0.1778 -0.0086 -0.4348
 7823SOL    HW135105   4.714   2.155  13.949 -0.2961 -1.8462 -0.1701
 7823SOL    HW235106   4.624   2.276  13.952 -0.5201  0.0732  0.0323
 7824SOL     OW35107   1.485   3.899   2.118  0.1347  0.2797 -0.1144
 7824SOL    HW135108   1.395   3.932   2.115  0.2131  0.6149  1.3856
 7824SOL    HW235109   1.482   3.876   2.211 -0.5484 -0.5434 -0.3392
 7825SOL     OW35110   0.160   2.025   7.906 -0.0257 -0.0149  0.2206
 7825SOL    HW135111   0.201   1.940   7.925  1.8667  0.2842 -2.6034
 7825SOL    HW235112   0.068   2.006   7.922  0.4983 -1.7061  1.2360
 7826SOL     OW35113   2.212   1.042   2.678  0.1818 -0.2586 -0.4584
 7826SOL    HW135114   2.171   1.003   2.756  1.0638  0.9090  0.5743
 7826SOL    HW235115   2.140   1.036   2.615 -1.6604 -0.5325  1.6592
 7827SOL     OW35116   3.785   2.898   2.943 -0.0367  0.3589  0.5722
 7827SOL    HW135117   3.731   2.828   2.905  1.6824 -1.2994  1.1512
 7827SOL    HW235118   3.867   2.854   2.921  0.1082  0.9458 -0.0420
 7828SOL     OW35119   3.163   2.045  13.239  0.4067  0.3173 -0.6282
 7828SOL    HW135120   3.124   1.998  13.313 -1.4409  0.2634 -1.6376
 7828SOL    HW235121   3.251   2.008  13.231 -0.1024 -1.6089  2.6267
 7829SOL     OW35122   2.126   1.075  14.551 -0.5939 -0.1127 -0.4067
 7829SOL    HW135123   2.143   1.156  14.599  3.1783 -1.2346  0.1587
 7829SOL    HW235124   2.113   1.109  14.463 -0.7087 -2.1801 -1.1980
 7830SOL     OW35125   2.565   1.446   5.131 -0.0272 -0.2382 -0.0095
 7830SOL    HW135126   2.636   1.388   5.105  0.8109  0.0356  1.6423
 7830SOL    HW235127   2.576   1.443   5.226 -0.8609  2.6586  0.1783
 7831SOL     OW35128   1.092   1.633   7.988  0.2560 -0.2317  0.1605
 7831SOL    HW135129   1.046   1.691   8.049 -2.2175 -0.3916 -1.5336
 7831SOL    HW235130   1.182   1.623   8.019 -0.4182 -1.6248  1.6926
 7832SOL     OW35131   3.527   4.004  12.748 -0.3626  0.3245  1.0046
 7832SOL    HW135132   3.583   3.991  12.825  0.5335  0.9595  0.4669
 7832SOL    HW235133   3.489   4.088  12.774  1.6332  1.8612 -1.0308
 7833SOL     OW35134   0.632   4.049   3.509 -0.4617 -0.0707 -0.3167
 7833SOL    HW135135   0.607   4.132   3.549  0.1801 -0.0756  0.0897
 7833SOL    HW235136   0.706   4.070   3.451 -0.8453  0.4080 -0.6359
 7834SOL     OW35137   3.450   4.516  13.762 -0.1236  0.1834 -0.0760
 7834SOL    HW135138   3.399   4.571  13.702 -0.4999  0.3376  0.3894
 7834SOL    HW235139   3.442   4.427  13.727 -0.3451  1.0276 -2.1909
 7835SOL     OW35140   0.486   2.829   3.437 -0.0334 -0.0167 -0.1082
 7835SOL    HW135141   0.547   2.791   3.375 -0.5714 -1.2576  0.1152
 7835SOL    HW235142   0.428   2.870   3.373  0.1487 -0.8829 -0.8202
 7836SOL     OW35143   3.009   3.517   2.007  0.3329  0.3596 -0.2813
 7836SOL    HW135144   2.915   3.500   1.998  0.2647 -0.4941  2.1871
 7836SOL    HW235145   3.039   3.521   1.916 -1.4676 -2.3099 -0.9940
 7837SOL     OW35146   3.707   0.497  13.880  0.2778  0.7920 -0.4685
 7837SOL    HW135147   3.667   0.516  13.966  0.1358 -0.8350 -0.1685
 7837SOL    HW235148   3.793   0.463  13.902  0.4038  0.7695 -1.0205
 7838SOL     OW35149   3.484   0.691   5.770 -0.4321 -0.6358  0.4856
 7838SOL    HW135150   3.567   0.700   5.818  0.2488 -1.5558 -0.5154
 7838SOL    HW235151   3.432   0.729   5.841  1.5829  2.0948  0.4803
 7839SOL     OW35152   1.954   2.801  13.179 -0.1789 -0.5002  0.0194
 7839SOL    HW135153   2.016   2.810  13.251 -0.3913 -0.3433  0.1822
 7839SOL    HW235154   2.008   2.808  13.100  1.1107 -2.7338  0.6978
 7840SOL     OW35155   2.512   4.577  14.957 -0.6311  0.5197  0.2961
 7840SOL    HW135156   2.501   4.625  14.874  1.6398  0.3631 -0.1036
 7840SOL    HW235157   2.454   4.501  14.954 -2.1580  1.7261 -0.9830
 7841SOL     OW35158   3.200   1.490   3.510 -0.0876  0.1447  0.4268
 7841SOL    HW135159   3.286   1.528   3.527 -0.8333  2.3849 -0.7804
 7841SOL    HW235160   3.184   1.458   3.599  1.1724  1.4699  1.1273
 7842SOL     OW35161   2.560   0.455   4.615  0.5198  0.7077 -0.0117
 7842SOL    HW135162   2.500   0.407   4.558 -1.6928  1.9557  1.2857
 7842SOL    HW235163   2.506   0.527   4.646  0.7145  1.5624 -1.6530
 7843SOL     OW35164   1.714   4.135   5.844 -0.4044  0.5877  0.5291
 7843SOL    HW135165   1.785   4.110   5.786 -0.4740  3.0140 -0.5872
 7843SOL    HW235166   1.698   4.225   5.816  1.2266  0.7929  0.2988
 7844SOL     OW35167   2.971   3.273   1.804  0.2169  0.3029  0.5050
 7844SOL    HW135168   2.907   3.242   1.868 -0.6862 -0.1350 -0.6265
 7844SOL    HW235169   3.045   3.232   1.851 -0.2513 -0.1621  0.8332
 7845SOL     OW35170   3.282   0.013   1.081 -0.4717  0.2346 -0.4701
 7845SOL    HW135171   3.315   0.015   1.171 -0.4738  0.2213 -0.4691
 7845SOL    HW235172   3.306   4.662   1.061  1.8579  0.2491  2.1651
 7846SOL     OW35173   2.884   4.553   5.515  0.1535 -0.0885  0.2124
 7846SOL    HW135174   2.906   4.632   5.564  0.4177  0.5131 -0.8815
 7846SOL    HW235175   2.921   4.557   5.427 -1.7144 -0.0410 -0.5638
 7847SOL     OW35176   0.098   3.342   1.119 -0.3289  0.0403 -0.2014
 7847SOL    HW135177   0.170   3.332   1.057 -1.7675  0.6231 -1.9626
 7847SOL    HW235178   0.139   3.333   1.206  1.8742  1.2736 -1.1119
 7848SOL     OW35179   0.593   3.762   3.438 -0.4381  0.2207 -0.3536
 7848SOL    HW135180   0.542   3.780   3.359  1.2640  1.8037 -1.0872
 7848SOL    HW235181   0.585   3.844   3.487 -1.8517  2.4990 -4.4085
 7849SOL     OW35182   0.734   2.552   3.549  0.1628 -0.4819  0.0966
 7849SOL    HW135183   0.772   2.471   3.516  0.5695 -0.3201  0.1559
 7849SOL    HW235184   0.812   2.605   3.566 -0.0812  1.1721 -3.9157
 7850SOL     OW35185   1.509   1.786   7.357  0.1862 -0.1137 -1.0122
 7850SOL    HW135186   1.512   1.774   7.452  1.4702 -0.8317 -1.1441
 7850SOL    HW235187   1.473   1.874   7.350 -0.3768 -0.0323  2.7706
 7851SOL     OW35188   1.776   0.615   2.751  0.0775 -0.2275 -0.2477
 7851SOL    HW135189   1.858   0.643   2.709  1.2411 -1.9005  0.9443
 7851SOL    HW235190   1.788   0.630   2.845  0.0912 -1.3302 -0.0792
 7852SOL     OW35191   2.200   3.670   5.020  0.5106 -0.1268 -0.1127
 7852SOL    HW135192   2.266   3.664   5.088  0.5918  0.4518 -0.1433
 7852SOL    HW235193   2.240   3.672   4.933 -1.6471  2.4226 -1.0618
 7853SOL     OW35194   3.680   4.481   9.833  0.3867 -0.0455 -0.0789
 7853SOL    HW135195   3.698   4.572   9.853 -0.1619  0.6524 -2.7493
 7853SOL    HW235196   3.772   4.460   9.813  1.0766  2.2205  0.7138
 7854SOL     OW35197   4.216   2.631   9.197  0.0668  0.1284  0.1161
 7854SOL    HW135198   4.190   2.674   9.116 -0.4552  0.4257  0.4403
 7854SOL    HW235199   4.276   2.696   9.233 -1.0041  0.6202  1.0268
 7855SOL     OW35200   0.592   2.843  17.348  0.0306 -0.5232  0.0014
 7855SOL    HW135201   0.657   2.893  17.300 -0.5686  2.8509  2.6885
 7855SOL    HW235202   0.647   2.793  17.409 -0.2742  0.2922  0.9572
 7856SOL     OW35203   2.983   1.194   7.866 -0.3038  0.1675  0.3073
 7856SOL    HW135204   3.033   1.186   7.784 -1.4356  4.3070 -0.7927
 7856SOL    HW235205   3.034   1.153   7.935 -0.1626 -0.8072 -0.3791
 7857SOL     OW35206   0.621   2.032   8.097 -0.4776  0.3599 -0.1654
 7857SOL    HW135207   0.593   1.955   8.047  0.5291  2.3853 -3.9098
 7857SOL    HW235208   0.584   2.013   8.183  0.2338  2.4677  0.6076
 7858SOL     OW35209   1.694   3.978   7.657  0.3419  0.3292 -0.2509
 7858SOL    HW135210   1.627   3.941   7.714 -0.0362  0.3059 -0.7139
 7858SOL    HW235211   1.647   3.977   7.574  5.7795  1.2838 -3.3662
 7859SOL     OW35212   3.772   3.314  11.374  0.5945  0.3613  0.9247
 7859SOL    HW135213   3.706   3.381  11.390  1.1078  1.3741 -1.2764
 7859SOL    HW235214   3.721   3.234  11.390 -2.4804  1.6248 -2.5597
 7860SOL     OW35215   3.450   0.441   1.274  0.1286  0.1587 -0.2763
 7860SOL    HW135216   3.415   0.413   1.190  1.0013 -0.1008 -0.5540
 7860SOL    HW235217   3.431   0.535   1.276 -0.8115 -0.0801  1.4448
 7861SOL     OW35218   2.839   0.766   6.357  0.1917 -0.6998  0.2464
 7861SOL    HW135219   2.882   0.680   6.353 -0.0291 -0.7185 -1.6871
 7861SOL    HW235220   2.785   0.778   6.279  1.6237  0.7995 -0.5008
 7862SOL     OW35221   0.693   2.587   7.220 -0.2889 -0.4468 -0.2788
 7862SOL    HW135222   0.779   2.559   7.189 -0.9882  0.3087 -2.8819
 7862SOL    HW235223   0.633   2.536   7.166 -2.4571  0.5015  1.2723
 7863SOL     OW35224   2.801   3.909   4.405  0.4047 -0.2298  0.8259
 7863SOL    HW135225   2.729   3.848   4.423  1.6963 -1.6431  1.1775
 7863SOL    HW235226   2.872   3.846   4.388  0.5385  0.5332 -1.3750
 7864SOL     OW35227   4.731   0.867  16.333  0.1792 -0.3143  0.8857
 7864SOL    HW135228   0.033   0.781  16.337  1.8640  0.4115 -1.0251
 7864SOL    HW235229   4.716   0.889  16.425  1.4311  1.0416  0.7712
 7865SOL     OW35230   4.191   3.667  12.352  1.0791 -0.0473 -0.3450
 7865SOL    HW135231   4.143   3.715  12.284 -0.7179 -0.6672  0.4693
 7865SOL    HW235232   4.123   3.603  12.374  0.1492  1.7769  2.0832
 7866SOL     OW35233   4.483   1.424   9.654 -0.3554 -0.1978  0.1907
 7866SOL    HW135234   4.438   1.360   9.600  2.2483 -1.9268  0.1026
 7866SOL    HW235235   4.415   1.453   9.715 -2.1407 -1.1448 -1.3536
 7867SOL     OW35236   2.379   3.596   2.850  0.4474 -0.2440 -0.0462
 7867SOL    HW135237   2.334   3.533   2.906  1.5135 -2.0745 -1.2365
 7867SOL    HW235238   2.312   3.663   2.837 -0.4458 -0.9535  0.9293
 7868SOL     OW35239   2.315   3.623   4.766 -0.3551  0.3167  0.1727
 7868SOL    HW135240   2.349   3.683   4.701  1.1133 -3.5866 -2.6802
 7868SOL    HW235241   2.398   3.598   4.807 -0.2748  0.2345 -0.0429
 7869SOL     OW35242   3.634   1.742  10.591 -0.5126  0.0234 -0.2446
 7869SOL    HW135243   3.680   1.659  10.580  2.1541  1.3447  0.8715
 7869SOL    HW235244   3.694   1.786  10.651  0.1463  1.5496 -2.0467
 7870SOL     OW35245   4.552   2.206   2.978  0.1289 -0.0401  0.2551
 7870SOL    HW135246   4.593   2.257   3.048  0.6898 -0.4484  0.2209
 7870SOL    HW235247   4.527   2.126   3.024  2.2968 -0.8565  0.0224
 7871SOL     OW35248   4.138   2.878   7.836  0.1399 -0.5949  0.2999
 7871SOL    HW135249   4.168   2.886   7.746 -0.7577  1.6013  0.1945
 7871SOL    HW235250   4.219   2.869   7.887  0.4804 -2.0846 -0.4901
 7872SOL     OW35251   2.269   4.215   8.098  0.5579  0.4054  0.1881
 7872SOL    HW135252   2.178   4.187   8.084  1.0412  1.1712 -4.3857
 7872SOL    HW235253   2.311   4.142   8.053  0.8763  1.7990 -1.7821
 7873SOL     OW35254   0.291   2.251   2.189  0.3418  0.0494 -0.3814
 7873SOL    HW135255   0.226   2.268   2.121  0.2504  1.9696  0.2059
 7873SOL    HW235256   0.286   2.332   2.239 -0.7909 -0.0076 -0.4126
 7874SOL     OW35257   4.171   4.029   8.939  0.3633  0.0556  0.3037
 7874SOL    HW135258   4.129   3.949   8.906  0.5042 -0.7039  1.9819
 7874SOL    HW235259   4.142   4.085   8.867 -1.6061 -1.7366 -0.2965
 7875SOL     OW35260   1.547   3.722   1.602  0.4848 -0.0916 -0.4342
 7875SOL    HW135261   1.530   3.732   1.695 -0.4800 -2.9625 -0.2787
 7875SOL    HW235262   1.611   3.792   1.597  0.5952  0.0456  3.0767
 7876SOL     OW35263   0.242   0.915  11.715  0.3000  0.0965 -0.7431
 7876SOL    HW135264   0.318   0.858  11.705  1.7854  1.7865  0.9112
 7876SOL    HW235265   0.174   0.848  11.721  1.4946 -1.1930 -1.5995
 7877SOL     OW35266   4.102   0.127   9.507 -0.1239  0.9560 -0.1224
 7877SOL    HW135267   4.121   0.034   9.497 -2.2661  0.6129 -1.1094
 7877SOL    HW235268   4.029   0.130   9.569 -1.4377 -1.9129 -1.5168
 7878SOL     OW35269   2.959   3.035   6.013  0.0903  0.3812 -0.1430
 7878SOL    HW135270   2.924   3.113   6.054  1.9901  0.9715  0.3493
 7878SOL    HW235271   2.910   3.025   5.931 -2.5116  3.3401  1.0653
 7879SOL     OW35272   0.877   3.840   4.360 -0.0305 -0.0354 -0.3945
 7879SOL    HW135273   0.844   3.824   4.271 -1.0230 -0.2027 -0.0045
 7879SOL    HW235274   0.808   3.795   4.410 -0.3350  0.7244 -0.1321
 7880SOL     OW35275   3.976   4.179   7.180  0.3090 -0.8344 -0.3866
 7880SOL    HW135276   3.955   4.087   7.166 -1.6085 -0.4611  0.0942
 7880SOL    HW235277   4.070   4.176   7.163  0.6190  1.0043  1.0186
 7881SOL     OW35278   3.837   1.935   7.019 -0.3346 -0.0400 -0.0809
 7881SOL    HW135279   3.851   1.963   6.929 -1.2035 -0.0637 -0.2247
 7881SOL    HW235280   3.775   2.004   7.042  0.1414  0.2645  0.2969
 7882SOL     OW35281   3.157   1.351   1.214 -0.2019 -0.1491 -0.3059
 7882SOL    HW135282   3.108   1.400   1.280  2.5211  0.2577  1.4334
 7882SOL    HW235283   3.162   1.414   1.141 -0.7701  0.0140 -0.2057
 7883SOL     OW35284   0.236   2.926   9.769 -0.3582  0.0203 -0.3418
 7883SOL    HW135285   0.210   3.017   9.782  1.7753  0.5482  0.3015
 7883SOL    HW235286   0.286   2.935   9.688 -2.0400 -0.7391 -1.4613
 7884SOL     OW35287   3.033   0.889   4.557 -0.8800 -0.2833 -0.1217
 7884SOL    HW135288   2.972   0.882   4.483 -0.8028  1.2306 -0.3245
 7884SOL    HW235289   3.091   0.956   4.522  1.0753 -1.2247  1.3086
 7885SOL     OW35290   0.075   2.132   7.356  0.2029  0.0760  0.4034
 7885SOL    HW135291   0.089   2.073   7.282  1.0722 -0.9173  1.3711
 7885SOL    HW235292   0.069   2.071   7.429 -1.4006 -0.0561  0.1533
 7886SOL     OW35293   0.010   2.519   6.599 -0.1100  0.2004  0.3136
 7886SOL    HW135294   4.708   2.589   6.650  0.5853  0.5595  0.3774
 7886SOL    HW235295   4.690   2.452   6.633  0.8036 -0.0851  1.3450
 7887SOL     OW35296   0.122   2.198   6.380 -0.0936 -0.1584 -0.9612
 7887SOL    HW135297   0.030   2.200   6.405  0.1394  2.1768 -0.3524
 7887SOL    HW235298   0.128   2.284   6.339  3.6021 -0.6491 -1.4989
 7888SOL     OW35299   2.594   1.059  17.308 -0.2057  0.2008  0.4009
 7888SOL    HW135300   2.584   1.148  17.277 -4.3294  0.0273  1.3148
 7888SOL    HW235301   2.629   1.074  17.396  3.1446  2.2507 -1.2513
 7889SOL     OW35302   4.422   4.183   2.297  0.4884  0.3846  0.4426
 7889SOL    HW135303   4.491   4.244   2.273  0.4342 -0.4655 -1.8992
 7889SOL    HW235304   4.460   4.136   2.371 -0.0228  2.1628  1.8143
 7890SOL     OW35305   3.547   0.786   0.916  0.5688 -0.1918 -0.4631
 7890SOL    HW135306   3.584   0.707   0.875  1.8413  1.0342 -1.6753
 7890SOL    HW235307   3.455   0.770   0.897  0.5079 -0.0894 -0.2555
 7891SOL     OW35308   4.177   1.862   6.104  0.6638 -0.5239 -0.2210
 7891SOL    HW135309   4.129   1.788   6.141  1.5063 -1.2280 -0.5514
 7891SOL    HW235310   4.127   1.896   6.030 -0.4956  0.5589  1.0502
 7892SOL     OW35311   1.844   1.887  12.201 -0.0607  0.0040 -0.1182
 7892SOL    HW135312   1.838   1.861  12.293  0.0463  1.4590  0.3092
 7892SOL    HW235313   1.761   1.848  12.173  0.2423 -0.3477 -0.5258
 7893SOL     OW35314   2.239   0.921  13.578  0.3539  0.2848 -0.0913
 7893SOL    HW135315   2.325   0.880  13.564 -0.0822 -1.6555  2.9292
 7893SOL    HW235316   2.242   0.945  13.670 -1.3868 -0.8575  0.2623
 7894SOL     OW35317   2.548   0.896   2.616 -0.1272  0.2936  0.5172
 7894SOL    HW135318   2.618   0.832   2.606 -0.3408 -0.0543  1.2934
 7894SOL    HW235319   2.465   0.849   2.622  0.1871 -0.3173  0.0187
 7895SOL     OW35320   3.838   1.010  15.922  0.0469  0.2897 -0.7193
 7895SOL    HW135321   3.863   0.967  16.004 -1.1424  1.4150  0.2325
 7895SOL    HW235322   3.928   1.038  15.904  0.3096  0.8752  1.4508
 7896SOL     OW35323   3.613   0.262   1.984 -0.0703  0.5501  0.0003
 7896SOL    HW135324   3.547   0.218   1.931  1.8315 -0.6114 -1.4086
 7896SOL    HW235325   3.643   0.329   1.923  2.2539 -1.3052 -0.8771
 7897SOL     OW35326   1.306   0.427   0.533  0.6387  0.0799  0.8537
 7897SOL    HW135327   1.399   0.426   0.555  0.6398  0.9718  0.8925
 7897SOL    HW235328   1.317   0.433   0.438 -0.8212 -2.0139  0.5463
 7898SOL     OW35329   1.614   1.914   8.856  0.3032 -1.0237 -0.4009
 7898SOL    HW135330   1.533   1.864   8.851 -0.5421  0.0956  1.7681
 7898SOL    HW235331   1.572   1.998   8.879  1.3081 -0.8184  0.6871
 7899SOL     OW35332   3.917   3.627   3.601 -0.4741  0.7037 -0.1822
 7899SOL    HW135333   3.892   3.537   3.579 -0.7488  0.9487 -0.8748
 7899SOL    HW235334   3.976   3.655   3.531 -2.1647  4.1233 -0.2185
 7900SOL     OW35335   3.513   1.367   2.661 -0.2714 -0.8640  0.0111
 7900SOL    HW135336   3.554   1.302   2.603  0.5829 -0.0447 -0.2884
 7900SOL    HW235337   3.590   1.409   2.699 -0.4293 -0.5619 -0.0043
 7901SOL     OW35338   0.801   1.974   2.144 -0.1670 -0.0764 -0.6623
 7901SOL    HW135339   0.807   1.885   2.177  1.0707  0.7485  1.3545
 7901SOL    HW235340   0.724   1.953   2.092  1.4464  0.8080 -3.4013
 7902SOL     OW35341   0.215   3.595  12.585  0.4662 -0.0350  0.6354
 7902SOL    HW135342   0.235   3.689  12.582  0.1763  0.0530  1.4390
 7902SOL    HW235343   0.298   3.563  12.619  0.4257  0.5879  1.3244
 7903SOL     OW35344   4.618   1.640   5.220 -0.0319  0.2973 -0.3733
 7903SOL    HW135345   4.665   1.557   5.230 -0.5775  0.1102  0.6441
 7903SOL    HW235346   4.619   1.664   5.127  0.6551 -1.0636 -0.7276
 7904SOL     OW35347   2.568   1.668   7.128  0.0228 -0.6855 -0.3758
 7904SOL    HW135348   2.477   1.691   7.108 -0.5661 -3.4174 -0.8016
 7904SOL    HW235349   2.611   1.751   7.150  1.7334 -1.9409  0.9597
 7905SOL     OW35350   2.922   4.052  11.797  0.1651  0.5762  0.0781
 7905SOL    HW135351   2.986   3.997  11.751  0.8169  2.6394 -1.4853
 7905SOL    HW235352   2.967   4.077  11.878 -0.1480  0.9470  0.1355
 7906SOL     OW35353   2.730   4.639  17.110  0.2541  0.0794 -0.1542
 7906SOL    HW135354   2.637   4.626  17.093  0.1998  2.3730 -1.5408
 7906SOL    HW235355   2.765   4.569  17.054 -2.1901 -2.1245  1.0996
 7907SOL     OW35356   3.029   2.353   3.982  0.7115 -0.3192 -0.0014
 7907SOL    HW135357   2.954   2.412   3.977  1.3954  0.4428 -1.6265
 7907SOL    HW235358   3.021   2.321   4.071  0.0522 -1.9178 -0.6352
 7908SOL     OW35359   1.186   2.118   4.278  0.3920 -0.2472  0.4357
 7908SOL    HW135360   1.177   2.208   4.248  1.3157 -0.1858  0.3405
 7908SOL    HW235361   1.091   2.107   4.285  0.3246  0.8501  1.1492
 7909SOL     OW35362   2.777   4.273   3.036  0.0546  0.1774  0.0586
 7909SOL    HW135363   2.866   4.253   3.008  0.3317 -0.8426  1.6541
 7909SOL    HW235364   2.742   4.186   3.018 -1.0991  0.7652 -0.4944
 7910SOL     OW35365   2.778   2.809   3.441  0.7128 -0.1766  0.0459
 7910SOL    HW135366   2.825   2.726   3.443  0.7228 -0.2113 -2.1406
 7910SOL    HW235367   2.842   2.878   3.459  2.3659 -1.8549  0.5225
 7911SOL     OW35368   2.144   4.534   7.370 -0.6974 -0.4774 -0.0701
 7911SOL    HW135369   2.213   4.587   7.410  0.9560 -1.7913 -1.1663
 7911SOL    HW235370   2.174   4.447   7.396  0.3515  0.1707  0.8750
 7912SOL     OW35371   0.819   0.690   6.924  0.3109 -0.8639  0.0426
 7912SOL    HW135372   0.779   0.698   6.838  0.9977 -0.5235 -0.2461
 7912SOL    HW235373   0.896   0.747   6.916  0.5243 -1.2929 -0.9008
 7913SOL     OW35374   4.558   0.157  10.303  0.2406 -0.1031  0.1324
 7913SOL    HW135375   4.579   0.070  10.269 -0.3543  0.5130 -1.8033
 7913SOL    HW235376   4.646   0.185  10.328  1.1070 -1.7789 -1.0238
 7914SOL     OW35377   3.857   2.475  15.768 -0.2089 -0.3370  0.0565
 7914SOL    HW135378   3.776   2.489  15.719  1.1384 -0.2843 -2.1726
 7914SOL    HW235379   3.861   2.557  15.816 -0.1814 -0.9914  1.1721
 7915SOL     OW35380   3.274   2.132   4.741  0.0773  0.2384  0.1604
 7915SOL    HW135381   3.191   2.147   4.788  0.6458 -0.3180  1.3347
 7915SOL    HW235382   3.341   2.126   4.809  1.2765 -1.7237 -1.1748
 7916SOL     OW35383   0.183   2.695   3.696 -0.5022 -0.3954  0.0490
 7916SOL    HW135384   0.106   2.686   3.640 -0.2223  1.8840 -0.6800
 7916SOL    HW235385   0.249   2.678   3.630  0.4369 -1.9315  1.3800
 7917SOL     OW35386   0.391   2.214   8.853 -0.1595  0.4787 -0.0228
 7917SOL    HW135387   0.427   2.298   8.884 -2.8869  0.4913  3.1594
 7917SOL    HW235388   0.412   2.159   8.929 -1.5013 -1.7195 -1.2477
 7918SOL     OW35389   1.132   4.373   4.624  0.0333  0.3778  0.4351
 7918SOL    HW135390   1.176   4.400   4.705 -0.1115  0.8841  0.3402
 7918SOL    HW235391   1.196   4.313   4.585  0.0006  1.4018 -1.1670
 7919SOL     OW35392   3.456   2.258   8.387 -0.5037 -0.5662  0.3348
 7919SOL    HW135393   3.440   2.254   8.292  1.4961  1.8897 -0.0883
 7919SOL    HW235394   3.368   2.274   8.422 -0.9592 -0.6768 -0.7308
 7920SOL     OW35395   3.208   1.300   9.009  0.2364  0.4435 -0.2585
 7920SOL    HW135396   3.131   1.329   9.057  1.4638 -2.2109  3.3177
 7920SOL    HW235397   3.178   1.233   8.948  2.4853 -0.4630 -0.3719
 7921SOL     OW35398   1.781   2.880  11.077 -0.1831  0.4903 -0.0719
 7921SOL    HW135399   1.740   2.795  11.059  0.6801  0.1506 -0.4371
 7921SOL    HW235400   1.863   2.870  11.027 -0.8859  1.9672 -1.5073
 7922SOL     OW35401   0.033   4.353   3.552  0.2804  0.1474 -0.1147
 7922SOL    HW135402   0.062   4.269   3.515  2.4465  0.5693  0.6670
 7922SOL    HW235403   4.697   4.369   3.494 -0.3536  2.3347  1.3065
 7923SOL     OW35404   0.250   2.115  12.559 -0.0359 -0.1573 -0.7418
 7923SOL    HW135405   0.273   2.207  12.569 -1.1529 -0.0993  1.1354
 7923SOL    HW235406   0.179   2.113  12.495 -0.0811  0.8582 -0.7091
 7924SOL     OW35407   3.708   4.596   2.731 -0.1596  0.0875  0.0313
 7924SOL    HW135408   3.787   4.572   2.682 -0.4502 -1.9944  0.5743
 7924SOL    HW235409   3.667   4.656   2.669  1.5687 -0.5960 -1.7774
 7925SOL     OW35410   1.203   3.063   1.105 -0.9663 -0.3462  0.4943
 7925SOL    HW135411   1.187   3.152   1.138 -0.1686 -0.8952  2.3324
 7925SOL    HW235412   1.155   3.011   1.169  1.6966 -3.9362 -0.4280
 7926SOL     OW35413   3.447   4.275   6.322 -0.3641 -0.1052 -0.0266
 7926SOL    HW135414   3.530   4.282   6.274  0.2222  1.2955  1.1683
 7926SOL    HW235415   3.478   4.206   6.379 -1.3691 -0.1150  0.5133
 7927SOL     OW35416   3.986   3.750   7.032 -0.3538 -0.1969  0.1090
 7927SOL    HW135417   3.960   3.775   7.121 -0.0691  0.1923  0.0824
 7927SOL    HW235418   4.013   3.660   7.051 -0.9875 -0.8939 -2.3274
 7928SOL     OW35419   4.317   3.725   8.436 -0.1897  0.5722 -0.0965
 7928SOL    HW135420   4.300   3.702   8.345 -4.7123  0.0606  0.8610
 7928SOL    HW235421   4.290   3.649   8.488  1.3756  0.3224  0.3519
 7929SOL     OW35422   2.310   0.264   5.142  0.1524 -0.3020 -0.5657
 7929SOL    HW135423   2.255   0.205   5.090  0.5843 -1.1530 -0.0638
 7929SOL    HW235424   2.247   0.291   5.209 -0.2655  0.3210 -1.2226
 7930SOL     OW35425   2.189   3.375   8.066  0.2221  0.4368  0.1977
 7930SOL    HW135426   2.182   3.431   8.142 -0.6568 -3.1625  2.7546
 7930SOL    HW235427   2.120   3.404   8.007  0.0398 -0.9761 -0.2795
 7931SOL     OW35428   0.445   3.823   1.533 -0.5632  0.1234  0.0805
 7931SOL    HW135429   0.393   3.899   1.557 -0.5531  0.1506  0.0154
 7931SOL    HW235430   0.458   3.834   1.438 -1.3377  0.0615 -0.0295
 7932SOL     OW35431   2.637   2.476   0.729  0.3682 -0.3460  0.3156
 7932SOL    HW135432   2.640   2.381   0.720  1.8987 -0.1741 -0.8936
 7932SOL    HW235433   2.575   2.509   0.664 -1.1901  0.0740  2.0202
 7933SOL     OW35434   1.759   2.268   9.877  0.1190  0.3046 -0.2416
 7933SOL    HW135435   1.786   2.290   9.788 -2.1244  0.9198 -0.7586
 7933SOL    HW235436   1.670   2.299   9.888  0.0869 -0.2331  1.0452
 7934SOL     OW35437   1.102   3.138   2.376 -0.2146 -0.1843  0.3131
 7934SOL    HW135438   1.112   3.110   2.285 -0.2001  0.5737  0.0853
 7934SOL    HW235439   1.091   3.232   2.366 -1.1545 -0.3236  0.0432
 7935SOL     OW35440   1.881   0.115   7.143 -0.1502 -0.3731 -0.3631
 7935SOL    HW135441   1.867   0.084   7.232  1.1836  0.4601  0.1353
 7935SOL    HW235442   1.804   0.074   7.104  0.4021 -3.0005  1.2701
 7936SOL     OW35443   0.255   4.188   7.152 -0.5016 -0.1152 -0.6338
 7936SOL    HW135444   0.331   4.160   7.101  2.5537  1.8850  2.8460
 7936SOL    HW235445   0.198   4.111   7.154 -1.9896  0.9700 -1.2784
 7937SOL     OW35446   1.637   4.668   3.263 -0.0374 -0.3145 -0.3818
 7937SOL    HW135447   1.714   4.622   3.297  0.0265  0.9244  1.1484
 7937SOL    HW235448   1.646   0.009   3.315 -1.7222  1.9501 -3.5730
 7938SOL     OW35449   3.876   1.099   2.228 -0.3851 -0.1275 -0.1591
 7938SOL    HW135450   3.901   1.167   2.291 -3.2413  0.5736  0.1905
 7938SOL    HW235451   3.854   1.146   2.148 -0.9427 -1.3100 -0.6962
 7939SOL     OW35452   2.135   1.567   1.691  0.1636 -0.3089 -0.4550
 7939SOL    HW135453   2.064   1.545   1.630 -1.2427 -0.3916  1.1991
 7939SOL    HW235454   2.139   1.484   1.739  3.2773 -0.1992 -0.5236
 7940SOL     OW35455   2.622   0.216   4.297 -0.3745  0.0008 -0.1088
 7940SOL    HW135456   2.673   0.287   4.258  0.4966  1.0612  3.0248
 7940SOL    HW235457   2.565   0.268   4.353  2.4774 -0.1349  2.8904
 7941SOL     OW35458   1.786   0.133   8.685 -0.1213  0.2397  0.1707
 7941SOL    HW135459   1.876   0.144   8.654 -1.5528  0.8621 -3.6668
 7941SOL    HW235460   1.774   0.214   8.733  0.4631  0.5218 -0.1611
 7942SOL     OW35461   2.206   3.427   2.999  0.1267 -0.5336 -0.1708
 7942SOL    HW135462   2.116   3.457   2.987  0.7478  1.7420  0.8794
 7942SOL    HW235463   2.200   3.383   3.084 -0.5126  0.2668  0.2019
 7943SOL     OW35464   2.109   4.183   3.092  0.6302  0.1362  0.3689
 7943SOL    HW135465   2.068   4.114   3.144 -1.3567  0.9032 -0.1967
 7943SOL    HW235466   2.031   4.220   3.052 -1.1787 -1.8714  2.0390
 7944SOL     OW35467   4.600   0.759  13.050 -0.6174  0.2175 -0.8778
 7944SOL    HW135468   4.599   0.753  12.955  1.9849  2.5474 -1.0420
 7944SOL    HW235469   4.670   0.824  13.058  0.4578 -0.9699 -0.6895
 7945SOL     OW35470   2.409   2.565   8.698  0.3484  0.7076 -0.1864
 7945SOL    HW135471   2.361   2.631   8.648  1.3595  1.4395 -0.2102
 7945SOL    HW235472   2.426   2.610   8.781 -0.1558 -1.9198  1.3196
 7946SOL     OW35473   0.042   4.502   9.330  0.2032 -0.1100  0.3182
 7946SOL    HW135474   0.012   4.532   9.416 -0.1601 -2.6389  1.0806
 7946SOL    HW235475   0.109   4.434   9.339  0.6195  0.4252  1.2338
 7947SOL     OW35476   2.401   0.459   4.968  0.4061  0.2747 -0.0011
 7947SOL    HW135477   2.368   0.446   4.879 -0.9888  2.6495  0.1664
 7947SOL    HW235478   2.347   0.418   5.036 -0.1643  2.6591  0.9786
 7948SOL     OW35479   3.955   0.745   3.121  0.0962 -0.5599  0.5699
 7948SOL    HW135480   4.031   0.722   3.067  2.5148  1.2812  3.2058
 7948SOL    HW235481   3.898   0.669   3.119  0.6855 -0.9472 -1.3110
 7949SOL     OW35482   0.578   4.616  14.608 -0.0254 -0.4005  0.1690
 7949SOL    HW135483   0.536   4.543  14.563 -0.6096 -1.0519  1.8022
 7949SOL    HW235484   0.665   4.610  14.568 -0.8005 -0.9862 -1.4241
 7950SOL     OW35485   1.186   2.398   4.197 -0.1313 -0.8706 -0.1062
 7950SOL    HW135486   1.109   2.436   4.241 -0.0274 -1.2122  0.3729
 7950SOL    HW235487   1.260   2.439   4.241  0.5334 -1.1816 -0.9483
 7951SOL     OW35488   1.098   1.969   4.919 -0.2926 -0.5404  0.8045
 7951SOL    HW135489   1.148   1.999   4.843 -0.6867 -1.1581  0.2969
 7951SOL    HW235490   1.121   2.030   4.989  0.2124  0.0503  0.1241
 7952SOL     OW35491   0.569   1.137  15.730  0.0215  0.2679  0.0163
 7952SOL    HW135492   0.573   1.062  15.670  2.4693  0.0098  0.4655
 7952SOL    HW235493   0.506   1.197  15.691 -0.0519 -1.1138 -2.0151
 7953SOL     OW35494   2.139   2.856   7.365 -0.1068 -0.7683  0.5324
 7953SOL    HW135495   2.181   2.939   7.388 -0.2432 -1.0219  1.7051
 7953SOL    HW235496   2.068   2.860   7.429  0.8531 -0.4377  1.5768
 7954SOL     OW35497   0.865   3.781   7.376  0.1877 -0.3854 -0.2892
 7954SOL    HW135498   0.914   3.819   7.303 -0.6985  1.7527  0.2140
 7954SOL    HW235499   0.870   3.688   7.358  0.3909 -0.0323 -2.0418
 7955SOL     OW35500   1.952   2.894   7.630  0.0367  0.2106  0.4161
 7955SOL    HW135501   1.950   2.938   7.715  1.5544  0.5531  0.2623
 7955SOL    HW235502   1.889   2.936   7.571  1.2972  2.3491  0.5961
 7956SOL     OW35503   0.314   0.758  15.702  0.1882  0.1316  0.4504
 7956SOL    HW135504   0.238   0.706  15.731  0.8302 -1.0814 -0.0283
 7956SOL    HW235505   0.391   0.701  15.706 -1.4237 -2.2753 -2.2300
 7957SOL     OW35506   4.721   4.391   8.433 -0.0917  0.6309  0.1724
 7957SOL    HW135507   0.062   4.377   8.381 -0.6753  0.5690 -0.7124
 7957SOL    HW235508   0.015   4.360   8.517 -0.3676  3.1977  1.2559
 7958SOL     OW35509   2.520   2.954  13.310  0.9313  0.7671 -0.5671
 7958SOL    HW135510   2.559   2.971  13.396 -0.5521 -2.4902  0.7596
 7958SOL    HW235511   2.558   2.871  13.285 -0.7347 -0.0323 -0.4532
 7959SOL     OW35512   2.014   1.816   2.665  0.3883  0.2839  0.3268
 7959SOL    HW135513   2.001   1.807   2.570 -1.0499 -0.0667  0.5532
 7959SOL    HW235514   2.060   1.735   2.686  0.5221  0.5868  1.1888
 7960SOL     OW35515   4.709   1.695   3.540  0.0400  0.0080 -0.2646
 7960SOL    HW135516   4.668   1.768   3.494  0.1242 -0.6113 -1.3012
 7960SOL    HW235517   4.727   1.626   3.476  0.0852 -0.0245 -0.2170
 7961SOL     OW35518   3.848   3.298   4.231 -0.0370  0.5347 -0.2737
 7961SOL    HW135519   3.880   3.325   4.145 -2.5171  2.3121 -0.6444
 7961SOL    HW235520   3.758   3.331   4.229 -0.8731 -1.6942  1.1930
 7962SOL     OW35521   3.454   3.069  13.586  0.7404  0.4642  0.0065
 7962SOL    HW135522   3.549   3.074  13.575  0.4399  2.4945 -1.6263
 7962SOL    HW235523   3.430   3.105  13.501  0.3816 -1.4595 -0.6927
 7963SOL     OW35524   0.199   3.589   2.748 -0.8702  0.1170 -0.0185
 7963SOL    HW135525   0.113   3.629   2.761 -0.4029  1.7556 -1.9841
 7963SOL    HW235526   0.253   3.668   2.740 -0.3088 -0.3432 -0.8278
 7964SOL     OW35527   3.034   2.326   4.249  0.3111 -0.2202 -0.3134
 7964SOL    HW135528   3.108   2.361   4.299 -1.7908 -1.1230  3.3898
 7964SOL    HW235529   2.969   2.333   4.319  1.4378  0.1808  0.7040
 7965SOL     OW35530   3.499   0.785   7.046 -0.6220 -0.3597  0.0085
 7965SOL    HW135531   3.496   0.690   7.058 -2.5518  0.0624  2.7485
 7965SOL    HW235532   3.407   0.806   7.033 -0.0657  3.2566  1.7623
 7966SOL     OW35533   0.245   1.263  14.518  0.6136 -0.7731  0.0264
 7966SOL    HW135534   0.217   1.277  14.609  0.6047  1.7534 -0.3711
 7966SOL    HW235535   0.331   1.302  14.530  0.7944 -1.7991  2.1575
 7967SOL     OW35536   4.224   1.786   7.315 -0.1918 -0.2544 -0.2251
 7967SOL    HW135537   4.282   1.841   7.262 -2.0865  2.3439  0.3844
 7967SOL    HW235538   4.178   1.736   7.248  0.5560  0.8183 -1.5372
 7968SOL     OW35539   0.239   2.863   3.107  0.0510 -0.7468 -0.0176
 7968SOL    HW135540   0.156   2.834   3.070 -0.4123 -0.6377  0.9295
 7968SOL    HW235541   0.294   2.793   3.073  1.0490  0.1925 -0.3414
 7969SOL     OW35542   1.319   3.149   6.587 -0.3080 -0.4043  0.3971
 7969SOL    HW135543   1.313   3.212   6.516 -0.5276 -1.0473 -0.1589
 7969SOL    HW235544   1.389   3.090   6.556  1.2727  2.3379 -1.1946
 7970SOL     OW35545   2.012   1.454   1.066 -0.3282 -0.2864  0.2618
 7970SOL    HW135546   1.979   1.495   1.146  1.5231 -0.3479  1.0720
 7970SOL    HW235547   1.942   1.486   1.009 -1.4311  0.9048  2.2690
 7971SOL     OW35548   4.149   4.242   4.975 -0.1657  0.1314 -0.0144
 7971SOL    HW135549   4.213   4.284   5.033 -1.8581  3.0160 -0.2288
 7971SOL    HW235550   4.097   4.185   5.031  0.6441  1.0755  1.7038
 7972SOL     OW35551   3.021   3.004   6.350 -0.2085  0.4329 -0.2220
 7972SOL    HW135552   3.055   2.962   6.271 -1.1247 -1.2012  0.2557
 7972SOL    HW235553   3.086   3.074   6.357  0.2307 -0.0759  0.8035
 7973SOL     OW35554   0.034   0.469   9.287 -0.1794 -0.3809 -0.3267
 7973SOL    HW135555   4.708   0.402   9.268  0.5420 -1.0305 -0.4772
 7973SOL    HW235556   0.109   0.436   9.238  0.9531  0.7177  0.6652
 7974SOL     OW35557   1.737   2.003   3.622 -0.3621  0.2589  0.2880
 7974SOL    HW135558   1.724   1.921   3.573 -0.7583  0.3964  0.1604
 7974SOL    HW235559   1.812   1.975   3.674 -0.2838 -1.4860 -0.7400
 7975SOL     OW35560   3.721   4.191   9.749 -0.1975  0.4774 -0.0651
 7975SOL    HW135561   3.698   4.113   9.698  0.7832  0.9208 -1.1898
 7975SOL    HW235562   3.750   4.158   9.834 -1.4642 -0.9092 -0.1652
 7976SOL     OW35563   3.280   4.660  15.829  0.7498 -0.3330 -0.2147
 7976SOL    HW135564   3.230   4.596  15.778  0.8261  0.1220 -0.8651
 7976SOL    HW235565   3.219   4.733  15.815 -0.9975 -1.6831  0.4068
 7977SOL     OW35566   4.547   3.192   0.270  0.4839  0.8708 -0.4739
 7977SOL    HW135567   4.536   3.287   0.271  0.4707  0.8703 -0.5264
 7977SOL    HW235568   4.501   3.169   0.189 -1.5498  0.6103  0.7405
 7978SOL     OW35569   4.164   2.261   5.847 -0.3616  0.2649  0.2317
 7978SOL    HW135570   4.173   2.351   5.878 -2.0658  0.0400  1.3611
 7978SOL    HW235571   4.131   2.270   5.758  1.9023 -1.6954 -0.7982
 7979SOL     OW35572   3.997   2.190  10.661  0.3379 -0.0916  0.5233
 7979SOL    HW135573   3.969   2.129  10.729  0.3264  0.1571  0.7430
 7979SOL    HW235574   4.050   2.141  10.598 -0.8187  0.1354 -0.6264
 7980SOL     OW35575   0.260   4.417   4.962 -0.1008  0.2291 -0.2564
 7980SOL    HW135576   0.283   4.384   5.049 -3.2209 -1.1151  0.0596
 7980SOL    HW235577   0.306   4.501   4.956 -1.0611  0.8467  0.9658
 7981SOL     OW35578   1.173   1.597  13.947  0.2409 -0.0020  0.5905
 7981SOL    HW135579   1.130   1.646  14.016  1.0101  0.8368  0.4696
 7981SOL    HW235580   1.264   1.606  13.975  0.0085 -1.3136  1.7816
 7982SOL     OW35581   1.951   4.265   0.521  0.0522  0.1856 -0.3079
 7982SOL    HW135582   1.978   4.255   0.613  2.1487  1.0126 -0.8298
 7982SOL    HW235583   1.994   4.191   0.477 -1.1674 -0.1236 -0.9944
 7983SOL     OW35584   2.085   3.006   6.984 -0.1761 -0.5277  0.4011
 7983SOL    HW135585   2.149   3.067   7.020 -0.4977 -0.1403  0.3188
 7983SOL    HW235586   2.006   3.057   7.002  0.4500  0.0759  1.4148
 7984SOL     OW35587   2.970   1.879   7.045  0.1984 -0.6864 -0.4993
 7984SOL    HW135588   2.944   1.946   6.982  1.1537  2.1121  2.0522
 7984SOL    HW235589   2.927   1.804   7.004  1.2066 -0.6943 -1.5199
 7985SOL     OW35590   3.301   3.149   4.788 -0.0328  0.3591  0.0907
 7985SOL    HW135591   3.211   3.117   4.795  0.4407 -0.7869  0.9951
 7985SOL    HW235592   3.311   3.171   4.696 -0.5242 -0.5016 -0.1697
 7986SOL     OW35593   2.472   2.054   5.942  0.6850 -0.1484 -0.7257
 7986SOL    HW135594   2.446   2.118   6.007  1.0937 -0.9352  0.2119
 7986SOL    HW235595   2.567   2.065   5.941  0.3774  2.4018 -0.0946
 7987SOL     OW35596   3.014   0.066   5.207  0.2633 -0.1983 -0.2698
 7987SOL    HW135597   3.030   4.712   5.218  2.8751  0.2254 -0.4713
 7987SOL    HW235598   3.026   0.068   5.112 -0.3026  0.4568 -0.3270
 7988SOL     OW35599   4.469   3.104  12.985 -0.3031 -0.3147 -0.1888
 7988SOL    HW135600   4.382   3.143  12.975 -0.5337 -0.3304  1.8356
 7988SOL    HW235601   4.504   3.182  13.027  0.0904 -0.7122  0.2202
 7989SOL     OW35602   4.262   0.242  12.205 -0.0241 -0.4658 -0.1392
 7989SOL    HW135603   4.179   0.251  12.252 -0.2230  0.2751 -0.6419
 7989SOL    HW235604   4.253   0.152  12.173 -0.4503 -1.0441  1.5646
 7990SOL     OW35605   1.909   0.136   3.033  0.0364  0.4683 -0.5335
 7990SOL    HW135606   1.892   0.167   3.122  1.4036 -2.4258  0.7207
 7990SOL    HW235607   1.828   0.090   3.015 -0.1076  0.9791 -1.1813
 7991SOL     OW35608   0.955   0.109  14.373  0.2547  0.6070 -0.1845
 7991SOL    HW135609   0.896   0.039  14.402  0.2243  1.5157  1.9030
 7991SOL    HW235610   0.896   0.160  14.317 -1.5209 -0.9184  0.2971
 7992SOL     OW35611   2.615   2.347   6.678 -0.6968  0.1951 -0.7714
 7992SOL    HW135612   2.643   2.348   6.586  1.5400 -2.4726 -0.1226
 7992SOL    HW235613   2.661   2.427   6.705 -1.3670  0.6240 -0.8894
 7993SOL     OW35614   2.794   2.201   8.477 -1.1914  0.0313 -1.0607
 7993SOL    HW135615   2.710   2.199   8.432  0.0780  0.2917 -3.4234
 7993SOL    HW235616   2.768   2.172   8.565  1.3966 -2.7877 -1.2031
 7994SOL     OW35617   0.910   1.479   6.062 -0.1656 -0.0340  0.3563
 7994SOL    HW135618   0.931   1.389   6.041 -0.7981 -0.2982  0.8365
 7994SOL    HW235619   0.916   1.489   6.157  0.3371  1.9923  0.1167
 7995SOL     OW35620   2.764   4.109   4.226  0.7936  0.2554 -0.4531
 7995SOL    HW135621   2.678   4.142   4.253  0.6104 -0.9150  0.4238
 7995SOL    HW235622   2.771   4.028   4.276  0.3070  0.3524 -0.2263
 7996SOL     OW35623   0.012   4.524  11.442  0.2077 -0.2278 -0.4476
 7996SOL    HW135624   0.008   4.514  11.538 -0.7382  2.4203 -0.2239
 7996SOL    HW235625   0.090   4.577  11.428 -0.4286  0.9236  0.4232
 7997SOL     OW35626   3.351   4.269   4.744 -0.7294  0.6044 -0.7183
 7997SOL    HW135627   3.331   4.190   4.692  4.4669 -0.9901 -0.3214
 7997SOL    HW235628   3.327   4.338   4.682 -2.1408  0.8540  0.0970
 7998SOL     OW35629   4.679   4.303   6.489 -0.4393 -0.0460 -0.2028
 7998SOL    HW135630   4.590   4.269   6.476 -0.6685  0.7901 -0.8525
 7998SOL    HW235631   4.659   4.383   6.440  1.9202 -0.7042 -2.2237
 7999SOL     OW35632   0.850   1.277  16.721  0.1400 -0.4028 -0.3128
 7999SOL    HW135633   0.820   1.188  16.706 -1.1915  0.0261 -0.1871
 7999SOL    HW235634   0.942   1.251  16.729 -0.4285 -2.3342 -0.1802
 8000SOL     OW35635   3.235   1.841   8.292  0.0244  0.1826  0.0152
 8000SOL    HW135636   3.193   1.873   8.372  0.6378  0.1691  0.3384
 8000SOL    HW235637   3.303   1.905   8.274 -0.2538  0.6150  0.5110
 8001SOL     OW35638   2.872   2.188  11.809 -0.5464  0.1528  0.2836
 8001SOL    HW135639   2.941   2.157  11.868  0.7777  0.0779 -1.3023
 8001SOL    HW235640   2.897   2.132  11.735 -1.4069  0.4402 -0.2210
 8002SOL     OW35641   3.150   1.589   1.585  0.3521  0.3068  0.2825
 8002SOL    HW135642   3.088   1.612   1.516 -0.5553 -3.1442 -0.0479
 8002SOL    HW235643   3.218   1.541   1.536 -0.7508  0.2531 -1.2000
 8003SOL     OW35644   1.105   4.202   9.134  0.2601 -0.1078  0.5885
 8003SOL    HW135645   1.186   4.183   9.086  0.9548  2.0064  0.9106
 8003SOL    HW235646   1.126   4.156   9.215 -0.2066  1.4762  1.6065
 8004SOL     OW35647   2.196   3.751   7.680 -0.5993 -0.1549 -0.2274
 8004SOL    HW135648   2.221   3.842   7.663  1.7885 -0.9341 -0.9610
 8004SOL    HW235649   2.121   3.765   7.738 -0.4656 -3.8529  0.8140
 8005SOL     OW35650   2.635   1.156  15.029  0.6691 -0.2736 -0.5707
 8005SOL    HW135651   2.556   1.163  15.082  1.0036 -1.6516  0.1045
 8005SOL    HW235652   2.653   1.062  15.039  2.1113  0.0561 -0.0889
 8006SOL     OW35653   4.287   0.965   5.100  0.0889 -0.5824 -0.2361
 8006SOL    HW135654   4.382   0.979   5.105 -0.1779  0.4074  1.9682
 8006SOL    HW235655   4.264   1.042   5.152  0.3070 -1.6735  1.4434
 8007SOL     OW35656   0.102   0.655   9.518 -0.3047  0.5825 -0.0574
 8007SOL    HW135657   0.069   0.616   9.437  0.5583 -0.2797  0.0121
 8007SOL    HW235658   0.026   0.713   9.517 -0.4508  0.4103  1.5500
 8008SOL     OW35659   1.829   1.336   3.484 -0.2308 -0.8459  0.4181
 8008SOL    HW135660   1.901   1.304   3.537  0.3456  0.2208  0.2810
 8008SOL    HW235661   1.770   1.375   3.548  0.8708  0.5255  0.5987
 8009SOL     OW35662   3.830   2.205   5.813  0.0037  0.1303  0.1298
 8009SOL    HW135663   3.867   2.126   5.850 -1.5438 -0.0680  1.3000
 8009SOL    HW235664   3.903   2.230   5.757  0.1008 -0.2166  0.1028
 8010SOL     OW35665   2.168   1.333   1.370  0.2153 -0.4640 -0.4111
 8010SOL    HW135666   2.218   1.317   1.450  1.9005  1.5688 -1.0678
 8010SOL    HW235667   2.097   1.270   1.387  0.3706 -0.9463 -1.5342
 8011SOL     OW35668   3.009   1.112   8.203 -0.3200 -0.2201  0.5910
 8011SOL    HW135669   2.935   1.172   8.214  0.0919  0.5068 -0.6915
 8011SOL    HW235670   3.075   1.165   8.159 -1.3923 -0.0953 -0.8714
 8012SOL     OW35671   1.659   2.137  16.715  0.8528 -0.4936 -0.3381
 8012SOL    HW135672   1.681   2.221  16.754 -1.3996  0.7188 -1.6924
 8012SOL    HW235673   1.580   2.154  16.664 -0.5103  0.8628  2.2055
 8013SOL     OW35674   3.241   4.707   8.565 -0.8844  0.2386  0.1734
 8013SOL    HW135675   3.297   0.045   8.575 -0.1054 -0.6263  2.5761
 8013SOL    HW235676   3.288   4.658   8.632  0.4456  0.5293 -0.5471
 8014SOL     OW35677   1.236   3.716   8.694 -0.3700 -0.3002  0.3927
 8014SOL    HW135678   1.168   3.653   8.714 -1.1037  0.5932  0.6892
 8014SOL    HW235679   1.309   3.714   8.756  0.4273 -1.5035 -0.5827
 8015SOL     OW35680   1.440   3.778   8.905  0.0468 -0.0251  0.2042
 8015SOL    HW135681   1.373   3.808   8.966  0.1885  0.4326  0.1380
 8015SOL    HW235682   1.445   3.855   8.848 -0.7874 -0.0115  0.1522
 8016SOL     OW35683   0.951   1.683  11.345 -0.4459  0.5388 -0.5184
 8016SOL    HW135684   0.968   1.601  11.299  1.2135 -0.1000  1.2730
 8016SOL    HW235685   0.856   1.683  11.331 -0.4550  1.9429 -0.5393
 8017SOL     OW35686   3.644   0.441   7.550 -0.2446 -0.2708  0.5211
 8017SOL    HW135687   3.697   0.361   7.541 -0.3675 -0.1311 -1.4668
 8017SOL    HW235688   3.573   0.411   7.607 -2.1784 -0.5932 -2.0061
 8018SOL     OW35689   0.365   0.301   4.593 -0.0217  0.2585 -0.1435
 8018SOL    HW135690   0.353   0.388   4.631  0.8546  0.7649 -1.0100
 8018SOL    HW235691   0.451   0.270   4.623  0.7494 -1.1173 -3.7416
 8019SOL     OW35692   4.643   0.106   6.725  0.0815 -0.3662  0.2455
 8019SOL    HW135693   4.725   0.153   6.711  1.2559 -2.7674 -1.0270
 8019SOL    HW235694   4.691   0.033   6.764 -2.9824 -1.1317  2.5993
 8020SOL     OW35695   3.471   2.308  10.208  0.4358 -0.8937 -0.4448
 8020SOL    HW135696   3.475   2.212  10.216 -0.4073 -0.9702 -0.9554
 8020SOL    HW235697   3.378   2.333  10.207  0.5195 -0.5615  0.2096
 8021SOL     OW35698   2.459   3.987   5.840 -0.0486  0.0929  0.1836
 8021SOL    HW135699   2.416   4.004   5.757  0.3286 -0.4830 -0.1330
 8021SOL    HW235700   2.379   3.977   5.891  0.5442 -0.3421  1.0350
 8022SOL     OW35701   1.119   1.853  15.929  0.3747  0.0032 -0.0990
 8022SOL    HW135702   1.123   1.942  15.892 -2.0397 -0.6613 -1.9480
 8022SOL    HW235703   1.101   1.873  16.021  0.4401  0.5733 -0.2108
 8023SOL     OW35704   3.469   0.808  11.246 -0.0208  0.0876 -0.1113
 8023SOL    HW135705   3.428   0.722  11.238  1.6410 -0.6314 -0.8089
 8023SOL    HW235706   3.532   0.786  11.315  0.5248  2.0324  0.0069
 8024SOL     OW35707   4.720   3.145   3.434 -0.0797  0.1167 -0.3270
 8024SOL    HW135708   4.656   3.136   3.504 -0.3446 -0.6852 -0.6697
 8024SOL    HW235709   0.037   3.068   3.427  1.3451  1.1571 -0.3189
 8025SOL     OW35710   1.106   3.887  15.024  0.5300 -0.0749 -0.6058
 8025SOL    HW135711   1.154   3.805  15.013 -0.5580 -0.8544  0.5525
 8025SOL    HW235712   1.163   3.945  15.074  1.3526  0.7579 -2.4882
 8026SOL     OW35713   1.154   1.626   9.054  0.4386 -0.0555  0.3025
 8026SOL    HW135714   1.211   1.655   9.125  0.1909 -1.4851  1.1024
 8026SOL    HW235715   1.083   1.689   9.067 -0.0370 -0.4607 -0.2939
 8027SOL     OW35716   0.404   0.277  14.060  0.3092 -0.3448 -0.0412
 8027SOL    HW135717   0.472   0.277  14.128 -0.0619 -0.9237  0.3309
 8027SOL    HW235718   0.452   0.226  13.995 -1.5056 -1.7289 -0.2825
 8028SOL     OW35719   0.448   3.168   1.935  0.5873  0.0253  0.0567
 8028SOL    HW135720   0.465   3.217   2.016  3.4545  1.9526 -1.7498
 8028SOL    HW235721   0.378   3.226   1.906  1.4671  0.6269 -0.8760
 8029SOL     OW35722   0.450   3.419   4.788  0.0883 -0.1672 -0.8050
 8029SOL    HW135723   0.357   3.438   4.783  0.0076 -0.3498 -0.0048
 8029SOL    HW235724   0.468   3.339   4.739 -0.5468 -1.2907  0.7866
 8030SOL     OW35725   2.477   2.753   7.363  1.0981  0.2916 -0.8050
 8030SOL    HW135726   2.567   2.775   7.336  1.0883 -1.2018 -2.1140
 8030SOL    HW235727   2.493   2.721   7.451  0.7178 -0.0160 -0.8497
 8031SOL     OW35728   0.994   1.886  17.613 -0.1852  0.1339 -0.6082
 8031SOL    HW135729   0.947   1.868  17.695  1.4446  0.0993  0.3041
 8031SOL    HW235730   1.081   1.899  17.649 -0.6761  0.7235  0.3642
 8032SOL     OW35731   2.216   3.093  15.862 -0.1551 -1.1579  0.3548
 8032SOL    HW135732   2.289   3.147  15.833 -0.7163 -0.5622  0.0660
 8032SOL    HW235733   2.206   3.036  15.785 -0.1347  1.9235 -1.9264
 8033SOL     OW35734   3.503   3.988   8.492  0.1501  0.2686 -0.0393
 8033SOL    HW135735   3.546   4.005   8.576 -0.7658 -3.8189  1.2349
 8033SOL    HW235736   3.580   3.991   8.435  1.5624  1.5572  1.9029
 8034SOL     OW35737   1.607   2.132   7.255  0.1214  0.1269  0.3017
 8034SOL    HW135738   1.539   2.065   7.247  1.7437 -1.2775 -2.0484
 8034SOL    HW235739   1.581   2.197   7.190  1.1452  1.8797  1.6400
 8035SOL     OW35740   0.381   2.321   8.190 -0.4296 -0.0866 -0.0878
 8035SOL    HW135741   0.374   2.226   8.202 -1.0146 -0.0760 -0.3317
 8035SOL    HW235742   0.381   2.321   8.094  1.7020  1.3789 -0.0682
 8036SOL     OW35743   0.380   4.563  17.200  0.2149  0.6263  0.3335
 8036SOL    HW135744   0.395   4.603  17.286 -0.0170  0.1123  0.6188
 8036SOL    HW235745   0.328   4.624  17.149 -1.6621 -1.9087 -0.7862
 8037SOL     OW35746   2.061   3.668   4.618  0.0085  0.2553 -0.1880
 8037SOL    HW135747   2.033   3.591   4.570 -2.6806  1.0353  0.1136
 8037SOL    HW235748   2.144   3.637   4.655  1.3704  1.5188 -2.2094
 8038SOL     OW35749   0.199   2.571   1.069  0.0537  0.1404 -0.1945
 8038SOL    HW135750   0.154   2.489   1.049  0.0590  0.1638 -0.3051
 8038SOL    HW235751   0.262   2.553   1.138  0.8192 -0.6909 -1.1072
 8039SOL     OW35752   0.349   2.686   4.471 -0.0333  0.5641 -0.1651
 8039SOL    HW135753   0.256   2.674   4.492 -0.1690  0.5504 -0.7903
 8039SOL    HW235754   0.347   2.693   4.376 -1.5638 -1.0712 -0.2678
 8040SOL     OW35755   1.294   4.539   2.101  0.0612  0.4841  0.3651
 8040SOL    HW135756   1.279   4.556   2.008 -0.2167  1.8947  0.6585
 8040SOL    HW235757   1.282   4.629   2.133 -2.6320  0.3185 -0.1610
 8041SOL     OW35758   1.540   0.496   1.776  0.0228  0.3936 -0.1893
 8041SOL    HW135759   1.556   0.454   1.691 -0.3242  0.2878 -0.2001
 8041SOL    HW235760   1.628   0.531   1.791  0.0909  0.8878 -1.7373
 8042SOL     OW35761   0.788   4.713   5.724  0.0529 -0.3848 -0.4213
 8042SOL    HW135762   0.724   4.685   5.790 -0.1129  0.7560 -0.0949
 8042SOL    HW235763   0.870   4.707   5.773  0.1661 -0.5695 -0.6376
 8043SOL     OW35764   3.889   4.335   1.627 -0.1736 -0.4058 -0.5210
 8043SOL    HW135765   3.874   4.244   1.652  1.9312  0.0646  2.4903
 8043SOL    HW235766   3.976   4.308   1.595 -0.4303 -0.6177 -1.0438
 8044SOL     OW35767   0.414   2.476  10.407  0.4876 -0.0323 -0.5961
 8044SOL    HW135768   0.341   2.428  10.446  0.1531  0.3441 -0.7593
 8044SOL    HW235769   0.402   2.437  10.320 -1.8830 -2.0757  0.6472
 8045SOL     OW35770   1.941   4.373  14.656  0.2547 -0.4747  0.1662
 8045SOL    HW135771   1.915   4.385  14.564 -1.1393  1.2518  0.7726
 8045SOL    HW235772   1.901   4.452  14.693  1.2191 -0.5989  1.4707
 8046SOL     OW35773   0.576   2.504  13.278 -0.2933  0.1612 -0.1767
 8046SOL    HW135774   0.565   2.439  13.209 -2.1165 -0.6415  0.8868
 8046SOL    HW235775   0.587   2.442  13.350 -0.6280  0.5906  0.2452
 8047SOL     OW35776   3.862   1.707  14.068  0.4080  0.3783 -0.2147
 8047SOL    HW135777   3.907   1.667  14.142 -0.2687  1.2333  0.6488
 8047SOL    HW235778   3.874   1.800  14.087  2.8418 -0.0257  0.2328
 8048SOL     OW35779   4.255   3.524   7.529 -0.3893 -0.5687 -0.9505
 8048SOL    HW135780   4.233   3.462   7.599  2.0179  1.8523  1.9494
 8048SOL    HW235781   4.239   3.469   7.452  1.0790 -0.6883 -1.1689
 8049SOL     OW35782   0.269   0.741   1.989  0.1995  0.1087  0.1240
 8049SOL    HW135783   0.262   0.665   1.931  1.6165  0.1788 -0.1469
 8049SOL    HW235784   0.348   0.784   1.957  0.4297  0.3672  1.0646
 8050SOL     OW35785   3.302   3.644   3.143  0.1003  0.0971 -0.6543
 8050SOL    HW135786   3.284   3.552   3.164  0.8525 -0.3257 -1.8779
 8050SOL    HW235787   3.254   3.685   3.216 -0.3313 -0.1593 -0.7930
 8051SOL     OW35788   0.068   1.668   8.494 -0.4859  0.7835  0.1774
 8051SOL    HW135789   0.112   1.587   8.471  0.8740  1.5777 -0.0262
 8051SOL    HW235790   0.145   1.720   8.520  0.1071  0.8734 -1.7959
 8052SOL     OW35791   0.835   0.012   5.263 -0.4062 -0.4765 -0.2535
 8052SOL    HW135792   0.819   4.682   5.199  1.2604  0.3834 -1.6087
 8052SOL    HW235793   0.828   0.093   5.211 -1.1850 -0.6358 -0.3952
 8053SOL     OW35794   0.665   3.558   7.668 -0.7402 -0.2399 -0.0918
 8053SOL    HW135795   0.720   3.497   7.618 -1.2792 -0.4267 -0.4650
 8053SOL    HW235796   0.684   3.527   7.757  0.2574  0.8116  0.0561
 8054SOL     OW35797   3.176   0.693   8.187 -0.4602 -0.1527  0.0259
 8054SOL    HW135798   3.229   0.744   8.247  2.0176 -0.2191 -2.0943
 8054SOL    HW235799   3.128   0.754   8.132 -0.6173 -0.3759 -0.0877
 8055SOL     OW35800   4.051   2.139  12.393 -0.1203  0.1621 -0.3390
 8055SOL    HW135801   3.987   2.079  12.354  1.2109 -0.9794 -0.7631
 8055SOL    HW235802   4.030   2.221  12.348 -2.0402  0.8102  1.7335
 8056SOL     OW35803   3.532   2.922   8.081  0.3036  0.1865 -0.0594
 8056SOL    HW135804   3.612   2.931   8.029  0.0449  1.6742 -0.1973
 8056SOL    HW235805   3.537   3.013   8.110  0.3413 -0.1637  1.0228
 8057SOL     OW35806   4.416   1.736   9.291 -0.4305 -0.2264 -0.0792
 8057SOL    HW135807   4.384   1.647   9.305  0.7650 -0.5855  0.3108
 8057SOL    HW235808   4.494   1.713   9.241 -0.5246  1.8543 -1.2252
 8058SOL     OW35809   2.114   2.726  12.435 -0.4222 -0.3965  0.0644
 8058SOL    HW135810   2.083   2.769  12.355  1.0353  2.2958  0.9529
 8058SOL    HW235811   2.081   2.775  12.511  0.9686 -0.2992  0.6006
 8059SOL     OW35812   0.037   1.448  12.136  0.1112  0.0375  0.3728
 8059SOL    HW135813   0.072   1.402  12.060  0.0938  0.0189  0.3761
 8059SOL    HW235814   0.110   1.487  12.185 -0.1920  2.7832 -1.3545
 8060SOL     OW35815   0.764   2.763   6.272  0.3926 -0.6527 -0.9170
 8060SOL    HW135816   0.682   2.811   6.280 -0.2622 -2.0256  0.6334
 8060SOL    HW235817   0.741   2.672   6.290 -0.8504 -0.2461 -0.4811
 8061SOL     OW35818   0.414   3.349   7.943  0.6312 -0.1690  0.1016
 8061SOL    HW135819   0.396   3.425   7.998  2.0604  1.4363 -1.6868
 8061SOL    HW235820   0.507   3.369   7.933  0.4936  2.0018  3.2297
 8062SOL     OW35821   2.006   0.326   6.543  0.3740  0.7515 -0.7717
 8062SOL    HW135822   2.041   0.237   6.541  0.3024  0.6863  0.5744
 8062SOL    HW235823   2.054   0.356   6.621  1.2506  1.0607 -1.4231
 8063SOL     OW35824   2.705   2.584   4.180  0.4253  0.2214  0.2654
 8063SOL    HW135825   2.681   2.491   4.185  1.2098  0.0527  0.9480
 8063SOL    HW235826   2.746   2.583   4.093  0.2902 -0.7668  0.2096
 8064SOL     OW35827   1.001   2.596   7.576  0.1424  0.4018  0.0759
 8064SOL    HW135828   0.932   2.558   7.630 -0.8233  2.1664  0.0760
 8064SOL    HW235829   0.957   2.678   7.552  2.0367  1.9559  2.0000
 8065SOL     OW35830   2.018   1.692   8.001  0.1243 -0.3420  0.1877
 8065SOL    HW135831   2.017   1.757   7.932  2.0596  0.9833  1.4082
 8065SOL    HW235832   1.927   1.695   8.031  0.6605 -0.6235  1.8690
 8066SOL     OW35833   1.474   2.219   7.882  0.5679 -0.7502 -0.0036
 8066SOL    HW135834   1.409   2.202   7.951 -0.7513 -2.2540 -1.6198
 8066SOL    HW235835   1.436   2.159   7.818  1.2418 -0.0797 -1.0285
 8067SOL     OW35836   2.191   1.681   8.466 -0.2756  0.1890  0.1930
 8067SOL    HW135837   2.125   1.736   8.424 -2.7807 -1.9603  1.2972
 8067SOL    HW235838   2.194   1.615   8.397 -1.3505 -0.9734  1.2372
 8068SOL     OW35839   3.060   0.602   3.418  0.0269  0.0362 -0.1615
 8068SOL    HW135840   3.049   0.645   3.333  0.7080 -0.8302 -0.6909
 8068SOL    HW235841   3.081   0.674   3.478  0.2526  1.1258 -1.5391
 8069SOL     OW35842   3.548   1.752   2.529 -0.3486 -0.1919 -0.5649
 8069SOL    HW135843   3.627   1.699   2.520 -0.9653 -1.1625 -0.2695
 8069SOL    HW235844   3.545   1.765   2.624  0.5421 -1.5395 -0.3538
 8070SOL     OW35845   0.690   1.926   0.167  0.1220 -0.0518 -1.0931
 8070SOL    HW135846   0.703   2.005   0.219  2.0513 -1.4881  0.5966
 8070SOL    HW235847   0.682   1.971   0.083  3.0886  1.6269 -0.4563
 8071SOL     OW35848   0.265   3.239  10.533 -0.0431  0.4193  0.1556
 8071SOL    HW135849   0.221   3.156  10.515 -0.0049  0.4696 -0.1585
 8071SOL    HW235850   0.341   3.235  10.476  0.0392 -1.2131  0.3869
 8072SOL     OW35851   3.462   4.379   7.787 -0.5986  0.0131 -0.0422
 8072SOL    HW135852   3.550   4.351   7.762 -1.4758 -1.5756 -1.3369
 8072SOL    HW235853   3.443   4.314   7.854 -0.4521 -1.2376 -1.2040
 8073SOL     OW35854   0.899   1.358  16.248  0.3801 -0.3899 -0.2118
 8073SOL    HW135855   0.867   1.402  16.169 -0.6696  0.1166  0.5047
 8073SOL    HW235856   0.888   1.265  16.228 -2.0076  0.0333 -0.9289
 8074SOL     OW35857   1.045   0.051   5.933 -0.0041  0.1691  0.0071
 8074SOL    HW135858   0.996   0.130   5.955  1.3369  0.9591  0.2066
 8074SOL    HW235859   1.081   0.069   5.846  1.1027  1.0985  0.6584
 8075SOL     OW35860   0.085   3.934   7.585 -0.3537 -0.1399  0.0515
 8075SOL    HW135861   0.062   3.898   7.671  2.7437  0.3350  1.0830
 8075SOL    HW235862   0.120   4.018   7.614 -3.6777  0.3485  2.6597
 8076SOL     OW35863   3.152   2.555   3.032 -1.2786  0.2971 -0.0170
 8076SOL    HW135864   3.154   2.472   3.080 -0.5905  0.4517  0.2265
 8076SOL    HW235865   3.145   2.523   2.942 -0.8909 -0.8304  0.3478
 8077SOL     OW35866   1.675   2.973   1.815  0.5155 -0.1049  0.1706
 8077SOL    HW135867   1.726   2.936   1.887  3.3064  1.3219 -1.0529
 8077SOL    HW235868   1.628   2.892   1.796 -0.1814  0.6442 -1.2570
 8078SOL     OW35869   1.622   0.455   2.101 -0.3428  0.4209 -0.0828
 8078SOL    HW135870   1.706   0.419   2.071 -0.3932  0.3693 -0.1634
 8078SOL    HW235871   1.566   0.411   2.038  1.2666 -2.0167  0.1840
 8079SOL     OW35872   3.690   4.011   9.129 -0.0890  0.0652  0.6435
 8079SOL    HW135873   3.601   4.012   9.165 -0.8282  1.2459 -1.1994
 8079SOL    HW235874   3.740   3.985   9.206 -0.0290 -0.1809  0.5204
 8080SOL     OW35875   3.820   2.606  11.792  0.1894  0.0553  0.0902
 8080SOL    HW135876   3.821   2.699  11.811  0.8917 -0.1126  0.8411
 8080SOL    HW235877   3.879   2.566  11.856  2.9399  1.3877 -1.6117
 8081SOL     OW35878   0.202   1.884   3.305  0.1753  0.3288 -0.3728
 8081SOL    HW135879   0.265   1.848   3.243  0.6329 -0.7449  0.6953
 8081SOL    HW235880   0.188   1.966   3.259  1.7326 -0.1493 -1.6765
 8082SOL     OW35881   4.356   0.784   2.302  0.1033  0.4910  0.0138
 8082SOL    HW135882   4.422   0.829   2.354 -0.6456 -0.2315  1.5892
 8082SOL    HW235883   4.279   0.838   2.317 -1.6076 -1.5900 -1.2885
 8083SOL     OW35884   4.735   0.280   8.289 -0.0835 -0.2508 -0.1557
 8083SOL    HW135885   0.000   0.366   8.247  1.1949  0.9106  2.3135
 8083SOL    HW235886   0.054   0.235   8.227  0.7568  1.6486 -0.7674
 8084SOL     OW35887   3.946   3.939   0.651 -0.8414 -0.2045  0.4254
 8084SOL    HW135888   3.908   3.987   0.577 -0.3781  2.6725  2.0522
 8084SOL    HW235889   3.891   3.861   0.652 -0.2217 -0.6539 -0.0244
 8085SOL     OW35890   0.414   2.806  12.603  0.0434  0.0328  0.3378
 8085SOL    HW135891   0.500   2.830  12.567  0.4634 -3.5671 -1.0716
 8085SOL    HW235892   0.428   2.733  12.663  0.7558  0.0518  0.2028
 8086SOL     OW35893   1.015   1.393   7.157 -0.1724  0.3501  0.3411
 8086SOL    HW135894   1.040   1.357   7.072  0.6575 -1.3048  1.2758
 8086SOL    HW235895   1.030   1.314   7.208 -2.4060 -0.0738  0.3342
 8087SOL     OW35896   2.624   0.648   3.741 -0.1268  0.1780  0.1665
 8087SOL    HW135897   2.626   0.605   3.826  1.1262 -0.5099 -0.2103
 8087SOL    HW235898   2.708   0.625   3.702 -0.0353  0.5658  0.1329
 8088SOL     OW35899   3.545   0.083  14.975 -0.4486 -0.1400  0.2688
 8088SOL    HW135900   3.479   0.110  15.038  1.2317  3.4903  0.4698
 8088SOL    HW235901   3.502   0.006  14.938  0.7698 -1.1093  0.8599
 8089SOL     OW35902   3.449   4.045   5.715 -0.2015 -0.1434 -0.1503
 8089SOL    HW135903   3.385   4.114   5.732  0.3233  0.7678 -1.8305
 8089SOL    HW235904   3.531   4.085   5.742 -1.1977  0.2032  2.3228
 8090SOL     OW35905   1.578   3.090  10.685  0.6489 -0.5708  0.0498
 8090SOL    HW135906   1.664   3.079  10.726  0.9689  0.0125 -0.4669
 8090SOL    HW235907   1.541   3.163  10.734  2.3814  1.1193 -1.1611
 8091SOL     OW35908   1.851   1.902   8.625  0.4996 -0.0299 -0.9983
 8091SOL    HW135909   1.899   1.930   8.547 -1.2047  2.3265 -1.1880
 8091SOL    HW235910   1.766   1.945   8.627  1.3005  1.4759  1.6764
 8092SOL     OW35911   2.646   2.494  13.065 -0.0308  0.5963 -0.4386
 8092SOL    HW135912   2.558   2.532  13.058 -0.6530 -0.6608  0.4506
 8092SOL    HW235913   2.620   2.404  13.086 -1.2907  1.0478 -0.0643
 8093SOL     OW35914   2.410   0.285   5.498  0.4083  0.1810  0.2390
 8093SOL    HW135915   2.460   0.290   5.417 -1.0984  0.1694 -0.6936
 8093SOL    HW235916   2.442   0.353   5.557 -1.6680  1.4423 -0.0871
 8094SOL     OW35917   0.727   4.159   9.552  0.5715 -0.0715  0.3413
 8094SOL    HW135918   0.752   4.232   9.609  0.3142  0.5110 -0.2984
 8094SOL    HW235919   0.810   4.113   9.554 -0.0756 -1.2082  1.5906
 8095SOL     OW35920   2.300   4.114   1.247 -0.5235  0.0328  0.7214
 8095SOL    HW135921   2.379   4.160   1.220 -0.0510 -2.7000 -2.5651
 8095SOL    HW235922   2.314   4.028   1.206 -0.8417  0.2079  0.2498
 8096SOL     OW35923   0.667   3.460   0.390  0.1341  0.0175  0.0650
 8096SOL    HW135924   0.659   3.395   0.319  1.1404  0.0943 -0.1197
 8096SOL    HW235925   0.649   3.543   0.347  1.1134  1.2021  1.9839
 8097SOL     OW35926   3.119   4.727   6.405 -0.2305 -0.0652 -0.3603
 8097SOL    HW135927   3.120   0.019   6.315 -1.4364  2.6845  0.5663
 8097SOL    HW235928   3.026   4.736   6.426 -0.1871 -1.5116  0.4535
 8098SOL     OW35929   3.498   0.375   6.584  0.8268  0.1449  0.3960
 8098SOL    HW135930   3.412   0.344   6.558  1.9471 -2.7044  0.0728
 8098SOL    HW235931   3.497   0.415   6.671 -0.6601  0.1664  0.3684
 8099SOL     OW35932   0.458   4.539   4.631  0.2389 -0.4692  0.0058
 8099SOL    HW135933   0.500   4.523   4.547 -1.2320  0.0157 -0.8141
 8099SOL    HW235934   0.402   4.462   4.644  0.6668 -0.5442  1.3896
 8100SOL     OW35935   3.515   4.030   2.747 -0.3907  0.0852  0.5548
 8100SOL    HW135936   3.458   3.988   2.682  0.2051  0.8869 -0.4934
 8100SOL    HW235937   3.524   4.118   2.708  0.4329 -1.2000 -2.1434
 8101SOL     OW35938   0.758   0.744   7.553  0.0311 -0.0449  0.1828
 8101SOL    HW135939   0.793   0.826   7.588  0.4530  1.0354 -2.8479
 8101SOL    HW235940   0.692   0.773   7.491 -1.5723 -0.6785  1.5703
 8102SOL     OW35941   4.286   1.703   3.642  0.5331  0.0882  0.0381
 8102SOL    HW135942   4.271   1.705   3.737 -1.9223  1.0416 -0.3694
 8102SOL    HW235943   4.345   1.628   3.633 -0.4449 -0.8558  1.4503
 8103SOL     OW35944   1.225   1.326   2.737 -0.0314 -0.6805 -0.2776
 8103SOL    HW135945   1.183   1.412   2.742  0.6993 -0.4214  1.5331
 8103SOL    HW235946   1.218   1.309   2.644 -0.4433  1.5758 -0.6602
 8104SOL     OW35947   1.119   1.202  16.079  0.2638 -0.2221 -0.4884
 8104SOL    HW135948   1.029   1.172  16.088  0.2212 -0.1329 -0.6255
 8104SOL    HW235949   1.138   1.215  16.172 -2.0650  1.5950 -0.2918
 8105SOL     OW35950   1.801   3.026  10.792  0.1923  0.2237  0.4473
 8105SOL    HW135951   1.805   3.076  10.873 -2.5066  2.2453 -0.6732
 8105SOL    HW235952   1.848   2.944  10.808  0.6263 -0.1043 -2.5889
 8106SOL     OW35953   3.584   4.290  11.747  0.3620  0.2659 -0.4560
 8106SOL    HW135954   3.655   4.355  11.751  1.1771 -0.7510  1.6931
 8106SOL    HW235955   3.633   4.208  11.750  0.8773  0.6215  1.5425
 8107SOL     OW35956   3.264   2.393   4.702  0.0320  0.1081 -0.3467
 8107SOL    HW135957   3.347   2.425   4.738 -0.1951  1.6936 -1.2410
 8107SOL    HW235958   3.277   2.298   4.709  0.1742  0.2830  1.6808
 8108SOL     OW35959   2.933   1.107   0.186  0.0708  0.2051 -0.3064
 8108SOL    HW135960   2.931   1.082   0.094  2.7716  1.6689 -0.7822
 8108SOL    HW235961   2.884   1.188   0.180 -0.2044  0.1735  1.6169
 8109SOL     OW35962   4.428   1.192  12.362 -0.3352 -0.3347  0.3670
 8109SOL    HW135963   4.399   1.281  12.380  0.5724  0.2096 -0.8635
 8109SOL    HW235964   4.522   1.208  12.350 -0.2555 -1.0162  0.0711
 8110SOL     OW35965   4.432   0.290   6.399  0.2963 -0.3988 -0.0557
 8110SOL    HW135966   4.487   0.366   6.383  0.4813 -0.5755 -0.2643
 8110SOL    HW235967   4.371   0.324   6.464 -0.1136 -3.8325  1.3440
 8111SOL     OW35968   3.210   0.452   1.121  0.1040 -0.2946 -0.2784
 8111SOL    HW135969   3.186   0.491   1.205 -0.7943  0.0467 -0.6946
 8111SOL    HW235970   3.149   0.378   1.126 -0.1103 -0.1065 -0.1562
 8112SOL     OW35971   3.761   1.506  11.622 -0.0048 -0.1541  0.2823
 8112SOL    HW135972   3.671   1.480  11.640 -0.1193  0.7414  0.9874
 8112SOL    HW235973   3.751   1.601  11.613  1.9372 -0.0515 -0.9819
 8113SOL     OW35974   2.751   3.113   9.008 -0.4826  0.4413  0.2201
 8113SOL    HW135975   2.708   3.197   9.027  0.5873  0.7867  1.1242
 8113SOL    HW235976   2.748   3.118   8.912  0.9893 -0.8789  0.1018
 8114SOL     OW35977   0.995   2.603   1.475 -0.3330  0.5848  0.4625
 8114SOL    HW135978   0.911   2.556   1.476  0.5468 -1.0100 -0.8041
 8114SOL    HW235979   0.993   2.619   1.570  1.4030 -1.4582  0.8352
 8115SOL     OW35980   0.879   3.904   3.838 -0.7706  0.0450 -0.3294
 8115SOL    HW135981   0.876   3.999   3.848 -2.4195 -0.2286  1.8293
 8115SOL    HW235982   0.887   3.874   3.929 -0.1237  1.3097  0.0201
 8116SOL     OW35983   1.966   4.715  11.104  0.4153  0.4478  0.3006
 8116SOL    HW135984   1.984   0.003  11.014  1.5758  1.1645  0.7383
 8116SOL    HW235985   1.967   0.062  11.147 -2.9762  0.8680 -0.4857
 8117SOL     OW35986   4.227   1.254   8.755  0.8753  0.3818 -0.0114
 8117SOL    HW135987   4.297   1.215   8.808  0.1780 -1.1485 -0.2284
 8117SOL    HW235988   4.178   1.176   8.729 -1.5052  1.9447 -0.1954
 8118SOL     OW35989   2.596   0.926   3.723 -0.5449 -0.0556  0.0315
 8118SOL    HW135990   2.530   0.952   3.658  0.7277  2.0992 -0.4148
 8118SOL    HW235991   2.614   0.836   3.695 -2.5602 -0.6339  0.6283
 8119SOL     OW35992   4.116   0.469   1.188 -0.0400  0.1968 -0.0290
 8119SOL    HW135993   4.132   0.375   1.183 -1.6976 -0.0139 -1.4153
 8119SOL    HW235994   4.194   0.510   1.226 -0.4239  0.2516  0.7162
 8120SOL     OW35995   0.926   2.572   5.469 -0.0723  0.5385  0.2602
 8120SOL    HW135996   1.003   2.525   5.502 -0.6855 -1.1341 -0.7150
 8120SOL    HW235997   0.956   2.625   5.395 -0.6799  0.5661  0.0292
 8121SOL     OW35998   1.626   2.778   2.310  0.2227 -0.9081 -0.0827
 8121SOL    HW135999   1.595   2.690   2.332  0.9026 -0.5281  2.4406
 8121SOL    HW236000   1.545   2.820   2.282  1.4410  1.4534 -0.0766
 8122SOL     OW36001   4.686   3.431  16.978 -0.0312  0.0384  0.0302
 8122SOL    HW136002   0.028   3.433  17.029  0.5827 -2.2017 -0.8569
 8122SOL    HW236003   4.657   3.522  16.973  0.7557  0.3731  1.5501
 8123SOL     OW36004   3.619   2.439   9.360 -0.3655 -0.0453  0.4575
 8123SOL    HW136005   3.621   2.425   9.266  2.0305  1.9294  0.2023
 8123SOL    HW236006   3.596   2.532   9.360  1.0925  0.3163 -0.4627
 8124SOL     OW36007   0.645   3.172   4.668  0.0117  1.0215 -0.0695
 8124SOL    HW136008   0.724   3.185   4.617 -0.2384 -0.0492 -0.7214
 8124SOL    HW236009   0.639   3.080   4.642 -1.7134  1.3775 -0.9355
 8125SOL     OW36010   0.762   1.581   8.676  0.1515 -0.3565 -0.1896
 8125SOL    HW136011   0.783   1.671   8.650 -1.4084  0.6395  1.9815
 8125SOL    HW236012   0.739   1.590   8.768 -0.1796  0.2659 -0.3368
 8126SOL     OW36013   1.323   2.087  17.416  0.2659  0.0218 -0.3021
 8126SOL    HW136014   1.412   2.061  17.440 -0.0869  0.0794  1.0371
 8126SOL    HW236015   1.304   2.006  17.368 -1.7108 -1.4131  2.9026
 8127SOL     OW36016   4.159   1.831  12.418 -0.1207  0.3911 -0.6098
 8127SOL    HW136017   4.216   1.908  12.426  1.0821 -0.4442 -1.0255
 8127SOL    HW236018   4.101   1.854  12.346  0.2915 -1.7919 -1.6515
 8128SOL     OW36019   4.468   1.738   4.444  0.2828 -0.3183 -0.2365
 8128SOL    HW136020   4.539   1.706   4.389  1.5214  0.5571  0.8542
 8128SOL    HW236021   4.400   1.671   4.434  1.9323 -1.9807 -0.1358
 8129SOL     OW36022   1.413   4.228   4.065  0.3143  0.9474 -0.4089
 8129SOL    HW136023   1.462   4.206   4.144 -1.8413 -0.6958  0.4701
 8129SOL    HW236024   1.466   4.299   4.030  0.3185  0.1359 -2.0619
 8130SOL     OW36025   2.163   0.588   5.659  0.1974 -0.2189  0.0447
 8130SOL    HW136026   2.228   0.576   5.591  0.6593  1.9996  0.1062
 8130SOL    HW236027   2.219   0.574   5.735  1.3922 -1.5524 -1.1023
 8131SOL     OW36028   1.949   2.837  15.528  0.4350  0.1618  0.5340
 8131SOL    HW136029   2.037   2.821  15.564 -0.9389 -2.1191  2.8456
 8131SOL    HW236030   1.929   2.919  15.573  1.2900  0.3306  0.6166
 8132SOL     OW36031   2.484   4.188   4.320 -0.4646 -0.0166  0.3181
 8132SOL    HW136032   2.439   4.194   4.404  2.3418 -2.4613  1.9688
 8132SOL    HW236033   2.473   4.097   4.293  0.2524 -0.1465  0.4747
 8133SOL     OW36034   2.610   0.110  12.125 -0.4231 -0.7136 -0.7732
 8133SOL    HW136035   2.676   0.091  12.059 -1.7010  0.6573 -2.4514
 8133SOL    HW236036   2.549   0.162  12.072 -0.0431 -0.4304 -0.9312
 8134SOL     OW36037   1.496   0.075   7.814  0.0383 -0.3367 -0.5069
 8134SOL    HW136038   1.438   0.143   7.781 -1.0563 -1.9214 -1.8459
 8134SOL    HW236039   1.538   0.038   7.736  2.2958  3.2135 -0.9516
 8135SOL     OW36040   4.333   4.063   8.341 -0.5450 -0.1098 -0.1485
 8135SOL    HW136041   4.339   4.138   8.400  0.6427  0.1100 -0.5455
 8135SOL    HW236042   4.241   4.037   8.352 -0.1801 -1.4830 -0.3649
 8136SOL     OW36043   3.136   0.903   8.766  0.2765 -0.2454 -0.0920
 8136SOL    HW136044   3.135   0.877   8.859 -0.3963 -0.8428 -0.2624
 8136SOL    HW236045   3.210   0.964   8.772 -0.1602  0.0269  2.8946
 8137SOL     OW36046   0.004   1.975   2.582 -0.4454 -0.2444 -0.9110
 8137SOL    HW136047   4.708   1.896   2.542  1.0591 -0.8515 -1.0122
 8137SOL    HW236048   0.085   1.982   2.531 -0.4674 -0.0690 -0.9224
 8138SOL     OW36049   0.286   1.482   3.292 -0.0890  0.2769 -0.1875
 8138SOL    HW136050   0.325   1.569   3.293  1.4813 -0.4142 -0.7020
 8138SOL    HW236051   0.194   1.495   3.314  0.0317 -2.0652  1.7203
 8139SOL     OW36052   4.551   2.813   4.064  0.2625  0.0647  0.1793
 8139SOL    HW136053   4.459   2.806   4.037  0.1608  1.4302  0.2060
 8139SOL    HW236054   4.549   2.806   4.160 -0.5933 -1.2389  0.0708
 8140SOL     OW36055   4.719   0.824   4.307 -0.7412 -0.6242 -0.2617
 8140SOL    HW136056   0.043   0.771   4.259 -1.0986 -0.7912 -0.5399
 8140SOL    HW236057   4.718   0.780   4.392  3.6529 -3.4439 -1.6620
 8141SOL     OW36058   0.648   1.052   8.279  0.9055 -0.2062  0.2005
 8141SOL    HW136059   0.599   0.980   8.238  0.7164  0.7416 -1.2299
 8141SOL    HW236060   0.699   1.086   8.207  2.4136  1.4382  2.0437
 8142SOL     OW36061   0.564   1.106  10.080  0.0329  0.0135  0.1076
 8142SOL    HW136062   0.503   1.074  10.146  1.3470  0.0204  1.3114
 8142SOL    HW236063   0.617   1.159  10.139  2.5414 -2.2774 -0.0684
 8143SOL     OW36064   0.631   0.881   2.479 -0.4314  0.4365  0.5510
 8143SOL    HW136065   0.644   0.863   2.572 -0.3135  3.0967  1.0637
 8143SOL    HW236066   0.596   0.797   2.449 -0.8135 -0.3902  3.2848
 8144SOL     OW36067   0.130   1.594   2.716  0.1799 -0.4380 -0.3695
 8144SOL    HW136068   0.192   1.546   2.662 -0.1962  1.3647 -2.3677
 8144SOL    HW236069   0.136   1.540   2.795 -0.8692  0.7799  0.5585
 8145SOL     OW36070   2.188   0.599   2.987  0.4161 -0.3804  0.0590
 8145SOL    HW136071   2.238   0.677   3.012 -1.9533  1.6483 -1.5703
 8145SOL    HW236072   2.104   0.624   3.026  0.2799 -0.0901 -0.4152
 8146SOL     OW36073   2.011   3.675   3.414 -0.2109 -0.0420  0.3835
 8146SOL    HW136074   1.949   3.627   3.469 -0.8769  1.0141  0.5710
 8146SOL    HW236075   1.949   3.730   3.367 -0.9601 -1.2800 -0.0549
 8147SOL     OW36076   2.186   4.625   7.743  0.4039  0.1995  0.2575
 8147SOL    HW136077   2.112   4.565   7.744 -0.1991  0.9414  0.0379
 8147SOL    HW236078   2.211   4.637   7.651  1.5847 -1.0175  0.4200
 8148SOL     OW36079   3.306   0.370  14.288 -0.2827 -0.0997 -0.0973
 8148SOL    HW136080   3.390   0.359  14.332 -1.2502  0.8603  1.9883
 8148SOL    HW236081   3.253   0.334  14.359 -0.7113  0.3229 -0.2044
 8149SOL     OW36082   0.884   1.466   4.486 -0.3065 -0.1661 -0.0133
 8149SOL    HW136083   0.970   1.456   4.446 -0.5211  1.4145 -0.8596
 8149SOL    HW236084   0.829   1.397   4.450  0.5521 -1.5877  1.3994
 8150SOL     OW36085   4.215   2.773   6.578 -0.6362 -0.0133  0.8691
 8150SOL    HW136086   4.166   2.693   6.594 -1.8273  0.8514  1.5625
 8150SOL    HW236087   4.173   2.800   6.496  0.6731 -1.9285 -0.4367
 8151SOL     OW36088   0.085   4.008  16.815  0.3189 -0.2865  0.1654
 8151SOL    HW136089   4.729   4.012  16.823  0.4084  0.2735  0.9974
 8151SOL    HW236090   0.095   4.100  16.839  1.3963  0.1537 -1.9985
 8152SOL     OW36091   1.700   1.631   8.489 -0.3952 -0.1931  0.3238
 8152SOL    HW136092   1.688   1.558   8.429  1.3513 -0.0138 -0.2421
 8152SOL    HW236093   1.777   1.677   8.457  0.5632  0.1167  3.0219
 8153SOL     OW36094   0.593   4.130   3.152 -0.1276  0.0158 -0.2813
 8153SOL    HW136095   0.671   4.135   3.207  0.0325 -0.7420 -0.4443
 8153SOL    HW236096   0.622   4.068   3.086  0.9892  0.7801 -0.5041
 8154SOL     OW36097   0.435   4.155   1.390 -0.2092 -0.1091  0.0846
 8154SOL    HW136098   0.395   4.124   1.472 -0.4223  0.5145  0.2194
 8154SOL    HW236099   0.355   4.177   1.343  1.0338  2.2260 -0.9817
 8155SOL     OW36100   3.529   4.363   9.625  0.0506 -0.0162  0.2259
 8155SOL    HW136101   3.562   4.303   9.692 -0.5853 -2.2236 -1.4078
 8155SOL    HW236102   3.503   4.438   9.677  2.7698 -1.1326  3.1629
 8156SOL     OW36103   1.602   3.540   0.254  0.2970  0.3135  0.2595
 8156SOL    HW136104   1.580   3.569   0.342  2.8198 -1.9632  1.6113
 8156SOL    HW236105   1.523   3.524   0.203  0.0463  2.5670 -0.0632
 8157SOL     OW36106   2.318   2.328   1.836 -0.2249 -0.0639 -0.0882
 8157SOL    HW136107   2.351   2.246   1.872 -1.3926 -0.0911  0.9008
 8157SOL    HW236108   2.297   2.323   1.742 -0.7306  1.3627 -0.0485
 8158SOL     OW36109   3.742   3.630   0.300 -0.2009  0.1344  0.0227
 8158SOL    HW136110   3.819   3.602   0.249  0.6870  0.5772  1.1159
 8158SOL    HW236111   3.681   3.641   0.227 -0.0594  1.0028  0.0411
 8159SOL     OW36112   3.052   1.417   7.612  0.2995 -0.2704  0.0879
 8159SOL    HW136113   2.981   1.437   7.673 -0.8301  1.9348 -1.9535
 8159SOL    HW236114   3.017   1.345   7.561  2.4394 -1.4144  0.2403
 8160SOL     OW36115   0.373   3.128  15.762 -0.4571  0.0108  0.4531
 8160SOL    HW136116   0.301   3.115  15.823  1.1466 -0.2437  2.2785
 8160SOL    HW236117   0.397   3.220  15.778 -1.2326  0.3968 -0.5612
 8161SOL     OW36118   0.279   0.775  12.701 -0.4565 -0.0908 -0.1486
 8161SOL    HW136119   0.257   0.723  12.778 -4.3954  0.0832 -1.1394
 8161SOL    HW236120   0.285   0.869  12.721 -1.2988  0.1033 -0.8174
 8162SOL     OW36121   2.678   1.688   6.032 -0.0834 -0.1788  0.1269
 8162SOL    HW136122   2.740   1.724   6.096 -0.8223 -0.8793  1.2456
 8162SOL    HW236123   2.606   1.659   6.089  0.6402 -1.1748  0.5287
 8163SOL     OW36124   2.005   2.223   3.552 -0.1785  0.6708  0.5245
 8163SOL    HW136125   2.041   2.225   3.641  1.4467  1.4988 -0.1631
 8163SOL    HW236126   1.930   2.282   3.557  1.4014  2.4637  3.2722
 8164SOL     OW36127   4.578   2.645   6.992 -0.4429  0.1949 -0.5792
 8164SOL    HW136128   4.535   2.684   7.068  0.4254  0.7840 -0.3847
 8164SOL    HW236129   4.506   2.594   6.955 -0.7782  0.3620 -0.1525
 8165SOL     OW36130   2.546   0.336   5.267 -0.3579  0.0125  0.6191
 8165SOL    HW136131   2.624   0.340   5.211  0.3866 -1.8121  1.5316
 8165SOL    HW236132   2.490   0.291   5.204  2.1322 -1.7955 -0.3182
 8166SOL     OW36133   3.474   0.016  15.286  0.4311  0.0634  0.6064
 8166SOL    HW136134   3.401   0.062  15.328 -0.3501  0.4060 -1.1334
 8166SOL    HW236135   3.532   0.089  15.267  0.8111 -0.3113  0.3135
 8167SOL     OW36136   1.504   2.544   2.547 -0.2008  0.3535 -0.2004
 8167SOL    HW136137   1.534   2.524   2.458 -2.6617 -0.7828 -0.7913
 8167SOL    HW236138   1.557   2.485   2.600 -0.2396 -0.5931 -1.2007
 8168SOL     OW36139   1.163   0.605   3.108 -0.1610  0.2398 -1.1280
 8168SOL    HW136140   1.180   0.699   3.115  2.9115 -0.5751  2.3598
 8168SOL    HW236141   1.205   0.570   3.187 -0.2065  1.9276 -0.3691
 8169SOL     OW36142   4.197   3.459   8.993  0.2046 -0.1565 -0.1239
 8169SOL    HW136143   4.201   3.433   9.085  0.2961 -1.3489 -0.4669
 8169SOL    HW236144   4.278   3.416   8.965 -0.1737 -0.7872 -0.2563
 8170SOL     OW36145   0.622   2.132   7.179  0.0428 -0.6475  0.0228
 8170SOL    HW136146   0.681   2.155   7.251  1.3084  1.3280 -1.6466
 8170SOL    HW236147   0.683   2.092   7.117  0.1715  0.9397 -0.8670
 8171SOL     OW36148   3.055   3.346  17.380 -0.0466 -0.2846 -0.7664
 8171SOL    HW136149   3.124   3.281  17.368  1.6993  0.8569  3.1271
 8171SOL    HW236150   3.070   3.384  17.467 -0.0216 -0.5565 -0.6520
 8172SOL     OW36151   1.082   4.376   2.140  0.3597  0.7061 -0.2743
 8172SOL    HW136152   1.164   4.423   2.128 -0.1339  1.6200 -0.0325
 8172SOL    HW236153   1.025   4.408   2.070  0.2604 -1.4845 -1.2031
 8173SOL     OW36154   0.318   0.059   2.913 -0.1393 -0.3375  0.3784
 8173SOL    HW136155   0.272   0.051   2.996  0.9015  1.0002  1.0821
 8173SOL    HW236156   0.249   0.042   2.848 -0.3239  0.1092  0.4548
 8174SOL     OW36157   1.948   1.724   6.358 -0.2759  0.3665  0.1242
 8174SOL    HW136158   1.951   1.798   6.418  2.2733 -0.1591  0.6588
 8174SOL    HW236159   1.854   1.707   6.352  0.2051 -1.3526 -2.8273
 8175SOL     OW36160   2.147   1.024   6.143 -0.1745 -0.6896 -0.7869
 8175SOL    HW136161   2.098   1.056   6.219  0.0398 -0.6558 -0.6641
 8175SOL    HW236162   2.090   0.953   6.114 -1.7629 -0.6091  2.1202
 8176SOL     OW36163   1.438   3.437  10.555  0.2406  0.8205 -0.2645
 8176SOL    HW136164   1.460   3.414  10.645  1.4985  1.1174 -0.4905
 8176SOL    HW236165   1.523   3.469  10.524  0.5402 -1.2292 -1.6247
 8177SOL     OW36166   2.974   0.407   3.997  0.0914  0.0753 -0.5802
 8177SOL    HW136167   2.999   0.321   3.962  0.8070  0.2590 -0.5238
 8177SOL    HW236168   2.948   0.396   4.088  0.8222  0.7635 -0.2833
 8178SOL     OW36169   2.091   1.307   7.067  0.2159  0.2581 -0.8259
 8178SOL    HW136170   2.051   1.307   7.155  2.6963  0.0120  0.2998
 8178SOL    HW236171   2.013   1.323   7.013  0.6168  0.5809 -1.3091
 8179SOL     OW36172   1.559   2.370   4.800 -0.2766 -0.5133  0.5056
 8179SOL    HW136173   1.556   2.322   4.717 -1.1236 -2.2803  1.5285
 8179SOL    HW236174   1.636   2.333   4.842  1.9904  2.2973 -1.2560
 8180SOL     OW36175   0.616   0.757   2.738 -0.4340 -0.1878 -0.1877
 8180SOL    HW136176   0.553   0.814   2.783 -0.0414  0.3273 -0.2856
 8180SOL    HW236177   0.611   0.686   2.802 -0.0235  0.4634  0.5727
 8181SOL     OW36178   3.774   4.156  11.207  0.0190 -0.0646 -0.2712
 8181SOL    HW136179   3.833   4.230  11.218  0.5468 -0.6276  0.6461
 8181SOL    HW236180   3.803   4.098  11.137  0.9408 -0.6679  0.6201
 8182SOL     OW36181   4.592   1.160   1.763  0.1238  0.0131 -0.0717
 8182SOL    HW136182   4.527   1.091   1.771 -0.8969  1.2033  1.7775
 8182SOL    HW236183   4.588   1.205   1.847 -1.6212 -0.7293  0.2361
 8183SOL     OW36184   0.161   0.340   8.509 -0.0271 -0.4613 -0.1812
 8183SOL    HW136185   0.110   0.285   8.448 -1.9122  1.4083 -0.2854
 8183SOL    HW236186   0.117   0.314   8.590  0.7599 -2.2525 -0.3089
 8184SOL     OW36187   2.156   1.640   5.425 -0.0104 -0.4217 -0.0672
 8184SOL    HW136188   2.245   1.675   5.418 -0.2112  0.1121  0.1143
 8184SOL    HW236189   2.166   1.544   5.424 -0.3647 -0.4638  0.9011
 8185SOL     OW36190   1.658   0.027   5.559 -0.2345 -0.0448  0.0084
 8185SOL    HW136191   1.581   0.059   5.607  0.1987  2.4799 -1.0092
 8185SOL    HW236192   1.673   0.097   5.496 -0.5220  0.7423  0.8054
 8186SOL     OW36193   2.862   0.871   4.333  0.0442 -0.6046  0.3258
 8186SOL    HW136194   2.810   0.945   4.302  0.1681 -0.0689  1.4207
 8186SOL    HW236195   2.904   0.854   4.248 -0.5561  1.6626 -0.4337
 8187SOL     OW36196   1.189   3.354   3.876 -0.3914  0.7856  0.0932
 8187SOL    HW136197   1.233   3.305   3.945 -0.3188 -0.4525 -0.8341
 8187SOL    HW236198   1.254   3.413   3.839  0.2611  1.2128  1.9063
 8188SOL     OW36199   2.482   1.665  13.050  0.0298  0.0556  0.4495
 8188SOL    HW136200   2.488   1.594  13.114  0.0172  0.1049  0.5052
 8188SOL    HW236201   2.389   1.685  13.043  0.1282  0.0212 -0.8256
 8189SOL     OW36202   2.089   3.508   2.209 -0.1704 -0.1349 -0.3932
 8189SOL    HW136203   2.082   3.429   2.262 -1.8027  1.4958  1.8023
 8189SOL    HW236204   2.010   3.554   2.237 -0.0065 -0.0954  0.0023
 8190SOL     OW36205   1.340   0.494   2.450 -0.6980  0.1832 -0.3515
 8190SOL    HW136206   1.347   0.444   2.531  0.4065  0.1299 -0.4867
 8190SOL    HW236207   1.414   0.555   2.446 -2.1363  1.9563  0.0577
 8191SOL     OW36208   0.248   4.121   4.211 -0.1338 -0.1682  0.4790
 8191SOL    HW136209   0.336   4.084   4.216  0.2017  0.5742  0.0174
 8191SOL    HW236210   0.244   4.170   4.294  2.5990  1.2939 -0.2569
 8192SOL     OW36211   3.484   2.355   2.871  0.8333  0.3039 -0.9931
 8192SOL    HW136212   3.477   2.321   2.960  1.9707  0.3077 -0.8932
 8192SOL    HW236213   3.476   2.446   2.900 -0.6670  0.7938 -2.9956
 8193SOL     OW36214   0.187   1.252   2.630 -0.3782 -0.1851 -0.2604
 8193SOL    HW136215   0.240   1.307   2.572 -2.0323  0.2658 -1.3542
 8193SOL    HW236216   0.241   1.247   2.709 -0.5208 -1.1723 -0.2264
 8194SOL     OW36217   0.718   0.449   2.497  0.5556 -0.1040 -0.2781
 8194SOL    HW136218   0.811   0.429   2.501  0.5226 -0.0724  0.7022
 8194SOL    HW236219   0.728   0.531   2.449  1.2009  1.3137  2.2764
 8195SOL     OW36220   0.293   2.797  13.704 -0.1602 -0.1969  0.5721
 8195SOL    HW136221   0.278   2.812  13.797 -0.5002  1.7973  0.1839
 8195SOL    HW236222   0.228   2.857  13.667  1.4617  0.0404 -1.9227
 8196SOL     OW36223   2.002   3.340   0.726 -0.3088 -0.4516  0.1442
 8196SOL    HW136224   1.971   3.261   0.682 -2.1854  0.4908 -0.1856
 8196SOL    HW236225   1.972   3.407   0.665  0.4568  0.5205  0.8468
 8197SOL     OW36226   0.926   3.558   1.707  0.0412 -0.3573 -0.0293
 8197SOL    HW136227   0.868   3.631   1.727  1.0235  0.3360  0.3041
 8197SOL    HW236228   0.876   3.504   1.645 -2.1778  0.1773  1.2941
 8198SOL     OW36229   3.161   3.799   6.240 -0.0727  0.6412  0.3226
 8198SOL    HW136230   3.085   3.799   6.299  0.8523  2.3273  1.5276
 8198SOL    HW236231   3.129   3.753   6.163 -1.1965  0.5957  0.8087
 8199SOL     OW36232   1.901   1.307   2.677 -0.8023  0.1895  0.6427
 8199SOL    HW136233   1.841   1.273   2.743 -0.1252  0.8693  1.6273
 8199SOL    HW236234   1.956   1.229   2.671 -3.1493 -1.4208  0.1004
 8200SOL     OW36235   3.908   1.991  10.839  0.4602  0.2234 -0.0805
 8200SOL    HW136236   3.854   1.981  10.918 -0.6822 -0.5338 -0.9558
 8200SOL    HW236237   3.924   1.898  10.823 -3.6772 -0.6451  0.6150
 8201SOL     OW36238   0.458   3.794   3.179  0.0219  0.1641  0.4199
 8201SOL    HW136239   0.387   3.857   3.165 -0.8878 -0.5315  1.8520
 8201SOL    HW236240   0.396   3.727   3.207 -1.7762  0.2715 -3.3329
 8202SOL     OW36241   1.976   0.914   9.911 -0.2470  0.4158 -0.6735
 8202SOL    HW136242   1.972   0.823   9.883  2.3360  0.9441 -2.8016
 8202SOL    HW236243   2.012   0.955   9.832 -0.2460 -0.1421 -0.9623
 8203SOL     OW36244   4.015   4.628  11.342  0.3706  0.1053  0.4621
 8203SOL    HW136245   4.023   4.595  11.253  1.1893  0.8726  0.2442
 8203SOL    HW236246   4.054   4.715  11.336  1.8720 -0.6601 -0.9365
 8204SOL     OW36247   4.446   3.372   7.903 -0.0281  0.5482 -0.1581
 8204SOL    HW136248   4.405   3.304   7.956  2.2035 -0.4183  0.3077
 8204SOL    HW236249   4.533   3.333   7.893  0.3190  1.0925  0.7899
 8205SOL     OW36250   0.493   2.514   6.406 -0.4676 -0.0325  0.1153
 8205SOL    HW136251   0.510   2.594   6.454 -1.5839 -0.6972  1.6396
 8205SOL    HW236252   0.574   2.503   6.357  0.1897  1.4945  0.8779
 8206SOL     OW36253   3.468   4.361  16.383 -0.1371  0.2632 -0.5339
 8206SOL    HW136254   3.401   4.295  16.364 -0.8091  0.5634  0.7444
 8206SOL    HW236255   3.518   4.328  16.457  1.7290  2.6488 -0.7334
 8207SOL     OW36256   2.877   1.633   4.018  0.1795 -0.1765  0.6576
 8207SOL    HW136257   2.942   1.562   4.016  0.4226  0.0721 -0.3948
 8207SOL    HW236258   2.809   1.588   4.068 -0.0833  0.8290  1.2032
 8208SOL     OW36259   3.909   1.911   2.603 -0.3192 -0.6078 -0.4564
 8208SOL    HW136260   3.996   1.925   2.568  0.3919 -1.3689  0.9786
 8208SOL    HW236261   3.915   1.834   2.659 -2.3153  0.0459  0.6749
 8209SOL     OW36262   1.740   3.734  10.729 -0.2478 -0.7978  0.1899
 8209SOL    HW136263   1.736   3.829  10.744 -3.0400 -0.4878 -2.5189
 8209SOL    HW236264   1.758   3.703  10.818  0.1363 -0.9484  0.0566
 8210SOL     OW36265   2.001   1.045   2.519 -0.6892 -0.3261  0.7102
 8210SOL    HW136266   2.053   1.032   2.440  0.3211 -1.0787  1.4965
 8210SOL    HW236267   1.911   1.025   2.491 -0.3705 -2.3577  1.0888
 8211SOL     OW36268   3.049   4.504  14.602  0.3223  0.3845 -0.1637
 8211SOL    HW136269   2.953   4.493  14.601  0.3919 -0.2813  1.9777
 8211SOL    HW236270   3.070   4.424  14.553  0.3537  0.1194  0.2857
 8212SOL     OW36271   0.699   3.681  12.692 -0.0963  0.5438  0.6062
 8212SOL    HW136272   0.741   3.698  12.777 -0.7749 -0.0677  1.0678
 8212SOL    HW236273   0.729   3.758  12.643  2.0796 -1.1239 -0.6686
 8213SOL     OW36274   0.212   4.208   1.252  0.4290 -0.0086 -0.3778
 8213SOL    HW136275   0.263   4.220   1.172  0.4395  0.2132 -0.3386
 8213SOL    HW236276   0.120   4.214   1.225  0.6459 -1.0011 -1.3244
 8214SOL     OW36277   2.726   1.429   1.652 -0.3103 -0.1384  0.3777
 8214SOL    HW136278   2.741   1.468   1.566  2.7907  0.0327  0.9824
 8214SOL    HW236279   2.800   1.368   1.656 -1.6386 -1.7716 -0.1919
 8215SOL     OW36280   3.037   4.314   5.955  0.0884  0.5161 -0.1253
 8215SOL    HW136281   3.092   4.258   6.010  0.9673  1.3280 -0.1755
 8215SOL    HW236282   2.950   4.294   5.989 -0.0006 -0.1429 -0.7398
 8216SOL     OW36283   3.609   2.736   7.276 -0.0668  0.0906  0.2894
 8216SOL    HW136284   3.516   2.747   7.257  0.7372  2.4431 -2.4072
 8216SOL    HW236285   3.649   2.817   7.244  0.6634 -0.6725 -0.7470
 8217SOL     OW36286   4.541   3.459   2.682  0.5689  0.3343  0.3283
 8217SOL    HW136287   4.562   3.481   2.591  2.3242  0.7334  0.8321
 8217SOL    HW236288   4.494   3.375   2.680  2.0660 -0.4425 -2.4992
 8218SOL     OW36289   0.274   1.995   6.279  0.6681 -0.0394 -0.2203
 8218SOL    HW136290   0.298   2.044   6.200  3.5117 -1.6577 -0.3533
 8218SOL    HW236291   0.215   2.053   6.327  0.7762  0.3914 -0.6111
 8219SOL     OW36292   4.559   1.347   5.965 -0.9388  0.3973 -0.3191
 8219SOL    HW136293   4.491   1.394   5.918  1.1452  1.4272 -2.2882
 8219SOL    HW236294   4.509   1.279   6.011 -1.0528  0.8584  0.2454
 8220SOL     OW36295   3.232   4.667  16.200 -0.3038 -0.5259 -0.0213
 8220SOL    HW136296   3.262   4.633  16.284 -1.4500 -2.4457 -0.3816
 8220SOL    HW236297   3.299   4.643  16.136  0.5680 -0.9084  1.0506
 8221SOL     OW36298   1.673   3.852   8.226 -0.4828 -0.2167  0.3449
 8221SOL    HW136299   1.622   3.832   8.147  0.5598  0.3889 -0.4786
 8221SOL    HW236300   1.606   3.884   8.287 -0.1893  2.8290 -0.8891
 8222SOL     OW36301   4.393   0.876  14.798 -0.3261  0.2104 -0.2275
 8222SOL    HW136302   4.312   0.886  14.849 -0.9215  1.3501 -1.3846
 8222SOL    HW236303   4.362   0.841  14.714  1.1070 -1.8332  0.0880
 8223SOL     OW36304   0.887   2.725  16.436 -0.2006 -0.1058 -0.1063
 8223SOL    HW136305   0.804   2.736  16.482  0.3406 -3.5553  1.6823
 8223SOL    HW236306   0.910   2.812  16.404 -0.9202  0.6804  1.5739
 8224SOL     OW36307   0.885   2.463   0.011  0.1921 -0.1966 -0.0617
 8224SOL    HW136308   0.858   2.420  17.685  0.0052 -0.2930  0.0521
 8224SOL    HW236309   0.855   2.553  17.754  1.2561  0.1645 -0.0407
 8225SOL     OW36310   4.569   1.229   2.044  0.0308 -0.3115 -0.0447
 8225SOL    HW136311   4.583   1.207   2.136  0.0943 -0.5909 -0.1213
 8225SOL    HW236312   4.474   1.230   2.037  0.1365  0.5541 -1.2466
 8226SOL     OW36313   4.620   3.053   5.687 -0.0973  0.3276  0.1852
 8226SOL    HW136314   4.552   3.011   5.634  0.2161 -0.0391  0.0722
 8226SOL    HW236315   4.689   2.988   5.703 -1.4081 -1.6920 -2.3255
 8227SOL     OW36316   2.143   0.903   2.913  0.3261 -0.3672  0.0653
 8227SOL    HW136317   2.231   0.897   2.951  1.1256 -1.8274 -2.0212
 8227SOL    HW236318   2.094   0.857   2.981 -0.5673 -1.1779 -1.1268
 8228SOL     OW36319   3.293   1.944   7.914 -0.0494  0.0202 -0.0703
 8228SOL    HW136320   3.249   2.021   7.878  2.3930  1.2647 -0.3790
 8228SOL    HW236321   3.222   1.903   7.964  2.6945 -1.3206  2.7476
 8229SOL     OW36322   0.237   1.768   6.764  0.0303 -0.6944  0.3237
 8229SOL    HW136323   0.306   1.703   6.749 -0.4271 -1.1766  0.3142
 8229SOL    HW236324   0.194   1.729   6.839 -0.1604 -1.1564 -0.0229
 8230SOL     OW36325   1.280   3.114   2.577 -0.2087  0.0229  0.2130
 8230SOL    HW136326   1.331   3.037   2.551 -1.3164 -0.5822 -0.1588
 8230SOL    HW236327   1.220   3.121   2.503  1.3071  0.8868 -0.9339
 8231SOL     OW36328   0.205   2.638  15.300 -0.5838 -0.1004  0.2453
 8231SOL    HW136329   0.135   2.587  15.340 -2.1124  0.0249 -2.2764
 8231SOL    HW236330   0.183   2.725  15.333 -2.8940 -0.1888 -1.0494
 8232SOL     OW36331   1.732   3.539   5.159  0.5545  0.3399 -0.5663
 8232SOL    HW136332   1.823   3.568   5.152  1.3030 -1.4835  1.3189
 8232SOL    HW236333   1.744   3.482   5.235  0.6284  0.5924 -0.3878
 8233SOL     OW36334   2.945   1.597   8.135  0.5140  0.2262  0.2915
 8233SOL    HW136335   2.963   1.690   8.150 -2.1058  0.6032  1.1695
 8233SOL    HW236336   2.856   1.599   8.172  0.2919  2.6210 -0.3448
 8234SOL     OW36337   1.752   3.960   6.097  0.5291 -0.8033  0.0896
 8234SOL    HW136338   1.822   4.000   6.149  2.0547 -1.8926 -1.1058
 8234SOL    HW236339   1.735   4.036   6.042 -0.2459 -1.9411 -1.2530
 8235SOL     OW36340   0.568   2.304  13.901 -0.1058  0.3353  0.0332
 8235SOL    HW136341   0.495   2.282  13.844  1.0981  1.6687 -2.0445
 8235SOL    HW236342   0.550   2.397  13.916 -3.5680 -0.3946  0.3792
 8236SOL     OW36343   1.669   2.678   5.510  0.0648 -0.0765 -0.5029
 8236SOL    HW136344   1.632   2.631   5.585 -0.4601 -1.2621 -1.4949
 8236SOL    HW236345   1.600   2.677   5.444 -0.4006  1.5956 -0.0240
 8237SOL     OW36346   4.375   2.389   2.888  0.0214 -0.5687 -0.0361
 8237SOL    HW136347   4.445   2.324   2.889 -0.3325 -0.9482  0.4199
 8237SOL    HW236348   4.304   2.341   2.845 -1.3735  1.5993 -0.1400
 8238SOL     OW36349   0.858   3.831   1.826  0.3860 -0.5416  0.7290
 8238SOL    HW136350   0.842   3.925   1.837  0.7316 -0.6087  1.7627
 8238SOL    HW236351   0.768   3.812   1.801 -0.5887  1.5952  2.5613
 8239SOL     OW36352   0.446   3.707   2.009  0.3117  0.1993 -0.2959
 8239SOL    HW136353   0.414   3.713   2.099  0.9080  1.4816 -0.1700
 8239SOL    HW236354   0.489   3.792   1.998 -1.2639  1.1571  0.9287
 8240SOL     OW36355   0.106   1.428   3.850  0.2484  0.1332  0.1127
 8240SOL    HW136356   0.034   1.377   3.888  0.6651  1.0436  2.1164
 8240SOL    HW236357   0.155   1.349   3.827  2.1578  1.1050  0.8818
 8241SOL     OW36358   1.339   4.456  12.897 -0.7927 -0.0348 -0.4559
 8241SOL    HW136359   1.369   4.545  12.912  0.5628 -0.7315  0.8988
 8241SOL    HW236360   1.409   4.400  12.931 -0.3665  0.8936  0.1819
 8242SOL     OW36361   0.540   1.486   2.300  0.0311  0.0263  0.0264
 8242SOL    HW136362   0.614   1.521   2.251  1.9999 -1.1744  2.1204
 8242SOL    HW236363   0.569   1.397   2.321 -1.4021 -0.1118  1.3834
 8243SOL     OW36364   1.873   2.644   9.862 -0.5645 -0.0871 -0.4640
 8243SOL    HW136365   1.787   2.640   9.822 -1.8001 -2.8151  2.4933
 8243SOL    HW236366   1.919   2.678   9.785  0.9182 -0.6383  0.1819
 8244SOL     OW36367   3.653   1.707   7.066 -0.6705 -0.0455  0.3630
 8244SOL    HW136368   3.688   1.776   7.009  1.2445  0.1292  1.7624
 8244SOL    HW236369   3.603   1.654   7.004  0.3526  1.5444 -1.8416
 8245SOL     OW36370   3.983   4.290  15.576  0.1720 -0.2595 -0.3779
 8245SOL    HW136371   3.959   4.346  15.502  0.2007 -1.1105 -1.0354
 8245SOL    HW236372   4.070   4.255  15.554  0.0338 -0.8196 -0.0184
 8246SOL     OW36373   0.008   1.015  12.941  0.0109 -0.1479 -0.3713
 8246SOL    HW136374   4.733   0.989  12.850  1.3184  1.7476 -1.1296
 8246SOL    HW236375   4.661   1.049  12.963  0.1288 -0.0546 -0.0596
 8247SOL     OW36376   2.043   1.436   2.160  0.0606  0.4944  0.0701
 8247SOL    HW136377   2.137   1.456   2.159  0.1871 -0.0847  0.2670
 8247SOL    HW236378   1.999   1.496   2.220 -1.2217 -0.3781  0.0026
 8248SOL     OW36379   3.149   3.124   8.482 -0.1525  0.1045 -0.0716
 8248SOL    HW136380   3.221   3.128   8.545 -0.1562  1.8975 -0.1864
 8248SOL    HW236381   3.205   3.118   8.404  0.0280  1.5745 -0.0490
 8249SOL     OW36382   0.882   2.669   4.906 -0.6247  0.0577 -0.0168
 8249SOL    HW136383   0.821   2.659   4.833 -1.0582 -1.7890  0.6025
 8249SOL    HW236384   0.965   2.681   4.859  0.5227 -2.0617  1.4697
 8250SOL     OW36385   4.417   4.533   0.926 -0.0225  0.3831  0.0294
 8250SOL    HW136386   4.412   4.584   1.006  0.6020  1.4235 -0.6028
 8250SOL    HW236387   4.325   4.512   0.906  0.4251  0.5865 -2.3234
 8251SOL     OW36388   2.581   4.506   5.687 -0.0576 -0.3569  0.5669
 8251SOL    HW136389   2.647   4.534   5.624 -0.2027 -0.1810  0.4935
 8251SOL    HW236390   2.629   4.489   5.767  1.3678 -2.6075 -0.7787
 8252SOL     OW36391   0.014   3.144   5.274 -0.7408  0.3276 -0.1038
 8252SOL    HW136392   0.103   3.120   5.300 -0.5289  0.2588 -0.8780
 8252SOL    HW236393   4.731   3.227   5.316  0.4800  0.6520 -0.0977
 8253SOL     OW36394   3.570   1.268  15.481 -0.3609 -0.4194  0.4042
 8253SOL    HW136395   3.661   1.258  15.510 -0.5282 -3.4019 -0.0319
 8253SOL    HW236396   3.559   1.354  15.441  0.8083  0.5794  2.2149
 8254SOL     OW36397   0.323   3.713   3.835  0.0715  0.5403 -0.2206
 8254SOL    HW136398   0.268   3.736   3.761 -0.5047 -0.1479 -0.0052
 8254SOL    HW236399   0.335   3.803   3.865  1.8412  0.2394 -0.0202
 8255SOL     OW36400   0.137   1.679   7.002 -0.1787 -0.3409  0.3110
 8255SOL    HW136401   0.152   1.750   7.065  1.4496 -1.3716  1.0746
 8255SOL    HW236402   0.057   1.636   7.034 -0.0442  0.8183  2.2139
 8256SOL     OW36403   1.270   2.484  14.961  0.2585 -0.3188 -0.1388
 8256SOL    HW136404   1.347   2.438  14.995 -0.6265 -1.4871  0.2739
 8256SOL    HW236405   1.209   2.411  14.949  0.7401 -0.3639 -2.2575
 8257SOL     OW36406   1.308   0.852   6.829 -0.0788 -0.1214  0.0008
 8257SOL    HW136407   1.368   0.779   6.815  0.6026  0.5904 -0.7373
 8257SOL    HW236408   1.319   0.868   6.923 -1.5464 -2.8250  0.6248
 8258SOL     OW36409   3.076   4.094   8.504 -0.2861  0.0692 -0.3904
 8258SOL    HW136410   3.145   4.111   8.569 -0.4690 -2.9621  0.5733
 8258SOL    HW236411   3.001   4.147   8.532 -0.2239  0.0999 -0.2804
 8259SOL     OW36412   3.626   0.040   3.710  0.4341  0.0994  0.1336
 8259SOL    HW136413   3.689   4.727   3.761  0.1808  1.3384  1.6951
 8259SOL    HW236414   3.691   0.105   3.685 -0.9716  0.8987 -1.4264
 8260SOL     OW36415   2.781   3.041   5.057  0.0239 -0.7290 -0.3586
 8260SOL    HW136416   2.832   2.973   5.100  1.3672  1.0671  0.8613
 8260SOL    HW236417   2.772   3.004   4.968  1.2053  1.4265 -1.3707
 8261SOL     OW36418   1.877   3.206   7.329  0.0906  0.1178  0.3604
 8261SOL    HW136419   1.790   3.225   7.366 -1.3312 -2.1677 -1.7739
 8261SOL    HW236420   1.943   3.261   7.371 -0.4125  0.3001  0.9201
 8262SOL     OW36421   1.166   1.767   7.653  0.0461 -0.0861  0.1464
 8262SOL    HW136422   1.108   1.841   7.635  1.5985  1.0100 -0.3674
 8262SOL    HW236423   1.140   1.725   7.735  2.8885 -1.7554  0.1805
 8263SOL     OW36424   0.330   4.170   2.873 -0.7507  0.2730  0.1645
 8263SOL    HW136425   0.273   4.108   2.919  0.5410 -0.7195  0.4271
 8263SOL    HW236426   0.407   4.159   2.928 -0.6878  1.2820  0.2686
 8264SOL     OW36427   0.880   3.582   1.302 -0.0120 -0.0059  0.3135
 8264SOL    HW136428   0.879   3.491   1.329 -0.2368  0.2004  1.0085
 8264SOL    HW236429   0.974   3.594   1.294 -0.0829  0.4705  0.1688
 8265SOL     OW36430   1.716   0.023   2.342 -0.2655  0.4251  0.3855
 8265SOL    HW136431   1.691   4.671   2.354  0.5585  0.3198  1.3393
 8265SOL    HW236432   1.747   0.023   2.251 -1.9337 -0.7210 -0.1728
 8266SOL     OW36433   0.966   2.750   3.181 -0.8875  0.0418 -0.2569
 8266SOL    HW136434   1.057   2.731   3.160  0.0474  0.9232  2.9290
 8266SOL    HW236435   0.962   2.702   3.264 -1.3179  1.6750  0.6642
 8267SOL     OW36436   1.806   1.053   4.280  0.1694  0.2470 -0.3587
 8267SOL    HW136437   1.891   1.058   4.325 -0.1245 -0.5218  0.2715
 8267SOL    HW236438   1.748   1.041   4.355  1.8016 -0.2487  0.8264
 8268SOL     OW36439   3.302   0.824   7.917 -0.6174 -0.0737  0.0573
 8268SOL    HW136440   3.365   0.753   7.900 -3.1901 -1.5327 -3.6065
 8268SOL    HW236441   3.333   0.846   8.004 -0.4413  0.2245 -0.0831
 8269SOL     OW36442   2.884   4.378   0.153 -0.1981  0.1248 -0.1813
 8269SOL    HW136443   2.927   4.405   0.235  1.9633 -2.3815 -0.4745
 8269SOL    HW236444   2.958   4.344   0.101  0.9877  1.4118  0.6530
 8270SOL     OW36445   2.614   3.851   7.359 -0.4952  0.1374  0.6412
 8270SOL    HW136446   2.670   3.852   7.282 -0.4701 -0.3645  0.6555
 8270SOL    HW236447   2.582   3.941   7.354  0.1440  0.3875  1.1467
 8271SOL     OW36448   3.163   3.397   4.313 -0.4380 -0.2739  0.6936
 8271SOL    HW136449   3.124   3.456   4.248 -0.7452 -0.3760  0.7858
 8271SOL    HW236450   3.095   3.395   4.380 -0.6419  0.3106  0.5082
 8272SOL     OW36451   4.047   0.805   7.933 -0.0370 -0.0094 -0.6795
 8272SOL    HW136452   4.054   0.830   7.841 -0.0656  0.6216 -0.5112
 8272SOL    HW236453   3.973   0.745   7.937 -0.7169  0.7228 -2.3814
 8273SOL     OW36454   1.184   3.691   7.420 -1.0233 -0.1346 -0.0476
 8273SOL    HW136455   1.176   3.684   7.325 -1.3540 -1.2016  0.0558
 8273SOL    HW236456   1.205   3.784   7.430  0.8735 -0.5217 -0.5661
 8274SOL     OW36457   0.074   4.347   4.066  0.2369  0.4034 -0.1934
 8274SOL    HW136458   0.083   4.378   3.976 -2.6945  0.6510 -0.4058
 8274SOL    HW236459   0.074   4.253   4.046 -0.0851  0.1711  0.9129
 8275SOL     OW36460   1.328   0.424  13.340  0.4209 -0.8693  0.6052
 8275SOL    HW136461   1.253   0.460  13.387 -0.1648 -2.5985  0.9880
 8275SOL    HW236462   1.364   0.377  13.415  0.9328 -0.5305  0.5740
 8276SOL     OW36463   1.706   3.866   4.220  0.5798 -0.2861  0.3298
 8276SOL    HW136464   1.787   3.913   4.202  0.0636  1.2341  2.0118
 8276SOL    HW236465   1.704   3.813   4.139 -0.1299 -0.1658  0.2702
 8277SOL     OW36466   4.010   1.641  15.866  0.3977  0.7355 -0.1145
 8277SOL    HW136467   3.925   1.683  15.885 -1.1980 -2.3414 -0.5254
 8277SOL    HW236468   3.991   1.591  15.787 -1.1642  0.6645  0.2912
 8278SOL     OW36469   3.027   3.018   0.378 -0.6826  0.2028  0.2059
 8278SOL    HW136470   3.092   2.948   0.367  1.8881  2.5024  0.7192
 8278SOL    HW236471   2.952   2.976   0.419 -0.9272  1.9967  1.6005
 8279SOL     OW36472   2.469   2.794  17.166  0.1213  0.2443  0.5947
 8279SOL    HW136473   2.529   2.732  17.208 -1.8123 -3.5648 -2.2226
 8279SOL    HW236474   2.412   2.828  17.235 -0.0136  1.0705  0.0821
 8280SOL     OW36475   2.381   4.658   8.880 -0.0704 -0.5031 -0.3487
 8280SOL    HW136476   2.300   4.701   8.851  0.6499 -2.4677 -5.2048
 8280SOL    HW236477   2.429   4.734   8.912 -1.0944  0.0982 -0.2401
 8281SOL     OW36478   1.911   1.189  15.761  0.2398 -0.7705  0.1733
 8281SOL    HW136479   1.920   1.250  15.834  0.0344  0.4819 -0.8200
 8281SOL    HW236480   1.834   1.138  15.783 -0.8273 -0.2482 -2.3049
 8282SOL     OW36481   1.273   0.389   9.339  0.1906 -0.5843 -0.5132
 8282SOL    HW136482   1.312   0.468   9.301 -0.2162 -0.1674 -0.0623
 8282SOL    HW236483   1.196   0.429   9.381  1.6661 -0.5935  2.1653
 8283SOL     OW36484   0.063   3.355   4.187 -0.1456  0.1511  0.3742
 8283SOL    HW136485   0.097   3.400   4.110  0.6961 -1.8840 -0.4602
 8283SOL    HW236486   0.089   3.416   4.256  0.1212  2.2346 -1.5677
 8284SOL     OW36487   0.407   2.690   2.957 -0.2230  0.3335  0.5201
 8284SOL    HW136488   0.357   2.675   2.877  0.2494 -0.6395  0.4004
 8284SOL    HW236489   0.487   2.723   2.915 -0.8299  2.6922  1.2171
 8285SOL     OW36490   1.182   2.509   6.401 -0.0789  0.6591 -0.8523
 8285SOL    HW136491   1.197   2.564   6.324  2.2810  0.8041 -0.3184
 8285SOL    HW236492   1.121   2.560   6.453 -1.2937 -2.1080  0.4184
 8286SOL     OW36493   3.148   1.928  14.474 -0.1797  0.1661 -0.1577
 8286SOL    HW136494   3.162   1.856  14.413 -0.0218 -0.7269  0.9288
 8286SOL    HW236495   3.139   1.995  14.407 -0.8659  1.2918  1.0568
 8287SOL     OW36496   2.802   3.892   9.212  0.0765 -0.4482 -0.9041
 8287SOL    HW136497   2.746   3.838   9.269 -2.3161  2.4200 -0.5297
 8287SOL    HW236498   2.886   3.869   9.250  0.8909  3.3631 -0.3958
 8288SOL     OW36499   4.588   2.957  13.618  0.2765 -0.4624  0.7401
 8288SOL    HW136500   4.560   2.947  13.709  0.4491 -1.2762  0.7036
 8288SOL    HW236501   4.679   2.985  13.626  0.7745 -1.9723  0.3963
 8289SOL     OW36502   3.155   2.817   2.293 -0.3660 -0.2090  0.1097
 8289SOL    HW136503   3.208   2.742   2.319 -1.9790 -1.2762  0.2999
 8289SOL    HW236504   3.196   2.894   2.332  1.5385 -0.9615 -0.4511
 8290SOL     OW36505   1.683   0.964   5.182  0.2766 -0.4364  0.1326
 8290SOL    HW136506   1.764   0.969   5.233  1.6162 -0.9970 -1.9247
 8290SOL    HW236507   1.622   1.018   5.232  0.9335  0.9215 -0.5205
 8291SOL     OW36508   2.682   0.046  13.497 -0.2548  0.8057 -0.2838
 8291SOL    HW136509   2.774   0.034  13.472 -0.2731  1.5009 -0.6846
 8291SOL    HW236510   2.630   0.067  13.419 -1.8774 -1.0315  0.2887
 8292SOL     OW36511   3.832   2.560   2.685 -0.1613  0.1173  0.1797
 8292SOL    HW136512   3.746   2.602   2.686 -0.3199 -0.2095  0.2013
 8292SOL    HW236513   3.815   2.468   2.706 -0.6006  0.7003  2.3775
 8293SOL     OW36514   0.766   3.050   1.212  0.0349 -0.4195  0.0838
 8293SOL    HW136515   0.682   3.007   1.202 -0.0320  0.3755 -2.7485
 8293SOL    HW236516   0.800   2.979   1.268  0.6997  1.0232  1.5315
 8294SOL     OW36517   4.190   1.641   1.552  0.1509 -0.0909 -0.1717
 8294SOL    HW136518   4.143   1.610   1.630 -1.0248  0.2711 -0.7359
 8294SOL    HW236519   4.133   1.592   1.492 -0.3859  0.5977 -0.2209
 8295SOL     OW36520   1.140   3.712   2.037 -0.0808  0.2626 -0.5949
 8295SOL    HW136521   1.141   3.630   1.988  0.6935  0.0589 -0.2487
 8295SOL    HW236522   1.060   3.695   2.087  0.1027  2.3639  0.3970
 8296SOL     OW36523   0.783   3.481   8.412  0.1791 -0.0014  0.4825
 8296SOL    HW136524   0.724   3.528   8.471 -0.6092 -0.3519 -0.0201
 8296SOL    HW236525   0.748   3.395   8.435  1.2726 -0.1330  1.6258
 8297SOL     OW36526   3.191   0.517  14.098 -0.0376  0.4093  0.2931
 8297SOL    HW136527   3.247   0.471  14.160  1.6402 -0.1350 -1.6358
 8297SOL    HW236528   3.130   0.561  14.157 -1.2944  0.2676 -0.9061
 8298SOL     OW36529   1.922   2.521  12.401  0.2363 -0.2821 -0.2399
 8298SOL    HW136530   1.884   2.526  12.489 -2.6878 -0.9718 -1.4624
 8298SOL    HW236531   2.008   2.563  12.405  0.0552  0.2723 -2.2218
 8299SOL     OW36532   4.055   2.222   5.607 -0.8228  0.7685  0.3676
 8299SOL    HW136533   4.099   2.138   5.594 -0.3687  0.9730  0.5736
 8299SOL    HW236534   3.992   2.222   5.535  0.9649  0.1724 -1.2066
 8300SOL     OW36535   4.123   3.473  15.581 -0.2145  0.0551 -0.0007
 8300SOL    HW136536   4.133   3.403  15.516  0.7693  0.9457 -0.8132
 8300SOL    HW236537   4.201   3.452  15.633 -0.2365 -0.7147 -0.2843
 8301SOL     OW36538   1.253   1.205  15.338  0.1290 -0.6679  0.4558
 8301SOL    HW136539   1.293   1.207  15.425  1.9268 -0.1703 -0.3669
 8301SOL    HW236540   1.318   1.259  15.293  2.2167 -2.3427  1.4619
 8302SOL     OW36541   2.195   0.390  17.268  0.0885 -0.1604 -0.2693
 8302SOL    HW136542   2.187   0.353  17.356 -2.2578 -1.5273 -1.0568
 8302SOL    HW236543   2.126   0.351  17.214 -0.0008  1.9651 -1.6776
 8303SOL     OW36544   4.071   3.357   8.438  0.0785 -0.3745 -0.3573
 8303SOL    HW136545   4.130   3.304   8.384  1.9340  0.3250  0.9850
 8303SOL    HW236546   4.030   3.409   8.369 -1.6937  0.5943  1.4316
 8304SOL     OW36547   2.215   2.088   4.465 -0.2109  0.4413  0.2282
 8304SOL    HW136548   2.142   2.100   4.526  0.3618  2.5355  0.5058
 8304SOL    HW236549   2.270   2.163   4.489  0.2702  0.2792 -0.3596
 8305SOL     OW36550   2.263   3.654   3.690  0.3266 -0.3266 -0.0018
 8305SOL    HW136551   2.310   3.570   3.687 -1.3070 -1.2951  1.7214
 8305SOL    HW236552   2.172   3.624   3.689 -0.1141  1.0352 -0.4566
 8306SOL     OW36553   4.204   0.176   8.921 -0.5628 -0.0060  0.3539
 8306SOL    HW136554   4.176   0.084   8.918  1.2546 -0.5186 -1.2495
 8306SOL    HW236555   4.169   0.213   8.840  0.2584 -0.6312 -0.2927
 8307SOL     OW36556   1.983   4.686  10.589  0.6458  0.6516 -0.0807
 8307SOL    HW136557   1.992   4.718  10.678 -2.0325 -1.9758  1.1414
 8307SOL    HW236558   2.075   4.691  10.562  1.1168 -0.2365  1.3518
 8308SOL     OW36559   2.046   1.870   7.302 -0.0449  0.2163 -0.4892
 8308SOL    HW136560   2.064   1.790   7.252 -0.8892 -0.3296  0.0729
 8308SOL    HW236561   1.958   1.854   7.336  1.2611 -4.9337  0.4463
 8309SOL     OW36562   3.590   3.789   2.503  0.4361  0.6070  0.0996
 8309SOL    HW136563   3.620   3.838   2.426 -0.1837  0.5080 -0.2077
 8309SOL    HW236564   3.514   3.747   2.463  0.1462 -0.0902  1.3972
 8310SOL     OW36565   3.460   0.314   3.299 -0.4682  0.0184 -0.2842
 8310SOL    HW136566   3.444   0.232   3.347 -0.1585 -0.3328 -0.7870
 8310SOL    HW236567   3.396   0.376   3.333 -1.8774 -1.8463  0.4740
 8311SOL     OW36568   0.205   1.197   3.740 -0.1083 -0.2049  0.6928
 8311SOL    HW136569   0.179   1.154   3.658 -0.1359 -1.1178  1.1817
 8311SOL    HW236570   0.184   1.137   3.811 -0.9310  0.6598  1.1743
 8312SOL     OW36571   1.756   0.933   8.010  0.0050 -0.5730  0.3999
 8312SOL    HW136572   1.782   0.892   8.092  1.3294  1.9816  1.2316
 8312SOL    HW236573   1.820   1.003   7.998  1.2992 -1.8181  0.0896
 8313SOL     OW36574   3.709   1.315   0.991  0.4238 -0.2992 -0.4071
 8313SOL    HW136575   3.773   1.385   1.003  0.7549 -0.1593 -2.9507
 8313SOL    HW236576   3.653   1.340   0.917  0.2650 -0.1688 -0.2408
 8314SOL     OW36577   1.416   1.601   9.803 -0.1110 -0.2396  0.0013
 8314SOL    HW136578   1.471   1.640   9.735 -2.5022  3.3551  0.1323
 8314SOL    HW236579   1.403   1.514   9.765  0.1207  0.6263 -2.1067
 8315SOL     OW36580   2.727   3.283  14.094  0.2407  0.0566  0.1003
 8315SOL    HW136581   2.702   3.371  14.066  1.3681 -0.1543 -1.5834
 8315SOL    HW236582   2.663   3.268  14.164  0.1960 -1.4866 -0.2702
 8316SOL     OW36583   4.410   1.798   1.499  0.0562  0.3081  0.0230
 8316SOL    HW136584   4.334   1.748   1.530  1.1901 -1.9908 -0.8959
 8316SOL    HW236585   4.377   1.815   1.411  0.8364  4.8782  0.6220
 8317SOL     OW36586   2.816   4.373  11.540  0.4040 -0.0255  0.5375
 8317SOL    HW136587   2.802   4.279  11.546  1.5508 -0.3273 -1.5646
 8317SOL    HW236588   2.861   4.394  11.622 -1.4136 -0.3259  1.6164
 8318SOL     OW36589   4.178   1.243   0.016 -0.0006 -0.3850  0.3399
 8318SOL    HW136590   4.120   1.319   0.014 -2.3599 -2.1993 -1.0931
 8318SOL    HW236591   4.111   1.174   0.010  1.0337 -1.3217 -0.3798
 8319SOL     OW36592   2.965   3.585  13.767  0.4471 -0.1543 -0.1459
 8319SOL    HW136593   2.933   3.509  13.816  0.3021 -1.5733 -2.4288
 8319SOL    HW236594   2.884   3.601  13.718  0.8428 -0.4172 -0.8941
 8320SOL     OW36595   3.530   4.287   2.645  0.2327  0.2428  0.2245
 8320SOL    HW136596   3.590   4.257   2.577  1.6016 -0.2635  1.6590
 8320SOL    HW236597   3.474   4.353   2.603 -0.7148  0.2935  1.5466
 8321SOL     OW36598   3.942   1.408   6.347 -0.0652 -0.0262 -0.0334
 8321SOL    HW136599   4.002   1.337   6.368 -0.7537  0.1840  2.5975
 8321SOL    HW236600   3.898   1.416   6.431 -3.0148 -0.8346 -1.5152
 8322SOL     OW36601   4.621   1.992   4.533  0.1960  0.0484 -0.4734
 8322SOL    HW136602   4.568   2.044   4.472 -0.6647 -0.7095 -0.3753
 8322SOL    HW236603   4.579   1.905   4.530 -0.3172  0.3674 -3.1795
 8323SOL     OW36604   2.205   3.033   3.422 -0.3706  0.4007 -0.0019
 8323SOL    HW136605   2.293   3.004   3.396  0.2678  0.3013  2.3150
 8323SOL    HW236606   2.185   3.012   3.513  1.9409  1.2213  0.6847
 8324SOL     OW36607   2.332   0.338   0.383  0.2414 -0.6280  0.3578
 8324SOL    HW136608   2.314   0.389   0.462  1.4602  0.1246  0.1490
 8324SOL    HW236609   2.422   0.365   0.362 -0.8749  0.6451 -2.7170
 8325SOL     OW36610   4.345   3.595   0.317 -0.5290 -0.2376 -0.0306
 8325SOL    HW136611   4.312   3.667   0.263  0.5310  0.9021  0.8243
 8325SOL    HW236612   4.281   3.524   0.312  1.2087 -1.7348 -1.1394
 8326SOL     OW36613   2.304   1.116   6.437  0.3071  1.0780  0.2066
 8326SOL    HW136614   2.336   1.201   6.467  3.4686  0.3844 -1.1566
 8326SOL    HW236615   2.254   1.090   6.514  0.0484  2.1538  0.3985
 8327SOL     OW36616   3.615   0.235   9.946  0.0453  0.2837  0.2822
 8327SOL    HW136617   3.635   0.328   9.956  2.6167 -0.0891 -1.2605
 8327SOL    HW236618   3.537   0.218   9.998 -2.4049  1.3878 -3.0627
 8328SOL     OW36619   0.031   0.307   4.824  0.0691 -0.0697 -0.1549
 8328SOL    HW136620   0.057   0.260   4.745 -1.5356  0.2734 -0.8963
 8328SOL    HW236621   0.084   0.259   4.888  1.2797  0.4710 -0.7488
 8329SOL     OW36622   4.636   0.313   1.583  0.1750 -0.0410 -0.4711
 8329SOL    HW136623   4.549   0.274   1.593 -0.6035  1.7790 -0.1356
 8329SOL    HW236624   4.628   0.341   1.492  1.4300 -3.8048 -1.7223
 8330SOL     OW36625   3.875   0.647   3.709  0.3038 -0.4257 -0.2380
 8330SOL    HW136626   3.810   0.680   3.647  0.1335  0.0710  0.2089
 8330SOL    HW236627   3.823   0.645   3.789  0.2905 -0.8853 -0.2562
 8331SOL     OW36628   4.136   3.990   6.972 -0.4738  0.1610  0.2211
 8331SOL    HW136629   4.069   3.923   6.958 -2.8980  2.6864 -0.2604
 8331SOL    HW236630   4.172   3.967   7.058  1.1882  1.5018 -0.1128
 8332SOL     OW36631   3.739   2.139   1.732 -0.5604  0.4726  0.2877
 8332SOL    HW136632   3.800   2.096   1.672 -0.4322  2.2813 -0.8956
 8332SOL    HW236633   3.789   2.214   1.764 -0.6701  1.0344 -0.8409
 8333SOL     OW36634   0.365   1.502  11.397  0.4352 -0.6520 -0.1273
 8333SOL    HW136635   0.329   1.460  11.319 -0.6392 -1.3211  0.7305
 8333SOL    HW236636   0.452   1.463  11.389  0.7259 -0.5259  2.3001
 8334SOL     OW36637   4.643   1.089   8.203 -0.2209  0.0682 -0.7711
 8334SOL    HW136638   4.568   1.104   8.261  0.8851  0.3783  0.5705
 8334SOL    HW236639   4.606   1.030   8.137 -0.5692  0.0823 -0.5895
 8335SOL     OW36640   1.429   2.709   5.839 -0.7843  0.1386 -0.0048
 8335SOL    HW136641   1.372   2.657   5.895 -1.7041  0.7598 -0.3834
 8335SOL    HW236642   1.450   2.653   5.764 -0.9522 -0.2295  0.2245
 8336SOL     OW36643   1.646   4.721   1.687 -0.6650 -0.8045 -0.0255
 8336SOL    HW136644   1.697   4.654   1.731  0.1129 -0.3955 -0.3059
 8336SOL    HW236645   1.670   0.055   1.744  0.0750 -0.1562 -1.1788
 8337SOL     OW36646   4.286   3.504   6.577  0.2016 -0.0103  0.1744
 8337SOL    HW136647   4.350   3.539   6.514 -0.7515 -0.6018 -1.1182
 8337SOL    HW236648   4.237   3.580   6.610  0.8427  0.6122 -0.2933
 8338SOL     OW36649   2.166   4.538   3.638 -0.1117 -0.7368 -0.5602
 8338SOL    HW136650   2.094   4.483   3.609 -1.9778  0.4932  1.7355
 8338SOL    HW236651   2.228   4.512   3.569  0.6864 -0.2207 -0.0356
 8339SOL     OW36652   1.344   1.589   2.342 -0.5935  0.2112  0.6769
 8339SOL    HW136653   1.366   1.680   2.320  1.4812 -0.4961 -0.1592
 8339SOL    HW236654   1.385   1.582   2.428 -0.2273  1.6082  0.6184
 8340SOL     OW36655   4.113   2.251  12.856  0.3023 -0.0266  0.0223
 8340SOL    HW136656   4.088   2.241  12.948  0.4716 -0.9891 -0.0354
 8340SOL    HW236657   4.101   2.164  12.818  0.9757  0.5413 -1.4951
 8341SOL     OW36658   0.487   4.584   8.681  0.3657 -0.4487 -0.5419
 8341SOL    HW136659   0.429   4.524   8.634 -1.6599  1.9587 -1.1306
 8341SOL    HW236660   0.514   4.641   8.609 -0.8540 -0.5444 -1.0811
 8342SOL     OW36661   0.161   1.159  16.813  0.3729 -0.1659  0.2063
 8342SOL    HW136662   0.133   1.086  16.759  2.2951  1.0472 -2.4632
 8342SOL    HW236663   0.134   1.236  16.764 -3.0985 -0.4511  1.6927
 8343SOL     OW36664   4.269   0.695   4.419 -0.6297  0.2149 -0.2519
 8343SOL    HW136665   4.286   0.656   4.333  0.9471 -1.6314  0.8872
 8343SOL    HW236666   4.248   0.618   4.470  1.1805  1.0620  1.7965
 8344SOL     OW36667   4.537   4.048  16.837 -0.2317 -0.0266 -0.4476
 8344SOL    HW136668   4.455   3.998  16.837  1.6113 -3.0438  1.9106
 8344SOL    HW236669   4.516   4.137  16.809 -1.2321  0.5012  1.9330
 8345SOL     OW36670   0.480   2.530  15.352  0.2314  0.4077 -0.1884
 8345SOL    HW136671   0.557   2.540  15.295 -1.9965  2.2496 -2.8984
 8345SOL    HW236672   0.406   2.529  15.291 -0.2814  1.5008  0.4276
 8346SOL     OW36673   0.817   3.769   7.888 -0.7456 -0.4365 -0.1567
 8346SOL    HW136674   0.740   3.755   7.943 -0.5994  0.3633  0.2483
 8346SOL    HW236675   0.884   3.780   7.954  0.5996  0.6201 -1.7034
 8347SOL     OW36676   1.748   3.416   6.573  0.7200  0.1427  0.0017
 8347SOL    HW136677   1.722   3.354   6.505 -0.2221  0.2297  0.2797
 8347SOL    HW236678   1.737   3.362   6.651 -1.5536  1.2723  0.4880
 8348SOL     OW36679   0.757   3.323  14.779 -0.3342 -0.8173 -0.4357
 8348SOL    HW136680   0.804   3.267  14.841 -0.6927  0.8217  1.3181
 8348SOL    HW236681   0.802   3.314  14.695 -2.9992  0.5192 -2.0003
 8349SOL     OW36682   1.135   2.500   3.463  0.2113  0.6392  0.3508
 8349SOL    HW136683   1.055   2.493   3.516  0.5458 -1.4689  0.5524
 8349SOL    HW236684   1.208   2.472   3.518  0.2567  0.6503  0.2955
 8350SOL     OW36685   0.176   0.630   8.464 -0.0076  0.6487  0.5948
 8350SOL    HW136686   0.241   0.578   8.511 -1.3163 -0.1423  1.5048
 8350SOL    HW236687   0.097   0.602   8.510 -0.3030 -0.4752 -0.6029
 8351SOL     OW36688   2.621   2.267   1.930 -0.1551 -0.1092 -0.1680
 8351SOL    HW136689   2.552   2.207   1.904 -1.0928  0.9168 -0.0651
 8351SOL    HW236690   2.598   2.261   2.023 -0.6538  0.7827 -0.2386
 8352SOL     OW36691   2.862   1.624   8.515 -0.6940  0.4358  0.0782
 8352SOL    HW136692   2.877   1.572   8.594 -0.2849  1.3693  0.6114
 8352SOL    HW236693   2.926   1.585   8.455 -2.2987  1.0002 -1.9752
 8353SOL     OW36694   4.126   0.920   4.388  0.2420  0.0594 -0.1902
 8353SOL    HW136695   4.042   0.891   4.354  0.7311 -0.5384 -0.8820
 8353SOL    HW236696   4.170   0.839   4.412  1.4463  1.6229  2.9136
 8354SOL     OW36697   0.266   1.781  17.213 -0.0204 -0.1116 -0.5252
 8354SOL    HW136698   0.254   1.829  17.131 -1.1708 -0.2224 -0.4282
 8354SOL    HW236699   0.299   1.699  17.175 -2.2595 -0.6144 -1.4063
 8355SOL     OW36700   2.805   3.614   1.787 -0.4763 -0.3308 -0.3932
 8355SOL    HW136701   2.770   3.545   1.844  1.4677 -0.2444  0.8996
 8355SOL    HW236702   2.720   3.637   1.749 -2.5628 -1.7016  3.4975
 8356SOL     OW36703   4.160   1.686   5.202  0.8869 -0.0100 -0.2955
 8356SOL    HW136704   4.218   1.610   5.200 -1.0367 -1.5661  2.9179
 8356SOL    HW236705   4.139   1.689   5.295 -0.7036 -3.1336 -0.5590
 8357SOL     OW36706   0.426   3.214   6.328  0.0552 -0.6249  0.4491
 8357SOL    HW136707   0.367   3.231   6.402 -1.4991  0.9916 -1.1823
 8357SOL    HW236708   0.460   3.302   6.311 -1.1916 -0.0132  1.1069
 8358SOL     OW36709   1.080   0.269   6.403 -0.0640 -0.3326  0.1814
 8358SOL    HW136710   1.106   0.201   6.341 -0.9025 -1.4374  1.0438
 8358SOL    HW236711   1.011   0.236   6.461 -2.5743 -0.2045 -2.7074
 8359SOL     OW36712   0.881   4.713   8.876 -0.0084 -0.1600  0.3433
 8359SOL    HW136713   0.913   4.679   8.959  0.9509 -0.0927 -0.0029
 8359SOL    HW236714   0.944   4.675   8.814 -0.8775  0.0028 -0.6533
 8360SOL     OW36715   4.063   2.358   4.115  0.3457 -0.1183 -0.0486
 8360SOL    HW136716   4.146   2.392   4.081 -0.0840  1.5422  0.5279
 8360SOL    HW236717   4.090   2.288   4.174 -2.0852  1.5893  3.1216
 8361SOL     OW36718   0.390   2.569   8.658  0.2218  0.4226 -0.3245
 8361SOL    HW136719   0.435   2.615   8.729 -0.0627 -0.2948  0.3148
 8361SOL    HW236720   0.396   2.629   8.584  1.6350  0.5710 -0.1017
 8362SOL     OW36721   2.656   3.224   0.332 -0.6225  0.5388  0.1999
 8362SOL    HW136722   2.576   3.266   0.364 -1.4038 -1.5985  1.0880
 8362SOL    HW236723   2.689   3.193   0.416 -0.9793 -0.3903  0.0008
 8363SOL     OW36724   1.288   4.633   7.895  0.3226  0.0692 -0.1883
 8363SOL    HW136725   1.366   4.678   7.862  0.0242  2.7788  2.7785
 8363SOL    HW236726   1.316   4.543   7.874  0.1057 -0.6163  2.4523
 8364SOL     OW36727   1.106   2.797  15.550  0.2926  0.2664 -0.4928
 8364SOL    HW136728   1.021   2.756  15.539  0.5089 -0.5060  0.7874
 8364SOL    HW236729   1.129   2.802  15.457 -0.7268  1.6732 -0.6733
 8365SOL     OW36730   0.953   3.201   8.366  0.1149  0.2305  0.3265
 8365SOL    HW136731   0.982   3.119   8.328  0.2394  0.7435 -0.6829
 8365SOL    HW236732   0.874   3.219   8.315 -0.8998 -0.1442  1.7762
 8366SOL     OW36733   3.032   4.164   2.996 -0.0673 -0.0155  0.1576
 8366SOL    HW136734   3.112   4.207   3.027 -1.1198  1.7382  0.4288
 8366SOL    HW236735   3.035   4.097   3.065  1.4656  1.0927  1.1704
 8367SOL     OW36736   4.347   3.667   8.182  0.3353  0.5411  0.1497
 8367SOL    HW136737   4.291   3.724   8.130 -1.2950  0.0404  1.3882
 8367SOL    HW236738   4.427   3.661   8.129 -0.0539  0.4258 -0.4173
 8368SOL     OW36739   3.994   2.968   6.990  0.0324  0.0331  0.5814
 8368SOL    HW136740   4.045   3.028   6.935 -0.4460 -1.9367 -2.0211
 8368SOL    HW236741   4.058   2.898   6.999  0.4759  0.3753  0.0995
 8369SOL     OW36742   0.609   2.436   7.971 -0.0800  0.1573 -0.2669
 8369SOL    HW136743   0.583   2.371   7.906  2.0783 -0.0354 -0.9345
 8369SOL    HW236744   0.668   2.387   8.029  0.4260  1.3666  0.2353
 8370SOL     OW36745   3.254   3.830   5.731  0.1443 -0.2502 -0.0295
 8370SOL    HW136746   3.170   3.855   5.693  0.6692  0.7881 -0.4889
 8370SOL    HW236747   3.314   3.900   5.706 -1.5784  0.2766 -2.6141
 8371SOL     OW36748   4.637   4.049   6.227  0.1016 -0.3971 -0.3361
 8371SOL    HW136749   4.575   4.118   6.251  0.4065  0.4955 -2.1266
 8371SOL    HW236750   4.577   3.981   6.194 -1.6109  0.7602  0.3684
 8372SOL     OW36751   4.560   4.320  16.720  0.1374  0.0889 -0.0999
 8372SOL    HW136752   4.559   4.377  16.643 -1.0259  1.9380  1.3189
 8372SOL    HW236753   4.655   4.322  16.735  0.3341 -1.2491 -1.1494
 8373SOL     OW36754   2.544   3.692   7.591  0.1757 -0.2791 -0.4843
 8373SOL    HW136755   2.562   3.725   7.503 -1.2958 -2.8885 -1.7945
 8373SOL    HW236756   2.614   3.628   7.601  0.4776 -0.0005 -0.8461
 8374SOL     OW36757   4.196   4.551  10.117 -0.0169 -0.2611 -0.2316
 8374SOL    HW136758   4.253   4.476  10.103 -0.4632 -0.1789 -2.4628
 8374SOL    HW236759   4.112   4.507  10.127 -0.5021  0.9078  0.9408
 8375SOL     OW36760   1.593   3.406   6.077  0.2078  0.4309  0.2888
 8375SOL    HW136761   1.592   3.386   5.984 -0.1878 -1.3633  0.6657
 8375SOL    HW236762   1.638   3.331   6.118 -0.7573 -1.3657 -1.9411
 8376SOL     OW36763   1.189   4.223  15.867 -0.7052 -0.2344 -0.0265
 8376SOL    HW136764   1.247   4.272  15.809 -0.4212 -0.7663 -0.1964
 8376SOL    HW236765   1.098   4.240  15.845 -0.7456 -0.6448 -0.1907
 8377SOL     OW36766   1.541   4.579  14.474  0.3757 -0.0610  0.3300
 8377SOL    HW136767   1.541   4.541  14.562  1.4083  1.0335  0.7920
 8377SOL    HW236768   1.545   4.501  14.418  0.5434  0.5003 -0.4300
 8378SOL     OW36769   1.338   0.888   1.796 -0.4297 -0.3847 -0.6141
 8378SOL    HW136770   1.431   0.886   1.776  0.0313 -1.0327  1.6205
 8378SOL    HW236771   1.296   0.887   1.710 -0.7651 -0.0718 -0.4571
 8379SOL     OW36772   1.795   1.102   4.955  0.1016 -0.1635 -0.2522
 8379SOL    HW136773   1.779   1.020   5.002  0.0748 -0.2974 -0.4947
 8379SOL    HW236774   1.708   1.140   4.969  0.3808  0.0636  0.8248
 8380SOL     OW36775   1.182   0.114   4.587  0.4277 -0.0079  0.0915
 8380SOL    HW136776   1.115   0.108   4.655 -0.0797  0.5713 -0.3539
 8380SOL    HW236777   1.180   0.020   4.568 -1.2711 -0.5839  3.0403
 8381SOL     OW36778   2.562   2.233   9.576 -0.4610  0.3985  0.2798
 8381SOL    HW136779   2.545   2.166   9.509  0.5206 -0.2876  0.7253
 8381SOL    HW236780   2.494   2.204   9.637  0.9011 -0.5957  1.3073
 8382SOL     OW36781   0.687   2.496   5.393 -0.0905 -0.1247 -0.1882
 8382SOL    HW136782   0.711   2.492   5.300 -1.4683  1.0343 -0.5945
 8382SOL    HW236783   0.760   2.545   5.430 -0.6605  0.0639  0.6803
 8383SOL     OW36784   1.552   4.667  17.395  0.4091  0.2385  0.4397
 8383SOL    HW136785   1.585   4.682  17.306  0.3996  0.2599  0.4396
 8383SOL    HW236786   1.598   4.737  17.441  0.7402 -0.2534  0.8569
 8384SOL     OW36787   4.387   0.588   5.282 -0.0200 -0.1079  0.1375
 8384SOL    HW136788   4.450   0.629   5.342 -2.0694 -0.2368  2.3506
 8384SOL    HW236789   4.352   0.522   5.342  2.5997  0.0936  1.8676
 8385SOL     OW36790   1.537   3.201   5.738 -0.0249  0.2387 -0.7471
 8385SOL    HW136791   1.450   3.241   5.738 -0.1089  0.0722  1.4554
 8385SOL    HW236792   1.543   3.166   5.649  0.3891  1.7800 -1.3213
 8386SOL     OW36793   1.154   0.324  16.530 -0.1209 -0.8729  0.9032
 8386SOL    HW136794   1.142   0.380  16.606 -0.2422 -0.1074  0.3127
 8386SOL    HW236795   1.167   0.392  16.464 -1.4444  0.5687  2.1538
 8387SOL     OW36796   1.865   2.587   1.627  0.0452 -0.3723  0.3791
 8387SOL    HW136797   1.908   2.502   1.633  0.4165 -0.0121  2.7450
 8387SOL    HW236798   1.800   2.587   1.697 -0.6943  1.9662 -0.2806
 8388SOL     OW36799   0.904   4.564   4.853 -0.2588  0.0740 -0.1645
 8388SOL    HW136800   0.959   4.486   4.864 -0.6924 -0.1001  0.7915
 8388SOL    HW236801   0.857   4.574   4.936  1.2731 -0.5740  0.7890
 8389SOL     OW36802   2.879   2.171   1.298  0.2293 -0.1656  0.2174
 8389SOL    HW136803   2.836   2.252   1.272 -0.4119 -1.2775 -2.1625
 8389SOL    HW236804   2.912   2.194   1.385  0.6200  0.8195 -0.1762
 8390SOL     OW36805   0.582   4.692   0.846  0.0147  0.3543 -0.1358
 8390SOL    HW136806   0.609   0.038   0.882  0.1332  0.5940 -0.7875
 8390SOL    HW236807   0.659   4.678   0.790 -1.4942  0.2118 -2.1951
 8391SOL     OW36808   0.281   1.227  17.697  0.0461  0.5562 -0.2717
 8391SOL    HW136809   0.352   1.230   0.006  0.5211  3.4287 -0.9408
 8391SOL    HW236810   0.202   1.221  17.750 -1.8889 -0.5959 -3.2847
 8392SOL     OW36811   1.804   0.540   6.175  0.0569  0.4742  0.5974
 8392SOL    HW136812   1.779   0.477   6.242  2.3131 -1.2722 -0.2298
 8392SOL    HW236813   1.735   0.528   6.110 -1.0429 -0.5099  1.9521
 8393SOL     OW36814   1.146   0.330  14.155  0.1579 -0.3509  0.8532
 8393SOL    HW136815   1.099   0.400  14.199 -0.2525  1.1173 -1.9431
 8393SOL    HW236816   1.231   0.370  14.136 -0.5400  0.3767 -0.7255
 8394SOL     OW36817   1.104   0.879   9.988 -0.6181  0.2088 -0.4611
 8394SOL    HW136818   1.069   0.835  10.066 -0.4683  1.6614  0.4307
 8394SOL    HW236819   1.033   0.859   9.927 -0.8571  0.6858 -0.3379
 8395SOL     OW36820   3.051   2.668   2.566 -0.2952 -0.1504  0.1761
 8395SOL    HW136821   2.986   2.738   2.558  0.4951  0.4336 -1.1817
 8395SOL    HW236822   3.085   2.650   2.478  0.8963  0.6818  0.4707
 8396SOL     OW36823   1.665   4.389   1.376 -0.3785 -0.5721  0.7289
 8396SOL    HW136824   1.736   4.450   1.398 -0.2259 -1.0096  1.4322
 8396SOL    HW236825   1.697   4.379   1.286  0.6520 -0.7255  1.1116
 8397SOL     OW36826   0.183   0.966   8.885  0.8035 -0.0640 -0.0237
 8397SOL    HW136827   0.200   0.893   8.945 -2.5388 -0.2433  0.7240
 8397SOL    HW236828   0.225   0.929   8.808 -2.5049 -0.1908 -1.7643
 8398SOL     OW36829   4.698   0.561   5.722 -0.2851  0.0993 -0.6031
 8398SOL    HW136830   4.664   0.504   5.652  0.7619 -0.9519 -0.2453
 8398SOL    HW236831   0.023   0.607   5.669 -1.2857 -0.3527 -2.2256
 8399SOL     OW36832   4.103   4.286   6.899  0.3154 -0.1850 -0.3051
 8399SOL    HW136833   4.010   4.266   6.888  0.3869 -0.7652  0.1294
 8399SOL    HW236834   4.089   4.310   6.990  1.6742  1.8142 -0.6351
 8400SOL     OW36835   2.940   2.809   5.180 -0.1058 -0.0346 -0.0521
 8400SOL    HW136836   2.934   2.750   5.104  0.1293 -2.1496  1.5927
 8400SOL    HW236837   3.032   2.793   5.199  0.4524  3.5953  0.3210
 8401SOL     OW36838   0.220   2.931  13.093  0.1972  0.3280  0.4737
 8401SOL    HW136839   0.171   2.900  13.016  0.6311 -0.6016  0.5742
 8401SOL    HW236840   0.229   3.024  13.071  0.1156  0.2022 -0.0888
 8402SOL     OW36841   0.247   3.039   6.906 -0.0565 -0.0647  0.1986
 8402SOL    HW136842   0.306   2.969   6.936  1.0925  0.3170 -1.1519
 8402SOL    HW236843   0.267   3.113   6.963  0.5662 -0.8447  0.9951
 8403SOL     OW36844   2.739   4.045   0.701  0.4887  0.6567 -0.4180
 8403SOL    HW136845   2.801   3.994   0.649  0.2193 -0.6007  0.4880
 8403SOL    HW236846   2.792   4.073   0.776  0.6786  2.4649 -1.2337
 8404SOL     OW36847   1.431   1.846  13.053 -0.4783  0.4731  0.6326
 8404SOL    HW136848   1.456   1.817  12.965 -1.0705 -0.0240  0.6247
 8404SOL    HW236849   1.428   1.767  13.108 -2.0500  0.0631 -0.0209
 8405SOL     OW36850   4.680   1.469   6.660 -0.0396 -0.2313  0.1955
 8405SOL    HW136851   4.707   1.559   6.678 -0.5852 -0.1022  0.3710
 8405SOL    HW236852   4.696   1.421   6.741  0.7974  0.3128  0.3439
 8406SOL     OW36853   3.026   4.553  14.913 -0.7281 -0.2490  0.6375
 8406SOL    HW136854   3.052   4.632  14.959 -1.3113 -0.9738  2.2047
 8406SOL    HW236855   3.110   4.530  14.874 -2.4770 -0.3724 -3.0467
 8407SOL     OW36856   1.514   3.406   4.060  0.5708  0.7054 -0.2582
 8407SOL    HW136857   1.600   3.447   4.052  1.2741 -0.6570  0.3167
 8407SOL    HW236858   1.484   3.403   3.969 -0.2664  0.8256  0.0171
 8408SOL     OW36859   2.993   0.275   1.115  0.3093  0.0756 -0.9993
 8408SOL    HW136860   2.919   0.303   1.062 -1.2910 -0.5038  0.9475
 8408SOL    HW236861   3.029   0.197   1.072  1.7026 -1.7013  3.3572
 8409SOL     OW36862   1.346   1.054   8.545  0.0549 -0.6472 -0.1659
 8409SOL    HW136863   1.384   1.094   8.623  1.4980 -1.0631 -0.6411
 8409SOL    HW236864   1.271   1.009   8.581 -0.2011  1.6164  2.0795
 8410SOL     OW36865   4.578   1.592   6.960 -0.1367 -0.1602  0.0148
 8410SOL    HW136866   4.492   1.619   6.993 -0.5550 -0.2258 -1.0125
 8410SOL    HW236867   4.590   1.643   6.880 -0.9925  0.1836  0.1000
 8411SOL     OW36868   4.346   0.358  15.640  0.0680  0.9712 -0.0700
 8411SOL    HW136869   4.352   0.339  15.733  0.0991 -2.0829 -0.6753
 8411SOL    HW236870   4.371   0.272  15.605 -0.9565  1.4936 -2.1147
 8412SOL     OW36871   4.194   3.772   7.625  0.3935 -0.4490  0.1913
 8412SOL    HW136872   4.193   3.692   7.572  0.8659  0.9728 -1.9889
 8412SOL    HW236873   4.178   3.843   7.563  2.2861  0.9552  1.3303
 8413SOL     OW36874   3.374   0.044   2.658 -0.5281 -0.1872  0.0880
 8413SOL    HW136875   3.387   0.059   2.564 -2.4840 -0.4506 -0.2364
 8413SOL    HW236876   3.351   4.691   2.645  0.5983 -0.2849 -1.2163
 8414SOL     OW36877   1.366   4.567   8.781 -0.2254 -0.2257 -0.2325
 8414SOL    HW136878   1.382   4.650   8.735  1.8052  0.2311  1.3044
 8414SOL    HW236879   1.450   4.524   8.798  0.1331  0.8932  0.8121
 8415SOL     OW36880   1.786   1.062   1.590  0.4669 -0.4489  0.1394
 8415SOL    HW136881   1.715   1.039   1.529  0.4947 -0.3839  0.0830
 8415SOL    HW236882   1.741   1.119   1.652 -2.7187  0.3079 -2.8839
 8416SOL     OW36883   1.503   1.249  14.303 -0.2282 -0.1956  0.1942
 8416SOL    HW136884   1.433   1.197  14.343 -0.2254 -1.7903 -1.8637
 8416SOL    HW236885   1.470   1.338  14.318  1.2633  0.0662  1.8745
 8417SOL     OW36886   4.363   3.378   1.600  0.0531  0.1446  0.4068
 8417SOL    HW136887   4.384   3.457   1.550  1.9244  0.7918  2.2014
 8417SOL    HW236888   4.441   3.332   1.570  0.1357  0.7094 -0.2541
 8418SOL     OW36889   4.678   1.581  12.873 -0.4142 -0.1746 -0.0473
 8418SOL    HW136890   4.657   1.580  12.966  0.7248  0.5480  0.2165
 8418SOL    HW236891   0.020   1.530  12.880  0.0314  0.6091  0.5551
 8419SOL     OW36892   1.043   1.545  15.061  0.4462 -0.0790  0.1231
 8419SOL    HW136893   1.078   1.634  15.072  0.1006  0.0922 -0.1486
 8419SOL    HW236894   1.124   1.498  15.040  0.5732 -0.0575  0.5539
 8420SOL     OW36895   3.897   0.258   6.256 -0.3515 -0.3692 -0.6290
 8420SOL    HW136896   3.809   0.288   6.278  0.2510  1.2514 -0.4425
 8420SOL    HW236897   3.907   0.200   6.331  2.1151  0.4096 -0.3786
 8421SOL     OW36898   0.339   2.749   8.156 -0.0339  0.8318 -0.2509
 8421SOL    HW136899   0.297   2.687   8.215  2.0634 -0.1495  0.2023
 8421SOL    HW236900   0.421   2.704   8.136 -0.2510  0.9686 -1.4560
 8422SOL     OW36901   0.670   1.163   5.663  0.6868  0.3760 -0.7654
 8422SOL    HW136902   0.631   1.176   5.576  1.2412  0.5971 -0.9833
 8422SOL    HW236903   0.610   1.204   5.725  1.4136  0.5368 -0.1738
 8423SOL     OW36904   4.046   2.565   6.628  0.3378 -0.2439 -0.4656
 8423SOL    HW136905   4.042   2.518   6.545  1.3822  0.5357 -0.9586
 8423SOL    HW236906   3.955   2.563   6.656 -0.2154  1.4539 -2.1593
 8424SOL     OW36907   3.595   1.756  13.967  0.0691 -0.1200  0.0880
 8424SOL    HW136908   3.660   1.738  13.899 -0.8822  0.9538 -1.1308
 8424SOL    HW236909   3.648   1.761  14.046 -0.9682  0.4682  0.7379
 8425SOL     OW36910   1.814   0.302  15.134 -0.4801 -0.3332 -0.0685
 8425SOL    HW136911   1.851   0.227  15.181  2.6707  0.6170 -0.9894
 8425SOL    HW236912   1.888   0.338  15.084 -2.1754 -0.1432 -2.4418
 8426SOL     OW36913   0.272   3.568  10.467  0.4482  0.1812 -0.1181
 8426SOL    HW136914   0.278   3.663  10.468  0.8779  0.1410  1.8068
 8426SOL    HW236915   0.179   3.554  10.486 -0.0330  1.2291 -1.6796
 8427SOL     OW36916   2.636   0.268   3.710  0.1947 -0.2604  0.4136
 8427SOL    HW136917   2.646   0.320   3.790 -1.7365  1.2769 -0.3287
 8427SOL    HW236918   2.725   0.237   3.692  0.5566  0.8593  0.2795
 8428SOL     OW36919   2.524   0.865   1.191 -0.0226  0.4082 -0.6065
 8428SOL    HW136920   2.558   0.918   1.119  2.2247  1.5351  1.3080
 8428SOL    HW236921   2.453   0.926   1.212  0.0649  0.8512 -1.6231
 8429SOL     OW36922   2.816   1.898   8.559  0.3230  0.9788  0.4935
 8429SOL    HW136923   2.755   1.906   8.632 -1.5934 -1.3579 -0.8339
 8429SOL    HW236924   2.829   1.805   8.542  1.4438  1.3318 -0.6339
 8430SOL     OW36925   4.729   4.045   3.057 -0.0259  0.3336  0.1278
 8430SOL    HW136926   4.666   4.029   3.127  0.0452 -0.6850 -0.0341
 8430SOL    HW236927   4.726   4.141   3.060  0.4677  0.4110 -2.2286
 8431SOL     OW36928   1.516   1.696  12.836  0.0263  0.7368 -0.0157
 8431SOL    HW136929   1.531   1.749  12.758  0.1088  0.9452  0.1400
 8431SOL    HW236930   1.574   1.624  12.811  1.7144  2.0474  0.1115
 8432SOL     OW36931   3.665   2.582   6.949 -0.2297 -0.9609 -0.0172
 8432SOL    HW136932   3.722   2.585   7.026 -0.1471  1.6454 -0.1649
 8432SOL    HW236933   3.732   2.598   6.882 -3.4882  0.7485 -2.8751
 8433SOL     OW36934   3.285   2.586   2.380 -0.2342  0.2875  0.7247
 8433SOL    HW136935   3.235   2.505   2.384  2.9607 -1.6312  2.4615
 8433SOL    HW236936   3.373   2.571   2.344 -0.2216  1.2198  0.3566
 8434SOL     OW36937   3.142   0.598  10.987 -0.5708  0.0211 -0.1570
 8434SOL    HW136938   3.220   0.562  11.029 -0.1464  3.0601  1.7289
 8434SOL    HW236939   3.093   0.631  11.063  1.4737  1.3725  0.5844
 8435SOL     OW36940   0.020   2.329   2.251 -0.1557  0.1879 -0.2232
 8435SOL    HW136941   0.048   2.405   2.201  1.4994 -0.3802 -0.1642
 8435SOL    HW236942   4.709   2.369   2.322 -0.9184 -1.0424 -0.0640
 8436SOL     OW36943   3.769   3.230  11.120 -0.3846 -0.8347 -0.3863
 8436SOL    HW136944   3.774   3.269  11.208  0.5541 -0.3750 -0.6420
 8436SOL    HW236945   3.804   3.142  11.132 -0.3218 -0.6303  0.9253
 8437SOL     OW36946   2.146   4.738   3.808 -0.4005 -0.0857 -0.0165
 8437SOL    HW136947   2.161   4.664   3.749  4.6378  0.0322  1.0955
 8437SOL    HW236948   2.197   0.074   3.776  0.6482 -0.3026  1.1728
 8438SOL     OW36949   1.388   1.956   3.347 -0.5104  0.2774 -0.1172
 8438SOL    HW136950   1.444   2.031   3.367 -0.6513  0.3822 -0.1205
 8438SOL    HW236951   1.456   1.891   3.329  1.0329  1.4583  1.4547
 8439SOL     OW36952   3.637   2.207   6.402  0.0105  0.0138  0.4908
 8439SOL    HW136953   3.651   2.239   6.313  0.0501 -0.2439  0.4042
 8439SOL    HW236954   3.544   2.191   6.385  0.7196 -1.1618 -2.3604
 8440SOL     OW36955   0.890   3.759   0.763  0.3357  0.0075  0.5835
 8440SOL    HW136956   0.830   3.700   0.717 -0.5413  0.7548  0.7709
 8440SOL    HW236957   0.942   3.791   0.689  0.6221 -1.0728  0.3058
 8441SOL     OW36958   2.206   1.358   5.378  0.6382  0.9134  0.0824
 8441SOL    HW136959   2.231   1.337   5.288  0.5238 -0.2715  0.3351
 8441SOL    HW236960   2.215   1.270   5.415 -0.1688  0.4211 -0.8917
 8442SOL     OW36961   4.055   3.734  15.451 -0.2806 -0.0126 -0.0435
 8442SOL    HW136962   4.129   3.729  15.390 -0.7868 -2.1839 -0.4766
 8442SOL    HW236963   4.088   3.674  15.518 -0.2013 -2.1490 -2.0059
 8443SOL     OW36964   1.301   0.274   8.316 -0.0884  0.1626  0.0276
 8443SOL    HW136965   1.275   0.272   8.224  0.2830 -2.9290  0.0005
 8443SOL    HW236966   1.338   0.188   8.333  2.8871  1.3984 -0.3283
 8444SOL     OW36967   1.217   2.844   0.229 -0.0491  0.3837 -0.3339
 8444SOL    HW136968   1.146   2.908   0.237 -0.2517  0.1878 -0.5594
 8444SOL    HW236969   1.185   2.788   0.159 -0.5694 -0.3750  0.5118
 8445SOL     OW36970   1.796   4.281   6.358 -0.1763 -0.2561  0.4160
 8445SOL    HW136971   1.859   4.210   6.369 -0.0396 -0.4033 -1.3637
 8445SOL    HW236972   1.717   4.227   6.363 -0.1661 -0.3468 -0.4217
 8446SOL     OW36973   1.644   0.715   4.547  0.0635  0.3943 -0.1038
 8446SOL    HW136974   1.616   0.627   4.570  0.5375  0.7821  1.9138
 8446SOL    HW236975   1.616   0.695   4.457 -0.0992  0.2802 -0.0278
 8447SOL     OW36976   0.057   3.982   4.378  0.1676  0.4713 -0.0398
 8447SOL    HW136977   0.131   4.042   4.372  0.4132  0.0543 -1.3005
 8447SOL    HW236978   0.031   3.989   4.286 -0.9049 -0.0763  0.2255
 8448SOL     OW36979   4.291   3.088   6.406  0.2840  0.0001  0.1632
 8448SOL    HW136980   4.249   3.006   6.379 -0.5999 -0.4956  3.0914
 8448SOL    HW236981   4.290   3.128   6.319  0.7659 -1.1230 -0.3528
 8449SOL     OW36982   0.395   3.880   7.139 -0.3340  0.2095 -0.1690
 8449SOL    HW136983   0.314   3.902   7.093 -2.5932 -0.8792  3.2918
 8449SOL    HW236984   0.392   3.785   7.132  3.2232  0.1456 -0.7934
 8450SOL     OW36985   4.187   0.006   8.150 -0.1821 -0.0268 -0.6179
 8450SOL    HW136986   4.117   0.065   8.121 -1.2101 -0.2582  1.3968
 8450SOL    HW236987   4.267   0.053   8.126 -0.5561 -0.2065 -2.2470
 8451SOL     OW36988   1.977   0.647   9.839 -0.6567 -0.0928 -0.3207
 8451SOL    HW136989   2.046   0.610   9.894 -0.3478  0.3563 -0.3981
 8451SOL    HW236990   1.911   0.580   9.855 -1.3219  0.4723 -0.6758
 8452SOL     OW36991   3.663   2.372  11.751 -0.0516  0.0758  0.0757
 8452SOL    HW136992   3.728   2.442  11.757 -1.1633  1.1296  0.0165
 8452SOL    HW236993   3.638   2.387  11.660 -0.0279  1.0212  0.2173
 8453SOL     OW36994   4.094   4.728   1.560  0.3828  0.6820 -0.0688
 8453SOL    HW136995   4.143   4.663   1.609 -2.5293 -1.6213 -0.1687
 8453SOL    HW236996   4.001   4.707   1.573  0.4492 -2.0562 -3.8370
 8454SOL     OW36997   2.055   1.534  16.639 -0.0529  0.0789 -0.2536
 8454SOL    HW136998   2.059   1.440  16.651 -0.6830  0.0392 -0.3703
 8454SOL    HW236999   2.041   1.542  16.544  0.7179 -2.5090 -0.5784
 8455SOL     OW37000   0.322   1.286   6.718  0.0366  0.0967  0.4296
 8455SOL    HW137001   0.256   1.336   6.765  0.7924  2.0765 -0.6041
 8455SOL    HW237002   0.291   1.308   6.630  1.0035 -1.0483 -0.2088
 8456SOL     OW37003   0.956   3.396   4.000 -0.3477 -0.2980  0.1364
 8456SOL    HW137004   1.027   3.379   3.937 -1.2491 -1.4228 -0.5761
 8456SOL    HW237005   0.899   3.462   3.961 -1.5054 -1.4577 -0.0956
 8457SOL     OW37006   1.317   2.731   3.377 -0.4868  0.4648  0.4238
 8457SOL    HW137007   1.255   2.796   3.411  1.1465  1.9917  0.4502
 8457SOL    HW237008   1.317   2.658   3.438  1.5135 -0.8289 -1.1197
 8458SOL     OW37009   3.824   0.716   7.178  0.1948  0.1347  0.0491
 8458SOL    HW137010   3.805   0.641   7.122 -0.9896  1.6880 -1.6403
 8458SOL    HW237011   3.787   0.784   7.121  0.5994 -0.1995 -0.6081
 8459SOL     OW37012   1.696   1.733   4.149  0.3685 -0.0384  0.2766
 8459SOL    HW137013   1.609   1.708   4.116  0.3857  1.8512 -1.2052
 8459SOL    HW237014   1.689   1.701   4.239 -3.5743  0.6457  0.2378
 8460SOL     OW37015   2.671   1.429   3.222  0.1957 -0.2004  0.0004
 8460SOL    HW137016   2.761   1.404   3.201 -0.4753 -2.5872 -0.0035
 8460SOL    HW237017   2.625   1.345   3.223  1.5962 -0.9279  1.9703
 8461SOL     OW37018   0.102   0.610   6.022  0.0772 -0.5582  0.2935
 8461SOL    HW137019   0.114   0.608   6.117 -1.1595  0.3299  0.4522
 8461SOL    HW237020   0.010   0.632   6.009  0.2562 -1.4011 -2.4712
 8462SOL     OW37021   0.095   0.001   8.238 -0.9345 -0.0214 -0.0157
 8462SOL    HW137022   0.026   4.722   8.302  0.5607  0.2181  1.6664
 8462SOL    HW237023   0.164   4.680   8.267  0.5522  1.5375 -0.3747
 8463SOL     OW37024   2.139   0.404   1.324 -0.4100  0.2266 -0.3546
 8463SOL    HW137025   2.169   0.314   1.332 -1.3615  0.1579  2.6195
 8463SOL    HW237026   2.182   0.435   1.245 -0.9077 -0.2818 -0.8259
 8464SOL     OW37027   3.413   3.170   6.476  0.2735  0.4948  0.1791
 8464SOL    HW137028   3.480   3.180   6.410 -0.6210  1.2080 -0.6234
 8464SOL    HW237029   3.419   3.077   6.501  3.0570 -0.3262 -3.5577
 8465SOL     OW37030   2.100   0.110   5.091  0.0384 -0.0221 -0.5076
 8465SOL    HW137031   2.045   0.077   5.162  0.6495  0.7334  0.3171
 8465SOL    HW237032   2.045   0.103   5.013 -0.3190  0.9314 -0.3487
 8466SOL     OW37033   0.176   0.074   2.641  0.2484  0.0264  0.0409
 8466SOL    HW137034   0.229   0.070   2.562 -1.1855 -1.2412 -0.8707
 8466SOL    HW237035   0.193   0.166   2.662 -1.3197  0.3771 -0.2128
 8467SOL     OW37036   1.781   1.796  15.061  0.1309  0.2434 -0.2227
 8467SOL    HW137037   1.834   1.861  15.015 -1.1836 -0.9150 -3.3958
 8467SOL    HW237038   1.834   1.717  15.052 -0.9190 -0.5274  0.3431
 8468SOL     OW37039   4.579   0.141   4.391  0.1450  0.1874  0.2433
 8468SOL    HW137040   4.511   0.094   4.343  1.0681 -0.4349 -0.4566
 8468SOL    HW237041   4.549   0.124   4.480 -1.3682  1.7329  0.0279
 8469SOL     OW37042   0.379   1.925   1.081 -0.4505  0.0110 -0.2394
 8469SOL    HW137043   0.297   1.944   1.036  0.0266 -0.5001 -1.3368
 8469SOL    HW237044   0.383   2.001   1.138  1.9356 -1.0089  0.9831
 8470SOL     OW37045   4.604   2.576   4.576  0.2911  0.1300 -0.1617
 8470SOL    HW137046   4.524   2.529   4.600 -0.0989  0.8004 -0.1522
 8470SOL    HW237047   4.626   2.530   4.495 -2.6406  1.8730 -1.9527
 8471SOL     OW37048   1.623   2.764   3.085 -0.4856 -0.2315 -0.6644
 8471SOL    HW137049   1.653   2.771   2.994 -0.3533 -3.0952 -0.8665
 8471SOL    HW237050   1.560   2.692   3.090 -0.3685 -0.5595 -3.8363
 8472SOL     OW37051   0.837   0.696   4.068  0.0045 -0.1542  0.7237
 8472SOL    HW137052   0.764   0.700   4.006  0.3039 -0.1230  0.3771
 8472SOL    HW237053   0.791   0.745   4.136 -3.5794  1.0132 -2.5349
 8473SOL     OW37054   1.958   2.142  16.080 -0.2723 -0.0461  0.0633
 8473SOL    HW137055   2.019   2.165  16.150  0.5959  0.3652 -0.8260
 8473SOL    HW237056   1.879   2.173  16.124 -1.2742  1.3386 -2.7328
 8474SOL     OW37057   3.920   0.758   6.338 -0.3105 -0.1138 -0.5756
 8474SOL    HW137058   3.939   0.701   6.264  0.5046 -1.7099  0.8463
 8474SOL    HW237059   4.001   0.744   6.387 -0.3482 -1.0728 -0.7881
 8475SOL     OW37060   4.481   4.160  13.061 -0.3659  0.1704 -0.0961
 8475SOL    HW137061   4.525   4.214  12.997 -0.2756 -1.3217 -1.2947
 8475SOL    HW237062   4.519   4.077  13.031  0.0055  0.3745 -0.1827
 8476SOL     OW37063   0.564   0.785   4.792 -0.6248  0.1752  0.1777
 8476SOL    HW137064   0.593   0.730   4.719  0.3479 -0.6760  1.2236
 8476SOL    HW237065   0.603   0.871   4.773 -0.9244 -0.1511 -1.9305
 8477SOL     OW37066   4.559   2.941   1.984  0.3798  0.0987 -0.0912
 8477SOL    HW137067   4.551   2.871   1.919 -0.6372 -0.0657  0.2085
 8477SOL    HW237068   4.500   2.911   2.053 -0.0379  1.2846  0.0536
 8478SOL     OW37069   2.762   4.515  14.526 -0.0515 -0.4714  0.0869
 8478SOL    HW137070   2.678   4.477  14.500 -0.4313 -0.9798  2.0816
 8478SOL    HW237071   2.762   4.475  14.613 -2.9055 -1.2942 -0.2871
 8479SOL     OW37072   2.945   0.377   7.198 -0.3835  0.0153 -0.5297
 8479SOL    HW137073   2.899   0.321   7.261  1.2215 -1.2249 -0.4833
 8479SOL    HW237074   2.940   0.321   7.120 -0.7766 -1.1629  0.3453
 8480SOL     OW37075   3.602   2.456   1.718 -0.3201  0.1653  0.1935
 8480SOL    HW137076   3.633   2.540   1.685  5.7326 -2.2753 -0.3668
 8480SOL    HW237077   3.605   2.410   1.634  0.6529 -0.2051  0.4260
 8481SOL     OW37078   3.293   4.549   1.689 -0.2637  0.1080 -0.2409
 8481SOL    HW137079   3.254   4.551   1.602 -0.2741  0.8435 -0.2182
 8481SOL    HW237080   3.273   4.637   1.721  1.8422  0.5510 -0.1954
 8482SOL     OW37081   2.022   2.506  12.065 -0.0077  0.5607 -0.0834
 8482SOL    HW137082   2.011   2.509  12.160  0.9734  2.1910 -0.0127
 8482SOL    HW237083   1.942   2.459  12.042  0.4806 -0.0306 -0.5601
 8483SOL     OW37084   2.130   4.454   9.287 -0.0081  0.5270  0.3025
 8483SOL    HW137085   2.089   4.518   9.229 -0.2275  0.6812  0.6209
 8483SOL    HW237086   2.067   4.384   9.308 -1.2975  0.8460 -2.5267
 8484SOL     OW37087   2.448   1.856  13.887 -0.2315 -0.1556  0.2717
 8484SOL    HW137088   2.453   1.910  13.966 -0.5082  0.2558  0.0054
 8484SOL    HW237089   2.382   1.795  13.919  1.0042 -1.4867  0.2776
 8485SOL     OW37090   2.023   1.853   0.521  0.1708 -0.0438 -0.2643
 8485SOL    HW137091   1.961   1.782   0.505  0.0075 -0.5397  2.5841
 8485SOL    HW237092   2.014   1.868   0.615  3.4827  1.0561 -0.1192
 8486SOL     OW37093   2.331   0.864   0.013  0.5048  0.4615 -0.2137
 8486SOL    HW137094   2.385   0.933   0.052  0.9162 -0.9013  1.6249
 8486SOL    HW237095   2.379   0.860  17.685 -0.6257 -0.2060 -0.8382
 8487SOL     OW37096   3.745   3.045   4.306 -0.3277  0.4795 -0.0930
 8487SOL    HW137097   3.794   3.125   4.287 -0.3087  0.3978 -0.3896
 8487SOL    HW237098   3.663   3.094   4.310 -0.8183 -0.2476 -1.3273
 8488SOL     OW37099   2.495   4.406   4.158 -0.2881  0.3658  0.1613
 8488SOL    HW137100   2.496   4.329   4.214  0.1771 -0.7080 -1.3292
 8488SOL    HW237101   2.568   4.455   4.197 -0.2723  1.6467 -1.4851
 8489SOL     OW37102   3.857   0.501   4.556  0.1778  0.1115  0.1836
 8489SOL    HW137103   3.818   0.439   4.617  2.4502 -0.6834  0.8304
 8489SOL    HW237104   3.893   0.430   4.503  1.4088  0.4855  0.5355
 8490SOL     OW37105   0.381   2.070  17.044  0.7851 -0.1707 -0.0416
 8490SOL    HW137106   0.337   2.018  16.976  0.2705 -1.0739  0.9770
 8490SOL    HW237107   0.467   2.030  17.044  0.9170  0.1034 -1.8253
 8491SOL     OW37108   1.949   4.527   4.378  0.4819  0.1038 -0.1332
 8491SOL    HW137109   1.960   4.602   4.437  1.1095  0.3410 -0.5434
 8491SOL    HW237110   2.002   4.554   4.303  1.0976 -0.1027  0.2295
 8492SOL     OW37111   4.014   2.588  16.748  0.0603  0.6545  0.1439
 8492SOL    HW137112   4.088   2.648  16.738  1.5054 -1.3408 -0.9173
 8492SOL    HW237113   4.009   2.587  16.844  0.6562  2.3555  0.2005
 8493SOL     OW37114   0.934   4.506   8.351 -0.4476  0.3193 -0.8794
 8493SOL    HW137115   1.010   4.448   8.345 -0.7416 -0.0932 -0.6077
 8493SOL    HW237116   0.973   4.581   8.395  0.0799 -0.6265  0.2374
 8494SOL     OW37117   1.339   4.171   1.417  0.2659  0.3724  0.2817
 8494SOL    HW137118   1.289   4.234   1.468 -2.7427 -0.5893 -1.4765
 8494SOL    HW237119   1.427   4.173   1.454 -0.5149 -0.0437  2.1549
 8495SOL     OW37120   2.230   2.465   5.285 -0.0934  0.1760  0.7494
 8495SOL    HW137121   2.156   2.406   5.269 -0.6071  0.5153  1.8441
 8495SOL    HW237122   2.182   2.531   5.335 -0.6077  0.6192 -0.3212
 8496SOL     OW37123   1.747   2.503  12.069  0.5074  0.3369 -0.4803
 8496SOL    HW137124   1.673   2.457  12.029 -0.5584  1.1496  0.5243
 8496SOL    HW237125   1.737   2.471  12.159 -0.8399 -0.3556 -0.8710
 8497SOL     OW37126   4.721   1.034  15.343  0.2234  0.4297 -0.4370
 8497SOL    HW137127   4.635   1.017  15.382  0.7571  1.3133  1.1660
 8497SOL    HW237128   0.036   1.011  15.419  2.0976  2.7818 -1.0596
 8498SOL     OW37129   2.537   0.322   0.612 -0.2058  0.3761  0.0981
 8498SOL    HW137130   2.528   0.231   0.583  2.9722  0.6832 -1.8488
 8498SOL    HW237131   2.494   0.319   0.698 -1.6287  1.4068 -0.5603
 8499SOL     OW37132   0.402   3.977  16.842 -0.4316 -0.1081  0.2179
 8499SOL    HW137133   0.411   4.058  16.891  1.3759 -0.3464  0.2552
 8499SOL    HW237134   0.306   3.978  16.834 -0.3944  0.5386 -0.0906
 8500SOL     OW37135   1.571   2.560  15.870  0.2298 -0.7577 -0.1922
 8500SOL    HW137136   1.663   2.533  15.866 -0.1177 -2.0853  0.7625
 8500SOL    HW237137   1.532   2.509  15.941  2.4685 -0.6058  1.1506
 8501SOL     OW37138   2.141   1.468  12.517  0.5938  0.2518  0.0558
 8501SOL    HW137139   2.089   1.540  12.552  0.3799 -0.0930  0.4496
 8501SOL    HW237140   2.089   1.397  12.556 -0.1411  0.2116 -0.9974
 8502SOL     OW37141   0.708   1.006   6.706  0.3368  0.2667  0.3337
 8502SOL    HW137142   0.717   1.101   6.713  0.4417  0.3596 -1.1200
 8502SOL    HW237143   0.707   0.968   6.794 -1.3288  2.1826  1.1530
 8503SOL     OW37144   1.082   2.437   4.480 -0.0733 -0.7558  0.9154
 8503SOL    HW137145   1.123   2.521   4.502 -0.1407 -0.2349 -0.9974
 8503SOL    HW237146   1.079   2.405   4.571 -0.8495  0.3192  1.2607
 8504SOL     OW37147   0.410   0.834  17.626 -0.5510  0.2696 -0.0596
 8504SOL    HW137148   0.328   0.883  17.624 -1.0569 -0.6477 -1.7148
 8504SOL    HW237149   0.473   0.905  17.616 -2.0165  1.4206 -1.0542
 8505SOL     OW37150   3.007   1.476   7.157  0.1472 -0.0395 -0.3751
 8505SOL    HW137151   2.930   1.533   7.161  0.4260  0.1678  2.4442
 8505SOL    HW237152   3.076   1.538   7.133 -1.3951  1.4845 -0.8767
 8506SOL     OW37153   2.987   2.765   3.093  0.0982 -0.4056 -0.1236
 8506SOL    HW137154   3.067   2.714   3.102 -0.8045 -1.6700  0.7505
 8506SOL    HW237155   2.937   2.711   3.032  0.6931  0.2119 -1.1571
 8507SOL     OW37156   3.805   4.681  15.057  0.0183  0.3216  0.1706
 8507SOL    HW137157   3.859   4.606  15.035 -0.3525  0.5381 -1.4404
 8507SOL    HW237158   3.732   4.635  15.098 -0.2281  1.1406  0.6574
 8508SOL     OW37159   2.736   0.777  11.807  0.0659 -0.4330  0.0038
 8508SOL    HW137160   2.655   0.764  11.856  0.9237  0.2480  1.5981
 8508SOL    HW237161   2.786   0.699  11.833  0.0117 -0.6307 -0.4899
 8509SOL     OW37162   1.538   0.652  16.047  0.2575 -0.5090  0.0462
 8509SOL    HW137163   1.547   0.695  15.963 -1.7971  1.2680  0.7524
 8509SOL    HW237164   1.514   0.564  16.017  3.2822  0.0008 -3.8060
 8510SOL     OW37165   2.030   2.021   9.120 -0.5569 -0.3398 -0.1096
 8510SOL    HW137166   2.110   2.008   9.172 -0.2905  1.4589 -0.0542
 8510SOL    HW237167   2.046   1.958   9.049  2.2979  2.1190 -1.6722
 8511SOL     OW37168   2.427   3.071   4.929  0.5462 -0.1049 -0.2690
 8511SOL    HW137169   2.459   3.016   5.001 -0.4242  0.3705  0.5295
 8511SOL    HW237170   2.426   3.157   4.971 -0.5245  0.5442 -1.6464
 8512SOL     OW37171   2.412   4.028   5.567 -0.3983  0.0336 -0.0162
 8512SOL    HW137172   2.446   4.117   5.565 -2.2211  0.6971 -1.7708
 8512SOL    HW237173   2.395   4.016   5.473  0.9166 -1.1147 -0.1098
 8513SOL     OW37174   0.390   0.214   5.253  0.2530 -0.1486  0.1969
 8513SOL    HW137175   0.467   0.251   5.297  0.7916 -1.4040  0.3042
 8513SOL    HW237176   0.413   0.122   5.259 -0.8901 -0.3997  0.6470
 8514SOL     OW37177   1.564   4.441   3.516 -0.0260  0.5339  0.0409
 8514SOL    HW137178   1.631   4.375   3.534 -0.0404  0.5930  0.3275
 8514SOL    HW237179   1.560   4.449   3.421 -1.2527  0.0279  0.0548
 8515SOL     OW37180   2.702   2.517   1.885  0.0512 -0.1981  0.0711
 8515SOL    HW137181   2.669   2.532   1.796 -1.7430  2.1276  1.1290
 8515SOL    HW237182   2.668   2.430   1.907 -0.6743  0.0795  0.0448
 8516SOL     OW37183   1.861   3.753   1.642 -0.5696  0.2276 -0.3414
 8516SOL    HW137184   1.837   3.672   1.596 -2.2018  0.3736  0.2514
 8516SOL    HW237185   1.865   3.713   1.729  3.7474 -0.1358 -0.7280
 8517SOL     OW37186   0.382   4.214  14.645  0.1555  0.3423 -0.0151
 8517SOL    HW137187   0.295   4.176  14.633  0.0018 -0.2854  3.0000
 8517SOL    HW237188   0.432   4.132  14.644  3.0532  2.0297  3.0157
 8518SOL     OW37189   3.701   0.441   8.653 -0.0857 -0.4581  0.1042
 8518SOL    HW137190   3.786   0.438   8.696 -1.0054 -1.7167  1.8016
 8518SOL    HW237191   3.670   0.355   8.679 -0.9875 -0.6515 -1.5656
 8519SOL     OW37192   0.507   1.252  13.123 -0.3615  0.3685  0.3311
 8519SOL    HW137193   0.424   1.224  13.083 -0.8219  0.7934  0.9975
 8519SOL    HW237194   0.484   1.342  13.145 -0.5752  0.9502 -2.2422
 8520SOL     OW37195   0.257   1.198  13.000  0.8207  0.1655  0.1367
 8520SOL    HW137196   0.257   1.231  12.910 -0.5468 -0.4072 -0.0740
 8520SOL    HW237197   0.184   1.136  13.000  1.8555 -1.0764 -0.1916
 8521SOL     OW37198   4.708   1.795   2.846  0.0625  0.2313 -0.6569
 8521SOL    HW137199   0.034   1.749   2.793  1.6462  2.9015 -1.0061
 8521SOL    HW237200   4.631   1.747   2.815 -1.0548  2.2463 -0.9857
 8522SOL     OW37201   1.578   2.721   4.050 -0.2186  0.8537  0.6740
 8522SOL    HW137202   1.500   2.761   4.087 -1.6394 -1.7111  0.4279
 8522SOL    HW237203   1.630   2.726   4.130 -0.8613 -1.6580  1.2345
 8523SOL     OW37204   1.941   2.535   7.062  0.5072 -0.2845  0.6211
 8523SOL    HW137205   1.940   2.629   7.078 -2.2710 -0.2257  0.1039
 8523SOL    HW237206   1.860   2.502   7.103  1.4637 -2.4071  0.8184
 8524SOL     OW37207   0.966   3.467  14.322 -0.5189  0.2034 -0.1361
 8524SOL    HW137208   0.955   3.561  14.340  1.6729  0.4343 -0.0657
 8524SOL    HW237209   1.053   3.463  14.283 -0.6686 -3.3584 -0.0730
 8525SOL     OW37210   2.246   2.399   4.503  0.6402  0.6870 -0.4065
 8525SOL    HW137211   2.331   2.441   4.494  1.1143  0.2633  2.0397
 8525SOL    HW237212   2.200   2.426   4.424  0.1150  1.9368  0.3185
 8526SOL     OW37213   2.698   0.642   6.964  0.6480 -0.4039  0.2635
 8526SOL    HW137214   2.674   0.734   6.957 -0.4398 -0.8146 -1.2243
 8526SOL    HW237215   2.714   0.626   6.871  1.8842 -2.3338  0.8063
 8527SOL     OW37216   1.868   2.564  15.509 -0.3754 -0.1066 -0.4916
 8527SOL    HW137217   1.892   2.656  15.511 -0.1894 -0.1151 -2.3873
 8527SOL    HW237218   1.788   2.570  15.456 -1.0423  0.3570  0.5580
 8528SOL     OW37219   4.155   0.123  11.338  1.0715 -0.0134  0.4833
 8528SOL    HW137220   4.097   0.175  11.283  0.8496  0.1973  0.9196
 8528SOL    HW237221   4.239   0.150  11.300  1.9470 -2.3312  0.7741
 8529SOL     OW37222   3.092   3.899   3.922 -0.2100 -0.1026 -0.4382
 8529SOL    HW137223   2.999   3.910   3.943 -0.4853  1.1788 -2.3394
 8529SOL    HW237224   3.095   3.804   3.909  1.8227 -0.6697  3.9667
 8530SOL     OW37225   1.674   3.610   6.240 -0.2065 -0.1788 -0.2953
 8530SOL    HW137226   1.756   3.645   6.205 -0.5330  0.8546 -0.0144
 8530SOL    HW237227   1.650   3.555   6.166  1.6350  0.5988 -1.4806
 8531SOL     OW37228   4.069   0.824  16.550 -0.2171  0.0484  0.8386
 8531SOL    HW137229   4.048   0.799  16.460  2.5378 -0.7073  0.4156
 8531SOL    HW237230   4.072   0.920  16.543  0.7823 -0.0480  0.0233
 8532SOL     OW37231   0.200   2.503  12.856 -0.9241 -0.3126  0.6174
 8532SOL    HW137232   0.150   2.469  12.782  0.0763  1.1536 -0.7243
 8532SOL    HW237233   0.162   2.591  12.861  2.8022  1.2183  1.7596
 8533SOL     OW37234   1.989   3.494   5.061  0.3639 -0.2538 -0.4253
 8533SOL    HW137235   2.059   3.559   5.054 -0.6282  0.8093 -0.3786
 8533SOL    HW237236   1.970   3.477   4.969  1.1219 -1.2800 -0.3993
 8534SOL     OW37237   0.456   3.403   2.119  0.6488  0.3984 -0.1200
 8534SOL    HW137238   0.381   3.406   2.179  0.2666  2.2696 -0.6939
 8534SOL    HW237239   0.448   3.489   2.078  1.1772  0.0181 -1.0081
 8535SOL     OW37240   0.643   2.564   6.037 -0.0780  0.3581 -0.1163
 8535SOL    HW137241   0.644   2.511   5.958  2.0443  0.7911 -0.3742
 8535SOL    HW237242   0.637   2.654   6.005 -0.9723  0.2854 -0.1590
 8536SOL     OW37243   1.060   1.258   1.618  0.4733 -0.2363  0.3980
 8536SOL    HW137244   1.049   1.309   1.698  1.4076 -1.9355  1.6034
 8536SOL    HW237245   1.016   1.177   1.641 -0.7412  0.5920  1.0021
 8537SOL     OW37246   4.373   2.145   2.537 -0.0882  0.2989  0.0537
 8537SOL    HW137247   4.376   2.111   2.448 -0.2403  1.9044 -0.5531
 8537SOL    HW237248   4.328   2.068   2.574 -0.3269  0.0415 -0.7844
 8538SOL     OW37249   0.529   4.542   8.151  0.4407  0.7347  0.2804
 8538SOL    HW137250   0.550   4.481   8.080 -1.5554  0.7550 -0.3318
 8538SOL    HW237251   0.609   4.595   8.153  0.4775  0.6093  2.4597
 8539SOL     OW37252   3.592   1.506   3.780  0.2103 -0.1054 -0.2562
 8539SOL    HW137253   3.615   1.586   3.829 -1.3725 -1.1221  2.1328
 8539SOL    HW237254   3.588   1.443   3.852  0.1816 -1.4050 -1.4058
 8540SOL     OW37255   2.690   4.062   6.482 -0.1603  0.3884 -0.0902
 8540SOL    HW137256   2.708   4.120   6.556 -0.0174 -0.7503  0.7690
 8540SOL    HW237257   2.621   4.011   6.524  0.3784 -0.5990 -0.4035
 8541SOL     OW37258   2.742   3.846  11.278 -0.1971  0.1276 -0.2415
 8541SOL    HW137259   2.723   3.837  11.371  2.1214  1.6209  0.3776
 8541SOL    HW237260   2.786   3.932  11.273  1.0747 -0.3833  2.0186
 8542SOL     OW37261   4.355   4.026  14.333  0.0487  0.5312  0.1529
 8542SOL    HW137262   4.383   4.035  14.242  0.4677  2.3795  0.4576
 8542SOL    HW237263   4.391   3.941  14.355 -4.1036 -1.3686 -0.3202
 8543SOL     OW37264   1.475   2.766  15.716 -0.8338  0.0696  0.7802
 8543SOL    HW137265   1.498   2.698  15.779  1.4546 -0.4313 -0.5751
 8543SOL    HW237266   1.434   2.713  15.647 -0.7885 -0.1516  0.9248
 8544SOL     OW37267   3.729   1.499   4.192  0.1267  0.2594 -0.1318
 8544SOL    HW137268   3.824   1.509   4.190  0.1667  0.3367  2.3935
 8544SOL    HW237269   3.697   1.581   4.230 -2.6967  0.0982 -2.1121
 8545SOL     OW37270   3.303   0.753   7.520  0.4534  0.3349 -0.2259
 8545SOL    HW137271   3.269   0.677   7.566 -0.5887  1.9664  1.7167
 8545SOL    HW237272   3.377   0.710   7.478 -1.2845 -3.1359  0.3233
 8546SOL     OW37273   0.286   1.113   1.460  0.2423  0.2639 -0.3068
 8546SOL    HW137274   0.266   1.125   1.367 -1.2001 -0.8283 -0.1478
 8546SOL    HW237275   0.309   1.021   1.448  1.4378  0.2604  2.0023
 8547SOL     OW37276   3.999   0.754  16.292  0.1521  0.0182  0.0678
 8547SOL    HW137277   4.010   0.781  16.201  2.4687  2.1113  0.9777
 8547SOL    HW237278   3.925   0.693  16.290  0.5198 -0.4000 -0.8622
 8548SOL     OW37279   1.348   2.780   4.776  0.2119  0.0761  0.5452
 8548SOL    HW137280   1.390   2.859   4.806 -1.1572  0.4766  1.3975
 8548SOL    HW237281   1.408   2.714   4.811  1.4312  1.4626  1.0463
 8549SOL     OW37282   1.623   4.567   4.650 -0.0951  0.2423  0.0766
 8549SOL    HW137283   1.608   4.498   4.714 -0.4869  2.6335  2.5544
 8549SOL    HW237284   1.598   4.647   4.696 -2.0015 -1.1050  1.3722
 8550SOL     OW37285   2.665   3.492  16.795  0.3313  0.3294 -0.1615
 8550SOL    HW137286   2.656   3.561  16.860  1.6428  0.7358 -0.4138
 8550SOL    HW237287   2.669   3.418  16.855  0.2045 -0.7376 -1.4748
 8551SOL     OW37288   1.022   1.096   3.512  0.7175 -0.1462  0.0262
 8551SOL    HW137289   1.077   1.148   3.454 -0.0562 -0.2813 -0.8190
 8551SOL    HW237290   1.025   1.143   3.595  1.2564  1.0165 -0.6593
 8552SOL     OW37291   1.952   2.326  11.604  0.4503 -0.2836 -0.0793
 8552SOL    HW137292   2.016   2.358  11.541  2.3293  1.6792  2.8254
 8552SOL    HW237293   1.865   2.350  11.571  0.8768 -1.1123 -1.7950
 8553SOL     OW37294   3.224   4.239   2.690  0.4388  0.2032  0.3094
 8553SOL    HW137295   3.147   4.182   2.685 -0.1637  1.0837 -0.6971
 8553SOL    HW237296   3.264   4.224   2.604 -0.5165  0.2779 -0.1580
 8554SOL     OW37297   0.144   0.299   1.251  0.1586  0.1961 -0.1836
 8554SOL    HW137298   0.124   0.214   1.290  1.4248  0.2558  0.5933
 8554SOL    HW237299   0.184   0.269   1.170 -2.5516 -1.5744 -0.8856
 8555SOL     OW37300   0.093   4.719   9.748 -0.2504 -0.3634  0.4531
 8555SOL    HW137301   0.115   0.049   9.686 -1.5171 -1.7350 -1.5303
 8555SOL    HW237302   0.176   4.677   9.770 -1.0748 -1.0579  2.3156
 8556SOL     OW37303   4.567   0.644   7.838 -0.2701  0.5526 -0.0561
 8556SOL    HW137304   4.569   0.548   7.837  0.3414  0.5681  0.3142
 8556SOL    HW237305   4.612   0.659   7.755 -1.0680 -1.8187 -0.9309
 8557SOL     OW37306   0.161   3.625  13.451 -0.1275  0.1812  0.8125
 8557SOL    HW137307   0.237   3.616  13.394  0.3629 -1.2675  1.7017
 8557SOL    HW237308   0.093   3.671  13.402 -1.6208 -1.0728  1.6900
 8558SOL     OW37309   0.611   1.257  16.468  0.0286  0.5148 -0.0147
 8558SOL    HW137310   0.547   1.325  16.487 -1.7405 -1.1560  0.0165
 8558SOL    HW237311   0.543   1.203  16.427  0.3051  1.4381 -1.7078
 8559SOL     OW37312   3.321   2.177  17.628  0.0444 -0.7262  0.0503
 8559SOL    HW137313   3.322   2.084  17.652  0.7081 -1.5885 -3.3470
 8559SOL    HW237314   3.251   2.184  17.564 -0.0412  0.7177  0.2865
 8560SOL     OW37315   0.768   1.788  17.241  0.2707  0.4597  0.1530
 8560SOL    HW137316   0.823   1.847  17.190  0.4285 -1.1544 -1.5515
 8560SOL    HW237317   0.689   1.842  17.249  0.6649  0.7370  2.0665
 8561SOL     OW37318   0.280   4.627   4.236  0.5006  0.6348  0.1960
 8561SOL    HW137319   0.358   4.592   4.280 -1.2363 -3.1765  0.1684
 8561SOL    HW237320   0.326   4.673   4.166  1.9558 -0.9708  0.0959
 8562SOL     OW37321   0.069   0.529  16.561 -0.1696  0.4037 -0.0290
 8562SOL    HW137322   0.120   0.537  16.642 -0.2298  0.3531  0.0141
 8562SOL    HW237323   4.723   0.505  16.596  0.1804 -0.1398  0.4477
 8563SOL     OW37324   3.163   1.023   5.806 -0.1013 -0.0958 -0.1034
 8563SOL    HW137325   3.251   0.985   5.806  0.1563  0.5107 -3.8259
 8563SOL    HW237326   3.146   1.022   5.900  0.2251  2.0865 -0.0155
 8564SOL     OW37327   2.701   0.593   8.083  0.3734  0.0491 -0.2412
 8564SOL    HW137328   2.653   0.649   8.144 -1.4356 -1.7317 -0.0451
 8564SOL    HW237329   2.710   0.646   8.004 -1.8646  0.7345 -0.0184
 8565SOL     OW37330   2.118   3.930   5.501  0.0306  0.5533  0.2643
 8565SOL    HW137331   2.136   4.023   5.514 -0.7003  0.3765  2.5169
 8565SOL    HW237332   2.061   3.906   5.574  0.2695 -2.4121 -0.5103
 8566SOL     OW37333   3.219   3.825   1.777 -0.1320 -0.1742 -0.4549
 8566SOL    HW137334   3.306   3.817   1.817 -0.7211  0.2478  0.8814
 8566SOL    HW237335   3.208   3.730   1.763  3.2372 -0.8673  1.5102
 8567SOL     OW37336   0.147   0.112   8.883 -0.5109 -0.8295  0.4959
 8567SOL    HW137337   0.112   0.046   8.943 -0.6480  1.1579  2.6035
 8567SOL    HW237338   0.225   0.061   8.862  0.3033  0.2570  0.9034
 8568SOL     OW37339   3.911   0.141   2.719 -0.0053  0.1711  0.2752
 8568SOL    HW137340   3.888   0.234   2.710 -2.4338 -0.4382  0.0272
 8568SOL    HW237341   3.834   0.102   2.677 -0.6833  1.2634  0.4981
 8569SOL     OW37342   3.195   0.600  13.432 -0.0485  0.4953  0.0388
 8569SOL    HW137343   3.225   0.654  13.505 -0.0758 -3.3490  2.8757
 8569SOL    HW237344   3.276   0.550  13.422  0.1807  0.8405  0.1606
 8570SOL     OW37345   2.944   3.369   6.944  0.0192 -0.2232 -0.4426
 8570SOL    HW137346   3.003   3.349   6.871  1.3545  4.1649 -0.5931
 8570SOL    HW237347   3.004   3.371   7.018 -0.8588 -0.3539  0.2715
 8571SOL     OW37348   3.773   2.734   6.268  0.1304  0.4901 -0.0518
 8571SOL    HW137349   3.772   2.639   6.279 -0.8296  0.3495 -1.3197
 8571SOL    HW237350   3.789   2.769   6.356  0.3756  0.7736 -0.2104
 8572SOL     OW37351   0.564   2.302   9.406  0.2443 -0.5117 -0.5455
 8572SOL    HW137352   0.490   2.243   9.419  0.1374 -0.1383  0.5643
 8572SOL    HW237353   0.559   2.347   9.490  1.8419 -0.1723 -0.6291
 8573SOL     OW37354   0.265   1.131   5.369  0.1646 -0.2300 -0.5799
 8573SOL    HW137355   0.257   1.226   5.376 -1.9803 -0.3405 -1.4662
 8573SOL    HW237356   0.288   1.127   5.276  0.8906  1.7118 -0.4790
 8574SOL     OW37357   3.478   2.025   4.038 -0.1744 -0.5189 -0.4075
 8574SOL    HW137358   3.412   2.007   3.971  0.8179 -0.4924 -1.3898
 8574SOL    HW237359   3.427   2.088   4.089 -0.4074 -2.7061  2.0888
 8575SOL     OW37360   3.591   4.088   3.996  0.2281  0.5085 -0.0332
 8575SOL    HW137361   3.638   4.103   3.914 -0.6521 -1.2178 -0.8573
 8575SOL    HW237362   3.525   4.025   3.968 -1.7776  2.0076  1.3678
 8576SOL     OW37363   0.888   3.387   2.138  0.5291 -0.7489 -0.3842
 8576SOL    HW137364   0.930   3.363   2.056  0.4157 -0.9003 -0.3980
 8576SOL    HW237365   0.962   3.410   2.195 -0.3317 -2.7506  1.5570
 8577SOL     OW37366   0.382   2.712   4.201 -0.3249 -0.5118 -1.0450
 8577SOL    HW137367   0.469   2.742   4.228 -1.3836  3.7035 -2.1839
 8577SOL    HW237368   0.382   2.739   4.109 -0.1004  0.9825 -0.6146
 8578SOL     OW37369   4.386   4.613   6.255 -0.9979  0.1262  0.1710
 8578SOL    HW137370   4.310   4.669   6.236  0.1288  0.9684 -1.9555
 8578SOL    HW237371   4.371   4.596   6.348 -0.2754 -3.0868 -0.2994
 8579SOL     OW37372   4.087   1.709   4.540 -0.3901 -0.2013 -0.6601
 8579SOL    HW137373   4.136   1.790   4.551  0.1584 -0.8002  1.2636
 8579SOL    HW237374   4.080   1.704   4.444 -0.7161 -0.0831 -0.6438
 8580SOL     OW37375   1.125   1.023   2.704 -0.2515 -0.0064 -0.0965
 8580SOL    HW137376   1.049   1.043   2.649  0.2247 -0.1581 -0.8072
 8580SOL    HW237377   1.082   1.061   2.781  1.1711  0.3296  0.5261
 8581SOL     OW37378   0.625   2.417   4.453 -0.1921 -0.5076 -0.8289
 8581SOL    HW137379   0.573   2.418   4.373 -1.2456 -4.1062 -0.1864
 8581SOL    HW237380   0.559   2.437   4.519  1.3650 -0.6835  0.7818
 8582SOL     OW37381   1.692   4.469  12.972 -0.1532 -0.2538 -0.5817
 8582SOL    HW137382   1.682   4.416  13.051 -2.1218 -0.3037 -0.8560
 8582SOL    HW237383   1.786   4.470  12.956 -0.2705 -2.1895 -1.4562
 8583SOL     OW37384   4.266   1.917   4.515  0.4575 -0.3085 -0.0056
 8583SOL    HW137385   4.324   1.843   4.496  0.3402 -0.5266  0.4879
 8583SOL    HW237386   4.301   1.948   4.599 -2.8887  0.9360  0.9342
 8584SOL     OW37387   3.771   0.245   3.562 -0.0474 -0.1366  0.2874
 8584SOL    HW137388   3.802   0.307   3.496 -3.0826  0.4618 -0.5472
 8584SOL    HW237389   3.793   0.158   3.527 -2.8492  0.2544 -2.4201
 8585SOL     OW37390   1.338   1.984   6.026 -0.5489 -0.6308 -0.0451
 8585SOL    HW137391   1.391   1.909   6.003  0.8019  0.3934 -0.2491
 8585SOL    HW237392   1.350   2.050   5.957 -1.4417  0.6954  1.0567
 8586SOL     OW37393   0.382   4.407  14.181 -0.2566 -0.1200  0.3294
 8586SOL    HW137394   0.385   4.501  14.199  0.8185  0.2130 -1.5868
 8586SOL    HW237395   0.429   4.385  14.262 -3.4109 -1.4793  1.7706
 8587SOL     OW37396   3.451   3.641   4.453  0.1246 -0.2104  0.5542
 8587SOL    HW137397   3.410   3.563   4.489 -0.0585 -1.1613 -1.7341
 8587SOL    HW237398   3.492   3.666   4.536  1.1804 -0.8832  0.2359
 8588SOL     OW37399   0.977   1.926   5.797 -0.3704  0.6175  0.2394
 8588SOL    HW137400   0.923   1.899   5.723  0.6535 -0.7970  0.0084
 8588SOL    HW237401   0.985   1.844   5.847  1.7923  0.6694 -0.0557
 8589SOL     OW37402   1.894   1.354   6.881  0.0152 -0.1012  0.1454
 8589SOL    HW137403   1.879   1.267   6.843 -0.1649 -0.5288  1.2024
 8589SOL    HW237404   1.807   1.387   6.901  0.4364  1.0037  0.1295
 8590SOL     OW37405   3.134   2.152   7.006  0.1726  0.1352  1.1937
 8590SOL    HW137406   3.058   2.132   6.951 -0.5066  1.1701  1.7508
 8590SOL    HW237407   3.120   2.113   7.092 -1.1578 -2.7783 -0.3657
 8591SOL     OW37408   3.877   0.522  16.755  0.1315  0.0469  0.1740
 8591SOL    HW137409   3.800   0.579  16.750 -0.4943 -0.9613 -1.5281
 8591SOL    HW237410   3.860   0.478  16.839  0.5638  0.2285  0.3578
 8592SOL     OW37411   0.524   0.035   6.471 -0.0861  0.3290  0.0045
 8592SOL    HW137412   0.592   0.015   6.535  0.4981  1.8295 -0.1456
 8592SOL    HW237413   0.542   4.705   6.407  2.0376  0.3709  0.5716
 8593SOL     OW37414   4.383   4.570   2.118  0.0316  0.1644 -0.2271
 8593SOL    HW137415   4.302   4.523   2.095  2.4156 -1.4560 -5.2516
 8593SOL    HW237416   4.358   4.626   2.191 -0.6066 -0.1052 -0.2402
 8594SOL     OW37417   4.065   3.192   7.883  0.5236  0.1841 -0.0580
 8594SOL    HW137418   4.118   3.147   7.949 -0.7887  1.3747  1.8250
 8594SOL    HW237419   4.028   3.125   7.827 -0.5379 -0.3595  1.2948
 8595SOL     OW37420   1.775   4.242  10.638 -0.2206 -0.0949  0.6929
 8595SOL    HW137421   1.866   4.227  10.664  0.1572  2.9609  1.1288
 8595SOL    HW237422   1.758   4.335  10.653 -0.0040  0.2699 -1.2411
 8596SOL     OW37423   4.455   4.166  12.109  0.1018 -0.5214 -0.7684
 8596SOL    HW137424   4.448   4.085  12.057  0.2033 -0.1361 -1.3917
 8596SOL    HW237425   4.386   4.138  12.169 -0.4304  0.0057 -1.1374
 8597SOL     OW37426   2.379   3.449   1.866 -0.1275  0.5919 -0.0338
 8597SOL    HW137427   2.393   3.507   1.792 -0.5478  0.4525 -0.2219
 8597SOL    HW237428   2.425   3.374   1.827  1.1427  1.6972 -0.6201
 8598SOL     OW37429   0.409   1.841   8.957  0.1677 -0.4493 -0.6107
 8598SOL    HW137430   0.426   1.909   8.892 -1.5202  0.2706 -0.3085
 8598SOL    HW237431   0.345   1.886   9.013  0.9474 -0.3794  0.2141
 8599SOL     OW37432   3.113   1.669   9.128 -0.4778 -0.3447 -0.8475
 8599SOL    HW137433   3.080   1.599   9.072  1.7607 -2.2296  0.2052
 8599SOL    HW237434   3.034   1.724   9.120 -1.0409 -1.1926 -1.1217
 8600SOL     OW37435   2.276   4.448   4.743  0.4933  0.5776 -0.4629
 8600SOL    HW137436   2.257   4.502   4.667 -1.0136  1.8825  0.8458
 8600SOL    HW237437   2.320   4.512   4.800  3.0458 -1.1955 -0.4376
 8601SOL     OW37438   0.343   4.529  11.784  0.0970  0.0031 -0.2078
 8601SOL    HW137439   0.355   4.618  11.817 -1.4794 -0.3860  1.4331
 8601SOL    HW237440   0.256   4.530  11.743 -0.5722 -0.4487  1.1921
 8602SOL     OW37441   4.678   2.299   6.788  0.2021  0.3071 -0.1429
 8602SOL    HW137442   4.620   2.278   6.861  1.0322 -0.3506  0.3316
 8602SOL    HW237443   0.013   2.336   6.836  0.9232 -0.8573 -0.3424
 8603SOL     OW37444   2.823   4.236   5.796  0.1337 -0.1899  0.2910
 8603SOL    HW137445   2.781   4.177   5.859  1.1121 -0.9964  0.1941
 8603SOL    HW237446   2.916   4.241   5.819  0.0786  0.6791  0.3148
 8604SOL     OW37447   0.798   3.916  12.599  0.4293  0.3594  0.0470
 8604SOL    HW137448   0.889   3.907  12.627  0.7628  0.6659 -0.9450
 8604SOL    HW237449   0.811   3.916  12.504  0.5508 -1.1750  0.0604
 8605SOL     OW37450   2.746   0.079   5.269 -0.5692 -0.2556  0.9026
 8605SOL    HW137451   2.727   0.117   5.354  2.0818  1.6227  0.6225
 8605SOL    HW237452   2.840   0.089   5.259 -0.5783 -0.0016  1.0666
 8606SOL     OW37453   3.831   4.222   2.219  0.0122  0.5720  0.4671
 8606SOL    HW137454   3.834   4.315   2.238 -0.6737  0.9996 -1.4930
 8606SOL    HW237455   3.844   4.216   2.125 -0.2283  1.1765  0.3958
 8607SOL     OW37456   3.771   0.447   0.954  0.7513  0.0253 -0.8481
 8607SOL    HW137457   3.746   0.463   1.045 -2.1653 -0.1208 -1.6214
 8607SOL    HW237458   3.689   0.471   0.910 -0.3018  0.7351  1.5168
 8608SOL     OW37459   3.816   1.642   4.655  0.7373  0.2456 -0.1814
 8608SOL    HW137460   3.799   1.713   4.594  0.2417 -0.6004 -1.0226
 8608SOL    HW237461   3.787   1.684   4.736  1.7044  0.0328  0.2754
 8609SOL     OW37462   3.718   4.558   6.678  0.2477 -0.4106  0.2303
 8609SOL    HW137463   3.717   4.466   6.655 -3.1764 -0.3403 -0.0295
 8609SOL    HW237464   3.625   4.575   6.698  0.6909  0.0749  1.9025
 8610SOL     OW37465   1.448   3.383   0.949  0.8279  0.0156  0.1208
 8610SOL    HW137466   1.502   3.367   1.026  1.3668  0.6258 -0.1334
 8610SOL    HW237467   1.372   3.418   0.996  0.1961  0.4029 -1.2003
 8611SOL     OW37468   2.103   0.742   3.899  0.1806 -0.3186  0.2170
 8611SOL    HW137469   2.141   0.771   3.982 -0.7469  1.6574 -0.0407
 8611SOL    HW237470   2.172   0.693   3.855 -1.0088 -0.3516 -1.6174
 8612SOL     OW37471   3.660   0.064   1.042 -0.0929  0.6134 -0.1513
 8612SOL    HW137472   3.724   0.105   0.985 -0.2524 -0.2615 -0.9615
 8612SOL    HW237473   3.582   0.108   1.007  0.8899  2.1215 -0.4102
 8613SOL     OW37474   2.535   2.923   7.036  0.4553  0.0764  0.0464
 8613SOL    HW137475   2.538   2.935   7.131  3.2261  1.5567 -0.2343
 8613SOL    HW237476   2.443   2.896   7.031  0.4316  0.1352  0.1708
 8614SOL     OW37477   2.077   3.789  15.907 -0.6025  0.6978 -0.2877
 8614SOL    HW137478   2.071   3.856  15.974 -1.1140  0.7762 -0.4156
 8614SOL    HW237479   2.154   3.738  15.933 -1.9354 -0.8536  0.6459
 8615SOL     OW37480   2.009   3.022   4.150 -0.3695 -0.2922 -0.2148
 8615SOL    HW137481   2.104   3.033   4.159 -0.2579 -0.8223 -0.7542
 8615SOL    HW237482   1.993   2.977   4.067 -0.1234  1.3520 -1.1639
 8616SOL     OW37483   0.296   1.940  10.362 -0.7517  1.0237 -0.4391
 8616SOL    HW137484   0.284   1.953  10.456  0.8516 -1.8228  0.1497
 8616SOL    HW237485   0.315   2.028  10.330  0.2520  1.5567  1.5900
 8617SOL     OW37486   2.680   2.429   3.347 -0.1243 -0.1157  0.4420
 8617SOL    HW137487   2.723   2.364   3.291 -0.9671 -1.4056  1.2918
 8617SOL    HW237488   2.757   2.482   3.366 -0.2334 -0.6643  2.4484
 8618SOL     OW37489   1.731   3.362   7.012 -0.3858  0.1394  0.7402
 8618SOL    HW137490   1.704   3.383   7.101 -1.5003 -0.1349  0.4645
 8618SOL    HW237491   1.727   3.447   6.967  3.0996 -0.3437 -0.4551
 8619SOL     OW37492   1.193   2.158   9.182  0.4980 -0.3543 -0.4985
 8619SOL    HW137493   1.104   2.192   9.178  0.0233 -1.5229  0.0723
 8619SOL    HW237494   1.228   2.205   9.258  2.4955  1.0046 -2.2762
 8620SOL     OW37495   3.858   3.986   1.574  0.6239 -0.0966  0.3110
 8620SOL    HW137496   3.953   3.989   1.570  0.8462 -1.6853  4.2171
 8620SOL    HW237497   3.842   3.910   1.518 -1.8114 -0.2378  1.1802
 8621SOL     OW37498   3.660   4.493  15.196  0.2537  0.4662  0.1418
 8621SOL    HW137499   3.670   4.406  15.158 -1.6278  0.3113  0.0052
 8621SOL    HW237500   3.567   4.485  15.217  0.7969 -1.6071  1.7796
 8622SOL     OW37501   0.205   2.455   0.721 -0.2641 -0.0018 -0.3558
 8622SOL    HW137502   0.213   2.361   0.740  2.2751  0.4011  0.4824
 8622SOL    HW237503   0.160   2.493   0.796  2.4193  0.6066  0.9409
 8623SOL     OW37504   0.851   3.446   4.668  0.0906  0.0192 -0.0003
 8623SOL    HW137505   0.835   3.529   4.623 -1.2326  0.9426  2.2338
 8623SOL    HW237506   0.850   3.389   4.591 -2.1285  0.0595  0.0260
 8624SOL     OW37507   3.143   1.764   6.173  0.0003  0.0484  0.2511
 8624SOL    HW137508   3.181   1.798   6.092 -1.7960  0.4544 -0.4082
 8624SOL    HW237509   3.175   1.674   6.171 -1.9972 -0.6339 -0.5328
 8625SOL     OW37510   0.453   3.600   7.179  0.5682  0.0922  0.3450
 8625SOL    HW137511   0.410   3.550   7.109  0.5722 -0.6346  0.8565
 8625SOL    HW237512   0.546   3.580   7.164  0.2919 -0.2396 -0.9787
 8626SOL     OW37513   2.283   2.778  13.684  0.2548 -0.3181  0.0717
 8626SOL    HW137514   2.250   2.693  13.656  1.1334 -1.0689  1.3661
 8626SOL    HW237515   2.196   2.820  13.684  0.5369  0.2661 -0.7067
 8627SOL     OW37516   4.185   4.406  10.955 -0.5888 -0.0023 -0.0572
 8627SOL    HW137517   4.181   4.440  10.865  0.1312  2.1119  0.7035
 8627SOL    HW237518   4.180   4.311  10.946 -0.2188 -0.1570  1.4397
 8628SOL     OW37519   2.876   0.962   7.192  0.5343 -0.1266  0.0390
 8628SOL    HW137520   2.805   1.014   7.229  1.4911  1.3424 -0.1804
 8628SOL    HW237521   2.855   0.880   7.236 -0.4559 -0.1121 -0.4235
 8629SOL     OW37522   4.580   4.618  12.443  0.0081 -0.2240  0.1185
 8629SOL    HW137523   4.485   4.608  12.453  0.0366  0.5487  1.1946
 8629SOL    HW237524   4.603   4.527  12.422  0.1212  0.0475 -0.9164
 8630SOL     OW37525   0.535   4.694   5.860  0.6010  0.3179  0.2088
 8630SOL    HW137526   0.570   4.627   5.918  2.0018 -0.4795 -1.5534
 8630SOL    HW237527   0.458   4.646   5.831  0.4605  0.6351  0.0497
 8631SOL     OW37528   4.595   3.156   2.131  0.3821  0.1075  0.2752
 8631SOL    HW137529   4.591   3.085   2.067  1.1486  1.0061 -0.7693
 8631SOL    HW237530   4.634   3.108   2.203 -0.7638 -1.5900 -0.2376
 8632SOL     OW37531   4.138   0.364   1.614  0.1109  0.0396 -0.6291
 8632SOL    HW137532   4.045   0.388   1.617 -0.0537 -1.0066  2.5713
 8632SOL    HW237533   4.142   0.268   1.619 -0.1398  0.1203  1.2234
 8633SOL     OW37534   4.264   1.923   6.449  0.1799 -0.2402 -0.1984
 8633SOL    HW137535   4.199   1.962   6.390  0.3004 -3.3974 -2.4654
 8633SOL    HW237536   4.261   1.831   6.424 -2.2271  0.5809 -2.9840
 8634SOL     OW37537   0.345   3.094  14.333  0.0060  0.2124 -0.1873
 8634SOL    HW137538   0.263   3.142  14.329 -0.3452 -0.3658  0.0385
 8634SOL    HW237539   0.381   3.116  14.247 -3.7897 -0.5110 -1.9635
 8635SOL     OW37540   2.775   3.873   2.540 -0.0057 -0.1645 -0.3979
 8635SOL    HW137541   2.769   3.960   2.581  1.0677 -1.0170  1.5711
 8635SOL    HW237542   2.683   3.848   2.543 -0.0348  0.1906  1.5655
 8636SOL     OW37543   2.269   1.829   5.185 -0.0836 -0.2177  0.3718
 8636SOL    HW137544   2.202   1.897   5.179 -0.7486 -1.1894 -3.5949
 8636SOL    HW237545   2.339   1.868   5.132 -0.5128  0.7984  0.5531
 8637SOL     OW37546   0.723   0.345   1.783  0.6550 -0.3460 -0.1223
 8637SOL    HW137547   0.804   0.301   1.757  0.5476 -1.3351  1.1675
 8637SOL    HW237548   0.664   0.306   1.719  1.4577 -0.6115 -0.6987
 8638SOL     OW37549   0.850   2.366  11.083 -0.1305  0.1156  0.2942
 8638SOL    HW137550   0.876   2.454  11.109  0.2496  0.4070 -1.0329
 8638SOL    HW237551   0.939   2.330  11.083 -0.4410 -0.6838 -1.6675
 8639SOL     OW37552   2.751   3.136   5.443  0.3138 -0.8298 -0.0161
 8639SOL    HW137553   2.686   3.067   5.458  1.3889 -1.8858 -0.2051
 8639SOL    HW237554   2.824   3.102   5.496 -1.1683 -1.3820  1.6648
 8640SOL     OW37555   4.694   4.146  11.924 -0.3985  0.1166 -0.2576
 8640SOL    HW137556   4.611   4.169  11.967 -0.8328  0.1020 -1.0825
 8640SOL    HW237557   4.727   4.067  11.967  0.7054  1.5020  1.4402
 8641SOL     OW37558   1.305   1.770   1.704 -0.3685 -0.0064 -0.1200
 8641SOL    HW137559   1.225   1.815   1.731  0.9191  0.8825  2.1747
 8641SOL    HW237560   1.272   1.686   1.673  1.4703 -1.5992  2.2205
 8642SOL     OW37561   0.434   1.692   3.224  0.0186  0.1881  0.1735
 8642SOL    HW137562   0.525   1.720   3.230  1.1929 -3.1804 -2.1190
 8642SOL    HW237563   0.439   1.637   3.146  2.3880  1.4000 -0.5106
 8643SOL     OW37564   3.385   1.702   9.098  0.3181  0.3228 -0.5340
 8643SOL    HW137565   3.292   1.717   9.112  0.4949 -0.6019  1.6017
 8643SOL    HW237566   3.374   1.643   9.024  0.3447 -1.0485  0.5542
 8644SOL     OW37567   2.446   4.269   6.786  0.5613 -0.2338  0.1619
 8644SOL    HW137568   2.540   4.250   6.788  0.9796  1.8326 -0.2177
 8644SOL    HW237569   2.419   4.262   6.695  0.1463 -0.0855  0.2747
 8645SOL     OW37570   4.242   3.063   3.876 -0.2353  0.1163  0.1493
 8645SOL    HW137571   4.287   2.999   3.821 -3.2436 -0.5014 -1.5428
 8645SOL    HW237572   4.212   3.123   3.808  0.4446  0.1166 -0.1522
 8646SOL     OW37573   2.935   4.107  14.562 -0.4893  0.0760 -0.6673
 8646SOL    HW137574   2.975   4.129  14.646 -3.4265  0.0742  0.7257
 8646SOL    HW237575   2.856   4.059  14.586  0.2357 -0.4059  0.7810
 8647SOL     OW37576   2.849   4.126  10.742 -0.6960 -0.4794 -0.1390
 8647SOL    HW137577   2.933   4.166  10.765  0.5159 -2.6364 -0.8284
 8647SOL    HW237578   2.802   4.195  10.696  2.8677  0.5129 -2.3438
 8648SOL     OW37579   2.528   4.367   7.663 -0.3935  0.0640 -0.1110
 8648SOL    HW137580   2.593   4.423   7.706  0.2000 -0.3468 -0.4779
 8648SOL    HW237581   2.449   4.414   7.690  0.0842  0.9482 -0.2637
 8649SOL     OW37582   4.374   3.910   7.795  0.2070 -0.4133 -0.2316
 8649SOL    HW137583   4.326   3.939   7.873  2.3160 -0.1329  0.9535
 8649SOL    HW237584   4.307   3.852   7.758  0.9550 -2.3502  1.4491
 8650SOL     OW37585   3.479   3.004   2.864  0.1162  0.0589 -0.3261
 8650SOL    HW137586   3.392   2.981   2.896  0.8691 -0.6791  1.1545
 8650SOL    HW237587   3.514   2.919   2.835  0.1716  0.0827 -0.3285
 8651SOL     OW37588   4.690   2.818   6.321  0.0494  0.2547  0.2398
 8651SOL    HW137589   4.678   2.906   6.284 -1.9492 -0.5272 -0.9617
 8651SOL    HW237590   4.617   2.815   6.382 -0.5245 -0.0127 -0.4610
 8652SOL     OW37591   4.142   1.031   6.493  0.2119  0.2088  0.5660
 8652SOL    HW137592   4.119   1.072   6.410  0.2998 -0.3644  0.2558
 8652SOL    HW237593   4.064   1.046   6.546 -0.5956 -1.6172 -0.1155
 8653SOL     OW37594   3.265   3.356  16.607  0.2456 -0.1632 -0.4231
 8653SOL    HW137595   3.295   3.265  16.601  0.3650 -0.3998  3.7563
 8653SOL    HW237596   3.206   3.342  16.682  1.2547 -1.5288  0.1201
 8654SOL     OW37597   0.144   4.630   7.750  0.7849  0.6944  0.2637
 8654SOL    HW137598   0.150   4.610   7.844 -3.6082 -0.8111  0.2658
 8654SOL    HW237599   0.187   4.713   7.735  1.5672  0.1360 -0.5630
 8655SOL     OW37600   1.042   1.587  10.778 -0.0771  0.3769  0.8847
 8655SOL    HW137601   1.122   1.544  10.746  0.1069  0.1522  1.6508
 8655SOL    HW237602   1.061   1.681  10.779  0.3167  0.2893  1.7831
 8656SOL     OW37603   0.477   2.786   2.214 -0.5689 -0.3606  0.1822
 8656SOL    HW137604   0.560   2.818   2.178 -1.5148  1.5221 -0.3429
 8656SOL    HW237605   0.499   2.782   2.307 -0.6449  1.5457  0.2892
 8657SOL     OW37606   1.081   2.955  14.626  0.1826  0.4623  0.4722
 8657SOL    HW137607   1.097   3.024  14.691 -0.9359  2.5657 -1.4902
 8657SOL    HW237608   1.109   2.876  14.671 -0.5950  1.6706  3.0420
 8658SOL     OW37609   1.656   1.311   6.077 -0.0459  0.3152 -0.5824
 8658SOL    HW137610   1.593   1.382   6.089  0.2188  0.6952 -1.4246
 8658SOL    HW237611   1.634   1.233   6.128  1.7557  0.0850 -0.1778
 8659SOL     OW37612   2.323   1.465   4.842  0.5128  0.0303  0.0368
 8659SOL    HW137613   2.418   1.459   4.834  0.6454 -1.0073  2.3650
 8659SOL    HW237614   2.294   1.417   4.765  1.9998 -1.5541  0.4474
 8660SOL     OW37615   3.210   3.656   4.621 -0.2965  0.4678 -0.2714
 8660SOL    HW137616   3.253   3.582   4.580 -1.8640 -1.9790  2.4730
 8660SOL    HW237617   3.179   3.623   4.706 -0.8699  0.3338 -0.5274
 8661SOL     OW37618   4.288   3.106   0.328 -0.0715  0.4660  0.2677
 8661SOL    HW137619   4.272   3.058   0.409 -2.8897  0.6464 -0.1701
 8661SOL    HW237620   4.384   3.099   0.329 -0.0118  1.4078  0.5910
 8662SOL     OW37621   2.463   0.509   5.639 -0.6352 -0.5399  0.4074
 8662SOL    HW137622   2.518   0.580   5.606 -3.9852  1.9682  0.1591
 8662SOL    HW237623   2.437   0.535   5.728 -0.5747  0.1951  0.2101
 8663SOL     OW37624   2.845   4.144  12.192 -0.3377  0.0405  0.3898
 8663SOL    HW137625   2.930   4.143  12.147 -0.0565 -0.7974  0.9543
 8663SOL    HW237626   2.850   4.065  12.245  1.2830 -0.0084  0.1601
 8664SOL     OW37627   2.552   2.430   7.834  0.1447  0.3817  0.0390
 8664SOL    HW137628   2.461   2.404   7.851 -0.4903  1.6754 -1.4232
 8664SOL    HW237629   2.603   2.350   7.825  0.2582  0.3876  0.6129
 8665SOL     OW37630   2.963   1.467   2.458  0.1595  0.3377 -0.4872
 8665SOL    HW137631   2.999   1.548   2.494 -0.5420  0.4788 -0.0967
 8665SOL    HW237632   3.036   1.409   2.479  0.7460  1.0755 -0.5125
 8666SOL     OW37633   1.978   3.603   5.437 -0.1689  0.2033 -0.1050
 8666SOL    HW137634   1.955   3.674   5.378  0.9514 -1.3767 -2.4257
 8666SOL    HW237635   1.901   3.625   5.489  1.2755 -0.6293  2.4333
 8667SOL     OW37636   3.932   1.932   0.005 -0.1240 -0.7444 -0.1375
 8667SOL    HW137637   3.902   1.993  17.692  0.9286  2.5157  2.3345
 8667SOL    HW237638   3.861   1.868   0.006 -1.9019  1.2545  1.3307
 8668SOL     OW37639   0.830   3.225   1.034  0.1007 -0.1150  0.4929
 8668SOL    HW137640   0.790   3.181   0.959 -0.1575  1.4830 -0.3055
 8668SOL    HW237641   0.790   3.181   1.110 -1.5468 -1.5014 -1.1848
 8669SOL     OW37642   0.950   3.746   5.822  0.1522  0.4464 -0.6618
 8669SOL    HW137643   0.931   3.690   5.897 -0.2253 -1.0352 -1.8738
 8669SOL    HW237644   1.041   3.717   5.817  0.6579  1.3353  3.1125
 8670SOL     OW37645   0.738   2.189  16.099  0.3441 -1.2142 -0.8708
 8670SOL    HW137646   0.716   2.195  16.006 -0.4535 -3.0288 -0.7917
 8670SOL    HW237647   0.662   2.141  16.131 -0.5322  1.4000  0.9497
 8671SOL     OW37648   4.612   3.309  13.076 -0.2441  0.3076 -0.4214
 8671SOL    HW137649   4.664   3.374  13.123 -2.1886  2.5325 -1.4060
 8671SOL    HW237650   4.626   3.345  12.988 -0.9711  1.0160 -0.2420
 8672SOL     OW37651   1.494   1.542   6.213 -0.1799  0.4474 -0.3502
 8672SOL    HW137652   1.569   1.581   6.258  0.5865 -0.3010 -0.9771
 8672SOL    HW237653   1.474   1.467   6.269 -1.6291  3.1705  2.7233
 8673SOL     OW37654   3.525   3.189  11.645  0.0773  0.3589  0.3486
 8673SOL    HW137655   3.553   3.157  11.560  2.7788 -0.7058  1.6316
 8673SOL    HW237656   3.496   3.280  11.640  1.7507  0.9656  1.3151
 8674SOL     OW37657   0.276   1.146  15.633 -0.1493 -0.2075 -0.0186
 8674SOL    HW137658   0.238   1.086  15.569 -0.0172 -0.8912  0.5515
 8674SOL    HW237659   0.303   1.086  15.701  0.2819 -1.1031 -0.9840
 8675SOL     OW37660   3.150   4.006   2.247  0.2794 -0.4255 -0.2469
 8675SOL    HW137661   3.055   4.018   2.251  0.1300 -0.8636 -2.3617
 8675SOL    HW237662   3.152   3.920   2.206 -1.8966 -0.8325  0.4795
 8676SOL     OW37663   3.648   0.305   4.030  0.6861 -0.3872 -0.0485
 8676SOL    HW137664   3.720   0.368   4.034 -0.4973  1.0572 -1.2511
 8676SOL    HW237665   3.602   0.336   4.108  1.3874  0.8744 -0.1307
 8677SOL     OW37666   0.933   3.669  10.036 -0.3690 -0.2706  0.0112
 8677SOL    HW137667   0.985   3.730  10.089 -0.2044  0.2554 -0.7403
 8677SOL    HW237668   0.899   3.610  10.103  0.2991  0.3470  0.8939
 8678SOL     OW37669   1.125   2.179   5.716 -0.5474  0.1952 -0.4566
 8678SOL    HW137670   1.211   2.137   5.720 -0.1326  1.0465 -0.6194
 8678SOL    HW237671   1.076   2.102   5.744  0.0009  0.1654  0.4180
 8679SOL     OW37672   1.604   3.139   4.324  0.4643 -0.4038  0.1119
 8679SOL    HW137673   1.633   3.192   4.398  1.3429  0.2240 -0.6874
 8679SOL    HW237674   1.530   3.086   4.354 -0.5788  1.7846  1.3815
 8680SOL     OW37675   3.946   2.159  17.370  0.0515  0.1605  0.0914
 8680SOL    HW137676   3.979   2.116  17.291 -0.6813 -1.4939  0.7045
 8680SOL    HW237677   4.021   2.212  17.395 -0.0346  0.2001  0.2648
 8681SOL     OW37678   3.024   4.516  13.098 -0.1369  0.1197 -0.4191
 8681SOL    HW137679   3.090   4.507  13.167 -0.2995  1.5029 -0.0755
 8681SOL    HW237680   2.942   4.539  13.143 -0.7753 -0.9939 -1.0054
 8682SOL     OW37681   1.086   0.010   3.450 -0.5700 -0.2645 -0.7350
 8682SOL    HW137682   1.085   0.098   3.412  1.3790 -0.8176 -2.0972
 8682SOL    HW237683   1.181   4.739   3.442 -0.4120  0.8183 -0.1650
 8683SOL     OW37684   3.841   0.020  17.433  0.3962 -0.0613  0.0610
 8683SOL    HW137685   3.897   0.051  17.362  0.9172  2.0227  1.3572
 8683SOL    HW237686   3.751   0.051  17.420  1.0262  1.3048 -0.9992
 8684SOL     OW37687   1.492   3.971   5.009  0.3526  0.5249 -0.0817
 8684SOL    HW137688   1.496   4.066   4.995 -1.4948  0.6863  0.4817
 8684SOL    HW237689   1.586   3.961   4.995  0.6794 -0.4176  2.8353
 8685SOL     OW37690   1.991   1.850   5.417 -0.5296  0.5622 -0.4841
 8685SOL    HW137691   2.013   1.914   5.349  3.6568 -1.3452 -0.9374
 8685SOL    HW237692   2.067   1.791   5.414 -0.2199  0.9828 -0.8919
 8686SOL     OW37693   4.067   2.339   3.472  0.4492  0.1166  0.2545
 8686SOL    HW137694   4.039   2.312   3.560  1.9621 -1.4995  0.2497
 8686SOL    HW237695   4.067   2.434   3.484  0.5201  0.0335  0.9295
 8687SOL     OW37696   1.970   2.519   9.158  0.2785 -0.8518  0.1680
 8687SOL    HW137697   1.918   2.563   9.091 -1.3888 -2.3512  0.4776
 8687SOL    HW237698   1.957   2.429   9.129 -1.0165  0.4411 -3.2860
 8688SOL     OW37699   3.947   1.854   5.099  0.2838  0.0589 -0.1744
 8688SOL    HW137700   4.017   1.789   5.113  0.3471 -0.0194 -0.8508
 8688SOL    HW237701   3.997   1.934   5.114  0.7068 -0.5059  1.4051
 8689SOL     OW37702   0.941   0.587   3.423 -0.5012  0.3257  0.3175
 8689SOL    HW137703   1.018   0.532   3.419 -1.4671 -0.9447 -0.8144
 8689SOL    HW237704   0.965   0.679   3.413 -0.2689  0.1948 -0.2735
 8690SOL     OW37705   2.130   0.613  13.466  0.1276 -0.2025  0.3489
 8690SOL    HW137706   2.215   0.573  13.444  2.1293  1.1872  5.5920
 8690SOL    HW237707   2.137   0.634  13.559 -3.4767 -1.3414  0.8506
 8691SOL     OW37708   3.848   3.528   4.565  0.1549 -0.7107  0.5481
 8691SOL    HW137709   3.841   3.548   4.658  1.0431  0.6733  0.3214
 8691SOL    HW237710   3.756   3.529   4.541  0.9696 -0.4607 -2.5370
 8692SOL     OW37711   3.152   1.059  12.557 -0.0973 -0.5316 -0.2881
 8692SOL    HW137712   3.145   1.051  12.462 -0.6311 -0.7981 -0.2238
 8692SOL    HW237713   3.061   1.049  12.584 -0.6752 -0.7425 -2.3060
 8693SOL     OW37714   3.834   0.942   2.944 -0.5076 -0.3470 -0.3237
 8693SOL    HW137715   3.810   0.873   2.883 -0.5676 -0.4044 -0.2360
 8693SOL    HW237716   3.875   0.882   3.006  1.5944  1.5835  0.1426
 8694SOL     OW37717   3.091   2.202  17.486  0.3751  0.0312 -0.4341
 8694SOL    HW137718   2.997   2.198  17.502  0.3409  2.7866 -0.0436
 8694SOL    HW237719   3.091   2.189  17.391 -2.8197  0.3812 -0.4795
 8695SOL     OW37720   3.803   2.232   8.098 -0.4853 -0.3484  0.9932
 8695SOL    HW137721   3.762   2.258   8.181 -0.9949 -0.8868  0.9073
 8695SOL    HW237722   3.734   2.193   8.046 -0.4720  0.2136  0.5573
 8696SOL     OW37723   1.701   3.372   2.117  0.4659 -0.1849 -0.3950
 8696SOL    HW137724   1.650   3.293   2.136 -0.7754  0.3962 -1.3663
 8696SOL    HW237725   1.627   3.433   2.118  1.1731  0.6652  0.4080
 8697SOL     OW37726   4.348   4.284   8.490 -0.2442  0.6901 -0.4818
 8697SOL    HW137727   4.380   4.263   8.578 -0.2956  2.7467  0.0196
 8697SOL    HW237728   4.336   4.378   8.493 -0.8324  0.5962  0.0271
 8698SOL     OW37729   1.283   3.476   1.140  0.1776 -0.0518 -0.2073
 8698SOL    HW137730   1.246   3.533   1.206  2.2583 -0.1547  1.0625
 8698SOL    HW237731   1.240   3.395   1.168 -0.7379  0.9168  1.1517
 8699SOL     OW37732   0.035   4.066   3.857 -0.2446  0.5999  0.4935
 8699SOL    HW137733   4.700   4.015   3.890 -1.0686  1.5252  0.0670
 8699SOL    HW237734   4.729   4.138   3.815 -0.4992  1.0269  1.4957
 8700SOL     OW37735   2.267   0.798   2.310 -0.0806  0.3064  0.3556
 8700SOL    HW137736   2.185   0.831   2.273 -0.9209 -0.1524  1.8075
 8700SOL    HW237737   2.315   0.773   2.232 -0.4545 -0.4718  0.3786
 8701SOL     OW37738   2.637   3.334  13.432  0.5556 -0.0008  0.1679
 8701SOL    HW137739   2.587   3.282  13.369  1.2393 -0.1439 -0.2680
 8701SOL    HW237740   2.566   3.376  13.479 -0.3492 -1.5386  0.1778
 8702SOL     OW37741   2.247   3.359   7.762 -0.0986 -0.2630  0.5018
 8702SOL    HW137742   2.242   3.324   7.851  1.6708 -0.1803  0.6294
 8702SOL    HW237743   2.281   3.445   7.784  0.6565  0.0237 -1.7772
 8703SOL     OW37744   4.375   1.134   8.970  0.1771 -0.5267 -0.6356
 8703SOL    HW137745   4.328   1.132   9.053  2.1017  1.3189  0.5174
 8703SOL    HW237746   4.447   1.192   8.996  0.6122 -0.6641 -1.5240
 8704SOL     OW37747   2.609   1.506   5.652  1.0995  0.0099 -0.3323
 8704SOL    HW137748   2.645   1.591   5.676 -1.0710  0.5604  0.9638
 8704SOL    HW237749   2.622   1.455   5.732 -3.6474  1.0354  1.0853
 8705SOL     OW37750   0.533   0.140   4.895  0.1967  0.3211 -0.2641
 8705SOL    HW137751   0.574   0.226   4.907 -1.1632  0.7500  1.2877
 8705SOL    HW237752   0.543   0.120   4.802 -1.2504  1.4948 -0.6796
 8706SOL     OW37753   1.991   1.591  11.644 -0.0737  0.0506 -0.7500
 8706SOL    HW137754   1.943   1.576  11.563  0.1267  2.3558 -1.2832
 8706SOL    HW237755   1.944   1.669  11.672  2.3634  0.9941  0.7707
 8707SOL     OW37756   1.790   1.124  10.288  0.4790  0.6074  0.2534
 8707SOL    HW137757   1.786   1.211  10.326 -0.4541  0.2479  0.9695
 8707SOL    HW237758   1.711   1.084  10.323  0.4473 -0.5036 -1.0717
 8708SOL     OW37759   3.628   2.903   8.728  0.1430  0.4391 -0.2766
 8708SOL    HW137760   3.692   2.953   8.677 -0.7968  0.5950 -1.3061
 8708SOL    HW237761   3.641   2.951   8.810 -0.5517 -0.5221  0.3882
 8709SOL     OW37762   1.227   2.130   4.731  0.3218 -0.2674 -0.4885
 8709SOL    HW137763   1.179   2.140   4.648 -1.5987 -2.1125  0.4264
 8709SOL    HW237764   1.314   2.136   4.691  1.3981 -2.6291  1.5348
 8710SOL     OW37765   0.215   2.000   3.610  0.3973 -0.0839 -0.0317
 8710SOL    HW137766   0.237   2.089   3.582 -2.5511 -0.3793 -3.2757
 8710SOL    HW237767   0.244   1.950   3.533  0.5027 -1.1980  0.7264
 8711SOL     OW37768   0.113   1.051   7.984  0.9773  0.2355  0.3767
 8711SOL    HW137769   0.030   1.068   8.027 -0.0122 -1.0951 -0.9986
 8711SOL    HW237770   0.154   1.022   8.065  2.0764 -0.6315 -0.4867
 8712SOL     OW37771   2.112   4.494   1.115  0.1933 -0.0618 -0.4493
 8712SOL    HW137772   2.056   4.418   1.133  0.5204  0.1731  1.4908
 8712SOL    HW237773   2.084   4.516   1.026 -1.3702 -1.0175 -0.1895
 8713SOL     OW37774   3.195   2.190  12.899 -0.0494  0.0346 -0.2693
 8713SOL    HW137775   3.136   2.245  12.846  0.6463 -1.0705 -2.1878
 8713SOL    HW237776   3.229   2.122  12.841  0.8004 -1.6755  2.2722
 8714SOL     OW37777   2.165   3.222   5.017  0.0459 -0.0607 -0.0401
 8714SOL    HW137778   2.118   3.237   5.099 -0.2251  2.5240 -0.7011
 8714SOL    HW237779   2.252   3.252   5.044  0.9186 -0.9161 -1.8682
 8715SOL     OW37780   2.709   2.848   5.321  0.0312  0.2130  0.4762
 8715SOL    HW137781   2.629   2.863   5.272  0.3213 -2.7779 -0.9002
 8715SOL    HW237782   2.776   2.814   5.263  0.8389  3.1474 -0.3091
 8716SOL     OW37783   1.502   2.440   8.200  0.0873  0.1625 -0.1407
 8716SOL    HW137784   1.442   2.461   8.128 -1.7333 -1.8291  0.7886
 8716SOL    HW237785   1.435   2.428   8.268 -1.4176  2.4977 -1.1929
 8717SOL     OW37786   4.318   4.269   7.829 -0.3908  0.1943 -0.4661
 8717SOL    HW137787   4.361   4.279   7.744  0.6505  2.4722  0.3431
 8717SOL    HW237788   4.365   4.342   7.869 -0.9584  0.3612 -0.1025
 8718SOL     OW37789   1.274   1.776   4.488  0.1454 -0.3705  0.0607
 8718SOL    HW137790   1.253   1.757   4.579  1.5393 -1.9493  0.0481
 8718SOL    HW237791   1.189   1.794   4.448 -0.4915 -1.7780  0.8173
 8719SOL     OW37792   0.051   4.737   7.404 -0.0712  0.0398 -0.2926
 8719SOL    HW137793   0.128   0.027   7.356  0.2877  1.0278  0.8823
 8719SOL    HW237794   0.021   4.669   7.344  2.3731 -0.6563 -0.7390
 8720SOL     OW37795   1.480   3.992   3.905  0.5108  0.1245 -0.4934
 8720SOL    HW137796   1.489   4.080   3.940 -1.3426  0.1205  0.0071
 8720SOL    HW237797   1.562   3.977   3.858  0.0735 -2.9974 -0.2669
 8721SOL     OW37798   0.694   1.727   4.246  0.2168 -1.2058 -0.6165
 8721SOL    HW137799   0.660   1.797   4.192  1.1259 -1.4934 -1.5727
 8721SOL    HW237800   0.693   1.767   4.333 -1.6607  1.0938 -1.7320
 8722SOL     OW37801   0.990   3.914   7.185 -0.2142  0.3175  0.2161
 8722SOL    HW137802   0.995   3.884   7.094  1.0599  0.0926  0.3612
 8722SOL    HW237803   0.950   4.001   7.177 -2.5289 -0.7165  0.5886
 8723SOL     OW37804   0.698   1.992  12.561 -0.0604  0.6056 -0.1341
 8723SOL    HW137805   0.657   2.050  12.626 -2.5130 -1.7100  0.4239
 8723SOL    HW237806   0.753   1.940  12.619  0.6021 -0.9424 -2.1549
 8724SOL     OW37807   0.136   3.409   0.124  0.2499  0.4543  0.8220
 8724SOL    HW137808   0.159   3.337   0.066  0.3404  1.1926 -0.0466
 8724SOL    HW237809   0.043   3.429   0.112  0.7315  0.0211 -3.4673
 8725SOL     OW37810   2.088   4.655   8.379  0.1368 -0.2126  0.3728
 8725SOL    HW137811   2.152   4.587   8.403 -0.2848  0.1502  2.4478
 8725SOL    HW237812   2.125   4.677   8.293 -0.9335  2.0798  0.5097
 8726SOL     OW37813   1.386   2.979   4.393 -0.0036 -0.0273  0.3885
 8726SOL    HW137814   1.369   2.950   4.303  1.3075  0.7461 -0.1114
 8726SOL    HW237815   1.388   2.900   4.447 -0.2522 -0.7049 -0.6024
 8727SOL     OW37816   2.136   3.799  15.620  0.0153 -0.1241 -0.1274
 8727SOL    HW137817   2.104   3.813  15.709  2.9537 -2.1853  1.2734
 8727SOL    HW237818   2.118   3.886  15.585  1.2319 -0.2541 -1.1044
 8728SOL     OW37819   0.665   4.512   6.002 -0.3146  0.4873  0.1195
 8728SOL    HW137820   0.688   4.435   5.951  1.5056  1.4943 -0.5820
 8728SOL    HW237821   0.750   4.538   6.037 -0.2005 -0.3942  0.4736
 8729SOL     OW37822   0.502   2.929   3.680 -0.0696  0.1643  0.1174
 8729SOL    HW137823   0.471   2.896   3.596 -0.9682  2.2773 -0.3735
 8729SOL    HW237824   0.597   2.917   3.674 -0.0396  0.1820  0.5059
 8730SOL     OW37825   0.835   1.353   5.137 -0.2039  0.7498 -0.2769
 8730SOL    HW137826   0.865   1.442   5.120 -2.0369  1.2297 -1.0076
 8730SOL    HW237827   0.875   1.355   5.223 -2.6992  2.6322  0.8454
 8731SOL     OW37828   3.184   3.801   3.356  0.1363  0.2886  0.1995
 8731SOL    HW137829   3.245   3.869   3.326  0.6923 -0.5537 -0.5775
 8731SOL    HW237830   3.164   3.839   3.442 -1.7426 -0.6683  0.1723
 8732SOL     OW37831   4.042   4.373  15.181 -0.3402 -0.4183 -0.1342
 8732SOL    HW137832   4.081   4.286  15.174 -2.8632 -1.4449 -1.5044
 8732SOL    HW237833   4.119   4.425  15.205 -1.0187  1.8259 -2.8198
 8733SOL     OW37834   1.227   4.329   1.648  0.1097 -0.4553  0.3750
 8733SOL    HW137835   1.299   4.391   1.632 -0.0683 -1.3498 -3.9288
 8733SOL    HW237836   1.265   4.253   1.692  0.5759 -1.2975 -1.4710
 8734SOL     OW37837   0.566   2.252   3.162  0.0782 -0.0144  0.8405
 8734SOL    HW137838   0.471   2.265   3.169  0.5297  2.1354  2.9867
 8734SOL    HW237839   0.589   2.176   3.216 -0.6740 -0.3275  0.7217
 8735SOL     OW37840   0.129   4.035   6.118 -0.7607  0.1308  0.3635
 8735SOL    HW137841   0.041   4.038   6.154 -0.4056 -0.4815  1.2850
 8735SOL    HW237842   0.153   3.945   6.140  0.8381  0.4659 -0.0166
 8736SOL     OW37843   1.530   1.106   9.347  0.2825 -0.0072 -0.5091
 8736SOL    HW137844   1.509   1.159   9.425  2.8034 -0.4018  0.4262
 8736SOL    HW237845   1.448   1.061   9.326  0.9613 -1.7444  0.5405
 8737SOL     OW37846   3.858   0.194   0.847 -0.1657  0.5822  0.1935
 8737SOL    HW137847   3.896   0.239   0.772 -0.6320 -0.2372 -0.5358
 8737SOL    HW237848   3.823   0.274   0.888 -0.6932  0.6410 -0.3733
 8738SOL     OW37849   2.928   3.208  11.952  0.0389 -0.5239  0.5098
 8738SOL    HW137850   2.977   3.205  11.870 -0.7885 -1.0596  0.0335
 8738SOL    HW237851   2.888   3.122  11.956 -2.0160  0.3267 -1.7079
 8739SOL     OW37852   3.739   0.130  12.923  0.4745 -0.0921  1.1012
 8739SOL    HW137853   3.751   0.191  12.849 -0.0591 -1.1434  0.1438
 8739SOL    HW237854   3.701   0.185  12.991  0.8656 -0.6760  1.7856
 8740SOL     OW37855   2.162   4.228  14.012  0.8031 -0.3980 -0.4987
 8740SOL    HW137856   2.162   4.281  13.932  1.8614 -1.1494 -0.9954
 8740SOL    HW237857   2.187   4.296  14.075  0.9269  0.9285 -1.9907
 8741SOL     OW37858   2.001   3.733  13.854  0.3445  0.1466 -0.2784
 8741SOL    HW137859   2.065   3.667  13.824  0.1800  0.5159 -1.4334
 8741SOL    HW237860   1.995   3.695  13.942  0.0378 -0.6887 -0.6606
 8742SOL     OW37861   1.960   3.870   3.685  0.1063 -0.0798 -0.0615
 8742SOL    HW137862   1.970   3.775   3.679 -0.4989 -0.1819  0.5081
 8742SOL    HW237863   2.035   3.899   3.737 -0.3110 -1.5270  1.3493
 8743SOL     OW37864   4.649   3.310  16.245 -0.4408  0.0908  0.6396
 8743SOL    HW137865   4.722   3.318  16.184 -1.9930  1.9972 -0.9854
 8743SOL    HW237866   4.694   3.286  16.326  1.5204  1.2708 -0.1108
 8744SOL     OW37867   4.736   1.167   5.834 -0.0269 -0.5706  0.0264
 8744SOL    HW137868   4.679   1.207   5.900  0.8069  0.3751  0.1777
 8744SOL    HW237869   4.694   1.083   5.818  0.0036 -0.6943  0.5935
 8745SOL     OW37870   2.287   0.089   5.729  0.3632 -0.0358  0.0335
 8745SOL    HW137871   2.261   0.111   5.818  2.4292 -0.9012  0.8558
 8745SOL    HW237872   2.240   0.160   5.686  0.7527  0.3493  0.2435
 8746SOL     OW37873   2.562   3.891   1.404  0.4740  0.1120  0.0836
 8746SOL    HW137874   2.608   3.968   1.373  0.7363 -0.7146 -1.5656
 8746SOL    HW237875   2.476   3.928   1.423  0.1547 -0.4580 -0.2575
 8747SOL     OW37876   1.239   3.414   8.896 -0.0106 -0.2440  0.4429
 8747SOL    HW137877   1.320   3.458   8.922 -1.4069  1.8635  1.2712
 8747SOL    HW237878   1.267   3.366   8.819 -2.3120  1.7254 -1.6349
 8748SOL     OW37879   1.720   3.784   9.290  0.3071 -0.2890 -0.1937
 8748SOL    HW137880   1.802   3.787   9.340  0.1006  4.3017 -0.1548
 8748SOL    HW237881   1.750   3.729   9.218 -1.1985 -0.0903 -0.9640
 8749SOL     OW37882   3.324   0.698  12.224 -1.0893 -0.1787  0.3250
 8749SOL    HW137883   3.261   0.716  12.155 -1.1765  0.6825  0.6354
 8749SOL    HW237884   3.278   0.637  12.281 -0.3193 -0.5937  0.5161
 8750SOL     OW37885   1.580   2.514   5.737  0.1760  0.4773  0.2505
 8750SOL    HW137886   1.560   2.457   5.662 -0.1246  1.7367 -0.6227
 8750SOL    HW237887   1.597   2.446   5.802  1.9627  0.8585  0.1848
 8751SOL     OW37888   4.027   1.532   1.745  0.3606 -0.5940 -0.6650
 8751SOL    HW137889   3.933   1.513   1.742 -0.0753  1.4415 -0.1084
 8751SOL    HW237890   4.038   1.570   1.832 -3.0798 -1.7470  0.2692
 8752SOL     OW37891   1.863   0.449   4.171 -0.1221  0.3654 -0.0779
 8752SOL    HW137892   1.884   0.509   4.100  0.6992 -0.4560 -0.5338
 8752SOL    HW237893   1.779   0.415   4.141  0.7043 -0.9955 -0.8239
 8753SOL     OW37894   3.336   3.953   2.543  0.0820 -0.1400  0.1488
 8753SOL    HW137895   3.294   4.029   2.502  0.8014 -0.8463 -1.9082
 8753SOL    HW237896   3.342   3.884   2.477  2.5310 -0.1826  0.4129
 8754SOL     OW37897   1.985   4.609   4.000 -0.0552  0.1615 -0.1538
 8754SOL    HW137898   2.069   4.569   4.023 -0.4987 -0.2989  0.6704
 8754SOL    HW237899   2.012   4.680   3.941  1.1992 -1.5559 -1.6801
 8755SOL     OW37900   0.570   2.020   2.564  0.2881  0.2652 -1.0819
 8755SOL    HW137901   0.650   2.070   2.579 -1.7322  2.9463  0.7427
 8755SOL    HW237902   0.517   2.085   2.518 -1.1882  0.1746  0.5001
 8756SOL     OW37903   4.182   2.135   7.165 -0.6402 -0.6684  0.3318
 8756SOL    HW137904   4.137   2.215   7.194  0.9020  0.3221 -0.0426
 8756SOL    HW237905   4.169   2.081   7.243 -2.0219  1.1107  1.3672
 8757SOL     OW37906   0.244   4.206   0.229  0.7424  0.2008 -0.1166
 8757SOL    HW137907   0.247   4.277   0.293 -0.8265 -0.0627  0.2483
 8757SOL    HW237908   0.324   4.213   0.176  0.7483  0.0656 -0.1250
 8758SOL     OW37909   1.153   2.090   8.339 -0.2488 -0.7164  0.0395
 8758SOL    HW137910   1.228   2.031   8.330  1.2716  1.0182  1.5278
 8758SOL    HW237911   1.085   2.029   8.370  0.3605 -0.6677  1.4927
 8759SOL     OW37912   2.283   1.875   6.594  0.2150 -0.8922 -0.4836
 8759SOL    HW137913   2.201   1.897   6.639  1.0983 -0.3475  0.8297
 8759SOL    HW237914   2.301   1.961   6.555 -0.3916 -0.7944 -0.5514
 8760SOL     OW37915   1.299   4.687   4.780  0.1449  0.5933  0.6473
 8760SOL    HW137916   1.270   4.714   4.867  1.2429  0.8199  0.9334
 8760SOL    HW237917   1.394   4.691   4.784  0.2803  0.9491 -2.7967
 8761SOL     OW37918   4.385   3.232  10.861  0.1477  0.0987  0.0513
 8761SOL    HW137919   4.434   3.177  10.921  0.3820  1.1308  0.7994
 8761SOL    HW237920   4.380   3.320  10.897 -0.0221 -0.0742  0.4488
 8762SOL     OW37921   0.846   1.033  11.247  0.4467  1.0469  0.7885
 8762SOL    HW137922   0.830   1.112  11.297  1.4711  0.1022  2.6145
 8762SOL    HW237923   0.831   1.055  11.155 -2.7554 -2.0070  0.5861
 8763SOL     OW37924   0.776   2.188   6.178 -0.2844 -0.5485 -0.9171
 8763SOL    HW137925   0.765   2.140   6.095 -1.1257 -1.2377 -0.4138
 8763SOL    HW237926   0.870   2.197   6.169 -0.3571  2.1392  1.0523
 8764SOL     OW37927   0.709   4.618   2.709 -0.0209 -0.1302  0.1677
 8764SOL    HW137928   0.698   4.564   2.630 -2.4989  0.0224  0.4125
 8764SOL    HW237929   0.632   4.674   2.701  0.7701  1.4935  4.2563
 8765SOL     OW37930   4.381   3.155   6.896  0.4222 -0.5754  0.3911
 8765SOL    HW137931   4.355   3.064   6.879  1.6884 -0.4306 -2.1911
 8765SOL    HW237932   4.391   3.198   6.812  0.7744 -1.4052  0.0115
 8766SOL     OW37933   1.877   2.394   2.478 -0.1647  0.0107 -0.0042
 8766SOL    HW137934   1.813   2.414   2.410 -0.9491 -0.3443  0.6234
 8766SOL    HW237935   1.854   2.303   2.500  1.0780 -0.6185 -1.3200
 8767SOL     OW37936   2.935   2.692   2.204 -0.0105 -0.7023 -0.5216
 8767SOL    HW137937   2.994   2.653   2.140 -0.0560 -0.2939 -0.8094
 8767SOL    HW237938   2.994   2.756   2.243 -0.5745  0.1209 -1.0085
 8768SOL     OW37939   2.448   3.969   5.287  0.4445  0.5305  0.4610
 8768SOL    HW137940   2.480   3.883   5.313  1.1327  1.0714  1.4107
 8768SOL    HW237941   2.520   4.010   5.239  1.0604  1.5820  2.2750
 8769SOL     OW37942   1.239   2.989   5.322 -0.0925  0.0777  0.6525
 8769SOL    HW137943   1.306   3.043   5.280  0.1656  0.6202  1.7535
 8769SOL    HW237944   1.163   3.038   5.292 -0.0398 -0.1469  0.1552
 8770SOL     OW37945   3.334   1.720   4.011 -0.5131  0.5256  0.3569
 8770SOL    HW137946   3.241   1.744   4.008 -0.6865 -0.3970 -1.6244
 8770SOL    HW237947   3.349   1.707   3.917  2.6199  0.7216  0.8508
 8771SOL     OW37948   1.959   4.293   9.465 -0.0447 -0.2307  0.3517
 8771SOL    HW137949   1.904   4.370   9.451  0.0235 -0.1557  0.4966
 8771SOL    HW237950   2.027   4.331   9.520  0.5488 -1.6880  0.6215
 8772SOL     OW37951   0.934   3.878   2.425 -0.1890 -0.0234  0.3900
 8772SOL    HW137952   0.880   3.956   2.440  0.2899  0.4000 -0.0612
 8772SOL    HW237953   0.997   3.881   2.496  0.8795 -0.9910 -0.5103
 8773SOL     OW37954   1.863   2.865   8.985  0.8497 -0.5074  0.0485
 8773SOL    HW137955   1.859   2.931   8.915  0.9965 -1.0624 -0.4790
 8773SOL    HW237956   1.771   2.862   9.012  0.1853  1.8745 -1.9096
 8774SOL     OW37957   3.929   0.871  10.291  0.2073  0.2297  0.0487
 8774SOL    HW137958   3.932   0.940  10.357  0.6008  0.1840  0.0794
 8774SOL    HW237959   3.971   0.795  10.332 -0.8011 -1.0801 -1.3223
 8775SOL     OW37960   4.561   0.343   3.426 -0.1825  0.0726 -0.1815
 8775SOL    HW137961   4.626   0.396   3.379  0.4002  2.3324  3.1330
 8775SOL    HW237962   4.584   0.356   3.518  0.1488  1.5526 -0.4758
 8776SOL     OW37963   4.442   2.980   2.967 -0.9119 -0.1545 -0.3857
 8776SOL    HW137964   4.512   2.999   2.904 -0.7579 -0.2022 -0.2275
 8776SOL    HW237965   4.382   2.919   2.925 -0.3736 -1.2327  0.4005
 8777SOL     OW37966   4.131   1.864   8.981  0.4431 -0.0162  0.0290
 8777SOL    HW137967   4.081   1.866   9.063 -1.1396 -2.3974 -0.8837
 8777SOL    HW237968   4.062   1.887   8.920  0.5591  1.6953  0.5441
 8778SOL     OW37969   4.638   1.139  13.235  0.2724 -0.3474  0.1189
 8778SOL    HW137970   4.575   1.135  13.164  1.2370 -0.6060 -0.7102
 8778SOL    HW237971   4.724   1.142  13.193  0.0990 -0.4271 -0.2360
 8779SOL     OW37972   1.973   0.038  17.224  0.6695  0.7641  0.2057
 8779SOL    HW137973   1.877   0.034  17.226  0.7818 -2.4381 -1.2453
 8779SOL    HW237974   1.993   4.693  17.266  0.5154 -0.4366 -2.1476
 8780SOL     OW37975   2.866   1.769  16.470 -0.5740 -0.4319 -0.0561
 8780SOL    HW137976   2.885   1.853  16.510 -2.1667 -1.5587  3.1175
 8780SOL    HW237977   2.771   1.775  16.485 -0.6599  1.0588 -1.2156
 8781SOL     OW37978   0.354   2.400  15.557 -0.1487  0.5744  0.4890
 8781SOL    HW137979   0.418   2.446  15.503  1.0853 -1.3678  0.3165
 8781SOL    HW237980   0.403   2.318  15.566  0.6826  1.1343  1.0185
 8782SOL     OW37981   1.895   3.885   3.055 -0.7592 -0.4451  0.7463
 8782SOL    HW137982   1.891   3.980   3.041 -0.0831 -0.5133  0.0861
 8782SOL    HW237983   1.825   3.854   2.997 -0.9914  2.3875 -0.5110
 8783SOL     OW37984   3.326   4.657   9.797  0.0240 -0.5014  0.1332
 8783SOL    HW137985   3.302   0.008   9.779 -1.3515 -0.3659  2.6158
 8783SOL    HW237986   3.282   4.615   9.723  0.5045 -0.5707 -0.1137
 8784SOL     OW37987   2.419   1.962  12.108 -0.3744 -0.2904  0.2107
 8784SOL    HW137988   2.350   1.938  12.046  0.3679  0.9554 -1.1139
 8784SOL    HW237989   2.411   2.057  12.100 -0.0784 -0.2750  0.0994
 8785SOL     OW37990   0.804   1.767  12.813  0.0376  0.3602 -0.2231
 8785SOL    HW137991   0.841   1.716  12.885  0.4075  2.2325  0.9111
 8785SOL    HW237992   0.878   1.764  12.753 -0.0920  2.3645 -0.4847
 8786SOL     OW37993   1.387   4.247   2.980  0.0089 -0.3942 -0.2955
 8786SOL    HW137994   1.323   4.179   3.000 -0.1535  0.1046  0.8606
 8786SOL    HW237995   1.445   4.194   2.925 -1.3531 -1.4773 -0.6720
 8787SOL     OW37996   4.518   4.196   5.145 -0.1636  0.4618 -0.1064
 8787SOL    HW137997   4.477   4.110   5.147 -0.5007  0.6207 -0.2247
 8787SOL    HW237998   4.443   4.256   5.141  0.2781  1.0990  1.2326
 8788SOL     OW37999   2.276   2.468   3.356 -0.1026  0.1631 -0.0140
 8788SOL    HW138000   2.215   2.417   3.302  0.9165 -0.4400 -0.6009
 8788SOL    HW238001   2.340   2.400   3.379  0.8221  0.8094 -0.6969
 8789SOL     OW38002   2.502   1.180   5.462  0.0872  0.1692 -0.2106
 8789SOL    HW138003   2.531   1.260   5.418  2.9396  0.2075  1.7013
 8789SOL    HW238004   2.465   1.224   5.538  1.0672 -1.4867  1.2413
 8790SOL     OW38005   3.095   1.972   8.486  0.4460 -0.1058  0.3386
 8790SOL    HW138006   3.001   1.961   8.500  0.2907 -1.0402 -1.3820
 8790SOL    HW238007   3.087   2.051   8.432 -2.8241 -0.5498  0.1163
 8791SOL     OW38008   0.787   0.935   7.804  0.2592  0.0938 -0.1011
 8791SOL    HW138009   0.868   0.935   7.855 -0.1215 -0.6919  0.5092
 8791SOL    HW238010   0.728   0.955   7.876  0.4946  0.0877  0.0942
 8792SOL     OW38011   0.957   0.276  11.709 -0.3024 -0.2383 -0.1542
 8792SOL    HW138012   0.992   0.365  11.700  1.3463 -0.8244  0.4432
 8792SOL    HW238013   1.042   0.231  11.712 -0.5929 -0.8324 -0.6447
 8793SOL     OW38014   2.106   3.708   0.590 -0.6313  0.5289  0.2557
 8793SOL    HW138015   2.061   3.623   0.594 -0.8680  0.5971 -0.9799
 8793SOL    HW238016   2.198   3.694   0.616 -0.9553 -1.5354  0.2999
 8794SOL     OW38017   0.977   1.205  15.318 -0.5611 -0.7052 -0.1486
 8794SOL    HW138018   1.071   1.222  15.312 -0.7225  0.9047  1.9624
 8794SOL    HW238019   0.993   1.128  15.372 -1.2442 -1.5188 -1.0920
 8795SOL     OW38020   2.037   2.317   6.799  0.2759 -0.2492  0.2733
 8795SOL    HW138021   2.067   2.399   6.838  0.0703 -0.0516  0.0145
 8795SOL    HW238022   1.967   2.348   6.741  0.7418 -1.0928 -0.7251
 8796SOL     OW38023   0.491   0.200  16.669  0.0201  0.1438  0.4122
 8796SOL    HW138024   0.429   0.241  16.730  1.7003  2.3662  0.5868
 8796SOL    HW238025   0.491   0.254  16.590 -0.8272 -1.0794 -0.4349
 8797SOL     OW38026   1.720   4.253   5.029  0.1223 -0.2021  0.0275
 8797SOL    HW138027   1.767   4.176   4.998  1.4795  0.1297  1.2539
 8797SOL    HW238028   1.747   4.262   5.120  0.3036  2.1944 -0.2515
 8798SOL     OW38029   0.615   3.489   2.775  0.7749 -0.0365  0.4940
 8798SOL    HW138030   0.536   3.541   2.760 -0.0064 -2.0934 -2.5291
 8798SOL    HW238031   0.667   3.480   2.696  1.4088 -1.5659  1.0785
 8799SOL     OW38032   4.127   2.490  10.876  0.2929 -0.3651  0.5335
 8799SOL    HW138033   4.093   2.467  10.963  0.3266  0.7068  0.8347
 8799SOL    HW238034   4.116   2.585  10.871  0.8196 -0.2154  2.0078
 8800SOL     OW38035   3.744   2.020   3.190  0.1279  0.5124  0.3519
 8800SOL    HW138036   3.721   1.937   3.233 -0.2565 -0.0015 -0.8455
 8800SOL    HW238037   3.833   2.001   3.162 -0.3864  0.0745 -0.9803
 8801SOL     OW38038   1.945   2.517   7.494  0.5140  0.1327  0.0038
 8801SOL    HW138039   1.914   2.530   7.404  0.0659  1.3495  0.3395
 8801SOL    HW238040   2.035   2.547   7.482  1.0104 -0.3152  2.7808
 8802SOL     OW38041   0.018   4.564   4.273 -0.2028  0.3233 -0.1033
 8802SOL    HW138042   0.112   4.584   4.265 -0.2272 -0.0513 -1.3357
 8802SOL    HW238043   0.003   4.503   4.201  2.0891 -2.6234  1.9500
 8803SOL     OW38044   0.526   2.787   6.473 -0.1468 -0.0881  0.5769
 8803SOL    HW138045   0.537   2.859   6.411 -1.1148 -0.0819  0.4225
 8803SOL    HW238046   0.481   2.833   6.544 -0.4436  1.7733 -0.8196
 8804SOL     OW38047   4.525   1.776   1.815 -0.1450  0.2139 -0.3312
 8804SOL    HW138048   4.604   1.808   1.771  0.0005  1.3924  0.7833
 8804SOL    HW238049   4.525   1.680   1.808 -1.2983 -0.0358  2.7617
 8805SOL     OW38050   3.160   2.571   4.878 -0.3563  0.0387  0.1236
 8805SOL    HW138051   3.245   2.612   4.891  0.5301 -1.9792  0.8143
 8805SOL    HW238052   3.169   2.526   4.793  1.1620 -0.8765  0.7672
 8806SOL     OW38053   3.275   0.284   4.918 -0.2159 -0.3146  0.0220
 8806SOL    HW138054   3.215   0.241   4.980  1.3558 -0.0528  1.7016
 8806SOL    HW238055   3.252   0.245   4.833  1.3499  0.1632 -0.6065
 8807SOL     OW38056   1.665   0.389   1.550 -0.1223  0.2032  0.3978
 8807SOL    HW138057   1.662   0.437   1.467 -0.2324  0.5196  0.5845
 8807SOL    HW238058   1.753   0.354   1.534 -0.8621 -0.5017 -2.2146
 8808SOL     OW38059   2.378   0.243   3.806  0.2797 -0.2491 -0.3374
 8808SOL    HW138060   2.407   0.151   3.803  0.0827 -0.2854 -1.0759
 8808SOL    HW238061   2.449   0.288   3.760  1.2729 -0.4441  1.0105
 8809SOL     OW38062   2.417   0.501   2.858 -0.0651  0.0931 -0.2238
 8809SOL    HW138063   2.336   0.545   2.883  0.8106  0.7970  1.3583
 8809SOL    HW238064   2.396   0.420   2.811 -1.5763  0.7410 -0.6518
 8810SOL     OW38065   0.302   4.343   1.833 -0.0204  0.2854  0.0137
 8810SOL    HW138066   0.244   4.286   1.883  0.9048 -0.1588  0.5688
 8810SOL    HW238067   0.254   4.426   1.840 -0.9883 -0.1702 -1.1456
 8811SOL     OW38068   2.636   3.203   5.203  0.4283  0.6677 -0.4772
 8811SOL    HW138069   2.673   3.141   5.140  0.2081 -1.8996  1.9316
 8811SOL    HW238070   2.675   3.170   5.284  2.1566 -0.6759 -1.8656
 8812SOL     OW38071   2.605   0.153   9.894 -0.1829 -0.1170  0.3760
 8812SOL    HW138072   2.627   0.112   9.977  0.6735 -0.5697 -0.0780
 8812SOL    HW238073   2.565   0.079   9.847 -0.0379 -0.2813  0.5140
 8813SOL     OW38074   0.595   0.504   5.559 -0.9964  0.2999  0.3634
 8813SOL    HW138075   0.565   0.523   5.648 -0.7113  1.8661  0.1167
 8813SOL    HW238076   0.539   0.431   5.532 -0.6718  0.6113 -1.1675
 8814SOL     OW38077   1.203   4.713  11.080 -0.4899  0.7126  0.5605
 8814SOL    HW138078   1.240   0.017  11.158 -2.0751  1.6587  0.7923
 8814SOL    HW238079   1.271   4.734  11.016  0.2564 -0.2945  1.0148
 8815SOL     OW38080   3.888   2.203   4.893  0.1114 -0.5562 -0.3850
 8815SOL    HW138081   3.802   2.189   4.852 -0.3788 -0.7888  0.7405
 8815SOL    HW238082   3.930   2.123   4.861  0.2779 -0.7608  0.3560
 8816SOL     OW38083   0.559   1.286   1.415  0.0518 -0.6194 -0.2137
 8816SOL    HW138084   0.604   1.273   1.498 -0.3079 -0.7821 -0.0465
 8816SOL    HW238085   0.492   1.219   1.428  0.2997 -0.8121  0.0861
 8817SOL     OW38086   2.877   1.834  16.021  0.0169  0.2464  0.1787
 8817SOL    HW138087   2.820   1.904  16.052 -0.9394 -0.3555 -0.2090
 8817SOL    HW238088   2.903   1.788  16.101 -0.2908  1.6198  1.0708
 8818SOL     OW38089   3.772   2.761   9.089  0.2092  0.4230  0.2321
 8818SOL    HW138090   3.681   2.790   9.101  0.1966  0.3184  0.3865
 8818SOL    HW238091   3.800   2.816   9.015 -0.8807 -0.4182 -0.8114
 8819SOL     OW38092   0.414   1.824   4.578  0.0381  0.3266  0.1071
 8819SOL    HW138093   0.486   1.776   4.618 -1.0689 -1.4759 -0.0385
 8819SOL    HW238094   0.374   1.872   4.650  1.0139 -0.3489  1.0931
 8820SOL     OW38095   3.731   4.376  14.604 -0.2412 -0.0594 -0.5648
 8820SOL    HW138096   3.806   4.319  14.622  0.5146  1.7434  2.0239
 8820SOL    HW238097   3.670   4.331  14.661 -0.3945  0.1305 -0.5807
 8821SOL     OW38098   2.606   4.456  13.440  0.1110  0.1323 -0.3531
 8821SOL    HW138099   2.519   4.436  13.473 -0.4247  1.7631 -0.7691
 8821SOL    HW238100   2.641   4.511  13.511  0.8542  0.5450 -1.0372
 8822SOL     OW38101   3.876   3.825   7.701 -0.0136  0.3504 -0.1366
 8822SOL    HW138102   3.931   3.903   7.701  0.4127  0.0508  1.8901
 8822SOL    HW238103   3.936   3.757   7.669 -0.9438 -0.7526  0.4532
 8823SOL     OW38104   3.717   4.150   5.478 -0.1474  0.1363 -0.5161
 8823SOL    HW138105   3.750   4.064   5.452 -2.8533 -1.3459  0.9434
 8823SOL    HW238106   3.778   4.207   5.431 -1.2287  1.8430  0.1391
 8824SOL     OW38107   3.625   1.194   2.492 -0.1194 -0.3668 -0.1411
 8824SOL    HW138108   3.581   1.110   2.480 -2.3903  1.1809 -2.6108
 8824SOL    HW238109   3.714   1.168   2.515  0.6348  1.5601 -0.8255
 8825SOL     OW38110   2.817   0.343   7.992  0.5972 -0.0648  0.7509
 8825SOL    HW138111   2.888   0.348   8.056  0.4996 -0.8894  0.9193
 8825SOL    HW238112   2.765   0.413   8.031 -1.4312 -1.1729  0.0124
 8826SOL     OW38113   1.705   0.432  12.830 -0.1879  0.2847 -0.4838
 8826SOL    HW138114   1.741   0.382  12.756  1.5497  0.0016  0.5533
 8826SOL    HW238115   1.683   0.358  12.887 -1.0165 -0.3377 -1.6034
 8827SOL     OW38116   3.784   3.884   6.200 -0.1595  0.2839  0.0633
 8827SOL    HW138117   3.785   3.919   6.111 -0.6067 -2.8150 -1.1338
 8827SOL    HW238118   3.692   3.875   6.227  0.0820 -1.3782  0.3147
 8828SOL     OW38119   0.615   2.390   8.913  0.1045  0.3965  0.3941
 8828SOL    HW138120   0.631   2.359   9.002 -1.0756  3.5567  1.7142
 8828SOL    HW238121   0.704   2.392   8.877 -0.4519 -0.7150 -1.0386
 8829SOL     OW38122   1.034   2.262   6.137 -0.0079  0.4334  0.1564
 8829SOL    HW138123   1.070   2.266   6.048  1.4538  2.1136  0.8236
 8829SOL    HW238124   1.106   2.228   6.190 -0.2386 -1.8399 -0.9603
 8830SOL     OW38125   3.653   0.335   5.369 -0.3627  0.0449  0.3686
 8830SOL    HW138126   3.688   0.403   5.313  2.4421 -0.6112  1.3379
 8830SOL    HW238127   3.636   0.381   5.451  0.6708  1.5528 -0.2843
 8831SOL     OW38128   2.678   3.360   5.817  0.0907  0.0067  0.5126
 8831SOL    HW138129   2.613   3.422   5.784 -0.8436 -0.1527  2.0393
 8831SOL    HW238130   2.702   3.405   5.898 -1.7724 -2.6664  2.5502
 8832SOL     OW38131   1.294   0.810   3.980  0.1890  0.3056  0.6107
 8832SOL    HW138132   1.271   0.803   4.073  0.5696  0.4385  0.7167
 8832SOL    HW238133   1.208   0.830   3.944  1.6567 -0.2734 -3.1530
 8833SOL     OW38134   2.095   2.397   7.675 -0.1437  0.6963  0.4514
 8833SOL    HW138135   2.112   2.318   7.624 -0.1436  2.1513 -1.7704
 8833SOL    HW238136   2.023   2.440   7.630 -0.8733 -1.8585 -0.8530
 8834SOL     OW38137   3.350   2.944   8.905  0.5615  0.4610  0.0358
 8834SOL    HW138138   3.331   2.890   8.828 -0.3701  1.4238 -0.4166
 8834SOL    HW238139   3.277   3.006   8.908 -0.2782 -0.4597 -1.0215
 8835SOL     OW38140   0.435   1.530  15.850  0.2112  0.5543  0.2244
 8835SOL    HW138141   0.520   1.486  15.852  0.5957  1.2744 -0.2762
 8835SOL    HW238142   0.400   1.517  15.762 -2.2274  1.7358  1.0193
 8836SOL     OW38143   1.850   2.608   8.950 -0.4093  0.7907  0.1626
 8836SOL    HW138144   1.770   2.610   8.898 -0.5605  3.1830  0.4682
 8836SOL    HW238145   1.889   2.696   8.959  0.7542  0.2136  0.8318
 8837SOL     OW38146   3.787   2.546   7.211 -0.2849  0.1678  0.2467
 8837SOL    HW138147   3.865   2.601   7.214  0.0262 -0.2518 -0.2513
 8837SOL    HW238148   3.725   2.608   7.249 -0.2991 -0.9258  2.0082
 8838SOL     OW38149   3.999   1.219   1.376  0.1374 -0.2124  0.0972
 8838SOL    HW138150   3.912   1.248   1.349  0.3158 -0.1155 -0.3838
 8838SOL    HW238151   3.974   1.128   1.395  2.0712 -0.8273 -0.2470
 8839SOL     OW38152   1.453   2.323   1.787  0.4134 -0.3977 -0.2728
 8839SOL    HW138153   1.388   2.286   1.727 -1.5251  0.1275  1.5070
 8839SOL    HW238154   1.402   2.371   1.852 -0.8681  0.9584 -2.2813
 8840SOL     OW38155   0.292   2.960   8.884 -0.0044 -0.1892 -0.3259
 8840SOL    HW138156   0.281   3.048   8.920  1.0366  0.3039 -1.1947
 8840SOL    HW238157   0.284   2.919   8.970 -3.4894  0.0699 -0.5491
 8841SOL     OW38158   0.785   0.621   7.207 -0.1959  0.1762  0.2140
 8841SOL    HW138159   0.727   0.548   7.228  3.1353 -2.2729  0.7283
 8841SOL    HW238160   0.796   0.606   7.113 -1.2278 -0.4236  0.1873
 8842SOL     OW38161   1.351   4.084   2.429  0.1624 -0.1394 -0.0297
 8842SOL    HW138162   1.270   4.039   2.450  0.1415 -0.8843 -1.7080
 8842SOL    HW238163   1.359   4.052   2.339 -2.3934 -0.8661  0.0000
 8843SOL     OW38164   1.119   3.711   2.798  0.0953 -0.4841  0.2670
 8843SOL    HW138165   1.026   3.697   2.817  0.2530 -1.2457  0.4939
 8843SOL    HW238166   1.148   3.646   2.863  2.4179 -1.0396 -1.3244
 8844SOL     OW38167   4.402   3.313   5.074 -0.1313  0.8770  0.1964
 8844SOL    HW138168   4.406   3.248   5.145 -0.4325  1.3053  0.6101
 8844SOL    HW238169   4.400   3.395   5.124  3.9539  0.7091  0.6360
 8845SOL     OW38170   4.591   0.788   5.456 -0.3713  0.1540  0.2543
 8845SOL    HW138171   4.631   0.874   5.465  0.4731 -0.3693  1.3963
 8845SOL    HW238172   4.671   0.738   5.443 -0.6337 -0.8913  2.6776
 8846SOL     OW38173   1.966   1.501   0.115 -0.3795  0.2254 -0.4273
 8846SOL    HW138174   2.040   1.459   0.159 -1.8623 -1.0201  0.8611
 8846SOL    HW238175   1.897   1.443   0.147 -0.6115  2.0399  2.3982
 8847SOL     OW38176   0.477   1.669   1.066 -0.8549 -0.6084  0.7994
 8847SOL    HW138177   0.539   1.657   1.138  0.3048 -0.5292 -0.1820
 8847SOL    HW238178   0.456   1.762   1.071  0.9007 -0.2236  1.1797
 8848SOL     OW38179   0.607   3.157   5.442  0.0301 -0.2483  0.0080
 8848SOL    HW138180   0.545   3.124   5.377  1.5334 -1.7529 -0.6463
 8848SOL    HW238181   0.610   3.250   5.418 -0.3465 -0.1177  0.4552
 8849SOL     OW38182   4.551   0.592   4.480 -0.4088 -0.0560 -0.5106
 8849SOL    HW138183   4.568   0.684   4.498  0.6019 -0.2903 -0.2871
 8849SOL    HW238184   4.566   0.545   4.561  2.0162  1.1828 -0.2636
 8850SOL     OW38185   4.485   2.201  13.519 -0.8343  0.3493  0.2298
 8850SOL    HW138186   4.396   2.165  13.512 -0.9490  0.5011  0.9712
 8850SOL    HW238187   4.464   2.293  13.535  1.7718  0.7060  1.5313
 8851SOL     OW38188   0.177   4.399   5.261 -0.5227 -0.1626 -0.2176
 8851SOL    HW138189   0.082   4.396   5.276 -0.9020 -0.1516 -2.5236
 8851SOL    HW238190   0.182   4.492   5.237  2.5336 -0.6286 -1.3433
 8852SOL     OW38191   4.245   1.499   9.824 -0.0372  0.8044  0.0283
 8852SOL    HW138192   4.186   1.451   9.766 -0.5336  2.4284 -0.7826
 8852SOL    HW238193   4.182   1.553   9.871 -1.4287 -1.2514  0.5261
 8853SOL     OW38194   1.117   2.810   5.510  0.0594 -0.3359 -0.3283
 8853SOL    HW138195   1.164   2.890   5.486 -4.1355  2.4613  0.9295
 8853SOL    HW238196   1.027   2.839   5.524  0.1769  0.4292 -1.1598
 8854SOL     OW38197   0.659   1.323  10.784 -0.0842  0.5842 -0.2705
 8854SOL    HW138198   0.642   1.335  10.691  2.0669 -0.6144 -0.8134
 8854SOL    HW238199   0.749   1.290  10.779 -0.4753 -0.4454 -0.4910
 8855SOL     OW38200   4.717   3.715   8.181 -0.2025  0.2458 -0.1269
 8855SOL    HW138201   4.674   3.668   8.109 -2.7206  0.6056  1.1768
 8855SOL    HW238202   4.639   3.763   8.206 -0.1856  0.9853 -1.4559
 8856SOL     OW38203   0.368   1.832  10.900 -0.3661 -0.0274  0.3654
 8856SOL    HW138204   0.346   1.924  10.892 -0.9215 -0.1890  0.0095
 8856SOL    HW238205   0.457   1.837  10.933 -0.7803 -0.0985  1.4874
 8857SOL     OW38206   4.480   2.271   6.256 -0.2360 -0.3365  0.0933
 8857SOL    HW138207   4.521   2.343   6.303  1.3481 -1.0450 -0.1869
 8857SOL    HW238208   4.444   2.226   6.332  1.8229  0.8468  1.7863
 8858SOL     OW38209   0.017   3.523   9.671  0.2982 -0.1678  0.0671
 8858SOL    HW138210   0.105   3.497   9.696  0.1223  0.0777  0.9416
 8858SOL    HW238211   4.707   3.540   9.752 -0.6736 -2.6855  0.0250
 8859SOL     OW38212   3.071   2.821   8.491  0.0157  0.4927  0.2341
 8859SOL    HW138213   3.107   2.909   8.487  0.4673  0.2484 -0.9382
 8859SOL    HW238214   3.074   2.800   8.398  0.6031 -3.0275  1.0324
 8860SOL     OW38215   1.125   4.592   1.526  0.1584  0.3037 -0.2336
 8860SOL    HW138216   1.218   4.609   1.544 -0.0294  0.4203  0.5895
 8860SOL    HW238217   1.106   4.514   1.577 -2.2380  2.5494  2.2882
 8861SOL     OW38218   2.298   0.909  13.293 -0.5197 -0.3145  0.1922
 8861SOL    HW138219   2.305   0.813  13.292 -0.9769 -0.3912  3.2668
 8861SOL    HW238220   2.272   0.934  13.382  2.2331  3.5534 -0.1166
 8862SOL     OW38221   0.755   0.676  16.205  0.4854 -0.0440  0.0050
 8862SOL    HW138222   0.768   0.754  16.259 -2.6179  0.8514 -0.5077
 8862SOL    HW238223   0.817   0.616  16.245  0.6630 -0.9809 -1.6647
 8863SOL     OW38224   4.654   3.883   0.516  0.4527  0.5414 -0.1168
 8863SOL    HW138225   4.661   3.790   0.496 -2.0140  0.3693 -0.2753
 8863SOL    HW238226   4.722   3.919   0.460 -1.1182  2.5092 -0.7929
 8864SOL     OW38227   2.145   1.769   1.859 -0.6513  0.1699  0.3568
 8864SOL    HW138228   2.235   1.748   1.886 -0.5674  1.5743  1.1815
 8864SOL    HW238229   2.130   1.698   1.798 -2.4931  1.7446 -1.0077
 8865SOL     OW38230   0.547   2.939  13.327  0.6869  0.0669 -0.2804
 8865SOL    HW138231   0.547   3.025  13.368  2.4028 -0.2990  0.5122
 8865SOL    HW238232   0.639   2.934  13.301  0.8021 -1.5517  0.4528
 8866SOL     OW38233   1.618   2.355   2.718  0.2680 -0.3696  0.3570
 8866SOL    HW138234   1.604   2.266   2.684 -0.3848 -0.6655  1.4136
 8866SOL    HW238235   1.559   2.355   2.793  1.2272  2.0449  1.0825
 8867SOL     OW38236   1.851   4.276   4.319 -0.0867  0.5414 -0.4056
 8867SOL    HW138237   1.869   4.367   4.343 -2.3972  0.4658  1.6375
 8867SOL    HW238238   1.926   4.256   4.263  1.0233 -1.3335  1.7463
 8868SOL     OW38239   4.589   0.645   5.997 -0.3815  0.0665  0.1374
 8868SOL    HW138240   4.589   0.621   5.904 -0.2079 -1.3536  0.4968
 8868SOL    HW238241   4.512   0.596   6.026 -1.4336  0.8357 -1.3617
 8869SOL     OW38242   1.058   1.778  12.718 -0.7074 -0.2409  0.0061
 8869SOL    HW138243   1.117   1.704  12.698  0.4242  0.3963  0.9994
 8869SOL    HW238244   1.104   1.844  12.666 -0.5647  0.0432  0.4964
 8870SOL     OW38245   2.830   4.282  13.090 -0.3900  0.0427  0.8576
 8870SOL    HW138246   2.870   4.300  13.004 -1.4071 -3.7277 -0.3788
 8870SOL    HW238247   2.821   4.374  13.117 -0.2105 -0.2454  1.8562
 8871SOL     OW38248   0.791   3.833   1.381  0.2594  0.1054 -0.0659
 8871SOL    HW138249   0.812   3.741   1.364  0.0559  0.4180 -1.9575
 8871SOL    HW238250   0.877   3.865   1.407  0.8451 -0.7679 -0.9022
 8872SOL     OW38251   0.343   4.017  11.127 -0.0852 -0.2247  0.0828
 8872SOL    HW138252   0.361   3.974  11.210  0.7367  4.4739  2.3366
 8872SOL    HW238253   0.429   4.006  11.086 -1.6004 -3.3742 -2.2322
 8873SOL     OW38254   0.434   2.300   5.818 -0.2990 -0.2636 -0.1899
 8873SOL    HW138255   0.399   2.346   5.894  0.9777 -1.3703  1.0447
 8873SOL    HW238256   0.429   2.361   5.744  1.4729 -1.1781 -1.0805
 8874SOL     OW38257   3.071   2.926   9.119  0.4390 -0.4903 -0.0485
 8874SOL    HW138258   3.083   2.964   9.032  0.9648 -1.7852 -0.5492
 8874SOL    HW238259   3.142   2.863   9.106 -0.3662 -1.6256  1.0105
 8875SOL     OW38260   1.175   4.614   7.399  0.6771  0.3646 -0.1861
 8875SOL    HW138261   1.157   4.693   7.451 -0.3121  0.0666 -0.0601
 8875SOL    HW238262   1.143   4.650   7.316 -1.2321 -1.8923 -0.4535
 8876SOL     OW38263   0.009   4.190   5.557  0.1087 -0.1154 -0.5495
 8876SOL    HW138264   4.714   4.222   5.474  0.4521  0.4876 -0.4548
 8876SOL    HW238265   4.681   4.122   5.570 -2.3765  2.1699 -1.4893
 8877SOL     OW38266   3.184   3.503  16.048  0.7313  0.9282 -0.4073
 8877SOL    HW138267   3.173   3.421  15.998  3.6283 -1.1723  2.4014
 8877SOL    HW238268   3.185   3.560  15.971 -2.3230  0.8407 -0.5075
 8878SOL     OW38269   2.797   1.084  15.295 -0.3354  0.3097  0.0317
 8878SOL    HW138270   2.862   1.113  15.360 -0.9649 -3.3131  2.2823
 8878SOL    HW238271   2.792   1.169  15.251  0.3068 -0.3103 -1.2425
 8879SOL     OW38272   3.286   1.584   2.482  0.4968  0.2438  0.1124
 8879SOL    HW138273   3.373   1.624   2.482  1.0576 -0.9939  2.0138
 8879SOL    HW238274   3.271   1.580   2.576 -0.0480 -1.4219 -0.0341
 8880SOL     OW38275   2.719   4.137  11.632 -0.0784 -0.0986 -0.0079
 8880SOL    HW138276   2.792   4.128  11.693  0.4833  0.9842 -0.5236
 8880SOL    HW238277   2.641   4.117  11.684  1.5131 -0.8688  2.0488
 8881SOL     OW38278   1.083   2.603   9.029 -0.2887  0.4287 -0.0470
 8881SOL    HW138279   1.038   2.598   8.945  1.3105 -0.0791 -0.8857
 8881SOL    HW238280   1.115   2.693   9.034  0.8394 -0.0262  0.9348
 8882SOL     OW38281   2.913   2.039  16.597 -0.1917  0.0730 -0.3085
 8882SOL    HW138282   2.900   2.131  16.619 -0.0367  0.4322 -1.6900
 8882SOL    HW238283   2.995   2.047  16.548  1.2182  2.8897  2.5257
 8883SOL     OW38284   0.713   4.329  14.650  0.2703  0.0215  0.6535
 8883SOL    HW138285   0.720   4.259  14.715 -0.3267 -1.5793 -0.9968
 8883SOL    HW238286   0.808   4.334  14.634  0.1748 -0.7713 -0.1663
 8884SOL     OW38287   4.628   2.615   2.109  0.0959  0.2682 -0.3799
 8884SOL    HW138288   4.639   2.680   2.179 -1.4249 -0.5064  0.5612
 8884SOL    HW238289   4.550   2.567   2.137  0.4697  0.7720  1.5378
 8885SOL     OW38290   1.600   4.037   4.375  0.1465 -0.1227  0.0386
 8885SOL    HW138291   1.623   3.987   4.453 -0.9281  0.4058  0.6827
 8885SOL    HW238292   1.606   3.973   4.304  0.1526 -1.6004  1.3718
 8886SOL     OW38293   4.229   1.687   7.862  0.1714 -0.4029  0.2481
 8886SOL    HW138294   4.205   1.644   7.780 -1.0873  0.1967  0.2965
 8886SOL    HW238295   4.183   1.624   7.917 -1.5539  0.4585 -0.2043
 8887SOL     OW38296   0.678   0.788   4.277  0.1168 -0.3259 -0.4393
 8887SOL    HW138297   0.663   0.863   4.333  1.6669  0.4194 -1.0151
 8887SOL    HW238298   0.599   0.737   4.296 -1.0141  1.6325  0.0324
 8888SOL     OW38299   2.500   0.824  11.956  0.0745  0.0356  0.0341
 8888SOL    HW138300   2.428   0.811  12.018 -1.2743 -2.8504 -2.1487
 8888SOL    HW238301   2.450   0.840  11.876  1.0899 -1.4477 -0.9052
 8889SOL     OW38302   2.216   3.490  11.299 -0.2749  0.8233 -0.5735
 8889SOL    HW138303   2.287   3.541  11.340  0.4684  0.2608 -1.1772
 8889SOL    HW238304   2.155   3.564  11.306 -0.5433  0.4757  0.8177
 8890SOL     OW38305   1.801   3.171  16.761 -0.0693 -0.1230  0.0893
 8890SOL    HW138306   1.827   3.240  16.823 -2.7341  0.6215  0.4014
 8890SOL    HW238307   1.754   3.106  16.812  1.6706 -0.4367  1.2898
 8891SOL     OW38308   0.768   0.272   3.305  0.8577  0.3176  0.8066
 8891SOL    HW138309   0.857   0.308   3.301  0.7996  0.6004  2.0126
 8891SOL    HW238310   0.711   0.346   3.324 -0.5372 -0.5965  0.1185
 8892SOL     OW38311   0.985   3.602  11.018  0.1336 -0.1737  0.3606
 8892SOL    HW138312   1.047   3.530  11.031 -1.5578 -1.5305  1.0049
 8892SOL    HW238313   0.981   3.597  10.922 -1.7270  0.1279  0.4201
 8893SOL     OW38314   4.473   0.497   4.192 -0.1985 -0.3884 -0.1110
 8893SOL    HW138315   4.478   0.526   4.283  0.7727 -2.4047  0.4784
 8893SOL    HW238316   4.507   0.570   4.141  2.5872 -2.6367 -1.4206
 8894SOL     OW38317   1.686   2.625  13.378 -0.2200 -0.2583 -0.8128
 8894SOL    HW138318   1.732   2.581  13.307  1.1875 -0.4496  0.2055
 8894SOL    HW238319   1.595   2.627  13.348 -0.5450 -1.7976  0.0334
 8895SOL     OW38320   0.432   1.445  16.890 -0.1361  0.1944 -0.7445
 8895SOL    HW138321   0.400   1.468  16.802 -0.5615  0.1238 -0.6070
 8895SOL    HW238322   0.524   1.420  16.877 -0.7654 -2.4239 -0.1345
 8896SOL     OW38323   1.656   0.207  12.049  0.0649 -0.2988  0.6324
 8896SOL    HW138324   1.636   0.140  11.983 -1.9636 -0.6581  1.6366
 8896SOL    HW238325   1.582   0.265  12.033 -0.6493 -1.4844 -0.3945
 8897SOL     OW38326   1.475   3.665  16.028  0.3998 -0.2464 -0.3064
 8897SOL    HW138327   1.532   3.668  15.952  0.6465 -0.4196 -0.1281
 8897SOL    HW238328   1.528   3.717  16.089 -0.1758 -0.2082  0.1661
 8898SOL     OW38329   0.029   3.041   2.314  0.1072  0.3631  0.1969
 8898SOL    HW138330   0.018   2.950   2.342  0.6055  0.1349 -0.3544
 8898SOL    HW238331   0.116   3.045   2.274  0.4666 -0.1890  0.9276
 8899SOL     OW38332   2.767   1.314  17.231 -0.3424  0.6164  0.0737
 8899SOL    HW138333   2.774   1.350  17.142 -1.4554  1.2130  0.2158
 8899SOL    HW238334   2.673   1.327  17.246  0.0026  2.7296  0.4527
 8900SOL     OW38335   4.244   0.634   6.695 -0.4593  0.1611 -0.0375
 8900SOL    HW138336   4.246   0.684   6.777 -0.0812  0.3707 -0.1806
 8900SOL    HW238337   4.231   0.548   6.736  1.1437  0.7941  1.7873
 8901SOL     OW38338   4.708   4.110  11.501  0.4194  0.1002  0.4200
 8901SOL    HW138339   0.028   4.124  11.427 -0.1119  1.8119  0.3176
 8901SOL    HW238340   0.012   4.153  11.576 -0.2221  1.5095 -0.0210
 8902SOL     OW38341   1.482   0.753   5.099  0.1684  0.0315 -0.6741
 8902SOL    HW138342   1.495   0.673   5.150  0.4445  0.8529  0.5371
 8902SOL    HW238343   1.566   0.795   5.114 -0.8272  1.2333  1.5421
 8903SOL     OW38344   4.711   2.625   3.927 -0.6390  0.2724  0.4122
 8903SOL    HW138345   4.638   2.672   3.966 -1.0756  1.2552 -1.6209
 8903SOL    HW238346   0.047   2.684   3.936  1.6547 -2.2217 -2.1745
 8904SOL     OW38347   2.590   3.049   2.329  0.1136  0.3966 -0.1157
 8904SOL    HW138348   2.558   2.979   2.272  0.3326 -0.6141  1.0021
 8904SOL    HW238349   2.580   3.135   2.290 -0.4718 -0.0146 -0.8752
 8905SOL     OW38350   4.112   1.178   6.260  0.1401  0.0941  0.2403
 8905SOL    HW138351   4.069   1.211   6.181 -0.3386  0.5429  0.6876
 8905SOL    HW238352   4.164   1.109   6.219 -0.4127 -0.2981  0.2167
 8906SOL     OW38353   1.471   3.518   2.940 -0.2272  0.2966  0.3670
 8906SOL    HW138354   1.415   3.480   2.873  1.9313 -0.6788 -0.8645
 8906SOL    HW238355   1.404   3.555   2.998 -0.1833 -2.5881  2.2430
 8907SOL     OW38356   3.841   4.210   6.466 -1.0402  0.2807  0.0435
 8907SOL    HW138357   3.916   4.270   6.463 -2.3250  1.9406  1.0532
 8907SOL    HW238358   3.879   4.128   6.434 -0.0241  0.9218 -0.3973
 8908SOL     OW38359   2.869   2.064   7.266  0.0193 -0.0029  0.0129
 8908SOL    HW138360   2.889   2.154   7.239  0.9486 -0.1871  0.1001
 8908SOL    HW238361   2.928   2.006   7.218 -1.4808 -0.3281 -1.4310
 8909SOL     OW38362   4.491   4.630   2.815  0.0401 -0.5873  0.1638
 8909SOL    HW138363   4.462   4.566   2.879  1.0038 -0.5310  0.6513
 8909SOL    HW238364   4.406   4.672   2.800 -0.4995 -1.5291  0.6104
 8910SOL     OW38365   2.900   0.552  11.836 -0.4864  0.2988 -0.0131
 8910SOL    HW138366   2.817   0.505  11.831  0.1183 -0.4288 -3.4930
 8910SOL    HW238367   2.942   0.522  11.755  1.1818 -1.7413  1.5999
 8911SOL     OW38368   0.665   0.004   5.470 -0.1574 -0.1838 -0.2069
 8911SOL    HW138369   0.713   4.726   5.551 -1.1760 -1.7080  0.0813
 8911SOL    HW238370   0.735   4.729   5.407 -0.6160 -2.2590 -0.2379
 8912SOL     OW38371   4.091   0.052   3.861  0.0466  0.3082 -0.5940
 8912SOL    HW138372   3.997   0.068   3.865  0.6943  3.5149  1.0149
 8912SOL    HW238373   4.093   4.727   3.932 -1.0582  0.0022 -0.8285
 8913SOL     OW38374   0.725   1.949   2.849  0.1305  0.0458 -0.1235
 8913SOL    HW138375   0.760   2.011   2.785  1.9118 -1.1593 -0.3323
 8913SOL    HW238376   0.713   1.869   2.798  1.1072  0.3924 -0.9093
 8914SOL     OW38377   0.068   1.462   5.960  0.4018  0.5439  0.6005
 8914SOL    HW138378   4.730   1.404   5.964 -0.7608  2.0902  0.6775
 8914SOL    HW238379   0.022   1.545   5.975 -0.2232  0.2209  0.4700
 8915SOL     OW38380   3.168   4.412  13.319  0.0348 -0.4308  0.2413
 8915SOL    HW138381   3.226   4.374  13.254 -1.1266  0.5066 -1.3347
 8915SOL    HW238382   3.193   4.386  13.408  1.0925  0.5350  0.2191
 8916SOL     OW38383   1.820   2.876   5.648  0.0339  0.5293 -0.3949
 8916SOL    HW138384   1.790   2.838   5.731 -1.8780  1.4704 -0.6537
 8916SOL    HW238385   1.777   2.818   5.584  2.0087 -1.4636  0.0797
 8917SOL     OW38386   3.124   0.310   5.393 -0.2309  0.0505  0.2895
 8917SOL    HW138387   3.166   0.224   5.394  0.4270  0.3842  1.7356
 8917SOL    HW238388   3.082   0.307   5.479  0.5882 -0.7842  0.6715
 8918SOL     OW38389   4.157   4.061   5.422  0.1672  0.3259 -0.3494
 8918SOL    HW138390   4.178   4.147   5.460  0.2049  0.1600  0.0083
 8918SOL    HW238391   4.098   4.096   5.356 -0.9731 -0.4825  0.2319
 8919SOL     OW38392   2.696   0.102   8.364  0.2233  0.8720 -0.4107
 8919SOL    HW138393   2.686   0.077   8.272  0.2860 -0.5591 -0.0163
 8919SOL    HW238394   2.790   0.111   8.377 -0.4748  2.0978  3.7779
 8920SOL     OW38395   4.507   1.574  11.145 -0.0642  0.3860 -0.6907
 8920SOL    HW138396   4.465   1.512  11.205 -0.0309 -0.7795 -1.8638
 8920SOL    HW238397   4.432   1.633  11.142  0.8679  1.6367  0.7520
 8921SOL     OW38398   3.430   0.728  14.201 -0.0430 -0.3603 -0.1202
 8921SOL    HW138399   3.501   0.667  14.221 -0.0408 -0.4445 -0.3805
 8921SOL    HW238400   3.355   0.669  14.191 -0.7624  0.4956  0.1801
 8922SOL     OW38401   2.290   2.119   2.444  0.2852 -0.5882 -0.2129
 8922SOL    HW138402   2.310   2.029   2.419 -0.4681 -0.7428 -0.2500
 8922SOL    HW238403   2.211   2.108   2.497  0.2348  0.2029 -0.1301
 8923SOL     OW38404   4.497   0.940   0.102  0.3039 -0.4351  0.2520
 8923SOL    HW138405   4.513   1.017   0.047 -3.1847 -0.2588 -0.5142
 8923SOL    HW238406   4.405   0.928   0.077  0.4815 -0.9984 -0.1311
 8924SOL     OW38407   1.766   2.459   6.162 -0.2885  0.1569 -0.0703
 8924SOL    HW138408   1.851   2.501   6.149  0.1219 -0.5092  0.4395
 8924SOL    HW238409   1.724   2.519   6.223  2.0436  1.3106  0.3766
 8925SOL     OW38410   1.004   0.896   6.839  0.3990 -0.3122  0.6364
 8925SOL    HW138411   0.977   0.986   6.823 -2.9693 -1.1704  1.5280
 8925SOL    HW238412   1.079   0.892   6.779  0.9656  1.0504  1.2590
 8926SOL     OW38413   4.023   4.274   8.158 -0.0985 -0.0436  0.0406
 8926SOL    HW138414   3.963   4.343   8.185  0.5570  0.9092 -0.9259
 8926SOL    HW238415   4.105   4.318   8.179  0.8972 -0.8152 -2.1530
 8927SOL     OW38416   3.944   3.664   7.412  0.3488 -0.4174  0.2301
 8927SOL    HW138417   3.908   3.629   7.493 -1.7006 -0.8165 -0.8601
 8927SOL    HW238418   3.905   3.610   7.343  0.0460 -0.2359  0.2611
 8928SOL     OW38419   0.585   2.349  13.522  0.1134  0.4013  0.4714
 8928SOL    HW138420   0.527   2.275  13.540 -0.4742  0.7893  0.1894
 8928SOL    HW238421   0.543   2.427  13.560  0.5432  1.2699 -0.8316
 8929SOL     OW38422   2.710   1.700   1.073 -0.0327 -0.0493  0.0793
 8929SOL    HW138423   2.674   1.787   1.086  0.5890  0.1419  0.5394
 8929SOL    HW238424   2.635   1.652   1.039 -0.0790 -0.5445  0.8834
 8930SOL     OW38425   1.179   1.574   6.821  0.0889  0.2482 -0.0741
 8930SOL    HW138426   1.205   1.584   6.729 -2.6468  0.8049 -0.7764
 8930SOL    HW238427   1.208   1.656   6.859 -0.9024  0.3899  0.3837
 8931SOL     OW38428   3.041   0.402  12.889  0.0916  0.3933  0.0306
 8931SOL    HW138429   3.112   0.458  12.921  0.2207  1.0049 -1.3691
 8931SOL    HW238430   2.973   0.457  12.852 -0.6861 -0.9219 -0.4971
 8932SOL     OW38431   4.715   4.667   3.886 -0.5156  0.8561  0.2509
 8932SOL    HW138432   0.020   4.584   3.871  0.0035  1.2240 -0.2279
 8932SOL    HW238433   0.019   4.721   3.820  0.2216  0.5838  0.5191
 8933SOL     OW38434   2.051   3.352   7.463  0.2002  0.4578 -0.1641
 8933SOL    HW138435   2.109   3.400   7.403  0.2339 -1.1434 -1.4117
 8933SOL    HW238436   2.062   3.406   7.541 -1.0769 -1.0470  1.0458
 8934SOL     OW38437   2.680   2.983  16.841  0.3422 -0.3071 -0.2758
 8934SOL    HW138438   2.713   2.992  16.752  0.0736 -0.3153 -0.3751
 8934SOL    HW238439   2.759   2.972  16.895 -1.2995 -1.4507  1.8741
 8935SOL     OW38440   1.209   1.926   3.576  0.0248 -0.4287 -0.3202
 8935SOL    HW138441   1.232   1.946   3.486 -0.0229 -1.8183 -0.6277
 8935SOL    HW238442   1.297   1.929   3.615  0.3446 -0.0244 -1.0843
 8936SOL     OW38443   1.109   2.216  11.983  0.2186  0.7404  0.1846
 8936SOL    HW138444   1.166   2.167  11.923 -0.5298 -0.7539  0.7087
 8936SOL    HW238445   1.131   2.307  11.962 -3.4146  1.0976 -2.0266
 8937SOL     OW38446   1.459   2.917   7.373  0.2496  0.6999 -0.2722
 8937SOL    HW138447   1.479   2.864   7.450 -0.1236 -0.2156 -0.8149
 8937SOL    HW238448   1.374   2.883   7.347 -0.4064  2.5371 -0.5710
 8938SOL     OW38449   2.339   0.881   4.359 -0.4399 -0.1126 -0.1973
 8938SOL    HW138450   2.371   0.792   4.374 -2.3654 -0.7895 -0.2000
 8938SOL    HW238451   2.319   0.907   4.449  0.2199  2.3121 -0.7382
 8939SOL     OW38452   1.457   1.109   5.243 -0.4194  0.0443  0.7839
 8939SOL    HW138453   1.392   1.083   5.179 -0.3690 -1.4160  1.3291
 8939SOL    HW238454   1.416   1.115   5.330 -0.4593  0.9534  0.7098
 8940SOL     OW38455   4.501   3.620   6.461  0.0213  0.0435  0.3367
 8940SOL    HW138456   4.568   3.606   6.394 -0.9459  0.1708 -0.6574
 8940SOL    HW238457   4.446   3.689   6.424  0.2474 -0.6837 -1.3952
 8941SOL     OW38458   0.520   3.106   1.470  0.5738 -0.5018 -0.0536
 8941SOL    HW138459   0.489   3.191   1.502  1.5838 -0.4897  0.8577
 8941SOL    HW238460   0.452   3.083   1.406  0.4663 -1.5937  0.4525
 8942SOL     OW38461   3.834   0.881   5.219  0.3540  0.4863 -0.0777
 8942SOL    HW138462   3.849   0.920   5.133 -0.0959  0.7500 -0.0386
 8942SOL    HW238463   3.918   0.902   5.259 -0.1028  2.0002  0.0861
 8943SOL     OW38464   2.006   1.445   8.722  0.2513  0.2377  0.1832
 8943SOL    HW138465   2.071   1.506   8.686 -2.0937  2.2573 -0.5866
 8943SOL    HW238466   1.925   1.494   8.733 -0.0973  0.3213 -2.6491
 8944SOL     OW38467   4.139   4.181   3.486  0.4661 -0.2756  0.3426
 8944SOL    HW138468   4.059   4.215   3.525  1.2052  2.6420 -0.6990
 8944SOL    HW238469   4.117   4.091   3.459 -1.2096 -0.4955  2.4411
 8945SOL     OW38470   3.813   2.383   2.106 -0.2334 -0.5196 -0.2120
 8945SOL    HW138471   3.724   2.365   2.133 -0.2457 -0.0117  0.0934
 8945SOL    HW238472   3.805   2.443   2.031  1.7676 -0.4071 -0.3481
 8946SOL     OW38473   3.451   3.441   3.387 -0.1130 -1.0031  0.7565
 8946SOL    HW138474   3.509   3.513   3.411 -2.0485  0.8489 -0.1004
 8946SOL    HW238475   3.514   3.370   3.372  0.8082 -0.0208 -0.0016
 8947SOL     OW38476   2.276   0.694   2.583 -0.1913  0.4377  0.1644
 8947SOL    HW138477   2.195   0.738   2.609  0.4508  1.4194  0.5135
 8947SOL    HW238478   2.282   0.707   2.488 -1.3325 -1.0300 -0.1021
 8948SOL     OW38479   2.990   3.114   5.266 -0.1977 -0.1727 -0.7942
 8948SOL    HW138480   2.992   3.106   5.361  0.4635  0.3442 -0.7643
 8948SOL    HW238481   2.913   3.059   5.249 -2.1438  2.3951 -0.2882
 8949SOL     OW38482   3.657   3.456  11.972 -0.0347  0.1037  0.1496
 8949SOL    HW138483   3.683   3.489  12.058 -1.1791  2.3038 -0.3464
 8949SOL    HW238484   3.594   3.389  12.000  1.3326 -1.6167 -0.9922
 8950SOL     OW38485   2.080   0.448   2.722  0.1195  0.8610 -0.0403
 8950SOL    HW138486   2.074   0.536   2.686  1.3543  1.1318  0.4130
 8950SOL    HW238487   2.095   0.468   2.814 -1.6540 -0.1902  0.4660
 8951SOL     OW38488   3.047   2.757   6.787  0.2791  0.1307 -0.4960
 8951SOL    HW138489   3.132   2.785   6.823  0.4222  0.0909 -0.8044
 8951SOL    HW238490   3.007   2.711   6.861  0.6549  1.3270  0.4662
 8952SOL     OW38491   1.998   0.094   4.836 -0.6566 -0.3144  0.3258
 8952SOL    HW138492   1.984   0.007   4.799 -0.9765 -0.6747  1.3053
 8952SOL    HW238493   1.926   0.141   4.794  0.1933  0.2523 -0.5033
 8953SOL     OW38494   0.233   0.218   7.320 -0.1009 -0.0455 -0.2560
 8953SOL    HW138495   0.154   0.272   7.321  0.1438  0.3162 -0.4664
 8953SOL    HW238496   0.292   0.276   7.368 -0.1006 -1.2905  1.2544
 8954SOL     OW38497   4.263   3.609  15.788  0.0681 -0.1525 -0.4596
 8954SOL    HW138498   4.319   3.684  15.765  0.1758 -0.2304 -0.4510
 8954SOL    HW238499   4.182   3.657  15.808  0.4074  0.1670  0.1436
 8955SOL     OW38500   2.760   4.148   2.708 -0.4855 -0.4687  0.3289
 8955SOL    HW138501   2.774   4.243   2.704  2.1342 -0.8987 -0.4611
 8955SOL    HW238502   2.850   4.118   2.714 -0.5302 -0.6085  0.2950
 8956SOL     OW38503   1.599   3.631  10.301 -0.2584 -0.4849 -0.3414
 8956SOL    HW138504   1.622   3.597  10.387 -0.1119  0.6243  0.0579
 8956SOL    HW238505   1.590   3.726  10.308 -1.4355 -0.5739 -0.6462
 8957SOL     OW38506   2.320   0.885   8.090  0.5618 -0.1771  0.4004
 8957SOL    HW138507   2.225   0.900   8.083  0.8034 -0.0699 -2.2801
 8957SOL    HW238508   2.332   0.799   8.050 -2.6710 -0.9432  1.0126
 8958SOL     OW38509   0.678   4.176   4.630 -0.3919 -0.3863 -0.1309
 8958SOL    HW138510   0.723   4.260   4.637  0.1127 -0.7296  0.7601
 8958SOL    HW238511   0.732   4.126   4.569  1.2788  2.2790 -0.8555
 8959SOL     OW38512   1.710   3.544  10.550  0.1739 -0.1344 -0.1829
 8959SOL    HW138513   1.734   3.473  10.610 -1.0346  0.5761  1.1434
 8959SOL    HW238514   1.712   3.625  10.600 -1.4570 -0.8196  0.9850
 8960SOL     OW38515   3.556   2.328   4.409  0.5435  0.6705  0.3357
 8960SOL    HW138516   3.565   2.339   4.314  1.0984  1.6692  0.5019
 8960SOL    HW238517   3.532   2.419   4.428 -1.3661 -0.0628  1.4980
 8961SOL     OW38518   2.767   3.915  14.213  0.1681 -0.2526 -0.0862
 8961SOL    HW138519   2.690   3.905  14.158  0.8232 -0.6133 -0.9372
 8961SOL    HW238520   2.824   3.843  14.186 -1.0521 -0.9758 -0.7254
 8962SOL     OW38521   2.856   0.691   6.014  0.4864  0.4024 -0.2921
 8962SOL    HW138522   2.813   0.698   5.929 -0.6789 -0.6845  0.2102
 8962SOL    HW238523   2.839   0.783   6.034  0.1378  0.3105 -0.1640
 8963SOL     OW38524   0.353   0.768  16.815 -0.5378  0.2694 -0.4880
 8963SOL    HW138525   0.388   0.857  16.814 -0.1647  0.1249 -0.4089
 8963SOL    HW238526   0.430   0.720  16.846  0.2791  2.4877  0.9628
 8964SOL     OW38527   2.111   3.277   4.765  0.2393 -0.5163 -0.3108
 8964SOL    HW138528   2.130   3.234   4.848  1.6334  1.6021  0.4581
 8964SOL    HW238529   2.159   3.359   4.778 -0.4464  0.1526 -2.0289
 8965SOL     OW38530   4.101   1.226  10.008  0.5152  0.2242 -0.2861
 8965SOL    HW138531   4.046   1.298  10.040 -1.4102 -1.2252 -0.3524
 8965SOL    HW238532   4.050   1.185   9.939  1.7157 -1.2875 -0.2637
 8966SOL     OW38533   2.719   0.099   6.557  0.0224 -0.3522  0.8590
 8966SOL    HW138534   2.770   0.052   6.490 -0.3420 -0.7099  0.8326
 8966SOL    HW238535   2.635   0.053   6.561 -1.0109  1.1765 -2.7844
 8967SOL     OW38536   1.440   1.719   5.855 -0.1839 -0.1381 -0.3432
 8967SOL    HW138537   1.486   1.635   5.848  0.5661  0.4243 -2.1739
 8967SOL    HW238538   1.497   1.778   5.806  0.8596 -0.9910 -0.1573
 8968SOL     OW38539   4.150   1.303   7.688 -0.2050 -0.4029  0.5264
 8968SOL    HW138540   4.095   1.291   7.765 -1.3118 -3.4055 -0.7637
 8968SOL    HW238541   4.106   1.264   7.613  0.2786 -0.2567  0.1640
 8969SOL     OW38542   0.272   0.590  15.999 -0.6221 -0.0038 -0.2407
 8969SOL    HW138543   0.343   0.588  16.063  0.0538  1.9006 -0.9171
 8969SOL    HW238544   0.231   0.674  16.020 -0.8314 -0.0741 -0.3740
 8970SOL     OW38545   4.360   0.975   8.563  0.0790  0.1355  0.7134
 8970SOL    HW138546   4.355   0.895   8.510 -0.2813  0.5479  0.1285
 8970SOL    HW238547   4.266   0.975   8.583 -0.0078  1.7254  0.2818
 8971SOL     OW38548   0.851   1.957  13.406 -0.2124 -0.0675  0.4359
 8971SOL    HW138549   0.865   1.978  13.313 -0.9182 -2.6819 -0.2505
 8971SOL    HW238550   0.861   2.046  13.441 -0.2137  0.5632 -1.1793
 8972SOL     OW38551   4.157   3.577   0.019  0.4046  0.3948 -0.6440
 8972SOL    HW138552   4.229   3.620  17.729  0.1776  2.5208  1.0206
 8972SOL    HW238553   4.197   3.535   0.095 -2.2607 -0.1825  0.4380
 8973SOL     OW38554   0.615   2.795   4.289 -0.3388 -0.1240  0.1913
 8973SOL    HW138555   0.699   2.837   4.269 -2.0050  2.6511 -1.0433
 8973SOL    HW238556   0.590   2.823   4.377 -0.3364 -0.1999  0.2163
 8974SOL     OW38557   0.389   2.451   6.042  0.4199 -0.4459 -0.2711
 8974SOL    HW138558   0.353   2.471   6.129 -0.1137  1.1115 -0.8609
 8974SOL    HW238559   0.479   2.480   6.055  0.0005  0.4224  0.7170
 8975SOL     OW38560   0.228   4.440   3.087 -0.6205  0.1116  0.0623
 8975SOL    HW138561   0.318   4.465   3.110 -0.9930  1.2925  0.2224
 8975SOL    HW238562   0.246   4.366   3.029  2.1651  0.2605  0.7363
 8976SOL     OW38563   2.344   1.341   2.387 -0.4625  0.3681 -0.0925
 8976SOL    HW138564   2.274   1.275   2.384  1.4229 -1.5480 -1.6209
 8976SOL    HW238565   2.421   1.285   2.386  0.0909  1.1297  0.0415
 8977SOL     OW38566   0.622   0.501   7.612 -0.6122  0.9487 -0.2941
 8977SOL    HW138567   0.671   0.583   7.611 -2.3964  1.9968 -1.7862
 8977SOL    HW238568   0.535   0.542   7.617 -0.4219  1.1853  1.2609
 8978SOL     OW38569   4.337   1.459  13.106  0.5656  0.1233 -0.3577
 8978SOL    HW138570   4.341   1.363  13.108 -1.0123  0.0705  0.2551
 8978SOL    HW238571   4.268   1.480  13.168  0.3797  0.1519 -0.5734
 8979SOL     OW38572   2.337   1.585   6.789  0.4757 -0.4186  0.0608
 8979SOL    HW138573   2.337   1.653   6.857  1.4857  0.7533 -1.1132
 8979SOL    HW238574   2.242   1.591   6.781  0.5009  0.5991  0.5400
 8980SOL     OW38575   0.678   3.297   6.728 -0.2322 -0.2818 -0.0148
 8980SOL    HW138576   0.677   3.225   6.665  4.5018  0.4653 -0.9006
 8980SOL    HW238577   0.625   3.356   6.675  1.4681  1.8855  0.7166
 8981SOL     OW38578   3.066   1.696  16.906 -0.3771 -0.7008 -0.8434
 8981SOL    HW138579   3.122   1.707  16.829  1.5058  1.1234  0.7993
 8981SOL    HW238580   2.986   1.740  16.877 -0.1367  0.1816 -0.1655
 8982SOL     OW38581   3.822   0.255   7.655 -0.3587 -0.4990  0.2573
 8982SOL    HW138582   3.820   0.181   7.594  2.1764  0.7749 -1.3377
 8982SOL    HW238583   3.875   0.235   7.732 -1.9798  0.9742  1.7443
 8983SOL     OW38584   0.648   4.476   6.513 -0.6085 -0.3406  0.1606
 8983SOL    HW138585   0.611   4.472   6.425 -0.2540  2.3905 -0.0897
 8983SOL    HW238586   0.739   4.456   6.489 -1.2676 -1.7361 -1.2296
 8984SOL     OW38587   3.957   0.942  14.629 -0.2023  0.1989  0.8046
 8984SOL    HW138588   3.882   0.954  14.571  0.0318 -0.5034  0.3572
 8984SOL    HW238589   4.005   0.884  14.570 -2.1918 -0.0419 -0.5673
 8985SOL     OW38590   2.640   0.426   2.204  0.8254 -0.5047  0.0197
 8985SOL    HW138591   2.705   0.433   2.275  0.5739 -0.7641  0.2752
 8985SOL    HW238592   2.680   0.376   2.133 -0.1393  2.3563 -2.5128
 8986SOL     OW38593   4.251   3.784   5.965 -0.1221  0.0404 -0.3658
 8986SOL    HW138594   4.202   3.844   6.021 -0.3084 -1.0675  0.6577
 8986SOL    HW238595   4.234   3.824   5.879  0.3199  2.0600  0.4932
 8987SOL     OW38596   1.235   0.946  16.197 -0.0695 -0.7596 -0.1433
 8987SOL    HW138597   1.261   0.970  16.108 -1.0472 -2.7813 -0.9735
 8987SOL    HW238598   1.247   1.032  16.238  0.3536 -0.4835 -0.8481
 8988SOL     OW38599   3.751   2.505   5.442 -0.9246  0.1984 -0.6814
 8988SOL    HW138600   3.711   2.433   5.491 -2.2563  1.3044 -0.1323
 8988SOL    HW238601   3.698   2.504   5.363 -0.3782 -0.5480 -1.0339
 8989SOL     OW38602   0.259   4.362   2.372 -0.5836  0.4026 -0.4851
 8989SOL    HW138603   0.249   4.301   2.445  1.7703  0.5937  0.0110
 8989SOL    HW238604   0.229   4.441   2.417 -0.7868 -0.4489  0.8854
 8990SOL     OW38605   1.857   4.662   8.860  0.0401  0.3764  0.2748
 8990SOL    HW138606   1.819   4.713   8.788  0.9032  2.4417  1.2853
 8990SOL    HW238607   1.780   4.651   8.915  0.0339 -0.2101  0.1491
 8991SOL     OW38608   0.436   3.835  13.321  0.0226 -1.0590 -0.2881
 8991SOL    HW138609   0.407   3.926  13.312  1.7112 -0.6627 -1.6825
 8991SOL    HW238610   0.383   3.784  13.259  0.1093 -0.9055 -0.4879
 8992SOL     OW38611   1.201   2.877   7.704 -0.4148  0.0720  0.7105
 8992SOL    HW138612   1.254   2.889   7.783 -0.1995  0.1932  0.5502
 8992SOL    HW238613   1.215   2.783   7.691 -2.7141 -0.2027  0.2785
 8993SOL     OW38614   0.863   0.773  15.797 -0.1087  0.2431 -0.2294
 8993SOL    HW138615   0.887   0.693  15.750 -0.5940 -1.0140  1.6387
 8993SOL    HW238616   0.942   0.794  15.847 -0.0649  2.0930 -1.0860
 8994SOL     OW38617   4.182   4.317   5.525  0.0935 -0.6881 -0.1700
 8994SOL    HW138618   4.161   4.272   5.607 -0.6131  0.8587  0.5109
 8994SOL    HW238619   4.183   4.407   5.559  0.9191  0.4745 -3.2968
 8995SOL     OW38620   4.528   1.620   2.647  0.1887 -0.1343 -0.6119
 8995SOL    HW138621   4.527   1.591   2.739  0.3689 -0.6829 -0.7811
 8995SOL    HW238622   4.596   1.565   2.608  0.9449  1.2183 -1.1778
 8996SOL     OW38623   3.311   0.078  16.924  0.1054 -0.0710 -0.6174
 8996SOL    HW138624   3.285   0.039  17.007 -1.0651  1.3087 -0.3534
 8996SOL    HW238625   3.247   0.041  16.863 -1.5755  1.2435  0.3791
 8997SOL     OW38626   1.027   4.597  15.766  0.1591 -0.4831  0.2427
 8997SOL    HW138627   1.079   4.677  15.775  0.6110 -0.7711  0.1777
 8997SOL    HW238628   0.970   4.610  15.842 -0.5397  0.5344 -0.4580
 8998SOL     OW38629   3.724   0.497   5.970  0.2831  0.5775 -0.0042
 8998SOL    HW138630   3.793   0.525   5.910 -0.4205  3.4689  0.5130
 8998SOL    HW238631   3.686   0.583   5.991  0.5922  0.4391  1.1441
 8999SOL     OW38632   2.823   3.244  14.687 -0.4183  0.0291 -0.0045
 8999SOL    HW138633   2.728   3.246  14.700 -0.3182  0.3244  0.6557
 8999SOL    HW238634   2.856   3.263  14.774  0.2791 -1.1623 -0.0002
 9000SOL     OW38635   1.625   4.619   6.283 -0.3980 -0.2330  0.0106
 9000SOL    HW138636   1.608   4.694   6.225  1.6528  0.6827  0.5896
 9000SOL    HW238637   1.536   4.609   6.315 -1.1105 -0.0268 -1.8828
 9001SOL     OW38638   1.916   1.769  16.705  0.3168  0.1153 -0.6842
 9001SOL    HW138639   1.906   1.795  16.613 -0.7766 -2.1567 -1.1941
 9001SOL    HW238640   1.951   1.681  16.694  0.4464 -0.1510  1.8562
 9002SOL     OW38641   4.436   0.048  15.773  0.7727  0.2120 -0.3044
 9002SOL    HW138642   4.467   0.079  15.688  1.8132 -0.0504 -0.0300
 9002SOL    HW238643   4.359   4.735  15.752 -0.6764  2.5490 -0.8036
 9003SOL     OW38644   1.837   3.131   3.499  0.0971  0.2234 -0.2499
 9003SOL    HW138645   1.919   3.119   3.548 -1.2730 -2.3559  1.4519
 9003SOL    HW238646   1.870   3.169   3.418 -1.5205 -0.7385 -1.3586
 9004SOL     OW38647   2.259   0.310   4.233 -0.2415  0.2423 -0.0142
 9004SOL    HW138648   2.266   0.382   4.171 -0.0517  0.8921  0.7637
 9004SOL    HW238649   2.200   0.248   4.188  0.2426 -0.3874  0.2198
 9005SOL     OW38650   1.841   2.126   6.608 -0.0131 -0.1940 -0.0281
 9005SOL    HW138651   1.747   2.140   6.600 -0.2324 -0.7878  1.4133
 9005SOL    HW238652   1.868   2.218   6.614  1.8189 -0.7560  0.2268
 9006SOL     OW38653   2.875   4.172  13.357  0.3328 -0.6099  0.4318
 9006SOL    HW138654   2.858   4.221  13.276  2.6523  2.4366  1.7668
 9006SOL    HW238655   2.964   4.195  13.383  2.1150 -3.6259 -2.9630
 9007SOL     OW38656   0.191   3.654  11.117  0.1077  0.1967  0.5073
 9007SOL    HW138657   0.142   3.720  11.166 -1.9899  0.6118 -2.0825
 9007SOL    HW238658   0.283   3.679  11.113 -0.3693  1.9588  0.8197
 9008SOL     OW38659   0.637   4.573   3.757 -0.1727 -0.0709  0.4236
 9008SOL    HW138660   0.732   4.571   3.748 -0.2484  2.6476 -0.7886
 9008SOL    HW238661   0.611   4.628   3.684  0.7696  1.0468  0.9411
 9009SOL     OW38662   0.710   1.519   1.517 -0.7597 -0.0023  0.2242
 9009SOL    HW138663   0.787   1.569   1.545 -1.8343  1.1363  1.1947
 9009SOL    HW238664   0.688   1.472   1.598 -0.3595 -0.7294 -0.0851
 9010SOL     OW38665   2.177   4.606   6.902 -0.0187 -0.1231  0.9928
 9010SOL    HW138666   2.181   4.622   6.996  5.0281  1.1357  0.5279
 9010SOL    HW238667   2.110   4.538   6.906  0.4744 -0.5601  1.6496
 9011SOL     OW38668   4.050   1.927  12.873 -0.4789  0.5077 -0.2471
 9011SOL    HW138669   4.059   1.846  12.822 -0.5841  0.0427  0.4788
 9011SOL    HW238670   3.956   1.936  12.881 -0.6456 -0.5140 -1.0351
 9012SOL     OW38671   2.472   0.464   7.573 -0.1553 -0.3900  0.0510
 9012SOL    HW138672   2.430   0.550   7.573  1.5316  0.4253  0.8895
 9012SOL    HW238673   2.542   0.477   7.636  1.9878 -0.7455 -2.2659
 9013SOL     OW38674   0.891   4.037   4.533  0.7873  0.1388  0.1308
 9013SOL    HW138675   0.876   3.984   4.455 -0.1750 -0.0507  0.4497
 9013SOL    HW238676   0.930   3.979   4.599  1.8356 -0.8486 -1.3488
 9014SOL     OW38677   3.244   0.854   1.192 -0.0887 -0.4634 -0.3945
 9014SOL    HW138678   3.170   0.901   1.154 -1.0318 -0.6322  1.2075
 9014SOL    HW238679   3.263   0.918   1.261  0.9851 -0.2655 -0.8926
 9015SOL     OW38680   2.873   3.743  16.203  0.2595 -0.0681 -0.1468
 9015SOL    HW138681   2.880   3.803  16.129  1.8536  2.5090  2.0874
 9015SOL    HW238682   2.852   3.807  16.270 -0.4599  0.5976 -1.0062
 9016SOL     OW38683   2.981   0.878   8.081 -0.1059 -0.1727  0.3605
 9016SOL    HW138684   2.901   0.833   8.109 -0.7453  0.0857 -1.0713
 9016SOL    HW238685   2.977   0.960   8.131 -1.0453  0.4763 -0.7892
 9017SOL     OW38686   1.296   0.346   4.591 -0.2248  0.0246 -0.5269
 9017SOL    HW138687   1.243   0.267   4.593 -0.6855  0.3750  1.6936
 9017SOL    HW238688   1.221   0.405   4.591 -0.2926 -0.0504  2.0531
 9018SOL     OW38689   0.189   2.517   7.633  0.4427  0.4741 -0.1173
 9018SOL    HW138690   0.264   2.486   7.582  0.4638  0.2503  0.0494
 9018SOL    HW238691   0.144   2.434   7.648  1.0250  0.2945  0.6349
 9019SOL     OW38692   2.294   1.067   5.693 -0.2703 -0.2616  0.0989
 9019SOL    HW138693   2.306   1.052   5.786  0.1153 -0.3353  0.0369
 9019SOL    HW238694   2.303   1.163   5.694 -1.6683 -0.1118 -0.5377
 9020SOL     OW38695   0.692   0.165   8.874  0.0269 -0.2627 -0.0475
 9020SOL    HW138696   0.668   0.204   8.790 -1.8112  0.5698  0.8843
 9020SOL    HW238697   0.758   0.100   8.849 -1.0700 -0.7004 -1.8159
 9021SOL     OW38698   4.454   1.197   0.308  0.7071 -0.2747  0.2300
 9021SOL    HW138699   4.367   1.160   0.321  0.5122  0.5132  1.1127
 9021SOL    HW238700   4.465   1.174   0.215 -1.3886  0.7535 -0.2693
 9022SOL     OW38701   0.055   1.927   7.549  0.1345 -0.5354 -0.0275
 9022SOL    HW138702   4.724   1.862   7.551  1.6863 -2.2119  0.1023
 9022SOL    HW238703   0.116   1.884   7.610 -2.0936 -3.0114  0.4835
 9023SOL     OW38704   1.273   3.217  14.323  0.2457 -0.3693 -0.0564
 9023SOL    HW138705   1.187   3.233  14.364  1.6098  0.4427  2.5018
 9023SOL    HW238706   1.320   3.200  14.405  1.7078 -0.8460 -1.0000
 9024SOL     OW38707   4.149   0.614   9.584 -0.5908  0.3335 -0.2362
 9024SOL    HW138708   4.104   0.608   9.500  0.7117  2.6730 -1.0950
 9024SOL    HW238709   4.107   0.535   9.619  0.4386 -0.2772 -0.3823
 9025SOL     OW38710   4.412   2.455   7.630  0.5034  0.3772 -0.2153
 9025SOL    HW138711   4.491   2.457   7.684  0.0046  0.0315  0.5295
 9025SOL    HW238712   4.370   2.384   7.679 -0.9433 -0.0444 -2.0520
 9026SOL     OW38713   0.609   3.294   8.530 -0.2200 -0.6111  0.8969
 9026SOL    HW138714   0.523   3.267   8.562  0.5718  0.8094  4.1546
 9026SOL    HW238715   0.634   3.340   8.609  0.0503  0.9423 -0.0895
 9027SOL     OW38716   4.219   0.462   7.923 -0.0735 -0.2679  0.7081
 9027SOL    HW138717   4.263   0.531   7.973 -0.1497 -0.6180  1.2545
 9027SOL    HW238718   4.291   0.404   7.897  0.0374 -0.3173  1.1247
 9028SOL     OW38719   1.602   4.155   3.218 -0.0009  0.3816  0.1271
 9028SOL    HW138720   1.594   4.063   3.193 -1.3236  0.5137  0.0716
 9028SOL    HW238721   1.661   4.157   3.294  2.1946 -3.1710 -1.4628
 9029SOL     OW38722   0.920   3.634   8.774  0.2206  0.0708  0.0954
 9029SOL    HW138723   0.831   3.643   8.741  1.4337 -0.3702 -3.2333
 9029SOL    HW238724   0.937   3.722   8.808 -1.9630  0.1510  0.9953
 9030SOL     OW38725   2.853   2.702   8.604 -0.3231 -0.8378 -0.4219
 9030SOL    HW138726   2.928   2.739   8.559 -0.3428  0.2109  0.4112
 9030SOL    HW238727   2.850   2.619   8.556  0.1406 -0.4927 -1.0495
 9031SOL     OW38728   1.196   4.002   5.432  0.4711 -0.6064 -0.5824
 9031SOL    HW138729   1.287   3.981   5.414  0.2000 -1.4857 -0.9356
 9031SOL    HW238730   1.208   4.078   5.489 -1.4471  0.2209 -1.2539
 9032SOL     OW38731   1.876   2.804   3.895  0.3198  0.4722  0.0235
 9032SOL    HW138732   1.956   2.807   3.844  2.7357  1.2982  3.8758
 9032SOL    HW238733   1.833   2.731   3.849 -1.2452  1.8942 -0.7579
 9033SOL     OW38734   0.794   2.399   6.569  0.2065 -0.1728 -0.8574
 9033SOL    HW138735   0.781   2.422   6.477 -0.5210  0.9008 -0.4907
 9033SOL    HW238736   0.771   2.478   6.617  2.0313 -0.1634  0.0001
 9034SOL     OW38737   2.509   4.337   8.388  0.0315  0.2213  0.0868
 9034SOL    HW138738   2.586   4.393   8.392 -0.2996  0.7076 -0.3023
 9034SOL    HW238739   2.554   4.258   8.355 -1.9117 -0.7789 -0.1841
 9035SOL     OW38740   4.421   0.847   9.183  0.2141 -0.0994 -0.2570
 9035SOL    HW138741   4.476   0.779   9.223 -1.1996 -0.4619  1.0683
 9035SOL    HW238742   4.396   0.808   9.100  1.6162  0.5370 -0.9822
 9036SOL     OW38743   4.626   3.529   2.307  0.2730 -0.1475  0.4350
 9036SOL    HW138744   4.633   3.446   2.355  0.0172  0.8977  2.2677
 9036SOL    HW238745   4.688   3.515   2.236  0.0268 -1.9788  0.5613
 9037SOL     OW38746   2.664   1.181   6.210  0.0097 -0.2014 -0.9302
 9037SOL    HW138747   2.715   1.199   6.290 -1.2399 -1.1815  0.0928
 9037SOL    HW238748   2.590   1.237   6.233 -0.1452  0.0373 -2.0257
 9038SOL     OW38749   1.451   1.836   2.338  0.3473 -0.1800  0.2946
 9038SOL    HW138750   1.445   1.931   2.328 -3.5396 -0.7964 -3.6625
 9038SOL    HW238751   1.540   1.818   2.368  0.1256 -0.2205  0.9344
 9039SOL     OW38752   0.192   4.664   6.345 -0.4510  0.1800  0.1631
 9039SOL    HW138753   0.235   0.004   6.377 -2.0705  0.0929  2.5237
 9039SOL    HW238754   0.236   4.597   6.397  2.4075  0.6755 -1.6089
 9040SOL     OW38755   0.877   1.376  15.493  0.0307  0.2112 -0.7263
 9040SOL    HW138756   0.928   1.455  15.476 -1.1241  1.1031 -0.0546
 9040SOL    HW238757   0.889   1.317  15.418  0.6932  0.2720 -0.6674
 9041SOL     OW38758   4.554   2.415   4.942 -0.4721 -0.8782 -0.5187
 9041SOL    HW138759   4.578   2.358   4.869 -0.2849 -2.3937  0.7144
 9041SOL    HW238760   4.607   2.379   5.013 -1.4346  0.8677  1.0763
 9042SOL     OW38761   1.964   2.882   9.969 -0.4604 -0.0277  0.1502
 9042SOL    HW138762   1.910   2.805   9.946 -0.3675 -0.1898  0.4805
 9042SOL    HW238763   1.899   2.917  10.030  0.5537  1.0354  0.6123
 9043SOL     OW38764   3.362   2.026  14.769  0.1816 -0.2144  0.0501
 9043SOL    HW138765   3.327   1.948  14.813  0.9048 -0.6461 -0.1329
 9043SOL    HW238766   3.283   2.073  14.742 -0.9276 -2.0403  0.0513
 9044SOL     OW38767   4.684   2.960   0.831  0.0408  0.0503 -0.3972
 9044SOL    HW138768   4.711   2.890   0.891 -1.6876 -1.9054 -1.9168
 9044SOL    HW238769   0.027   2.993   0.795 -0.9988  1.5427 -1.4167
 9045SOL     OW38770   2.328   2.887   4.093  0.0771  0.0730  0.2657
 9045SOL    HW138771   2.420   2.891   4.119 -0.1279  2.0568  0.6775
 9045SOL    HW238772   2.299   2.813   4.145  2.2784 -1.6708 -0.9919
 9046SOL     OW38773   0.722   2.183   8.564  0.1260  0.1672  0.2143
 9046SOL    HW138774   0.685   2.135   8.638  1.3967 -1.6619 -0.3421
 9046SOL    HW238775   0.706   2.277   8.574 -0.5099  0.0456  0.3020
 9047SOL     OW38776   4.460   4.621   3.889  0.5294  0.4882 -0.1567
 9047SOL    HW138777   4.470   4.533   3.925 -0.6739  0.4907  0.1776
 9047SOL    HW238778   4.551   4.645   3.905  0.3192  1.1088  0.1374
 9048SOL     OW38779   3.162   2.609   4.002 -0.0595  0.0052  0.0469
 9048SOL    HW138780   3.236   2.580   4.055  1.5475  0.8699 -1.7178
 9048SOL    HW238781   3.125   2.524   3.978  1.8048 -0.5958 -0.6999
 9049SOL     OW38782   2.563   0.992  10.888 -0.2116 -0.4552 -0.0013
 9049SOL    HW138783   2.601   1.071  10.926  0.8485 -1.3649  0.8064
 9049SOL    HW238784   2.595   1.008  10.799 -1.1266 -0.5169 -0.3427
 9050SOL     OW38785   3.566   4.499   1.585 -0.0705  0.0758 -0.0704
 9050SOL    HW138786   3.482   4.511   1.631 -1.2510 -2.4952 -1.5629
 9050SOL    HW238787   3.623   4.465   1.654 -2.6383 -2.7560  0.6446
 9051SOL     OW38788   2.456   4.443   3.065 -0.0121 -0.1165 -0.1019
 9051SOL    HW138789   2.401   4.387   3.120 -1.4731  1.5168  0.1118
 9051SOL    HW238790   2.514   4.470   3.136  0.6773 -0.7695 -0.4256
 9052SOL     OW38791   0.419   3.701  11.716  0.8676 -0.1057 -0.7263
 9052SOL    HW138792   0.478   3.709  11.642  0.5943 -2.1871 -1.1819
 9052SOL    HW238793   0.387   3.612  11.698  0.8318 -0.3361  0.4462
 9053SOL     OW38794   1.230   1.051   5.084 -0.1641 -0.0847  0.8669
 9053SOL    HW138795   1.156   1.061   5.144 -0.4689 -0.5196  0.5646
 9053SOL    HW238796   1.197   1.099   5.007  0.0621  0.3204  1.0208
 9054SOL     OW38797   2.108   4.601  12.627 -0.4290 -0.1746  0.1767
 9054SOL    HW138798   2.143   4.561  12.707 -0.3995 -2.2245 -0.8588
 9054SOL    HW238799   2.148   4.539  12.567  0.1027 -1.8001  2.2149
 9055SOL     OW38800   3.582   2.693   2.552 -0.2022  0.5215 -0.0450
 9055SOL    HW138801   3.575   2.638   2.474  0.7323 -0.6154  0.6650
 9055SOL    HW238802   3.577   2.778   2.507 -1.2323  0.6482  0.3213
 9056SOL     OW38803   3.305   2.870   3.980  0.0206 -0.6284 -0.0971
 9056SOL    HW138804   3.325   2.890   3.888 -0.5223  1.0404  0.1495
 9056SOL    HW238805   3.249   2.792   3.970 -1.0399  0.5994 -3.8674
 9057SOL     OW38806   1.661   1.107   2.851  0.8313  0.4348  0.2578
 9057SOL    HW138807   1.570   1.130   2.832  1.1727 -0.0324 -1.9200
 9057SOL    HW238808   1.690   1.177   2.910 -1.5093  0.8293  0.9408
 9058SOL     OW38809   3.985   2.240   7.910 -0.0735 -0.8041 -0.3576
 9058SOL    HW138810   3.990   2.149   7.880 -0.9096 -0.1540 -2.4918
 9058SOL    HW238811   3.926   2.231   7.984  0.5862  0.0617  0.2641
 9059SOL     OW38812   1.752   4.046   3.443  0.2393 -0.0116  0.2498
 9059SOL    HW138813   1.821   3.987   3.414  1.1595  0.7508  0.9028
 9059SOL    HW238814   1.681   3.983   3.450  1.5941 -1.8692 -3.1205
 9060SOL     OW38815   0.089   0.234  10.451 -0.1730  0.3950  0.4794
 9060SOL    HW138816   0.124   0.221  10.540  2.5999  0.1181 -0.6683
 9060SOL    HW238817   0.163   0.279  10.411 -1.1994  0.4389 -1.3286
 9061SOL     OW38818   2.865   1.383  15.204  0.6679 -0.1688 -0.0327
 9061SOL    HW138819   2.857   1.435  15.124  1.3999  0.1309  0.0889
 9061SOL    HW238820   2.801   1.436  15.251  0.1948 -0.9179  0.1729
 9062SOL     OW38821   1.933   1.890  13.276 -0.3106  0.2548 -0.4970
 9062SOL    HW138822   1.887   1.868  13.357 -0.9705  2.5348 -0.2508
 9062SOL    HW238823   1.869   1.868  13.208 -1.2006 -0.4305  0.5679
 9063SOL     OW38824   1.439   0.430  15.279  0.7592 -0.8947 -0.0230
 9063SOL    HW138825   1.348   0.456  15.295  1.6189  1.2524  1.4370
 9063SOL    HW238826   1.471   0.506  15.230 -0.7030 -0.6467 -0.5797
 9064SOL     OW38827   4.546   2.316   9.320  0.4130  0.1608 -0.1542
 9064SOL    HW138828   4.607   2.382   9.286 -1.7152  1.7136 -0.9618
 9064SOL    HW238829   4.585   2.292   9.404  0.9113 -1.4400 -0.8359
 9065SOL     OW38830   2.976   3.704   5.535  0.3569  0.2251  0.3087
 9065SOL    HW138831   2.882   3.692   5.520  0.2020  0.9403  0.6940
 9065SOL    HW238832   3.008   3.657   5.458 -1.2228 -1.5981  0.7686
 9066SOL     OW38833   3.018   3.014   4.535 -0.0802  0.1398  0.2028
 9066SOL    HW138834   2.966   3.090   4.560  2.8070  1.8571  1.0535
 9066SOL    HW238835   3.060   3.043   4.454 -0.1718  1.0914  0.5044
 9067SOL     OW38836   0.037   3.674   1.388 -0.0681  0.1904 -0.4328
 9067SOL    HW138837   0.117   3.708   1.347 -0.1919  0.6264 -0.3169
 9067SOL    HW238838   4.713   3.705   1.323 -2.0020  0.1628  1.4248
 9068SOL     OW38839   1.086   0.772   0.393 -0.0295 -0.2626  0.3463
 9068SOL    HW138840   1.032   0.822   0.455 -2.3385 -0.9250 -1.1347
 9068SOL    HW238841   1.151   0.840   0.377 -0.3504 -0.2712 -0.9741
 9069SOL     OW38842   3.129   4.450   4.323  0.1880 -0.2372  0.7300
 9069SOL    HW138843   3.056   4.499   4.285  3.3249  1.5992 -2.8044
 9069SOL    HW238844   3.094   4.361   4.330 -0.4277 -0.2108 -2.2958
 9070SOL     OW38845   3.279   3.811  12.484  0.0168 -0.1626 -0.8122
 9070SOL    HW138846   3.269   3.736  12.426  1.0180  1.1554 -2.6759
 9070SOL    HW238847   3.274   3.770  12.571 -1.0957  1.1639 -0.2428
 9071SOL     OW38848   2.879   3.360   8.915 -0.1783 -0.5209 -0.0480
 9071SOL    HW138849   2.945   3.311   8.866 -1.4784 -0.7016 -1.6065
 9071SOL    HW238850   2.881   3.436   8.857  0.5840  0.6482  1.5069
 9072SOL     OW38851   4.102   0.010   1.977 -0.0912 -0.3959 -0.5988
 9072SOL    HW138852   4.036   0.079   1.985 -0.4932 -0.8112 -0.2732
 9072SOL    HW238853   4.179   0.065   1.989  0.2116 -0.9086 -0.2214
 9073SOL     OW38854   3.408   3.914   3.903 -0.1887  0.3236 -0.1778
 9073SOL    HW138855   3.320   3.937   3.934 -0.3955 -0.9080  0.1423
 9073SOL    HW238856   3.385   3.908   3.810 -1.3620  0.2168  0.1205
 9074SOL     OW38857   1.116   0.939   8.626 -0.1060  0.1832  0.0790
 9074SOL    HW138858   1.153   0.852   8.637  2.6263  0.9934 -2.8188
 9074SOL    HW238859   1.041   0.920   8.569  0.3250  0.4278 -0.5652
 9075SOL     OW38860   3.379   1.186  12.255  0.0750 -0.3463  0.4240
 9075SOL    HW138861   3.360   1.142  12.172 -1.0372  1.7089 -0.3831
 9075SOL    HW238862   3.318   1.143  12.315 -1.4628  2.2142  0.6921
 9076SOL     OW38863   0.443   1.675  16.330  0.2875  0.6401 -0.3516
 9076SOL    HW138864   0.474   1.585  16.320 -1.1875  0.0585  0.2926
 9076SOL    HW238865   0.514   1.709  16.384  0.4262  2.3865 -1.6189
 9077SOL     OW38866   0.881   2.200   6.735 -0.4103  0.3477 -0.8479
 9077SOL    HW138867   0.851   2.276   6.685 -0.2906 -0.7710 -2.6186
 9077SOL    HW238868   0.806   2.171   6.786  0.5452 -2.1421 -0.8425
 9078SOL     OW38869   4.400   4.482  11.198 -0.1391  0.7099  0.2603
 9078SOL    HW138870   4.327   4.535  11.167 -3.1245 -2.5169  1.7634
 9078SOL    HW238871   4.347   4.407  11.223  0.4556  0.6132  1.2523
 9079SOL     OW38872   1.916   0.814  17.389 -0.1728  0.3404  0.5338
 9079SOL    HW138873   1.916   0.733  17.337 -1.3918 -1.1262  2.8566
 9079SOL    HW238874   1.911   0.861  17.305 -0.8997  0.1480  0.4743
 9080SOL     OW38875   0.893   2.586   8.632  0.1805 -0.7050 -0.0518
 9080SOL    HW138876   0.860   2.639   8.704  1.5329 -1.9368  1.4627
 9080SOL    HW238877   0.822   2.522   8.639 -0.9369  0.8493  2.5991
 9081SOL     OW38878   0.306   0.891   9.143  0.3436 -0.2679 -0.2079
 9081SOL    HW138879   0.332   0.800   9.152  0.1122 -0.4228 -1.0782
 9081SOL    HW238880   0.350   0.907   9.059  1.1635  3.6752  0.9491
 9082SOL     OW38881   1.670   1.985   6.324 -0.2778  0.2156  0.1324
 9082SOL    HW138882   1.751   2.024   6.356  0.1664 -0.2424 -0.4365
 9082SOL    HW238883   1.617   2.061   6.303  2.2763  2.3274  1.3742
 9083SOL     OW38884   1.495   4.326   7.576 -0.3327 -0.4740  0.2122
 9083SOL    HW138885   1.484   4.243   7.530  2.7639 -1.0228  0.4809
 9083SOL    HW238886   1.582   4.353   7.546 -0.1803 -1.3758 -0.1518
 9084SOL     OW38887   3.647   3.716   3.605  0.0080 -0.1141  0.9683
 9084SOL    HW138888   3.732   3.676   3.623  1.2746  1.9666 -0.4786
 9084SOL    HW238889   3.664   3.754   3.519 -0.6611 -0.2114  0.7906
 9085SOL     OW38890   0.079   0.849   6.395 -0.2887  0.2465  0.2205
 9085SOL    HW138891   0.156   0.792   6.394 -0.2526  0.3008 -0.4066
 9085SOL    HW238892   0.100   0.902   6.318 -1.1603 -0.3409 -0.4175
 9086SOL     OW38893   1.814   1.900   7.456 -0.1108 -0.0263 -0.2793
 9086SOL    HW138894   1.808   1.924   7.548 -0.7906 -2.7923  0.3953
 9086SOL    HW238895   1.728   1.912   7.414 -0.1302  2.3852  0.4283
 9087SOL     OW38896   1.633   4.253   9.285  0.2394 -0.1806 -0.4725
 9087SOL    HW138897   1.693   4.317   9.247 -0.0783  0.7066  0.5171
 9087SOL    HW238898   1.598   4.205   9.210 -0.2610 -0.4500 -0.0718
 9088SOL     OW38899   2.018   3.779   1.407  0.0332  0.1466 -0.3278
 9088SOL    HW138900   1.956   3.777   1.480 -0.8309  1.0747 -1.0300
 9088SOL    HW238901   2.064   3.696   1.421  1.1743  1.1531  1.8036
 9089SOL     OW38902   1.509   3.732   6.702  0.4648  0.5787  0.5585
 9089SOL    HW138903   1.517   3.672   6.627  0.1538 -1.6098  2.2695
 9089SOL    HW238904   1.535   3.802   6.642  1.3002 -1.4924 -1.5356
 9090SOL     OW38905   0.338   3.602   6.543 -0.0468 -0.1701 -0.2985
 9090SOL    HW138906   0.277   3.676   6.537  1.9510  1.4878 -0.0762
 9090SOL    HW238907   0.277   3.538   6.580  1.6296 -0.3430  2.1693
 9091SOL     OW38908   2.536   2.673   6.805  1.0250  0.0547  0.0868
 9091SOL    HW138909   2.622   2.671   6.762  0.1300 -2.7543 -1.5724
 9091SOL    HW238910   2.480   2.728   6.750  3.2213  2.4390  0.2586
 9092SOL     OW38911   3.754   4.656   4.684 -0.6618  0.7171  0.2852
 9092SOL    HW138912   3.770   4.737   4.636 -0.1081  0.1823 -0.4368
 9092SOL    HW238913   3.826   4.656   4.748 -1.0848 -1.3302  0.7577
 9093SOL     OW38914   3.790   2.477   6.360  0.3362  0.4880 -0.0783
 9093SOL    HW138915   3.751   2.421   6.292 -0.3505 -0.1316  0.8135
 9093SOL    HW238916   3.730   2.456   6.432 -0.6766  1.2515 -0.6963
 9094SOL     OW38917   2.896   1.798  11.394 -0.6111 -0.0066  0.2822
 9094SOL    HW138918   2.964   1.747  11.438 -0.7478  2.3378  3.1697
 9094SOL    HW238919   2.837   1.728  11.364 -1.0782 -0.0586  1.3172
 9095SOL     OW38920   0.532   3.439  13.383 -0.1989  0.1061 -0.3685
 9095SOL    HW138921   0.580   3.452  13.464  0.8204  0.2113 -0.9953
 9095SOL    HW238922   0.557   3.519  13.336 -1.0049  0.7348  0.2832
 9096SOL     OW38923   3.151   2.903   7.967 -0.0707  0.3129  0.2230
 9096SOL    HW138924   3.183   2.990   7.944 -2.6137  0.6451 -2.1061
 9096SOL    HW238925   3.192   2.854   7.896  1.7309  1.8021  0.2260
 9097SOL     OW38926   4.548   2.922   5.210  0.2942  0.5855 -0.0741
 9097SOL    HW138927   4.555   2.939   5.116 -2.0076 -0.4429 -0.4159
 9097SOL    HW238928   4.604   2.996   5.236 -1.3621  2.2913 -1.4053
 9098SOL     OW38929   0.562   0.656   9.192  1.2512 -0.3961 -0.2146
 9098SOL    HW138930   0.579   0.667   9.286  0.9234 -0.3783 -0.1587
 9098SOL    HW238931   0.575   0.564   9.173 -2.3636 -1.1796  1.1314
 9099SOL     OW38932   4.079   0.133   4.245  0.3141 -0.0758 -0.3709
 9099SOL    HW138933   4.170   0.125   4.215  0.1879 -0.4556 -0.6633
 9099SOL    HW238934   4.038   0.052   4.214 -0.4464  0.3731 -0.5267
 9100SOL     OW38935   4.143   3.739   8.883 -0.2331  0.0780  0.2922
 9100SOL    HW138936   4.157   3.686   8.962  2.0252  0.1700 -0.0396
 9100SOL    HW238937   4.142   3.671   8.817 -1.1848 -2.5311  3.0048
 9101SOL     OW38938   0.030   0.932   7.391  0.0554 -0.3825 -0.1965
 9101SOL    HW138939   4.716   1.010   7.373 -0.7837 -1.1846 -1.1307
 9101SOL    HW238940   0.104   0.967   7.440 -1.2645  2.3271 -0.1214
 9102SOL     OW38941   4.404   4.191   6.282  0.4475 -0.3361  0.1343
 9102SOL    HW138942   4.344   4.132   6.328 -0.7469 -0.6115 -1.7965
 9102SOL    HW238943   4.408   4.258   6.350 -0.8999 -2.8110  2.6599
 9103SOL     OW38944   2.170   0.121   7.891  0.3248  0.7508  0.1416
 9103SOL    HW138945   2.100   0.168   7.845 -0.9397 -0.6518  0.6409
 9103SOL    HW238946   2.186   0.042   7.839 -1.8722  1.1545 -1.1238
 9104SOL     OW38947   1.781   4.520   5.864  0.0383  0.2403  0.5445
 9104SOL    HW138948   1.800   4.508   5.957  1.8514  0.1122  0.1451
 9104SOL    HW238949   1.805   4.613   5.861 -0.3365  0.3362  0.4307
 9105SOL     OW38950   0.983   1.029  11.924 -0.5224 -0.0531  0.3844
 9105SOL    HW138951   1.009   1.034  11.832  0.5099  0.3040  0.7005
 9105SOL    HW238952   1.003   1.111  11.968 -3.2817  1.5098 -1.2418
 9106SOL     OW38953   3.585   1.335   4.001  0.7434 -0.4113  0.1119
 9106SOL    HW138954   3.504   1.377   4.030  0.5465 -1.9535  1.7725
 9106SOL    HW238955   3.643   1.387   4.056 -0.7276 -1.1069  2.3015
 9107SOL     OW38956   1.129   3.303  12.072 -0.2138 -0.5009 -0.4103
 9107SOL    HW138957   1.127   3.275  11.981  1.7009 -3.1285  0.3494
 9107SOL    HW238958   1.187   3.379  12.068  0.5078 -1.0550 -0.5833
 9108SOL     OW38959   0.712   1.535   7.336  0.4706 -0.2115 -0.3892
 9108SOL    HW138960   0.753   1.458   7.373 -3.0346 -0.1443  3.6972
 9108SOL    HW238961   0.646   1.543   7.405  1.0627  1.2695  0.0192
 9109SOL     OW38962   3.635   2.397   7.484  0.2507  0.0482  0.2129
 9109SOL    HW138963   3.681   2.480   7.474 -1.1512  0.6990 -0.8199
 9109SOL    HW238964   3.621   2.382   7.578  1.3731 -0.1984  0.3371
 9110SOL     OW38965   1.845   3.252   4.752 -0.0942  0.1768 -0.3469
 9110SOL    HW138966   1.816   3.200   4.826  0.7867 -1.3153 -1.0570
 9110SOL    HW238967   1.940   3.256   4.763 -0.5102  0.4584  3.1017
 9111SOL     OW38968   1.131   2.956  17.484  0.3014  0.6199  0.3927
 9111SOL    HW138969   1.150   3.046  17.456  1.9230  0.4703  1.0164
 9111SOL    HW238970   1.045   2.952  17.527  0.3259 -0.7196  0.2931
 9112SOL     OW38971   0.567   1.039  14.126 -0.3303  0.4844 -0.0699
 9112SOL    HW138972   0.545   0.959  14.174 -0.0262  0.1367 -0.5113
 9112SOL    HW238973   0.481   1.069  14.097 -0.1225  1.4057  0.2419
 9113SOL     OW38974   3.956   3.954   6.407 -0.1454 -0.1188  0.2318
 9113SOL    HW138975   3.892   3.920   6.469  0.3889 -0.4582  0.6000
 9113SOL    HW238976   3.914   3.937   6.323  0.1648 -0.1394  0.0808
 9114SOL     OW38977   4.434   2.765   7.225 -0.0462  0.7457 -0.4692
 9114SOL    HW138978   4.489   2.820   7.280 -1.5580 -0.1838  1.9674
 9114SOL    HW238979   4.428   2.682   7.272 -1.2033  0.2708 -1.4361
 9115SOL     OW38980   3.361   2.872   7.163 -0.5263  0.5709  0.6352
 9115SOL    HW138981   3.300   2.879   7.237  0.1239  0.5742  1.1639
 9115SOL    HW238982   3.342   2.955   7.119  1.2113  0.1987 -0.7993
 9116SOL     OW38983   3.890   4.444   8.303 -0.3870 -0.0546  0.0663
 9116SOL    HW138984   3.851   4.447   8.390  0.6684 -0.6157  0.5574
 9116SOL    HW238985   3.981   4.468   8.323 -0.0133 -0.4250 -1.1436
 9117SOL     OW38986   0.397   1.384  16.178 -0.4880 -0.8710 -0.6315
 9117SOL    HW138987   0.478   1.349  16.140 -0.7632 -2.3066  0.1022
 9117SOL    HW238988   0.349   1.425  16.106  3.4694  3.8577 -0.5604
 9118SOL     OW38989   2.881   0.033   0.552 -0.3196  0.0146  0.1482
 9118SOL    HW138990   2.846   4.735   0.632  1.9144  0.1345  1.1870
 9118SOL    HW238991   2.974   0.045   0.572 -0.4482 -1.0149  1.3237
 9119SOL     OW38992   1.092   0.955  16.927 -0.0086  0.1881 -0.5103
 9119SOL    HW138993   1.056   0.869  16.903  1.1297 -0.5197  0.2784
 9119SOL    HW238994   1.014   0.992  16.968 -0.1704 -0.6276 -0.0685
 9120SOL     OW38995   0.718   4.036   6.000  0.0227 -0.3293  0.1483
 9120SOL    HW138996   0.751   4.125   6.013 -0.5605  0.0022 -0.6662
 9120SOL    HW238997   0.650   4.033   6.067 -0.3776 -0.8072 -0.2819
 9121SOL     OW38998   0.989   2.110   4.598 -0.1774 -0.0696 -0.3485
 9121SOL    HW138999   0.903   2.113   4.557 -1.0064 -1.3258  1.2428
 9121SOL    HW239000   1.017   2.031   4.551 -0.9750  0.3063 -1.4375
 9122SOL     OW39001   0.768   0.435   6.530  0.1086 -0.2078  0.1017
 9122SOL    HW139002   0.724   0.371   6.474  1.1300  0.1298 -1.0657
 9122SOL    HW239003   0.696   0.477   6.578  0.0663 -0.1595 -0.0052
 9123SOL     OW39004   3.316   3.289   3.579 -0.0993 -0.1782 -0.1680
 9123SOL    HW139005   3.367   3.336   3.513  1.0579  1.3105  1.7619
 9123SOL    HW239006   3.303   3.207   3.531 -1.0942 -1.0967  1.6661
 9124SOL     OW39007   3.061   2.432  10.120  0.4419  0.3720 -0.1826
 9124SOL    HW139008   3.020   2.486  10.053 -1.3092 -1.9204 -0.9712
 9124SOL    HW239009   3.009   2.457  10.196 -1.6982  0.0351 -1.5247
 9125SOL     OW39010   3.124   4.575   4.772  0.4090  0.4151  0.3700
 9125SOL    HW139011   3.055   4.611   4.716  0.2659 -0.3991  0.0038
 9125SOL    HW239012   3.172   4.527   4.704  1.9196  2.8391 -0.2543
 9126SOL     OW39013   2.544   0.071   1.000 -0.4877 -0.5090  0.6438
 9126SOL    HW139014   2.466   0.037   1.043 -2.5323  1.6373 -1.4168
 9126SOL    HW239015   2.611   0.053   1.067  0.0597 -0.5319  0.0962
 9127SOL     OW39016   2.517   2.178   2.605 -0.3802  0.3549 -0.0497
 9127SOL    HW139017   2.572   2.103   2.580 -1.9237 -0.6013 -0.5672
 9127SOL    HW239018   2.428   2.141   2.604 -0.1809 -0.1257 -0.4262
 9128SOL     OW39019   3.111   2.145  14.670 -0.5091 -0.2539  0.6577
 9128SOL    HW139020   3.130   2.081  14.602 -0.0533 -1.0956  1.5871
 9128SOL    HW239021   3.069   2.211  14.615  1.0742 -0.9560 -1.4332
 9129SOL     OW39022   0.141   3.381  13.233 -0.3211  0.2174 -0.1549
 9129SOL    HW139023   0.153   3.333  13.316 -0.1513 -0.1640 -0.3989
 9129SOL    HW239024   0.064   3.427  13.266 -2.0037 -2.3944 -0.4001
 9130SOL     OW39025   1.365   4.701   3.363  0.3630 -0.0539  0.1462
 9130SOL    HW139026   1.450   4.726   3.400 -1.2463  1.6477  2.6868
 9130SOL    HW239027   1.404   4.660   3.286 -0.0655 -0.3935  0.1138
 9131SOL     OW39028   2.759   4.103   6.940  0.3140 -0.2625 -0.1957
 9131SOL    HW139029   2.832   4.054   6.901  0.8161  2.3429 -2.4907
 9131SOL    HW239030   2.793   4.145   7.019 -0.4810  2.3020 -1.2258
 9132SOL     OW39031   1.710   4.562   7.858 -0.2786 -1.1253  0.1774
 9132SOL    HW139032   1.760   4.624   7.911 -1.6088  0.0565  0.0441
 9132SOL    HW239033   1.779   4.534   7.798 -0.0155  4.4418 -2.0948
 9133SOL     OW39034   1.509   3.788  11.946 -0.0007 -0.2407 -0.1963
 9133SOL    HW139035   1.431   3.742  11.915 -0.9082  2.2883 -1.7468
 9133SOL    HW239036   1.541   3.734  12.018  0.9125 -0.5654 -0.8470
 9134SOL     OW39037   2.642   0.751   7.837  1.1713 -0.0702 -0.3685
 9134SOL    HW139038   2.553   0.715   7.844  0.8359  0.7290 -0.4302
 9134SOL    HW239039   2.625   0.845   7.851  0.9689  0.0023 -1.1270
 9135SOL     OW39040   3.333   0.002   8.118 -0.3039 -0.2442 -0.0420
 9135SOL    HW139041   3.339   4.665   8.175 -0.8215 -0.6033 -0.4632
 9135SOL    HW239042   3.390   4.711   8.047  2.2724 -2.4402  3.0084
 9136SOL     OW39043   1.068   3.269  14.496 -0.2032  0.5258  0.2147
 9136SOL    HW139044   1.007   3.320  14.442  0.2981  0.3661 -0.5103
 9136SOL    HW239045   1.022   3.186  14.502  1.1461 -0.2594 -0.3513
 9137SOL     OW39046   1.171   4.156   8.097  0.5898 -0.2504  0.5388
 9137SOL    HW139047   1.128   4.200   8.023  1.9977  2.1945  1.1720
 9137SOL    HW239048   1.259   4.144   8.061  0.8206  0.8365  0.7252
 9138SOL     OW39049   1.966   3.146  12.754 -0.1119  0.0904 -0.1170
 9138SOL    HW139050   2.024   3.184  12.688 -0.2620  1.2520  0.4083
 9138SOL    HW239051   1.905   3.219  12.767  3.0189  2.5168  1.1331
 9139SOL     OW39052   3.291   0.207   2.087 -0.2156  0.2771  0.5694
 9139SOL    HW139053   3.334   0.292   2.076  0.8555 -0.0658  2.0900
 9139SOL    HW239054   3.254   0.216   2.175 -0.8806 -1.0622  0.4159
 9140SOL     OW39055   1.903   4.021   4.102 -0.1336 -0.5568 -0.3329
 9140SOL    HW139056   1.838   4.041   4.034 -0.4385  1.8777  0.6712
 9140SOL    HW239057   1.949   4.106   4.100 -2.4612  0.6812 -1.3763
 9141SOL     OW39058   1.257   1.411   8.337 -0.1105 -0.6145 -0.5837
 9141SOL    HW139059   1.173   1.457   8.345  2.0153  3.0990  0.4089
 9141SOL    HW239060   1.284   1.399   8.428 -2.8172  0.0715  0.3121
 9142SOL     OW39061   2.722   0.369   6.947 -0.4766  0.2833  0.4596
 9142SOL    HW139062   2.710   0.462   6.968 -0.8755  0.1426  0.8487
 9142SOL    HW239063   2.810   0.346   6.977 -0.4352 -0.6429 -0.3507
 9143SOL     OW39064   2.900   3.920   5.698 -0.8484  0.1101  0.1964
 9143SOL    HW139065   2.914   3.847   5.637  0.5337  0.0601  0.5659
 9143SOL    HW239066   2.819   3.895   5.741  0.0098 -3.2528 -0.1569
 9144SOL     OW39067   0.700   2.399  11.565 -0.2771 -0.1006  0.2212
 9144SOL    HW139068   0.666   2.401  11.476 -1.4412 -1.6908  0.6328
 9144SOL    HW239069   0.682   2.491  11.584 -0.8325 -0.6611  2.4474
 9145SOL     OW39070   0.276   0.411   5.755  0.5405 -0.0953 -0.3468
 9145SOL    HW139071   0.341   0.341   5.759 -0.5831 -1.1548 -0.6667
 9145SOL    HW239072   0.231   0.412   5.840 -0.5533 -0.7343 -0.9145
 9146SOL     OW39073   2.778   2.645  17.251 -0.1305  0.9507 -0.7393
 9146SOL    HW139074   2.842   2.591  17.298 -1.2983  1.6707  1.7156
 9146SOL    HW239075   2.752   2.694  17.329 -1.0309  2.5383 -2.0405
 9147SOL     OW39076   2.138   2.789   3.753  0.2009 -0.2581  0.0882
 9147SOL    HW139077   2.212   2.811   3.697 -1.3820  1.4273 -1.3828
 9147SOL    HW239078   2.101   2.721   3.697  0.4787 -0.4597  0.1521
 9148SOL     OW39079   1.230   0.177   2.787 -0.3121  0.0828  0.3576
 9148SOL    HW139080   1.153   0.121   2.794  0.1466 -0.5391  0.4442
 9148SOL    HW239081   1.184   0.256   2.760  0.5235  0.2546 -0.5903
 9149SOL     OW39082   3.410   2.824   8.556  0.1638  0.7755  0.3085
 9149SOL    HW139083   3.476   2.806   8.624 -1.0595 -2.0334  0.7506
 9149SOL    HW239084   3.430   2.915   8.534 -1.9892  1.2662  0.4592
 9150SOL     OW39085   0.996   3.776   8.476  0.1710 -0.6097  0.2695
 9150SOL    HW139086   1.078   3.753   8.520  0.3237 -0.6883 -0.0525
 9150SOL    HW239087   0.953   3.693   8.460 -0.3833 -0.5486  1.4327
 9151SOL     OW39088   0.639   0.341   4.673  0.1555  0.7354  0.4790
 9151SOL    HW139089   0.644   0.282   4.598  0.8277  0.9699  0.3365
 9151SOL    HW239090   0.728   0.373   4.686  1.4244 -2.9950  0.8812
 9152SOL     OW39091   0.052   4.022   5.866 -0.2172  0.0570  0.0878
 9152SOL    HW139092   0.133   3.970   5.862 -1.0738 -1.4922  2.5447
 9152SOL    HW239093   0.063   4.053   5.956  0.3586  0.3902 -0.0968
 9153SOL     OW39094   1.792   0.064   3.772 -0.8371  0.5376 -0.5529
 9153SOL    HW139095   1.859   0.013   3.726 -1.8442 -0.6535 -0.6859
 9153SOL    HW239096   1.754   4.726   3.813  1.2338 -0.9929 -1.5093
 9154SOL     OW39097   4.418   1.966   6.727  0.6822  0.1819  0.3598
 9154SOL    HW139098   4.344   1.958   6.666  0.2104  0.3488  0.9049
 9154SOL    HW239099   4.379   2.032   6.785 -0.7784  0.6125 -1.1074
 9155SOL     OW39100   3.981   1.319   8.569  0.0822  0.0926  0.4377
 9155SOL    HW139101   3.991   1.301   8.663  2.8491 -2.4298 -0.3417
 9155SOL    HW239102   4.019   1.406   8.575  0.8121 -0.2005  0.1088
 9156SOL     OW39103   0.484   1.053   7.701 -0.3667  0.0018 -0.2787
 9156SOL    HW139104   0.462   1.118   7.768  1.3617 -0.8199  1.0871
 9156SOL    HW239105   0.578   1.069   7.691 -0.6753  0.0741 -3.0968
 9157SOL     OW39106   2.857   0.672   3.600 -0.3694 -0.5243 -0.0164
 9157SOL    HW139107   2.816   0.709   3.522 -0.0943 -2.9590 -1.3242
 9157SOL    HW239108   2.942   0.715   3.591 -2.3634  3.4603  0.1588
 9158SOL     OW39109   0.225   2.168   2.462 -0.3297  0.4659 -0.6192
 9158SOL    HW139110   0.302   2.165   2.405  0.2566 -0.1040  0.1992
 9158SOL    HW239111   0.151   2.194   2.407 -1.1840  1.3132  0.9344
 9159SOL     OW39112   4.010   3.449  10.327 -0.3712 -0.0291  0.4735
 9159SOL    HW139113   4.048   3.361  10.332 -1.3524 -0.3574  2.0548
 9159SOL    HW239114   3.941   3.456  10.393 -1.4559  0.6676 -0.7420
 9160SOL     OW39115   4.527   4.638   4.737  0.0783  0.0663  0.1255
 9160SOL    HW139116   4.550   4.627   4.645  1.3915 -1.3237  0.6253
 9160SOL    HW239117   4.536   4.734   4.738 -2.2105  0.2737  1.6572
 9161SOL     OW39118   3.654   3.071  14.500 -0.0491  0.3150  0.0470
 9161SOL    HW139119   3.733   3.104  14.544  1.3198 -0.8732 -1.5192
 9161SOL    HW239120   3.672   3.087  14.407 -1.2982 -0.3297 -0.2978
 9162SOL     OW39121   0.164   1.243   7.346  0.1817  0.2089 -0.0398
 9162SOL    HW139122   0.173   1.198   7.430 -0.5805  1.0906  0.4971
 9162SOL    HW239123   0.237   1.199   7.303  0.6790 -0.1968  1.2207
 9163SOL     OW39124   4.467   1.964   8.320 -0.1198 -0.2948 -0.4120
 9163SOL    HW139125   4.455   1.985   8.228  0.9127  1.8467 -0.0492
 9163SOL    HW239126   4.405   2.022   8.363 -0.0608  0.1585 -0.9318
 9164SOL     OW39127   3.299   3.066   8.269  0.3307 -0.2029 -0.1219
 9164SOL    HW139128   3.392   3.065   8.249  0.2039 -0.1144 -0.7151
 9164SOL    HW239129   3.261   3.108   8.192 -0.9926 -2.3852 -0.6766
 9165SOL     OW39130   3.426   2.095   7.322 -0.3086  0.4697 -0.4582
 9165SOL    HW139131   3.416   2.184   7.289 -0.5046  0.9277  0.8240
 9165SOL    HW239132   3.521   2.092   7.331 -0.3466 -1.0422 -0.5796
 9166SOL     OW39133   2.641   3.758   6.855 -0.5390  0.1275 -0.2874
 9166SOL    HW139134   2.569   3.768   6.793  0.5131  2.2722 -1.1731
 9166SOL    HW239135   2.644   3.664   6.868 -2.6522 -0.0196 -0.8591
 9167SOL     OW39136   2.489   1.050   0.116 -0.7991  0.3610 -0.5452
 9167SOL    HW139137   2.507   1.075   0.207  0.0240  0.9082 -0.8605
 9167SOL    HW239138   2.567   1.003   0.091 -0.4429  0.6732 -0.0350
 9168SOL     OW39139   0.137   0.770  12.475 -0.7209  0.3795  0.8098
 9168SOL    HW139140   0.205   0.815  12.425 -0.1643 -0.7222  0.5662
 9168SOL    HW239141   0.175   0.788  12.560  1.4258  0.9743 -0.2637
 9169SOL     OW39142   4.099   2.127   3.894 -0.3630 -0.7591 -0.2029
 9169SOL    HW139143   4.028   2.176   3.852 -1.1890  0.4889  2.7077
 9169SOL    HW239144   4.131   2.080   3.817  1.2831 -1.4302  0.9111
 9170SOL     OW39145   0.268   0.314  15.925 -0.1025  0.0356  0.6149
 9170SOL    HW139146   0.273   0.409  15.923 -0.1506 -0.0670 -3.3553
 9170SOL    HW239147   0.247   0.291  15.834 -1.0829 -0.2622  0.9158
 9171SOL     OW39148   2.688   4.328   2.357 -0.1354 -0.0895  0.1079
 9171SOL    HW139149   2.609   4.382   2.361 -0.7017 -0.9731  1.0993
 9171SOL    HW239150   2.655   4.246   2.320  2.5252 -0.9872 -0.2943
 9172SOL     OW39151   0.819   3.242   4.463 -0.0469 -0.2862  0.2694
 9172SOL    HW139152   0.772   3.233   4.380 -3.2429  0.0193  2.0722
 9172SOL    HW239153   0.904   3.214   4.429 -0.7091 -1.4468 -0.4095
 9173SOL     OW39154   0.062   2.809   3.403 -0.0877 -0.2134 -0.5072
 9173SOL    HW139155   0.038   2.738   3.344 -1.5765  0.0502 -0.2166
 9173SOL    HW239156   4.713   2.834   3.431  0.5328 -0.3177  1.5027
 9174SOL     OW39157   0.462   3.551  12.681  0.3730 -0.1911 -0.3955
 9174SOL    HW139158   0.485   3.490  12.611 -0.0698 -0.0954 -0.6192
 9174SOL    HW239159   0.545   3.599  12.689 -0.3934  1.2742 -1.4700
 9175SOL     OW39160   1.042   2.566  11.068 -0.0855  0.1682 -0.1885
 9175SOL    HW139161   1.039   2.560  10.972  2.6277  1.2497 -0.3322
 9175SOL    HW239162   1.096   2.490  11.084 -0.8683 -0.9956 -3.0075
 9176SOL     OW39163   3.932   0.062   9.701 -0.1791  0.2285 -0.2132
 9176SOL    HW139164   3.888   0.044   9.784  0.7108  0.1395  0.2408
 9176SOL    HW239165   3.967   4.715   9.679  1.2853  1.3580 -2.3317
 9177SOL     OW39166   0.910   1.754   2.621 -0.1818  0.4736 -0.2203
 9177SOL    HW139167   0.909   1.739   2.526  0.1323  0.1819 -0.1780
 9177SOL    HW239168   0.981   1.817   2.630 -0.7783  1.0565  0.4126
 9178SOL     OW39169   3.568   2.761   5.158 -0.2733  0.3213  0.0885
 9178SOL    HW139170   3.628   2.826   5.194  1.6301 -1.4098  0.0854
 9178SOL    HW239171   3.553   2.716   5.242  1.2805  1.4400  0.9717
 9179SOL     OW39172   3.333   3.673  16.919 -0.1105 -0.2586 -0.3674
 9179SOL    HW139173   3.349   3.739  16.986 -1.2564  0.4347 -0.7737
 9179SOL    HW239174   3.377   3.600  16.963  1.4951  0.0189 -1.4679
 9180SOL     OW39175   2.165   0.919   5.009 -0.0165 -0.5471  0.2420
 9180SOL    HW139176   2.140   0.872   5.088  0.5664  3.0501  2.5813
 9180SOL    HW239177   2.138   0.861   4.938  0.8292  1.9742 -2.1592
 9181SOL     OW39178   2.498   3.841   2.565  1.0420  0.6702 -0.0266
 9181SOL    HW139179   2.417   3.809   2.526  0.5417  0.3915  1.2428
 9181SOL    HW239180   2.469   3.927   2.596 -1.2860 -0.3713  0.6749
 9182SOL     OW39181   3.017   1.601   4.484  0.4526 -0.3845  0.0288
 9182SOL    HW139182   3.049   1.651   4.559  3.3520  0.3046 -1.6980
 9182SOL    HW239183   3.044   1.661   4.414 -2.0148 -0.7978 -1.3030
 9183SOL     OW39184   3.168   2.112   2.751  0.5175 -0.5519  0.6879
 9183SOL    HW139185   3.074   2.100   2.739  0.1473  1.2864  1.7052
 9183SOL    HW239186   3.186   2.192   2.701  0.8771 -0.6386  0.6848
 9184SOL     OW39187   2.503   0.939   2.179  0.0825  0.2965 -0.1116
 9184SOL    HW139188   2.565   1.010   2.194 -0.2144  0.4923  0.2113
 9184SOL    HW239189   2.541   0.860   2.218 -0.7142 -1.6889 -3.3531
 9185SOL     OW39190   4.381   4.124   1.477 -0.0557 -0.2168 -0.0398
 9185SOL    HW139191   4.476   4.131   1.465  0.1969 -2.0518  0.9011
 9185SOL    HW239192   4.366   4.146   1.569  0.7408 -0.7940  0.2326
 9186SOL     OW39193   2.818   0.230   1.969  0.4303  0.0964  0.0598
 9186SOL    HW139194   2.801   0.319   1.940 -2.0950  0.2053  1.8986
 9186SOL    HW239195   2.889   0.201   1.912  1.0157 -0.9704  1.3182
 9187SOL     OW39196   3.275   2.788  16.978  0.5964 -0.0366 -0.3340
 9187SOL    HW139197   3.362   2.820  17.001  0.5072 -0.5971  0.7705
 9187SOL    HW239198   3.301   2.704  16.939 -2.2159 -1.3959  0.6703
 9188SOL     OW39199   1.680   1.778   3.533  0.0967 -0.0115 -0.0392
 9188SOL    HW139200   1.650   1.745   3.449  2.7192  0.9890 -1.3727
 9188SOL    HW239201   1.648   1.711   3.593 -2.2583  0.9739 -0.2121
 9189SOL     OW39202   0.236   2.881   0.651 -0.3984  0.0356 -0.0587
 9189SOL    HW139203   0.244   2.825   0.729 -0.6383 -0.3431 -0.3079
 9189SOL    HW239204   0.258   2.962   0.697 -1.2275  0.1115  0.1943
 9190SOL     OW39205   4.062   2.932  13.581 -0.6257 -0.2970 -0.3017
 9190SOL    HW139206   4.083   2.839  13.578  2.5748  0.3610  1.5829
 9190SOL    HW239207   4.065   2.944  13.676  0.6390  0.7249 -0.4742
 9191SOL     OW39208   2.904   2.304   1.833 -0.2259  0.0224 -0.3024
 9191SOL    HW139209   2.821   2.304   1.880  1.7155 -2.7112  3.1243
 9191SOL    HW239210   2.952   2.250   1.896 -0.0780  2.5047  1.6880
 9192SOL     OW39211   2.788   0.065  14.428 -0.5448 -0.0881 -0.5498
 9192SOL    HW139212   2.762   4.714  14.447  0.2275 -0.2234 -0.1625
 9192SOL    HW239213   2.703   0.107  14.442 -0.2869 -0.3377  1.7523
 9193SOL     OW39214   2.275   2.201   4.793  0.1593  0.4761  0.4994
 9193SOL    HW139215   2.349   2.261   4.782  0.7549 -0.2346  0.6333
 9193SOL    HW239216   2.219   2.214   4.716  1.5516  2.3555 -0.1807
 9194SOL     OW39217   1.160   2.014   3.948  0.1462  0.0867 -0.2812
 9194SOL    HW139218   1.233   2.076   3.949  0.1758  0.0464  0.1364
 9194SOL    HW239219   1.078   2.060   3.968 -0.2412 -1.0853  0.8202
 9195SOL     OW39220   0.549   1.989  17.297 -0.1731  0.2810 -0.2052
 9195SOL    HW139221   0.457   2.007  17.279 -0.0830 -0.2200 -1.1700
 9195SOL    HW239222   0.585   2.076  17.281 -0.9652  0.4298 -1.1051
 9196SOL     OW39223   1.650   2.384   0.350  0.2829  0.0579 -0.1690
 9196SOL    HW139224   1.629   2.373   0.442  0.8025  1.6451  0.1346
 9196SOL    HW239225   1.572   2.421   0.309  0.9486 -0.6579 -2.0894
 9197SOL     OW39226   2.410   2.360   6.976 -0.1433  0.2499  0.2849
 9197SOL    HW139227   2.401   2.404   6.892  1.0713  0.1460  0.1003
 9197SOL    HW239228   2.439   2.432   7.033  2.0636 -1.0611  0.8101
 9198SOL     OW39229   0.991   3.730   7.665 -0.2106 -0.1638  0.1404
 9198SOL    HW139230   0.940   3.721   7.584 -0.5792  0.5713  0.2895
 9198SOL    HW239231   0.923   3.733   7.733  0.2202  1.3297  0.4939
 9199SOL     OW39232   0.697   3.224   8.268  0.1022  0.2727  0.2412
 9199SOL    HW139233   0.673   3.227   8.361  0.3494 -0.3078  0.3173
 9199SOL    HW239234   0.614   3.204   8.224  0.4181 -2.0726  0.7542
 9200SOL     OW39235   3.316   1.803  13.952 -0.1542  0.2163  0.2298
 9200SOL    HW139236   3.411   1.800  13.957 -0.1491  0.4794  0.3408
 9200SOL    HW239237   3.314   1.898  13.965  0.0513  0.2108  0.2929
 9201SOL     OW39238   1.850   1.796   3.169 -0.2025  0.0212  0.2376
 9201SOL    HW139239   1.858   1.827   3.079  0.2463  0.3539  0.3839
 9201SOL    HW239240   1.928   1.838   3.207  0.7360 -0.3334 -1.3224
 9202SOL     OW39241   4.552   0.249   2.519 -0.7621  0.1129  0.0166
 9202SOL    HW139242   4.599   0.211   2.593 -2.7673  3.0606  2.8154
 9202SOL    HW239243   4.510   0.172   2.481 -2.5036  0.5674  1.0063
 9203SOL     OW39244   4.406   0.512  10.286  0.4936  0.2162 -0.5381
 9203SOL    HW139245   4.375   0.433  10.330 -2.8934  1.4775 -0.6656
 9203SOL    HW239246   4.499   0.510  10.310  1.0800 -0.8378 -2.8925
 9204SOL     OW39247   0.816   4.217   7.552 -0.3872 -0.7864  0.3527
 9204SOL    HW139248   0.810   4.284   7.485  1.7203  0.9410  1.9195
 9204SOL    HW239249   0.722   4.198   7.556 -0.4014 -0.8741 -0.3653
 9205SOL     OW39250   2.683   2.213   7.885 -0.3252  0.6320 -0.1576
 9205SOL    HW139251   2.652   2.180   7.970 -2.4889  1.7588 -0.4984
 9205SOL    HW239252   2.674   2.129   7.840 -1.9484 -0.4930  2.2579
 9206SOL     OW39253   2.658   2.212   7.011 -0.0932 -0.1393  0.3639
 9206SOL    HW139254   2.573   2.256   7.004  0.5682  1.2678  1.2626
 9206SOL    HW239255   2.659   2.162   6.930 -1.3227  0.0357  0.2340
 9207SOL     OW39256   4.533   0.325   9.229 -0.1760 -0.2037  0.2654
 9207SOL    HW139257   4.505   0.322   9.137 -0.0403 -1.9971  0.2895
 9207SOL    HW239258   4.508   0.237   9.255  1.3679 -1.0354 -1.0469
 9208SOL     OW39259   1.059   0.371   7.499 -0.5282 -0.1880 -0.3717
 9208SOL    HW139260   1.035   0.438   7.564  2.5355  1.9952 -1.5010
 9208SOL    HW239261   1.082   0.417   7.419 -0.7556  0.1967 -0.2190
 9209SOL     OW39262   1.290   2.072  13.073 -0.6740  0.1095  0.2356
 9209SOL    HW139263   1.328   1.986  13.052  1.5480  1.5139 -1.5431
 9209SOL    HW239264   1.222   2.078  13.006 -1.3889  2.7105  1.2162
 9210SOL     OW39265   3.821   2.115   2.287  0.1646 -0.2612 -0.2649
 9210SOL    HW139266   3.762   2.059   2.236  0.2128  1.2140 -1.9445
 9210SOL    HW239267   3.761   2.150   2.352  0.8344 -0.1968  0.3135
 9211SOL     OW39268   1.744   1.139   7.622  0.3718 -0.1684 -0.3120
 9211SOL    HW139269   1.707   1.192   7.552 -0.7388 -1.9604 -1.0957
 9211SOL    HW239270   1.835   1.164   7.606  0.5189 -0.2626  0.3833
 9212SOL     OW39271   2.319   1.426   7.210  0.0027 -0.2084  0.4543
 9212SOL    HW139272   2.257   1.367   7.165 -2.7889 -0.6003  4.7962
 9212SOL    HW239273   2.401   1.378   7.221  0.9485  1.3868  0.1820
 9213SOL     OW39274   2.239   3.032   1.779 -0.1433  0.2158  0.1039
 9213SOL    HW139275   2.302   3.061   1.713  1.6411 -1.6163  0.9982
 9213SOL    HW239276   2.155   3.048   1.735 -0.7512  0.4904  1.3765
 9214SOL     OW39277   2.131   0.660   0.081  0.2334  0.0634  0.4945
 9214SOL    HW139278   2.207   0.605   0.063  0.2454  0.6223 -1.1408
 9214SOL    HW239279   2.185   0.738   0.093  2.0933 -1.2868  0.9759
 9215SOL     OW39280   3.257   0.256  10.462  0.5182  0.3171  0.1998
 9215SOL    HW139281   3.188   0.274  10.526  1.1542  2.0251  0.3858
 9215SOL    HW239282   3.273   0.343  10.428  0.4938 -0.7291 -2.4851
 9216SOL     OW39283   2.532   1.463   5.406  0.3681 -0.4349 -0.2155
 9216SOL    HW139284   2.570   1.474   5.493  1.7227 -1.2593 -0.6970
 9216SOL    HW239285   2.507   1.553   5.386 -0.5210 -0.1445  2.2043
 9217SOL     OW39286   2.603   0.871  15.319 -0.4107  0.3922 -0.0835
 9217SOL    HW139287   2.639   0.803  15.376  3.9879  3.2621  0.6050
 9217SOL    HW239288   2.678   0.928  15.301 -1.0954  2.2296  2.7981
 9218SOL     OW39289   4.104   0.507   7.511 -0.6133  0.2769 -0.1878
 9218SOL    HW139290   4.110   0.429   7.566 -1.4771  0.0256 -0.4364
 9218SOL    HW239291   4.196   0.528   7.495 -1.6962  3.1183 -2.8624
 9219SOL     OW39292   3.173   0.524  12.409  0.2035 -0.3598 -0.2685
 9219SOL    HW139293   3.159   0.469  12.485 -1.0880 -1.3263 -1.1961
 9219SOL    HW239294   3.110   0.482  12.350 -0.2743 -0.4647  0.3153
 9220SOL     OW39295   1.209   0.632   4.898  0.2592 -0.5220 -0.5686
 9220SOL    HW139296   1.216   0.657   4.990 -2.3223 -0.6814 -0.3064
 9220SOL    HW239297   1.254   0.549   4.912 -3.0579 -1.8238  2.4119
 9221SOL     OW39298   4.007   2.626  12.357  0.1031 -0.0711  0.6580
 9221SOL    HW139299   3.957   2.686  12.302  0.4053 -1.1894 -0.8595
 9221SOL    HW239300   3.979   2.642  12.447 -1.7833  0.1397  0.0380
 9222SOL     OW39301   0.789   1.125   7.615 -0.5524 -0.0182 -0.7562
 9222SOL    HW139302   0.791   1.055   7.680  0.2263 -0.1278 -0.8971
 9222SOL    HW239303   0.872   1.171   7.627 -1.2834  0.3110  3.0318
 9223SOL     OW39304   0.669   3.589   8.636 -0.3746  0.7656 -0.2868
 9223SOL    HW139305   0.628   3.532   8.702  0.0234 -0.1249 -0.8066
 9223SOL    HW239306   0.599   3.653   8.622 -1.5126 -0.5705 -0.8037
 9224SOL     OW39307   0.998   2.721   6.490 -0.1537 -0.3739 -0.4089
 9224SOL    HW139308   0.956   2.739   6.405  0.2101 -1.5726 -0.8410
 9224SOL    HW239309   1.055   2.795   6.509  0.0548 -0.7125  0.2581
 9225SOL     OW39310   0.403   2.152   7.009  0.3226 -0.6258  0.0512
 9225SOL    HW139311   0.462   2.194   6.946  1.6540 -4.6471 -1.3563
 9225SOL    HW239312   0.468   2.136   7.077  0.0375  1.0862  0.7202
 9226SOL     OW39313   2.071   0.932   8.505  0.2956  0.4722  0.0459
 9226SOL    HW139314   2.097   1.019   8.476  1.0136  0.5649  0.9516
 9226SOL    HW239315   2.152   0.885   8.484 -1.4223 -0.6488 -3.9642
 9227SOL     OW39316   3.633   3.527   7.483  0.5463 -0.4012  0.0779
 9227SOL    HW139317   3.639   3.615   7.519  1.7920 -0.5623  0.2701
 9227SOL    HW239318   3.653   3.467   7.555  0.5744  0.0305  0.4298
 9228SOL     OW39319   3.809   2.049  17.575  0.0114 -0.1698 -0.0701
 9228SOL    HW139320   3.852   2.081  17.496  0.0931 -0.6143 -0.2051
 9228SOL    HW239321   3.744   2.119  17.575 -0.2550 -0.4165 -1.5885
 9229SOL     OW39322   1.731   1.198   5.495 -0.4098 -0.2606  0.0143
 9229SOL    HW139323   1.724   1.142   5.572  0.2094  0.4166  0.5587
 9229SOL    HW239324   1.801   1.256   5.524 -0.4931  0.3727 -1.0775
 9230SOL     OW39325   4.013   2.145   6.087  0.4145  0.2629  0.3848
 9230SOL    HW139326   4.036   2.227   6.043 -0.3810  0.4719  0.3646
 9230SOL    HW239327   4.025   2.090   6.009 -1.5034 -0.7054  0.7761
 9231SOL     OW39328   4.204   4.630  10.722  0.2017  0.3709  0.1089
 9231SOL    HW139329   4.206   4.699  10.788 -0.5842  0.2889  0.2169
 9231SOL    HW239330   4.139   4.667  10.661 -0.5404  1.9512  1.8445
 9232SOL     OW39331   3.888   2.991   4.840  0.2005  0.1566  0.1021
 9232SOL    HW139332   3.943   3.026   4.770  2.5276  0.1427  1.9298
 9232SOL    HW239333   3.796   3.013   4.827 -0.0640  0.6367  2.7983
 9233SOL     OW39334   1.137   3.901   2.598  0.4189 -0.0783  0.1024
 9233SOL    HW139335   1.164   3.829   2.656 -0.9027 -2.5046 -2.3045
 9233SOL    HW239336   1.142   3.971   2.663  0.0320  1.6603 -1.7616
 9234SOL     OW39337   0.839   1.361  15.131  0.0574 -0.1259 -0.9831
 9234SOL    HW139338   0.909   1.422  15.111  0.7895 -0.8524 -0.6346
 9234SOL    HW239339   0.877   1.296  15.191  0.5054  0.1421 -0.9772
 9235SOL     OW39340   0.201   2.401   2.602  0.2830 -0.3997 -0.0558
 9235SOL    HW139341   0.220   2.309   2.587  0.6369 -0.5582  1.3874
 9235SOL    HW239342   0.170   2.393   2.692  0.9077  0.1074  0.2072
 9236SOL     OW39343   0.604   3.607   4.090  0.2533 -0.1406 -0.4318
 9236SOL    HW139344   0.545   3.545   4.046 -1.1961 -0.3525  1.8541
 9236SOL    HW239345   0.564   3.691   4.069  1.5194  0.1750 -1.6088
 9237SOL     OW39346   2.601   0.203   2.951 -0.2192  0.1367 -0.0437
 9237SOL    HW139347   2.597   0.147   3.028 -1.4318 -0.3522 -0.4557
 9237SOL    HW239348   2.574   0.143   2.882 -0.6671 -0.1516  0.3842
 9238SOL     OW39349   0.660   1.526  16.346  0.4795 -0.0314 -0.3204
 9238SOL    HW139350   0.740   1.547  16.299 -0.2819  0.6317 -1.3312
 9238SOL    HW239351   0.670   1.437  16.380 -0.0375  0.3700  0.9014
 9239SOL     OW39352   2.506   4.114   2.669 -0.0063  0.2923  0.0132
 9239SOL    HW139353   2.594   4.149   2.682  0.1168  0.1871 -0.5247
 9239SOL    HW239354   2.503   4.131   2.575 -1.5152  0.6495  0.1413
 9240SOL     OW39355   2.913   1.636  16.226 -0.1633 -0.0505 -0.0933
 9240SOL    HW139356   2.939   1.699  16.293 -1.4697  1.0627 -0.6272
 9240SOL    HW239357   2.936   1.553  16.268 -2.1867 -1.4964 -1.8422
 9241SOL     OW39358   2.032   3.871   9.179 -0.8325  0.2607 -0.1591
 9241SOL    HW139359   2.073   3.784   9.178 -0.7115  0.3175 -0.2110
 9241SOL    HW239360   2.106   3.932   9.182 -0.1577 -0.6534  1.8794
 9242SOL     OW39361   3.067   2.282  15.228  0.3245 -0.0173  0.3350
 9242SOL    HW139362   3.127   2.224  15.183  0.2502 -0.5287  0.8986
 9242SOL    HW239363   3.038   2.338  15.156 -3.2707  0.7109  2.3466
 9243SOL     OW39364   2.043   2.401  16.502 -0.0268  0.2004 -0.0540
 9243SOL    HW139365   2.042   2.305  16.510  0.2556  0.2021  0.0252
 9243SOL    HW239366   2.113   2.417  16.438 -0.8814  1.4858 -0.6755
 9244SOL     OW39367   2.970   3.687  12.157 -0.6743  0.0136  0.4953
 9244SOL    HW139368   2.939   3.603  12.191  0.7236 -0.9901 -0.7183
 9244SOL    HW239369   3.062   3.682  12.182 -0.7244 -1.4484  0.3971
 9245SOL     OW39370   3.679   2.929  17.229 -0.0342  0.0177  0.0343
 9245SOL    HW139371   3.646   2.878  17.303  1.2827 -0.9596 -0.0674
 9245SOL    HW239372   3.693   3.015  17.269 -1.1340 -0.8334  2.2410
 9246SOL     OW39373   1.083   2.029   5.246  0.0650 -0.7124 -0.0573
 9246SOL    HW139374   1.021   2.096   5.275  0.0877  0.3172 -2.4675
 9246SOL    HW239375   1.137   2.074   5.182 -0.5412 -0.6552 -0.5295
 9247SOL     OW39376   4.113   4.340   3.977 -0.1646 -0.0298 -0.1450
 9247SOL    HW139377   4.038   4.280   3.989  1.4383 -2.4124 -1.8957
 9247SOL    HW239378   4.179   4.283   4.016 -0.9863  0.6104  2.1932
 9248SOL     OW39379   2.127   3.367   1.929 -0.0543  0.6213  0.4962
 9248SOL    HW139380   2.094   3.457   1.931 -0.2516  0.5359  1.1548
 9248SOL    HW239381   2.213   3.393   1.898 -0.4485  1.1907 -0.1134
 9249SOL     OW39382   3.198   4.301  15.942 -0.5108 -0.2399  0.0138
 9249SOL    HW139383   3.172   4.210  15.927  3.3748 -0.9276 -2.6644
 9249SOL    HW239384   3.221   4.336  15.857  0.2232  0.8426  0.6580
 9250SOL     OW39385   1.077   1.481  15.991  0.1874 -0.4014  0.6679
 9250SOL    HW139386   1.089   1.386  15.996  1.8564 -0.2521 -0.5009
 9250SOL    HW239387   0.982   1.484  15.985  0.2506  3.0446  0.9246
 9251SOL     OW39388   0.155   1.551   4.105  0.0450 -0.0029  0.6761
 9251SOL    HW139389   0.250   1.560   4.106  0.1345 -0.8981 -0.0935
 9251SOL    HW239390   0.141   1.509   4.020 -1.7951 -1.1639  1.5434
 9252SOL     OW39391   0.673   4.077   5.662  0.0597 -0.3530 -0.3060
 9252SOL    HW139392   0.582   4.070   5.689  0.5766 -1.7536  1.0312
 9252SOL    HW239393   0.668   4.034   5.576 -1.2763 -2.5865  0.8955
 9253SOL     OW39394   2.201   2.755   4.362  0.0906 -0.5867 -0.0788
 9253SOL    HW139395   2.239   2.781   4.446 -0.8017  1.4152 -0.3019
 9253SOL    HW239396   2.110   2.765   4.391  0.4368 -0.7554  1.0903
 9254SOL     OW39397   3.920   4.710   6.805 -0.4739  0.1392  0.1351
 9254SOL    HW139398   3.938   4.652   6.879 -1.2201  1.0175  1.0109
 9254SOL    HW239399   3.860   4.656   6.754  1.5192 -0.3563 -1.6946
 9255SOL     OW39400   3.447   2.510  10.928  0.9498  1.1774  0.3148
 9255SOL    HW139401   3.371   2.520  10.871  0.1170 -1.4766  0.9394
 9255SOL    HW239402   3.419   2.566  11.001 -0.8487 -0.8908  1.1928
 9256SOL     OW39403   1.396   0.455   5.762  0.1216  0.5963  0.4499
 9256SOL    HW139404   1.346   0.391   5.812  0.8349  0.6087  1.1825
 9256SOL    HW239405   1.333   0.527   5.761  1.4826  1.7645 -0.3170
 9257SOL     OW39406   0.215   1.020   6.832  0.3498  0.0738  0.1674
 9257SOL    HW139407   0.276   1.004   6.904  0.2815 -0.2226  0.1616
 9257SOL    HW239408   0.241   1.106   6.799 -0.4322  0.8173  1.5189
 9258SOL     OW39409   1.614   0.676   4.263  0.1274  0.0595 -0.2603
 9258SOL    HW139410   1.567   0.593   4.273 -0.4501  0.2046 -1.7937
 9258SOL    HW239411   1.545   0.730   4.224 -1.1435 -0.9931  0.5147
 9259SOL     OW39412   4.695   2.603   9.025  0.4484 -0.2834  0.0823
 9259SOL    HW139413   0.011   2.531   9.054 -1.4659 -1.2066  1.4300
 9259SOL    HW239414   4.734   2.627   8.941 -2.9072 -1.9747 -1.9472
 9260SOL     OW39415   2.923   0.252  16.975  0.0075  0.7579  0.1806
 9260SOL    HW139416   2.947   0.330  16.925  1.0042  0.6346  0.4631
 9260SOL    HW239417   2.908   0.183  16.910 -1.5273  0.1086  1.1949
 9261SOL     OW39418   2.787   1.156   6.941  0.0776 -0.0670 -0.4253
 9261SOL    HW139419   2.799   1.182   7.032  0.7788 -0.3395 -0.4366
 9261SOL    HW239420   2.800   1.244   6.906 -2.3039  0.8475  1.0017
 9262SOL     OW39421   1.948   0.994   4.706 -0.2988 -0.1022  0.4474
 9262SOL    HW139422   1.991   1.075   4.732 -1.2747 -0.4400  3.1703
 9262SOL    HW239423   1.880   0.983   4.773  0.6383  3.4017  1.9468
 9263SOL     OW39424   1.321   2.651   6.782 -1.2069 -0.4913  0.3420
 9263SOL    HW139425   1.323   2.633   6.688  1.5796  1.8324 -0.0417
 9263SOL    HW239426   1.315   2.746   6.777 -0.2612 -0.3141  2.6535
 9264SOL     OW39427   4.016   3.395   4.404  0.2783  0.4003  0.0450
 9264SOL    HW139428   3.955   3.354   4.343  1.3164 -0.7168 -0.2483
 9264SOL    HW239429   3.954   3.437   4.463 -0.2448 -0.5680  0.1959
 9265SOL     OW39430   3.010   0.049   3.192 -0.1298 -0.3003 -0.2264
 9265SOL    HW139431   3.068   0.034   3.266 -0.0532  2.4886  0.2693
 9265SOL    HW239432   3.055   0.003   3.121 -0.0718  0.2460 -0.5448
 9266SOL     OW39433   1.741   1.412   4.401 -0.0290  0.0493  0.3364
 9266SOL    HW139434   1.750   1.330   4.448 -2.6996  0.5179  1.6266
 9266SOL    HW239435   1.666   1.443   4.452 -2.6335 -1.3784 -2.6721
 9267SOL     OW39436   2.389   1.172   9.809 -0.3758  0.2471  0.4007
 9267SOL    HW139437   2.397   1.268   9.809 -1.1175  0.3100  0.4062
 9267SOL    HW239438   2.319   1.158   9.873 -0.9572 -1.8000 -0.6983
 9268SOL     OW39439   2.528   4.057  15.342 -0.0229 -0.2735  0.6840
 9268SOL    HW139440   2.468   4.120  15.383  1.4772  1.6299 -0.0115
 9268SOL    HW239441   2.485   4.025  15.263  2.3595 -0.0732 -0.7137
 9269SOL     OW39442   3.678   3.325   7.677 -0.4972 -0.1970  0.1891
 9269SOL    HW139443   3.715   3.316   7.765  1.1644  1.2436 -0.3762
 9269SOL    HW239444   3.687   3.242   7.630 -1.6363  0.0314 -0.4382
 9270SOL     OW39445   1.405   3.127   3.503  0.1612 -0.3113  0.7115
 9270SOL    HW139446   1.453   3.049   3.477  0.3428  0.1894 -0.4340
 9270SOL    HW239447   1.436   3.145   3.592 -0.9078 -2.2099  1.4784
 9271SOL     OW39448   4.414   1.502  10.060  0.0953  0.1340  0.4684
 9271SOL    HW139449   4.424   1.408  10.076  1.4448 -0.0855 -1.6845
 9271SOL    HW239450   4.379   1.506   9.971  0.5109  2.1392  0.3977
 9272SOL     OW39451   3.221   1.438   0.951  0.3967  0.2496 -0.3785
 9272SOL    HW139452   3.178   1.472   0.873  1.3453 -0.9482 -1.4156
 9272SOL    HW239453   3.304   1.413   0.911 -0.1034 -0.8539 -0.7165
 9273SOL     OW39454   3.895   2.294   6.938  0.1374 -0.3507 -0.4090
 9273SOL    HW139455   3.824   2.249   6.985 -0.3601 -0.1466 -0.9614
 9273SOL    HW239456   3.846   2.297   6.855  0.1342 -2.7093 -0.4812
 9274SOL     OW39457   1.150   2.106   6.826  0.1294 -0.5486  0.7168
 9274SOL    HW139458   1.058   2.110   6.801  0.9548 -0.8719 -2.4466
 9274SOL    HW239459   1.180   2.197   6.832 -2.2862  0.3625 -1.1020
 9275SOL     OW39460   3.045   1.219   4.869  0.0983  0.2273 -0.2202
 9275SOL    HW139461   3.060   1.281   4.941  0.8492 -0.4833  0.2345
 9275SOL    HW239462   3.011   1.146   4.921  0.0610 -0.5127 -1.2800
 9276SOL     OW39463   0.009   4.734  11.873  0.4496 -0.1087 -0.1187
 9276SOL    HW139464   0.034   0.086  11.857 -0.3942 -0.2517 -2.2228
 9276SOL    HW239465   4.676   0.000  11.936  1.5348 -2.1511  1.3319
 9277SOL     OW39466   3.058   2.905   3.329 -0.2706  0.0539  0.7828
 9277SOL    HW139467   3.059   2.889   3.235  0.7198  0.2184  0.7617
 9277SOL    HW239468   3.103   2.827   3.363  0.1425 -0.3630 -0.7518
 9278SOL     OW39469   3.784   2.299   6.169 -0.0771 -0.1791  0.0868
 9278SOL    HW139470   3.840   2.222   6.173  2.4281  1.6728  0.8507
 9278SOL    HW239471   3.811   2.341   6.087 -1.7374  2.6108  0.9429
 9279SOL     OW39472   2.099   4.344   6.493 -0.5939 -0.3992 -0.0662
 9279SOL    HW139473   2.062   4.256   6.493 -1.1121 -0.1867  0.1809
 9279SOL    HW239474   2.110   4.374   6.403 -0.6839  3.4348  1.1983
 9280SOL     OW39475   3.125   2.381   5.084  0.2159 -0.2114  0.0750
 9280SOL    HW139476   3.089   2.440   5.018 -0.2470 -0.3303  0.2252
 9280SOL    HW239477   3.050   2.359   5.139  0.8825  1.2666  1.5573
 9281SOL     OW39478   2.772   2.831   9.091 -0.7301  0.9028 -0.8299
 9281SOL    HW139479   2.829   2.813   9.017 -1.5936  0.8845 -1.4938
 9281SOL    HW239480   2.776   2.927   9.089  1.0995  0.8186 -0.3720
 9282SOL     OW39481   1.899   4.038   1.324 -0.0750  0.1358 -0.0083
 9282SOL    HW139482   1.953   3.964   1.352  0.2937 -0.4564 -2.2495
 9282SOL    HW239483   1.826   3.987   1.289 -1.1237  0.7231  1.3625
 9283SOL     OW39484   0.909   0.189  13.988  0.1079  0.0557  0.2862
 9283SOL    HW139485   0.900   0.236  14.071 -0.4904  2.4070 -1.1261
 9283SOL    HW239486   0.824   0.205  13.947 -1.0290 -1.0185  2.2159
 9284SOL     OW39487   2.959   3.164   9.189  0.0674  0.0034  0.5978
 9284SOL    HW139488   2.971   3.070   9.202 -2.5931 -0.5504 -1.0034
 9284SOL    HW239489   2.934   3.165   9.097  0.3217  0.2511  0.5306
 9285SOL     OW39490   3.363   2.445   7.519 -0.5715 -0.4122 -0.1867
 9285SOL    HW139491   3.443   2.442   7.467  0.4199  2.0726  1.1684
 9285SOL    HW239492   3.390   2.500   7.593 -0.3356 -0.1147 -0.4927
 9286SOL     OW39493   3.017   3.981   7.906  0.2979 -0.1215  0.1715
 9286SOL    HW139494   3.060   4.062   7.934  0.4201 -0.1855  0.1718
 9286SOL    HW239495   2.953   4.005   7.839 -1.0240 -1.2625  1.0469
 9287SOL     OW39496   2.318   3.206   0.248  0.3405 -0.6324  0.0059
 9287SOL    HW139497   2.232   3.248   0.242  1.6937  2.3885  1.2805
 9287SOL    HW239498   2.352   3.240   0.165  0.1733 -1.9860 -0.6097
 9288SOL     OW39499   3.286   1.061  12.011 -0.2203 -0.0183 -0.4564
 9288SOL    HW139500   3.204   1.087  11.970 -0.0170  0.1184 -0.7738
 9288SOL    HW239501   3.329   1.005  11.946  0.7000 -0.7763  0.7849
 9289SOL     OW39502   2.437   2.238   3.428 -0.2402  0.0098  0.0679
 9289SOL    HW139503   2.380   2.212   3.500 -1.6607 -1.8633 -1.7386
 9289SOL    HW239504   2.520   2.217   3.471 -0.5914 -0.6896  0.4131
 9290SOL     OW39505   4.137   2.324  17.445  0.3377  0.0809 -0.0091
 9290SOL    HW139506   4.221   2.289  17.475  0.9351  0.9608 -0.6766
 9290SOL    HW239507   4.105   2.360  17.528  0.5997 -1.5045  0.7933
 9291SOL     OW39508   0.737   1.225   2.534 -0.3669  0.3933  0.3088
 9291SOL    HW139509   0.676   1.157   2.562 -0.0585 -0.8407 -2.0199
 9291SOL    HW239510   0.747   1.227   2.439 -1.1560  1.6652  0.2506
 9292SOL     OW39511   1.676   2.585   3.847 -0.4377  0.6192  0.0854
 9292SOL    HW139512   1.721   2.517   3.896  0.5925 -1.2644 -3.4776
 9292SOL    HW239513   1.621   2.627   3.913 -1.0861 -1.1228  0.6552
 9293SOL     OW39514   2.209   4.020   7.331  0.2509  0.4767  0.0311
 9293SOL    HW139515   2.274   4.059   7.273  0.2638 -1.5504 -1.3204
 9293SOL    HW239516   2.251   4.008   7.417 -0.2508  2.2281  0.5273
 9294SOL     OW39517   2.094   2.892   1.173  0.3808  0.3107 -0.0934
 9294SOL    HW139518   2.113   2.985   1.162  1.2707  0.3966  2.0684
 9294SOL    HW239519   2.111   2.857   1.086 -0.2855 -0.8265  0.2232
 9295SOL     OW39520   2.034   4.605  15.281 -0.0783  0.4415  0.0314
 9295SOL    HW139521   2.073   4.675  15.229 -2.1571  1.6362  0.0632
 9295SOL    HW239522   2.014   4.655  15.359 -1.6664 -0.5751  0.2782
 9296SOL     OW39523   2.717   1.044   4.186  0.1116 -0.0152  0.3051
 9296SOL    HW139524   2.746   1.013   4.100  0.8202  1.2016  0.1169
 9296SOL    HW239525   2.635   1.087   4.164  1.1612  2.2884  0.8617
 9297SOL     OW39526   1.684   3.629   8.819  0.3966 -0.2081  0.7603
 9297SOL    HW139527   1.597   3.662   8.843  0.5580 -1.5547  3.2846
 9297SOL    HW239528   1.652   3.596   8.735  0.2785 -0.5090  0.9230
 9298SOL     OW39529   3.308   0.679  15.684  0.0660  0.0570  0.1771
 9298SOL    HW139530   3.274   0.699  15.771  0.5656  0.7653  0.2110
 9298SOL    HW239531   3.396   0.711  15.704 -0.3991  0.2401  1.9401
 9299SOL     OW39532   3.475   1.690   3.053  0.3151 -0.4644  0.0320
 9299SOL    HW139533   3.414   1.619   3.073 -0.2882 -0.1495 -0.6920
 9299SOL    HW239534   3.526   1.660   2.978  2.4889 -0.1797  1.3819
 9300SOL     OW39535   2.372   1.092   4.938  0.2014 -0.1610 -0.8857
 9300SOL    HW139536   2.296   1.039   4.961  0.1769  0.5179  0.6139
 9300SOL    HW239537   2.437   1.022   4.948 -1.4370 -1.4666  0.5924
 9301SOL     OW39538   3.304   4.263   3.952 -0.0120 -0.4434  0.0182
 9301SOL    HW139539   3.374   4.289   3.891 -0.4903  1.3125  0.2233
 9301SOL    HW239540   3.317   4.317   4.030  0.6020 -0.3266 -0.1616
 9302SOL     OW39541   0.715   4.653  10.030 -0.0793  0.3323 -0.3562
 9302SOL    HW139542   0.671   4.631   9.948 -2.1397 -0.3737  0.9129
 9302SOL    HW239543   0.788   4.707  10.000  0.6584 -0.6927 -0.4139
 9303SOL     OW39544   3.408   1.214   2.918 -0.1933 -0.0704 -0.4959
 9303SOL    HW139545   3.503   1.204   2.922 -0.1507 -0.3456 -2.4479
 9303SOL    HW239546   3.384   1.229   2.827  0.0215 -0.3804 -0.6042
 9304SOL     OW39547   3.719   0.138   8.049  0.1820  0.3527  0.1545
 9304SOL    HW139548   3.804   0.144   8.004  0.0267 -0.2792 -0.2215
 9304SOL    HW239549   3.657   0.116   7.980  0.6946  0.3027 -0.2913
 9305SOL     OW39550   3.141   4.321   0.061 -0.5853  0.1537 -0.0659
 9305SOL    HW139551   3.206   4.262   0.098 -2.0708  1.2834  4.3764
 9305SOL    HW239552   3.176   4.327  17.727 -1.1542  0.9420 -0.2412
 9306SOL     OW39553   4.454   4.417   3.024 -0.9852 -0.5546  0.2755
 9306SOL    HW139554   4.533   4.418   3.078 -0.7635 -0.8633 -0.0485
 9306SOL    HW239555   4.387   4.429   3.091 -0.8752  0.5189  0.2026
 9307SOL     OW39556   0.187   1.294   1.219 -0.4645 -0.1177 -0.2152
 9307SOL    HW139557   0.124   1.335   1.279  0.8707  0.7049  0.6218
 9307SOL    HW239558   0.244   1.364   1.187 -1.5233  1.3010  0.9919
 9308SOL     OW39559   1.833   4.562   8.309  0.2198  0.1446 -0.0258
 9308SOL    HW139560   1.785   4.619   8.368  0.2637  0.9152 -0.7403
 9308SOL    HW239561   1.918   4.605   8.308  1.1934 -1.7151  2.3766
 9309SOL     OW39562   2.001   2.825   3.331  0.0367  0.1484 -0.3762
 9309SOL    HW139563   2.084   2.795   3.296  0.4245  1.5762 -0.6698
 9309SOL    HW239564   2.022   2.914   3.360 -0.5532  0.1686 -0.0133
 9310SOL     OW39565   1.208   2.311  17.513  0.2418 -0.1695 -0.2717
 9310SOL    HW139566   1.263   2.237  17.485 -0.9246 -0.6007 -1.4100
 9310SOL    HW239567   1.201   2.280  17.603  0.7423  0.3444 -0.0552
 9311SOL     OW39568   2.283   3.450   6.012 -0.1043  0.0410 -0.0883
 9311SOL    HW139569   2.304   3.540   5.988 -0.3115 -0.0577 -0.6399
 9311SOL    HW239570   2.337   3.441   6.090  2.3719  1.9618 -1.5989
 9312SOL     OW39571   3.343   0.491   2.008  0.1483 -0.1367 -1.1409
 9312SOL    HW139572   3.287   0.496   1.931 -1.4442  1.8813  0.1478
 9312SOL    HW239573   3.429   0.487   1.967  0.0579  0.8651 -1.4240
 9313SOL     OW39574   2.357   0.223   7.620 -0.2222  0.0254  0.3759
 9313SOL    HW139575   2.434   0.192   7.668 -1.4386 -3.1663  0.2930
 9313SOL    HW239576   2.387   0.310   7.596 -0.0980 -0.2299 -0.3904
 9314SOL     OW39577   4.029   0.493   7.122  0.2653 -0.1565 -0.1255
 9314SOL    HW139578   4.073   0.459   7.200 -2.5587 -0.4777  1.3264
 9314SOL    HW239579   3.977   0.564   7.161 -0.1547  0.1854 -1.3198
 9315SOL     OW39580   0.360   2.439  10.151  0.0872 -0.2110 -0.1707
 9315SOL    HW139581   0.398   2.502  10.090  0.1946  0.0161  0.1309
 9315SOL    HW239582   0.278   2.419  10.106  0.1294  0.1487 -0.4079
 9316SOL     OW39583   3.706   3.155   7.269  0.3494  0.1569  0.0558
 9316SOL    HW139584   3.721   3.065   7.241  0.1653  0.3906 -0.7816
 9316SOL    HW239585   3.701   3.184   7.178 -0.9737 -0.6007 -0.1209
 9317SOL     OW39586   2.955   0.168  15.460 -0.1384 -0.2997  0.3843
 9317SOL    HW139587   2.884   0.193  15.519 -0.8716 -0.2641 -0.5171
 9317SOL    HW239588   2.908   0.102  15.408 -0.9849  0.4725  0.1567
 9318SOL     OW39589   3.601   4.045  14.418  0.6619  0.1452  0.0620
 9318SOL    HW139590   3.579   3.981  14.350  0.0493 -0.1765  0.5585
 9318SOL    HW239591   3.553   4.005  14.491 -0.3314  1.8568  0.3464
 9319SOL     OW39592   0.880   1.606   5.155 -0.3646  0.2389 -0.2835
 9319SOL    HW139593   0.927   1.648   5.083  1.0457  0.9074  1.0423
 9319SOL    HW239594   0.817   1.678   5.164 -1.0058 -0.6344  2.2332
 9320SOL     OW39595   4.718   1.201  11.091  0.4661 -0.0195  0.0313
 9320SOL    HW139596   4.702   1.291  11.064 -2.3468 -0.8010 -0.9388
 9320SOL    HW239597   0.068   1.190  11.058  1.3924 -2.7125  3.4009
 9321SOL     OW39598   3.913   1.370   9.146 -0.2382  0.2043  0.0942
 9321SOL    HW139599   3.983   1.368   9.081  0.1682 -0.1098  0.5427
 9321SOL    HW239600   3.855   1.303   9.109  1.7379 -2.0752  1.1535
 9322SOL     OW39601   0.642   0.641   2.295 -0.0393  0.5064 -0.1194
 9322SOL    HW139602   0.609   0.558   2.259  1.6479  0.1196 -0.7897
 9322SOL    HW239603   0.703   0.669   2.227 -0.8931  3.8460  0.4932
 9323SOL     OW39604   4.210   3.964   5.755  0.2224 -0.0988  0.9108
 9323SOL    HW139605   4.285   4.023   5.744  0.6758 -0.8442  0.0641
 9323SOL    HW239606   4.149   4.037   5.770 -0.0038 -0.5039  1.9752
 9324SOL     OW39607   0.935   2.321   7.720 -0.5267 -0.2410 -0.1481
 9324SOL    HW139608   0.931   2.332   7.625  1.1567  2.2124  0.0600
 9324SOL    HW239609   0.891   2.237   7.729  1.8073 -1.4613 -0.3399
 9325SOL     OW39610   0.713   1.875   1.558 -0.6653  0.0658 -0.1019
 9325SOL    HW139611   0.660   1.942   1.514 -0.9567 -0.5553 -0.6915
 9325SOL    HW239612   0.688   1.914   1.642 -1.2414 -2.1556  0.7428
 9326SOL     OW39613   1.506   4.576  13.273 -0.0487  0.5220  0.2478
 9326SOL    HW139614   1.539   4.618  13.353  1.5571  1.3462 -0.8410
 9326SOL    HW239615   1.513   4.653  13.216 -0.9192  0.0911 -0.4328
 9327SOL     OW39616   2.255   3.142   2.576 -0.0408  0.2233 -0.1844
 9327SOL    HW139617   2.207   3.163   2.656 -1.5932  1.3471 -1.3915
 9327SOL    HW239618   2.286   3.053   2.592  0.3414  0.1360 -1.4238
 9328SOL     OW39619   0.200   3.453   8.238  0.5666  0.0325 -0.2692
 9328SOL    HW139620   0.185   3.409   8.155 -1.8296 -1.5293  0.9802
 9328SOL    HW239621   0.295   3.444   8.244  0.4901  1.0354  2.2916
 9329SOL     OW39622   0.708   1.585   8.225 -0.0463  0.2604  0.6015
 9329SOL    HW139623   0.685   1.505   8.178  1.2621 -0.4816  1.2350
 9329SOL    HW239624   0.657   1.569   8.304 -0.0945 -0.6185  0.3913
 9330SOL     OW39625   1.335   4.240   4.499  0.6022  0.6817  0.5696
 9330SOL    HW139626   1.314   4.180   4.427  4.0782  0.1556  0.0120
 9330SOL    HW239627   1.372   4.313   4.449 -2.1734  2.0248  0.4524
 9331SOL     OW39628   2.011   4.266   3.731 -0.4650  0.1382 -0.5537
 9331SOL    HW139629   1.945   4.319   3.775 -0.4584  0.4627 -0.9374
 9331SOL    HW239630   2.094   4.296   3.769 -0.6054 -1.2948  0.9115
 9332SOL     OW39631   4.015   4.216   6.098  0.1856 -0.2370 -0.1813
 9332SOL    HW139632   3.949   4.260   6.043  0.1421  1.0921  0.9378
 9332SOL    HW239633   4.001   4.268   6.177 -1.1088  1.3283 -1.4264
 9333SOL     OW39634   1.633   0.559   5.657  0.0658 -0.1479  0.0293
 9333SOL    HW139635   1.562   0.535   5.716  1.0799  1.2461  1.8252
 9333SOL    HW239636   1.580   0.625   5.611 -0.2260 -0.8268 -0.6053
 9334SOL     OW39637   0.265   3.933   3.034  0.0043  0.2224  0.2872
 9334SOL    HW139638   0.246   3.839   3.033 -1.8205  0.5916 -0.1743
 9334SOL    HW239639   0.180   3.968   3.061 -0.4260 -2.0225  1.8863
 9335SOL     OW39640   0.528   3.000   7.997  0.5641  0.8645  0.1691
 9335SOL    HW139641   0.445   2.992   7.949  0.4043  1.7738  0.2882
 9335SOL    HW239642   0.523   2.918   8.046 -0.2930 -0.1809 -1.6902
 9336SOL     OW39643   2.538   1.303   1.783  0.0856  0.0932 -0.2141
 9336SOL    HW139644   2.597   1.356   1.730  0.3021  0.1415  0.0737
 9336SOL    HW239645   2.600   1.295   1.856  1.4379 -0.5951 -1.4547
 9337SOL     OW39646   0.486   2.933   1.818 -0.0050  0.2912 -0.0702
 9337SOL    HW139647   0.482   2.998   1.888  0.6255  1.6916 -1.3435
 9337SOL    HW239648   0.402   2.956   1.779  0.2710 -0.8388 -1.3542
 9338SOL     OW39649   4.262   3.773   3.846  0.0349  0.1175  0.2773
 9338SOL    HW139650   4.209   3.704   3.887 -0.4147  1.1314  1.3911
 9338SOL    HW239651   4.207   3.850   3.862  1.2359  1.2878 -1.2626
 9339SOL     OW39652   1.555   1.259   5.018  0.2516  0.3401 -0.0661
 9339SOL    HW139653   1.481   1.259   4.957 -0.3929 -0.5055  0.7042
 9339SOL    HW239654   1.527   1.204   5.092  1.0097 -0.1063 -0.1174
 9340SOL     OW39655   0.850   0.982   6.074  0.0722 -0.6006 -0.0036
 9340SOL    HW139656   0.875   0.919   6.142  1.8008 -0.2395 -0.3150
 9340SOL    HW239657   0.758   0.999   6.097  0.4928  0.5758  0.7924
 9341SOL     OW39658   2.326   1.396  17.458  0.2713  0.4815 -0.4787
 9341SOL    HW139659   2.237   1.418  17.484  0.0362  0.1463 -1.0126
 9341SOL    HW239660   2.350   1.334  17.528 -2.6490 -1.8209 -1.5149
 9342SOL     OW39661   0.111   0.293  16.165 -0.6235  0.4457 -0.5240
 9342SOL    HW139662   0.186   0.298  16.224  0.3263 -1.1320 -1.5659
 9342SOL    HW239663   0.153   0.291  16.079 -0.4388 -1.0878 -0.3971
 9343SOL     OW39664   2.371   2.657  15.451  0.1788  0.3496 -0.3550
 9343SOL    HW139665   2.458   2.678  15.486  0.0756  2.1179 -1.1832
 9343SOL    HW239666   2.375   2.562  15.460  2.3280  0.6808  2.0699
 9344SOL     OW39667   3.641   3.450  11.710  0.5747  0.1939 -0.4675
 9344SOL    HW139668   3.666   3.455  11.802  1.0537  3.1322 -0.7747
 9344SOL    HW239669   3.716   3.403  11.674  2.0249  2.0404  0.1970
 9345SOL     OW39670   0.186   2.522  17.116  0.1877 -0.3525 -0.4182
 9345SOL    HW139671   0.236   2.444  17.139  0.8121  0.0416 -0.4523
 9345SOL    HW239672   0.246   2.575  17.168  1.3360 -0.6610 -1.4498
 9346SOL     OW39673   0.374   4.129   6.040  0.4657  0.2634 -0.1182
 9346SOL    HW139674   0.285   4.113   6.073  0.1770  1.8461 -0.1244
 9346SOL    HW239675   0.424   4.116   6.121 -1.1581 -1.4716  0.5987
 9347SOL     OW39676   0.914   1.362   8.130  0.6190 -0.0518 -0.6237
 9347SOL    HW139677   0.943   1.436   8.184 -0.7003 -0.8201  1.1240
 9347SOL    HW239678   0.885   1.298   8.196 -1.7034  1.0176 -0.5933
 9348SOL     OW39679   2.277   0.506   8.679 -0.0231  0.7242  0.3055
 9348SOL    HW139680   2.345   0.486   8.743 -2.0446  0.3675  2.3342
 9348SOL    HW239681   2.207   0.546   8.730 -0.6080  0.5676 -0.3717
 9349SOL     OW39682   4.360   0.997   1.506  0.4016  0.2057  0.4164
 9349SOL    HW139683   4.381   0.949   1.586  2.7747 -0.3503 -0.5497
 9349SOL    HW239684   4.296   1.066   1.526  2.8608  3.0526 -1.6276
 9350SOL     OW39685   3.673   3.088  14.879  0.2305  0.7239  0.0407
 9350SOL    HW139686   3.610   3.139  14.929  2.7838  2.3519  1.6450
 9350SOL    HW239687   3.740   3.084  14.947  0.1138  0.8163  0.1605
 9351SOL     OW39688   1.884   0.976  14.608 -0.5622  0.1020 -0.1233
 9351SOL    HW139689   1.962   1.030  14.596  0.7650 -1.8152 -0.0710
 9351SOL    HW239690   1.896   0.939  14.695  4.1941  1.7698 -0.0429
 9352SOL     OW39691   4.273   2.120   4.951  0.3683  0.1660  0.1404
 9352SOL    HW139692   4.216   2.099   5.025 -0.1724  3.8054  0.7234
 9352SOL    HW239693   4.358   2.154   4.981  2.2242 -3.1476 -1.2854
 9353SOL     OW39694   1.542   4.092   6.715 -0.0058  0.2333  0.0476
 9353SOL    HW139695   1.572   4.119   6.801  0.0477  2.6584 -0.7189
 9353SOL    HW239696   1.456   4.060   6.742  0.1433 -0.2410 -0.0341
 9354SOL     OW39697   0.752   4.063   4.067  0.4173 -0.0631 -0.1436
 9354SOL    HW139698   0.720   3.973   4.063  0.7528 -0.1586 -0.6472
 9354SOL    HW239699   0.718   4.090   4.152  1.2066  1.7103 -0.4058
 9355SOL     OW39700   1.748   3.661  15.775  0.0501 -0.5820 -0.3260
 9355SOL    HW139701   1.683   3.601  15.739 -1.2216 -1.5703  3.5650
 9355SOL    HW239702   1.705   3.741  15.745 -0.8185 -1.5753 -1.7057
 9356SOL     OW39703   4.071   2.131  17.130  0.1181 -0.3527 -0.3880
 9356SOL    HW139704   4.164   2.116  17.143  0.1818  1.4322  1.2967
 9356SOL    HW239705   4.062   2.227  17.129  1.5778 -0.2426 -1.7054
 9357SOL     OW39706   1.483   2.455   7.347  0.1309 -0.1971 -0.4622
 9357SOL    HW139707   1.447   2.369   7.327  0.0012 -0.6357  1.6273
 9357SOL    HW239708   1.401   2.498   7.370  0.8809  0.9183  0.1141
 9358SOL     OW39709   0.338   0.834  16.345 -0.2149 -0.6146  0.2419
 9358SOL    HW139710   0.257   0.784  16.332 -0.6363 -0.4539  2.2688
 9358SOL    HW239711   0.396   0.795  16.279  0.7330  0.5906  0.3602
 9359SOL     OW39712   2.483   0.047  11.726  0.1872  0.4389 -0.0313
 9359SOL    HW139713   2.410   0.037  11.788  0.1684 -1.2506 -0.3216
 9359SOL    HW239714   2.481   0.143  11.726 -1.4938  0.4188 -0.8751
 9360SOL     OW39715   1.619   3.746   5.288  0.6468 -0.3295  0.2896
 9360SOL    HW139716   1.709   3.779   5.297 -0.1632  2.9012 -3.6208
 9360SOL    HW239717   1.647   3.670   5.235 -0.5375  0.0216 -0.8183
 9361SOL     OW39718   0.856   3.515   7.300 -0.2015 -0.6835  0.1150
 9361SOL    HW139719   0.870   3.528   7.206  1.3992  0.1386  0.4631
 9361SOL    HW239720   0.924   3.449   7.314  0.6116  0.5608  2.0772
 9362SOL     OW39721   2.152   2.221   5.606  0.4049  0.1026  0.0804
 9362SOL    HW139722   2.181   2.135   5.637 -1.7615 -1.0496 -1.0090
 9362SOL    HW239723   2.220   2.239   5.542  1.8811  1.3732  2.0258
 9363SOL     OW39724   2.909   1.675  11.729  0.8556  0.5847  0.0122
 9363SOL    HW139725   2.971   1.662  11.658  0.4548  0.7542 -0.3679
 9363SOL    HW239726   2.830   1.674  11.674  0.9183  0.3339 -0.0723
 9364SOL     OW39727   1.707   4.716  17.124 -0.4169  0.1074 -0.2067
 9364SOL    HW139728   1.722   4.650  17.056 -2.7993 -0.6316 -0.0013
 9364SOL    HW239729   1.687   0.051  17.067  0.0200 -0.3685 -0.9838
 9365SOL     OW39730   3.404   3.817  10.676 -0.2107 -0.6483  0.0022
 9365SOL    HW139731   3.422   3.810  10.582 -2.8059 -2.1683 -0.3756
 9365SOL    HW239732   3.489   3.791  10.711 -0.0537 -0.9399 -0.5911
 9366SOL     OW39733   1.532   3.894   3.506  0.1059  0.3969  0.1333
 9366SOL    HW139734   1.560   3.822   3.449  1.7280  0.1377  1.2269
 9366SOL    HW239735   1.453   3.856   3.545 -1.1412  1.1008 -1.7580
 9367SOL     OW39736   0.701   3.228   7.335  0.2096  0.2103  0.1601
 9367SOL    HW139737   0.788   3.196   7.361  0.1302  0.5246  0.7928
 9367SOL    HW239738   0.714   3.320   7.313 -0.0174  0.0744 -0.5551
 9368SOL     OW39739   0.418   4.603  17.490 -0.6843 -0.4264 -0.3481
 9368SOL    HW139740   0.504   4.566  17.472  0.6008  1.4059  2.0183
 9368SOL    HW239741   0.427   4.697  17.472 -0.6682 -0.7074 -1.7947
 9369SOL     OW39742   3.391   4.022   3.026  0.2735 -0.4034  0.8018
 9369SOL    HW139743   3.327   3.958   2.995 -0.3449  0.8492 -0.4997
 9369SOL    HW239744   3.448   4.022   2.950 -1.6206 -0.8090 -0.6230
 9370SOL     OW39745   2.362   4.614   5.474  0.2857  0.5545 -0.0095
 9370SOL    HW139746   2.369   4.616   5.569 -1.1243 -1.6869  0.1285
 9370SOL    HW239747   2.452   4.612   5.441  0.1904  1.0023 -0.2962
 9371SOL     OW39748   2.538   2.859   2.139 -0.8956  0.2369 -0.4947
 9371SOL    HW139749   2.581   2.774   2.153 -0.2599  0.6367 -0.0024
 9371SOL    HW239750   2.476   2.841   2.069 -0.6749 -2.5827  0.0428
 9372SOL     OW39751   1.912   0.703   0.250 -0.4689  0.9549  0.3319
 9372SOL    HW139752   1.923   0.661   0.165  1.0406 -0.6669  1.3371
 9372SOL    HW239753   2.002   0.725   0.275 -0.7425  1.8692  0.5365
 9373SOL     OW39754   4.416   1.481   1.815  0.8338 -0.3880  0.5725
 9373SOL    HW139755   4.394   1.419   1.746 -3.0973  0.5424  0.9914
 9373SOL    HW239756   4.336   1.534   1.810 -0.6298 -2.7474 -0.9450
 9374SOL     OW39757   2.165   0.296   5.374 -0.3709  0.0357  0.3216
 9374SOL    HW139758   2.239   0.294   5.434 -1.2259 -0.7384  1.3447
 9374SOL    HW239759   2.127   0.213   5.401 -0.0030  1.1889  4.3307
 9375SOL     OW39760   1.392   3.736   5.150 -0.0162  0.1886  0.1984
 9375SOL    HW139761   1.475   3.735   5.199  1.0090 -2.2889 -1.5833
 9375SOL    HW239762   1.410   3.816   5.101 -1.8404  1.6968  1.9825
 9376SOL     OW39763   4.416   3.670   3.312 -0.2459  0.2880  0.5740
 9376SOL    HW139764   4.457   3.600   3.363  0.7422 -0.0455 -0.6739
 9376SOL    HW239765   4.418   3.738   3.379  1.2276 -0.5861  1.4048
 9377SOL     OW39766   0.172   1.385  10.811 -0.0391 -0.1790 -0.1704
 9377SOL    HW139767   0.235   1.443  10.853 -0.3002 -0.6876  0.9065
 9377SOL    HW239768   0.092   1.404  10.859  0.6286  0.0285  0.8641
 9378SOL     OW39769   1.001   4.238   2.385  0.5348  0.2932 -0.2515
 9378SOL    HW139770   1.076   4.265   2.438  0.3388  1.7068 -0.6946
 9378SOL    HW239771   1.008   4.278   2.298 -1.0383 -0.6665 -0.8196
 9379SOL     OW39772   3.603   3.686   1.709 -0.2315  0.7617 -0.3511
 9379SOL    HW139773   3.611   3.771   1.665  1.5148  0.9394  0.3144
 9379SOL    HW239774   3.535   3.710   1.773  1.3650 -2.7458  2.6396
 9380SOL     OW39775   0.535   3.535  13.746  0.2737  0.0574 -0.7034
 9380SOL    HW139776   0.496   3.609  13.700 -0.9367  0.5419  1.1199
 9380SOL    HW239777   0.591   3.501  13.676  0.2237 -1.0838 -0.1911
 9381SOL     OW39778   1.357   3.981   7.121  0.0336 -0.8606  0.0349
 9381SOL    HW139779   1.294   3.984   7.194  1.5476  2.6041  1.1915
 9381SOL    HW239780   1.422   4.043   7.153  0.1604 -1.3684  0.7605
 9382SOL     OW39781   1.915   2.260   9.048  0.5317  0.1590 -0.5086
 9382SOL    HW139782   1.968   2.186   9.078 -0.4050  0.6960  2.4603
 9382SOL    HW239783   1.911   2.239   8.955 -0.8830  1.4187 -0.7406
 9383SOL     OW39784   3.426   1.521   1.702 -0.0284 -0.3087  0.9088
 9383SOL    HW139785   3.452   1.466   1.776  0.5372  0.6120  1.4048
 9383SOL    HW239786   3.345   1.475   1.685 -0.2974  0.3010  0.5323
 9384SOL     OW39787   2.721   0.746   5.773 -0.0829  0.1801 -0.2179
 9384SOL    HW139788   2.776   0.692   5.716 -0.2577  1.7158 -1.8686
 9384SOL    HW239789   2.651   0.767   5.711 -0.3022  1.3287  0.4294
 9385SOL     OW39790   0.222   0.706   7.110  0.4440 -0.0099  0.1050
 9385SOL    HW139791   0.169   0.683   7.186 -0.2935  2.1755  0.2480
 9385SOL    HW239792   0.151   0.744   7.058  1.1860 -0.5816 -1.3346
 9386SOL     OW39793   2.103   0.027   5.451 -0.1807 -0.6969 -0.9664
 9386SOL    HW139794   2.190   4.727   5.458  0.7761  1.6331  0.2819
 9386SOL    HW239795   2.060   4.739   5.532  0.5145  0.3536 -0.2402
 9387SOL     OW39796   3.308   3.071   5.505 -0.0181 -0.1837 -0.3153
 9387SOL    HW139797   3.373   3.068   5.435 -1.6350  1.2448 -1.8729
 9387SOL    HW239798   3.340   3.152   5.547  1.3218 -0.8479 -0.0570
 9388SOL     OW39799   2.638   3.875   3.214 -0.5005 -0.2753 -0.0770
 9388SOL    HW139800   2.673   3.936   3.149 -1.3289  1.8489  1.4486
 9388SOL    HW239801   2.657   3.918   3.298  0.7823  0.0081 -0.5167
 9389SOL     OW39802   1.871   2.400   6.612  0.1806 -0.6179  0.1799
 9389SOL    HW139803   1.867   2.481   6.663 -0.2799 -0.3891 -0.2202
 9389SOL    HW239804   1.880   2.426   6.520  1.1206 -0.3850  0.3368
 9390SOL     OW39805   1.553   0.292  15.057 -0.0431  0.4719 -0.1932
 9390SOL    HW139806   1.649   0.292  15.068  0.1219  0.9788 -1.6622
 9390SOL    HW239807   1.520   0.322  15.141 -1.0822  0.1677 -0.4944
 9391SOL     OW39808   1.082   3.205   5.245  0.1229 -0.0853 -0.3001
 9391SOL    HW139809   1.047   3.189   5.157 -0.7323 -1.7151  0.3442
 9391SOL    HW239810   1.059   3.298   5.248 -3.1251 -0.8161 -2.4896
 9392SOL     OW39811   2.556   2.453   2.666  0.2508  0.4956 -0.1685
 9392SOL    HW139812   2.550   2.359   2.649 -1.1118  0.6498 -0.5441
 9392SOL    HW239813   2.647   2.472   2.687 -0.0440  0.4000  1.1553
 9393SOL     OW39814   3.054   2.121   5.425  0.0948 -0.2649  0.1845
 9393SOL    HW139815   3.027   2.061   5.355  0.7782  0.1961 -0.4704
 9393SOL    HW239816   3.022   2.203   5.388  0.3037  0.0167  0.6421
 9394SOL     OW39817   2.504   2.598   7.068  0.0540  0.1278  0.6057
 9394SOL    HW139818   2.539   2.610   6.980  0.3543  0.0967  0.7208
 9394SOL    HW239819   2.450   2.676   7.083  1.9793  1.6944 -0.7124
 9395SOL     OW39820   3.875   3.370   7.867  0.5273 -0.8540  0.2294
 9395SOL    HW139821   3.832   3.366   7.952 -0.5336 -0.7597 -0.2964
 9395SOL    HW239822   3.940   3.301   7.876 -0.4459 -1.5995  1.5354
 9396SOL     OW39823   3.396   3.093   8.599  0.4512 -0.3005 -0.0075
 9396SOL    HW139824   3.466   3.128   8.544 -0.4900 -0.1858 -1.1313
 9396SOL    HW239825   3.413   3.134   8.684  0.2680 -0.1801 -0.0295
 9397SOL     OW39826   0.994   2.367   5.868 -0.2435  0.3951  0.5323
 9397SOL    HW139827   1.032   2.301   5.810  0.3563 -1.4024  3.0141
 9397SOL    HW239828   0.902   2.347   5.850 -0.1486  2.8550 -2.7001
 9398SOL     OW39829   2.601   4.254   8.657  0.0401 -0.0902  0.0427
 9398SOL    HW139830   2.520   4.301   8.677  0.5744  1.0797 -0.5134
 9398SOL    HW239831   2.559   4.187   8.604 -1.7401  2.1548 -1.4138
 9399SOL     OW39832   3.288   0.117   9.410 -0.0809  0.3229  0.2029
 9399SOL    HW139833   3.342   0.133   9.332 -0.3910 -0.3205 -0.1439
 9399SOL    HW239834   3.209   0.074   9.377 -0.0126  1.1204 -0.9884
 9400SOL     OW39835   3.880   3.583   4.149  0.1196 -0.1959  0.3763
 9400SOL    HW139836   3.910   3.523   4.217 -2.4900  0.2396  1.9104
 9400SOL    HW239837   3.790   3.597   4.179 -0.0067  2.7773 -1.3939
 9401SOL     OW39838   3.771   4.112  15.620  0.0993 -0.0166  0.0518
 9401SOL    HW139839   3.700   4.159  15.575 -0.6606 -1.5977 -0.3982
 9401SOL    HW239840   3.817   4.194  15.637 -0.8046  0.7610 -1.2258
 9402SOL     OW39841   0.719   1.751   3.139  0.3672  0.2926  0.0792
 9402SOL    HW139842   0.807   1.790   3.144 -0.2542  1.6218  0.7144
 9402SOL    HW239843   0.701   1.774   3.048  0.4627 -1.1709 -0.2961
 9403SOL     OW39844   2.549   1.804  11.094  0.2791  0.2560 -0.1439
 9403SOL    HW139845   2.563   1.826  11.186  1.3826 -0.3112 -0.1747
 9403SOL    HW239846   2.457   1.778  11.096 -0.0231  1.2759 -1.9560
 9404SOL     OW39847   1.378   1.799  12.474  0.2528 -0.0018  0.1873
 9404SOL    HW139848   1.334   1.726  12.517 -1.3222  0.3366 -0.8320
 9404SOL    HW239849   1.465   1.785  12.511  0.1981  1.1220  0.7596
 9405SOL     OW39850   2.196   0.665  10.659 -0.5901 -0.7667  0.2732
 9405SOL    HW139851   2.267   0.646  10.721 -0.4235 -2.7475 -0.5358
 9405SOL    HW239852   2.221   0.753  10.630 -0.5475 -1.7274 -2.6187
 9406SOL     OW39853   1.587   2.914   7.134  0.1582  0.0217 -0.1923
 9406SOL    HW139854   1.646   2.841   7.151  0.6538  0.5473  0.3811
 9406SOL    HW239855   1.563   2.937   7.224 -3.2905 -0.3642 -0.9998
 9407SOL     OW39856   2.133   1.385   6.536 -0.4581  0.0422 -0.0478
 9407SOL    HW139857   2.229   1.378   6.538 -0.3080  1.7004 -1.4741
 9407SOL    HW239858   2.115   1.466   6.583 -0.1105 -0.2604  0.6059
 9408SOL     OW39859   0.815   3.140   3.778  0.0712  0.5297  0.0776
 9408SOL    HW139860   0.902   3.132   3.738  0.1615 -1.4417  0.6683
 9408SOL    HW239861   0.794   3.220   3.729 -0.0150  0.9917  0.8661
 9409SOL     OW39862   2.622   1.420   0.004 -0.8003  0.1901 -0.1289
 9409SOL    HW139863   2.596   1.489  17.698 -0.4737  1.8143  1.5656
 9409SOL    HW239864   2.546   1.365  17.740  0.5470 -0.7939 -2.6749
 9410SOL     OW39865   0.977   0.271   8.006 -0.1718  0.1262 -0.3215
 9410SOL    HW139866   1.069   0.274   8.031 -0.1774  1.0652 -0.4276
 9410SOL    HW239867   0.923   0.253   8.083  1.5695 -0.1464  0.8416
 9411SOL     OW39868   2.038   0.944   8.146 -0.3747 -0.0670  0.2766
 9411SOL    HW139869   2.052   1.038   8.134  1.4175 -0.6055 -1.7794
 9411SOL    HW239870   1.989   0.950   8.228 -0.8987  2.0942 -0.1736
 9412SOL     OW39871   2.923   1.646   2.817  0.4379 -0.1512 -0.5278
 9412SOL    HW139872   2.911   1.659   2.723 -0.1946 -1.9456 -0.7059
 9412SOL    HW239873   2.872   1.712   2.864 -0.2888 -1.4952  0.5982
 9413SOL     OW39874   3.881   1.709   5.977  0.1752 -0.5499 -0.6500
 9413SOL    HW139875   3.915   1.687   6.064  0.1687  3.9324  0.4723
 9413SOL    HW239876   3.787   1.705   5.997  0.4481  2.6216  1.2761
 9414SOL     OW39877   1.969   1.191   8.628  0.0803 -0.1776 -0.1313
 9414SOL    HW139878   2.025   1.195   8.550  0.5403  1.1393  0.2661
 9414SOL    HW239879   1.981   1.281   8.658 -0.7897 -0.6161  1.4792
 9415SOL     OW39880   2.255   0.731   8.449  0.8008 -0.2845  0.4029
 9415SOL    HW139881   2.223   0.665   8.510  1.1846  0.9818  1.9761
 9415SOL    HW239882   2.243   0.687   8.365 -1.4426 -1.8491  1.5478
 9416SOL     OW39883   2.036   1.664  10.578  0.2338 -0.3941  0.3452
 9416SOL    HW139884   2.112   1.675  10.635  0.0490  0.6809  0.3794
 9416SOL    HW239885   1.979   1.641  10.651 -1.0198 -0.5489 -0.6809
 9417SOL     OW39886   3.585   1.594   7.667  0.5143 -0.3288  0.2713
 9417SOL    HW139887   3.523   1.526   7.640  0.1537 -1.7521  4.7749
 9417SOL    HW239888   3.532   1.674   7.663 -0.1369 -0.7111  1.4372
 9418SOL     OW39889   2.630   3.342  10.732  0.2949  0.6315 -0.2324
 9418SOL    HW139890   2.714   3.330  10.686  0.3513 -0.0032  0.0457
 9418SOL    HW239891   2.647   3.284  10.806 -0.2389 -0.7446 -1.1882
 9419SOL     OW39892   1.743   2.555   6.815 -0.5733  0.0278 -0.0805
 9419SOL    HW139893   1.775   2.558   6.905  1.6710 -2.0973 -0.7852
 9419SOL    HW239894   1.686   2.478   6.820  1.2308 -1.3526 -0.7222
 9420SOL     OW39895   1.482   1.928   4.532 -0.9581  0.6296 -0.4126
 9420SOL    HW139896   1.468   1.877   4.611  1.5053 -1.1399 -1.1385
 9420SOL    HW239897   1.409   1.891   4.482  0.9757 -0.5324 -2.3618
 9421SOL     OW39898   0.454   1.118  16.747  0.6213  0.3487 -0.0825
 9421SOL    HW139899   0.364   1.149  16.752  1.4525  2.9883 -0.9241
 9421SOL    HW239900   0.460   1.109  16.652  1.1819  3.0212 -0.3097
 9422SOL     OW39901   0.918   0.398   4.694  0.2532 -0.4917  0.4224
 9422SOL    HW139902   0.993   0.449   4.667  0.5538 -2.4830 -2.4318
 9422SOL    HW239903   0.921   0.326   4.631 -3.4466 -0.7233  0.4856
 9423SOL     OW39904   1.734   2.464   5.272  0.1257 -0.2572 -0.4737
 9423SOL    HW139905   1.761   2.412   5.197  1.1260  2.3148 -1.9149
 9423SOL    HW239906   1.815   2.472   5.323 -1.9506 -1.3816  3.0621
 9424SOL     OW39907   0.243   3.086   4.397 -0.1097 -0.8635 -0.0268
 9424SOL    HW139908   0.270   3.048   4.481 -1.0819 -2.0603 -0.2490
 9424SOL    HW239909   0.210   3.008   4.353 -0.7397 -1.6546  1.8486
 9425SOL     OW39910   2.227   4.487  14.722  0.3233  0.4002 -0.3212
 9425SOL    HW139911   2.226   4.394  14.741  0.0341  0.9371  2.2733
 9425SOL    HW239912   2.162   4.534  14.774  0.2256 -0.8755  0.6985
 9426SOL     OW39913   2.024   0.757   2.703 -0.3027  0.0312  0.1344
 9426SOL    HW139914   1.988   0.834   2.658  0.5964  1.3379  1.6816
 9426SOL    HW239915   2.035   0.784   2.794  1.0916 -0.8268  0.2042
 9427SOL     OW39916   2.522   1.749   4.642  0.4022  0.5550  0.5247
 9427SOL    HW139917   2.444   1.706   4.609  1.8899 -0.4061 -1.7571
 9427SOL    HW239918   2.478   1.820   4.688  1.3233  2.5134 -1.6040
 9428SOL     OW39919   1.754   0.968   5.649  0.6072  0.1253  0.2021
 9428SOL    HW139920   1.761   0.952   5.743  2.8378  1.1548  0.2015
 9428SOL    HW239921   1.835   0.929   5.618  1.6115  1.6533  0.9121
 9429SOL     OW39922   0.747   3.217   3.437 -0.0217  0.2897 -0.2548
 9429SOL    HW139923   0.669   3.201   3.385  0.6850  0.7553 -1.4653
 9429SOL    HW239924   0.717   3.236   3.526 -1.0533 -0.8824 -0.3521
 9430SOL     OW39925   4.109   4.455  17.073 -0.1065  0.0244  0.6622
 9430SOL    HW139926   4.117   4.408  17.157  1.0769 -1.4780 -0.2905
 9430SOL    HW239927   4.021   4.431  17.047  1.1495 -3.7552 -0.1141
 9431SOL     OW39928   4.281   3.895   7.252  0.2394 -0.3745 -0.2185
 9431SOL    HW139929   4.253   3.806   7.274 -0.7317 -0.1419 -0.5138
 9431SOL    HW239930   4.373   3.892   7.226 -0.1845 -2.8896 -1.4688
 9432SOL     OW39931   2.634   3.272  16.944 -0.4498 -0.2576  0.4466
 9432SOL    HW139932   2.565   3.247  17.005  0.7381 -0.9981  1.4762
 9432SOL    HW239933   2.659   3.190  16.902  0.3193 -0.1921  0.7899
 9433SOL     OW39934   4.368   0.871  17.481 -0.1117 -0.1908 -0.5250
 9433SOL    HW139935   4.419   0.950  17.465 -0.1991 -0.4937 -2.2975
 9433SOL    HW239936   4.334   0.882  17.570  1.9817  0.5863  0.1629
 9434SOL     OW39937   2.234   4.322   2.281  0.1519  0.1007  0.3513
 9434SOL    HW139938   2.202   4.232   2.280 -0.9583  0.4990  0.4679
 9434SOL    HW239939   2.303   4.320   2.348 -0.8240  0.0323  1.3564
 9435SOL     OW39940   2.842   1.394   5.945  0.4446  0.4472 -0.5025
 9435SOL    HW139941   2.761   1.443   5.956 -0.5963 -1.2543 -0.5009
 9435SOL    HW239942   2.849   1.370   6.038 -1.7696  2.5429  0.1776
 9436SOL     OW39943   1.803   4.241   5.292 -0.0850  0.4005 -0.1574
 9436SOL    HW139944   1.854   4.164   5.266 -0.5036  0.3386 -0.7889
 9436SOL    HW239945   1.736   4.191   5.339 -0.0031 -0.1475 -0.6152
 9437SOL     OW39946   2.715   2.243  10.640 -0.2127  0.0165 -0.5413
 9437SOL    HW139947   2.667   2.170  10.682  0.0024  0.0870 -0.1697
 9437SOL    HW239948   2.698   2.221  10.549 -0.1460 -1.8074 -0.1202
 9438SOL     OW39949   3.990   0.879   6.039  0.4878  0.1365 -0.2394
 9438SOL    HW139950   4.038   0.900   5.958  2.3147 -2.7455  0.0953
 9438SOL    HW239951   3.998   0.787   6.063  1.8889  0.1663 -0.6068
 9439SOL     OW39952   4.166   1.571   6.934  0.1421 -0.0136 -0.1104
 9439SOL    HW139953   4.228   1.643   6.946 -3.6325  3.0758  0.6888
 9439SOL    HW239954   4.135   1.554   7.023 -0.7461 -0.0597 -0.4303
 9440SOL     OW39955   1.729   3.587   5.587  0.3939  0.0615 -0.0933
 9440SOL    HW139956   1.714   3.537   5.667 -2.4028 -2.0571 -1.9714
 9440SOL    HW239957   1.675   3.535   5.529  2.0859 -1.6335 -0.1653
 9441SOL     OW39958   4.448   0.896   3.124  0.1822  0.4414 -0.0480
 9441SOL    HW139959   4.513   0.871   3.058  0.3470 -2.1442  1.0979
 9441SOL    HW239960   4.416   0.807   3.142  0.8752  0.2312  0.1624
 9442SOL     OW39961   0.858   4.561  17.315 -0.4425 -0.2950 -0.1339
 9442SOL    HW139962   0.788   4.572  17.379 -0.1352 -2.0488  0.5149
 9442SOL    HW239963   0.902   4.645  17.324 -0.8301  0.0975 -1.8426
 9443SOL     OW39964   3.014   1.961  12.937  0.0531  0.3038 -0.3345
 9443SOL    HW139965   3.015   2.041  12.990  1.0728  0.3325 -0.3897
 9443SOL    HW239966   3.106   1.954  12.909  0.6004  1.5928  1.0911
 9444SOL     OW39967   3.317   4.307   1.834 -0.6033 -0.5349 -0.2872
 9444SOL    HW139968   3.303   4.394   1.797 -1.7922 -0.5751  0.0765
 9444SOL    HW239969   3.242   4.284   1.888 -0.1288 -0.8181  0.2554
 9445SOL     OW39970   2.825   4.277   6.109 -0.2411 -0.0032  0.4681
 9445SOL    HW139971   2.822   4.268   6.205  0.2480  0.5608  0.5326
 9445SOL    HW239972   2.758   4.212   6.086  1.7028 -1.4154 -1.2586
 9446SOL     OW39973   3.086   3.534   7.811 -0.1182  0.1726  0.2514
 9446SOL    HW139974   3.125   3.589   7.879 -0.7435 -0.0533  0.7918
 9446SOL    HW239975   3.070   3.455   7.862  3.4369 -0.7260 -0.0143
 9447SOL     OW39976   0.915   0.500  15.689  0.1882  0.6366 -0.5652
 9447SOL    HW139977   0.906   0.435  15.620 -0.0728  2.2776 -2.0881
 9447SOL    HW239978   0.861   0.463  15.759 -0.5895 -0.0735 -1.5361
 9448SOL     OW39979   1.083   0.466   8.301  0.7733  0.0577  0.1621
 9448SOL    HW139980   1.135   0.436   8.375 -1.3077 -0.0281  1.5900
 9448SOL    HW239981   1.131   0.437   8.223 -0.3378  1.3092 -0.9840
 9449SOL     OW39982   0.708   0.284   1.209 -0.3085  0.3053 -0.0316
 9449SOL    HW139983   0.753   0.202   1.225 -0.4278  0.2026 -0.2260
 9449SOL    HW239984   0.624   0.264   1.250 -1.2354 -0.4288 -2.2587
 9450SOL     OW39985   0.473   1.297   7.026  0.1435 -0.6200 -0.6031
 9450SOL    HW139986   0.464   1.291   7.121 -3.0894 -1.2405 -0.9536
 9450SOL    HW239987   0.452   1.208   6.998 -0.7653 -0.6112  0.0431
 9451SOL     OW39988   0.296   0.771   7.969 -0.0713 -0.4719 -0.0208
 9451SOL    HW139989   0.230   0.787   8.036 -0.9223 -0.7802 -0.7949
 9451SOL    HW239990   0.332   0.692   8.010 -1.8665 -1.4694 -0.3780
 9452SOL     OW39991   2.649   3.727   9.020 -0.2554 -0.0043 -0.4139
 9452SOL    HW139992   2.696   3.790   9.074 -1.2092 -0.5785  1.0895
 9452SOL    HW239993   2.563   3.745   9.057 -0.8046 -2.1000 -0.6222
 9453SOL     OW39994   0.425   4.452   9.260  0.2493  0.7528  0.4308
 9453SOL    HW139995   0.484   4.397   9.208  2.2405  1.0554  2.3692
 9453SOL    HW239996   0.393   4.513   9.194  0.1310 -0.5546 -0.7259
 9454SOL     OW39997   3.684   2.228   8.920 -0.4496 -0.2225 -0.0801
 9454SOL    HW139998   3.709   2.265   9.005 -0.3991  1.3412 -0.7641
 9454SOL    HW239999   3.606   2.280   8.902  0.3285 -0.2869 -3.7458
 9455SOL     OW40000   0.576   1.289   6.223 -0.3747 -0.7454 -0.3483
 9455SOL    HW140001   0.580   1.334   6.138 -1.1702  1.4412  0.7608
 9455SOL    HW240002   0.487   1.255   6.216 -0.8630  0.3292  0.6738
 9456SOL     OW40003   2.785   0.761   2.512 -0.2278  0.6708 -0.0327
 9456SOL    HW140004   2.773   0.722   2.599 -0.7902 -0.7095 -0.7253
 9456SOL    HW240005   2.879   0.746   2.500 -0.7665 -2.6378 -0.2854
 9457SOL     OW40006   4.126   2.107  12.053  0.3113 -0.2801 -0.4807
 9457SOL    HW140007   4.175   2.025  12.057  0.7021 -0.0868 -1.3051
 9457SOL    HW240008   4.194   2.169  12.080  0.8968 -1.0394 -0.2200
 9458SOL     OW40009   2.206   4.183   8.418 -0.3036  0.4515  0.5479
 9458SOL    HW140010   2.249   4.199   8.334 -2.6377  0.1806 -0.6933
 9458SOL    HW240011   2.263   4.205   8.491 -0.1545  1.1777  0.2085
 9459SOL     OW40012   0.678   0.657   3.840  0.2055  0.1458  0.2782
 9459SOL    HW140013   0.637   0.660   3.754  0.4635  1.3353  0.1867
 9459SOL    HW240014   0.771   0.653   3.816 -0.3030  1.4524 -1.9393
 9460SOL     OW40015   3.408   0.818  13.924  0.5286  0.2867  0.2888
 9460SOL    HW140016   3.378   0.904  13.952 -1.2757 -0.5401  0.9050
 9460SOL    HW240017   3.449   0.784  14.004  0.9030  0.3601  0.1303
 9461SOL     OW40018   0.129   2.223   3.817  0.1360 -0.7964 -0.5776
 9461SOL    HW140019   0.182   2.186   3.747 -0.1192 -2.0332 -0.1114
 9461SOL    HW240020   0.121   2.145   3.871  0.3082 -0.2079  0.2974
 9462SOL     OW40021   0.005   0.729  16.959  0.3562  0.5113  0.2153
 9462SOL    HW140022   0.018   0.719  17.053  2.1596  0.2444 -0.0668
 9462SOL    HW240023   4.653   0.757  16.946  0.1563 -0.4261 -0.4280
 9463SOL     OW40024   2.911   2.541  13.269 -0.2370  0.3531  0.4827
 9463SOL    HW140025   2.820   2.548  13.295 -0.8299  3.0634 -2.3381
 9463SOL    HW240026   2.911   2.457  13.223  2.2052  0.5552  0.0897
 9464SOL     OW40027   3.424   0.792   4.295 -0.1625 -0.2981 -0.2472
 9464SOL    HW140028   3.426   0.838   4.379  0.6692 -0.5542 -0.1266
 9464SOL    HW240029   3.358   0.838   4.243  0.1345 -0.8495 -1.0955
 9465SOL     OW40030   0.394   4.103  13.290  0.7383  0.3505  0.1283
 9465SOL    HW140031   0.448   4.164  13.238  1.2730  0.8392  1.2529
 9465SOL    HW240032   0.451   4.122  13.364  0.6755 -1.5351  0.6495
 9466SOL     OW40033   1.950   1.406   7.624  0.4400 -0.6000 -0.0173
 9466SOL    HW140034   1.971   1.451   7.542  1.3528  1.5522  1.3924
 9466SOL    HW240035   2.030   1.357   7.645 -0.6086 -1.9406  0.7809
 9467SOL     OW40036   1.770   3.460   1.045  0.0136  0.3327  0.6122
 9467SOL    HW140037   1.757   3.532   0.984 -0.4264  0.4404  0.8271
 9467SOL    HW240038   1.865   3.460   1.039 -0.0241 -1.1398 -0.0341
 9468SOL     OW40039   1.455   3.031   5.501 -0.1831  0.4634  0.0167
 9468SOL    HW140040   1.381   3.043   5.442 -1.3973 -2.1800  0.9894
 9468SOL    HW240041   1.447   2.942   5.537  0.3676  1.4377  2.5550
 9469SOL     OW40042   1.725   3.192   8.233 -0.3987  0.0552 -0.0573
 9469SOL    HW140043   1.712   3.115   8.178 -0.1396 -0.8536  1.1520
 9469SOL    HW240044   1.638   3.232   8.234 -0.7069 -0.5970 -0.8723
 9470SOL     OW40045   1.462   3.132   5.251  0.8502 -0.1306 -0.1736
 9470SOL    HW140046   1.410   3.186   5.191  0.1327  1.5670  1.9649
 9470SOL    HW240047   1.550   3.168   5.246  0.2176  1.5449  0.6005
 9471SOL     OW40048   2.770   0.711  12.343 -0.4953  0.2432 -0.0945
 9471SOL    HW140049   2.837   0.753  12.288 -1.0591 -0.3698 -1.2525
 9471SOL    HW240050   2.687   0.754  12.322 -0.0678 -0.0725 -2.4360
 9472SOL     OW40051   2.199   0.113   1.792  0.4884 -0.1775  0.3018
 9472SOL    HW140052   2.170   0.091   1.880 -2.7546  2.1502 -0.1905
 9472SOL    HW240053   2.204   0.029   1.746 -0.9085 -1.8185  3.1119
 9473SOL     OW40054   4.026   4.686  12.129 -0.5550  0.5400  0.0564
 9473SOL    HW140055   3.956   4.630  12.097  1.4623 -0.7032 -2.1844
 9473SOL    HW240056   4.057   4.723  12.046  1.5158  0.6428  0.8563
 9474SOL     OW40057   0.218   0.155   8.016 -0.2428 -0.6956 -0.3708
 9474SOL    HW140058   0.306   0.156   8.053  0.0502 -1.6889 -1.0372
 9474SOL    HW240059   0.182   0.085   8.069 -1.0995  0.0801  0.0604
 9475SOL     OW40060   0.444   1.578   6.672 -0.2301  0.0050 -0.2288
 9475SOL    HW140061   0.421   1.597   6.582  2.0258  4.2561  0.1029
 9475SOL    HW240062   0.474   1.487   6.665 -1.7794 -0.7172  2.2598
 9476SOL     OW40063   4.562   1.080   8.701  0.3986 -0.1758  0.1280
 9476SOL    HW140064   4.601   1.024   8.768  0.8094  0.2661  0.2603
 9476SOL    HW240065   4.482   1.033   8.679  1.0726 -0.7538 -1.0386
 9477SOL     OW40066   1.453   3.722   7.003  0.4245 -0.4556 -0.7484
 9477SOL    HW140067   1.417   3.751   6.919  0.9868  1.1709 -0.4245
 9477SOL    HW240068   1.468   3.800   7.056 -0.3695 -1.2502  0.6470
 9478SOL     OW40069   1.252   2.351  15.253  0.2351 -0.1116 -0.0700
 9478SOL    HW140070   1.338   2.309  15.257  0.4176  0.3606  1.1384
 9478SOL    HW240071   1.217   2.300  15.180  4.3552 -2.1670 -0.6301
 9479SOL     OW40072   1.270   2.302  16.853  0.2462 -0.5178  0.4620
 9479SOL    HW140073   1.260   2.350  16.771  1.0070 -0.5628  0.3376
 9479SOL    HW240074   1.254   2.215  16.817  1.5452 -0.0479 -1.2744
 9480SOL     OW40075   4.292   4.385   5.166  0.4026  0.1308  0.0215
 9480SOL    HW140076   4.215   4.435   5.194  1.2343  0.8944  0.9551
 9480SOL    HW240077   4.351   4.460   5.160  1.2126 -0.5570 -0.6844
 9481SOL     OW40078   0.821   4.333   9.725 -0.3910 -0.2060  0.4471
 9481SOL    HW140079   0.829   4.428   9.738 -2.0132  0.0859 -0.7068
 9481SOL    HW240080   0.881   4.299   9.791  1.0000 -0.9103 -1.1806
 9482SOL     OW40081   2.773   2.929   8.251 -0.4351  0.4578 -0.1914
 9482SOL    HW140082   2.713   2.857   8.270 -0.9792  1.2473  1.1384
 9482SOL    HW240083   2.821   2.904   8.173  0.8206  1.2159  0.3437
 9483SOL     OW40084   3.944   1.030   0.042  0.1960  0.7078  0.1238
 9483SOL    HW140085   3.954   0.977  17.718  0.2525 -0.8283  1.1689
 9483SOL    HW240086   3.899   1.106   0.005 -0.2979 -1.3895 -3.5258
 9484SOL     OW40087   3.350   3.694   4.929  0.3430  0.4662 -0.1703
 9484SOL    HW140088   3.411   3.620   4.929 -0.2066  0.0158 -2.7107
 9484SOL    HW240089   3.362   3.733   5.016  0.2644  0.7498 -0.2867
 9485SOL     OW40090   2.417   0.750   7.489  0.0600  0.2191  0.1029
 9485SOL    HW140091   2.459   0.825   7.529  1.4111  0.9155 -2.6112
 9485SOL    HW240092   2.354   0.798   7.434  1.2577  0.7244 -0.8219
 9486SOL     OW40093   4.478   0.968  12.528 -0.7838  0.2133 -0.0718
 9486SOL    HW140094   4.526   0.910  12.468 -1.3527  1.6028 -1.8826
 9486SOL    HW240095   4.454   1.035  12.463 -2.2663  0.9084  1.1963
 9487SOL     OW40096   3.796   2.888   3.436 -0.1665 -0.3140 -0.2175
 9487SOL    HW140097   3.822   2.948   3.366  0.2564 -0.6570 -0.3520
 9487SOL    HW240098   3.809   2.938   3.517 -0.2202 -1.1291  0.2970
 9488SOL     OW40099   4.004   0.169   2.325  0.1943 -0.3780 -0.0102
 9488SOL    HW140100   3.935   0.105   2.309 -0.7257 -0.0821  2.7839
 9488SOL    HW240101   3.966   0.238   2.270  0.3334 -0.8449 -0.6860
 9489SOL     OW40102   0.122   0.874  17.650 -0.1997  0.2658 -0.1016
 9489SOL    HW140103   0.050   0.823  17.613  0.9600 -0.3082 -1.5836
 9489SOL    HW240104   0.095   0.962  17.624 -1.1206 -0.4338 -1.4869
 9490SOL     OW40105   2.744   1.873   7.426  0.3131 -0.1256 -0.0191
 9490SOL    HW140106   2.781   1.785   7.429  0.7223 -0.0313 -2.0100
 9490SOL    HW240107   2.805   1.918   7.367  2.1984 -2.9859 -0.2437
 9491SOL     OW40108   2.255   4.451  15.268 -0.1359  0.1238 -0.4466
 9491SOL    HW140109   2.166   4.486  15.272  0.2018  0.8554  0.5667
 9491SOL    HW240110   2.257   4.430  15.175  0.6695 -1.4787 -0.0648
 9492SOL     OW40111   1.291   3.984   2.915  0.4210 -0.4069  0.1445
 9492SOL    HW140112   1.329   3.971   2.828 -0.3544 -2.2253  0.0879
 9492SOL    HW240113   1.225   3.915   2.916 -0.2926  0.2612  0.2213
 9493SOL     OW40114   1.618   3.290   7.399 -0.1327  0.4708 -0.2119
 9493SOL    HW140115   1.618   3.376   7.358  0.0033  1.0378  0.9948
 9493SOL    HW240116   1.540   3.263   7.350 -0.4253 -0.0112  0.5204
 9494SOL     OW40117   0.448   3.405   3.243  0.1506 -0.5779  0.1203
 9494SOL    HW140118   0.401   3.479   3.204  1.7989  0.9642  1.0866
 9494SOL    HW240119   0.520   3.397   3.180  0.3389 -1.5930  0.4634
 9495SOL     OW40120   2.443   3.224   9.064 -0.4829  0.4010 -0.4111
 9495SOL    HW140121   2.387   3.175   9.003 -1.5863  2.0970 -0.7373
 9495SOL    HW240122   2.478   3.289   9.003  1.4078 -2.6985 -2.6205
 9496SOL     OW40123   3.095   4.146   7.240  0.1676  0.9132  0.5642
 9496SOL    HW140124   3.183   4.183   7.248  0.9163 -0.5668 -0.8611
 9496SOL    HW240125   3.119   4.054   7.228 -1.7543  0.5298 -0.3122
 9497SOL     OW40126   1.047   0.894   7.908 -0.0035 -0.3453  0.3533
 9497SOL    HW140127   1.083   0.957   7.846  0.1134 -1.1606 -0.4036
 9497SOL    HW240128   1.108   0.918   7.978  0.5293  1.7823 -0.8290
 9498SOL     OW40129   4.235   3.803  14.591  0.3059 -0.3970  0.6414
 9498SOL    HW140130   4.163   3.851  14.550 -1.8420 -1.8838  2.6745
 9498SOL    HW240131   4.306   3.800  14.528 -0.2361 -3.9182  0.1882
 9499SOL     OW40132   3.369   3.936  13.924  0.0131 -0.1354 -0.3803
 9499SOL    HW140133   3.436   4.000  13.949  0.1678 -0.4831  0.0972
 9499SOL    HW240134   3.380   3.861  13.982  0.8567 -0.0329 -0.4202
 9500SOL     OW40135   1.555   4.382   4.860 -0.2831  0.4383 -0.3346
 9500SOL    HW140136   1.536   4.320   4.789  0.0836 -0.5898  0.4585
 9500SOL    HW240137   1.598   4.324   4.923  0.9680  2.7593  0.9569
 9501SOL     OW40138   1.659   3.106  15.201 -0.2621 -0.1750  0.0621
 9501SOL    HW140139   1.615   3.159  15.135 -1.1173  0.8185  1.4264
 9501SOL    HW240140   1.632   3.138  15.287  0.2358 -2.0773  0.9276
 9502SOL     OW40141   1.678   3.670  12.623  0.2543  0.5978  0.1380
 9502SOL    HW140142   1.591   3.681  12.660  1.1940  0.5390  2.3800
 9502SOL    HW240143   1.663   3.707  12.536  0.9373 -3.1358 -1.5635
 9503SOL     OW40144   2.992   0.313   2.987 -0.2611 -0.0243  0.2863
 9503SOL    HW140145   2.910   0.360   3.004 -0.2419 -0.2416  0.9773
 9503SOL    HW240146   2.989   0.252   3.061  2.0399 -0.6941 -0.1897
 9504SOL     OW40147   2.013   2.887  12.677  0.0410  0.6570  0.3257
 9504SOL    HW140148   2.024   2.973  12.717 -1.9126  1.9097 -1.8611
 9504SOL    HW240149   1.951   2.856  12.744  0.1526  1.2738  0.7073
 9505SOL     OW40150   0.213   4.709   5.480 -1.1159  0.3335 -0.4623
 9505SOL    HW140151   0.188   4.686   5.569 -1.3327 -2.4678 -1.2446
 9505SOL    HW240152   0.170   0.054   5.471 -1.0696  0.4975  0.9231
 9506SOL     OW40153   3.489   3.466   4.854 -0.0335  0.1211 -0.3058
 9506SOL    HW140154   3.553   3.437   4.919  1.6143  0.7030 -1.6782
 9506SOL    HW240155   3.525   3.542   4.809 -0.8418  0.6026 -0.1484
 9507SOL     OW40156   2.117   4.375   8.837  0.1286  0.8381  0.3484
 9507SOL    HW140157   2.101   4.281   8.836  0.4124  0.7880  1.3218
 9507SOL    HW240158   2.042   4.404   8.784 -0.0317 -0.4935 -0.1389
 9508SOL     OW40159   3.235   4.170   6.109 -0.3297 -0.3109  0.5432
 9508SOL    HW140160   3.303   4.113   6.073 -0.1454  1.2455 -1.6059
 9508SOL    HW240161   3.280   4.205   6.186 -0.6588  3.6977 -1.0597
 9509SOL     OW40162   0.220   2.667   1.582  0.1672 -0.6621 -0.0199
 9509SOL    HW140163   0.150   2.693   1.642  1.7353 -1.3617  2.1274
 9509SOL    HW240164   0.276   2.623   1.646 -0.3831  1.0494  1.6696
 9510SOL     OW40165   1.912   4.737   4.553  0.0659 -0.0462  0.2475
 9510SOL    HW140166   1.824   0.005   4.516  0.3229  0.2807 -0.2900
 9510SOL    HW240167   1.941   0.087   4.533  1.6744 -1.2595 -2.8317
 9511SOL     OW40168   2.369   1.359  11.796  0.4849 -0.5306  0.4374
 9511SOL    HW140169   2.393   1.268  11.816 -0.9015 -1.3445 -1.5610
 9511SOL    HW240170   2.281   1.361  11.834 -0.4807  2.3764 -1.9290
 9512SOL     OW40171   4.380   4.151   2.034  0.5362  0.4063  0.3307
 9512SOL    HW140172   4.409   4.156   2.125 -0.9069 -0.6984  0.8729
 9512SOL    HW240173   4.299   4.098   2.036  0.1685  0.8606 -2.4988
 9513SOL     OW40174   4.185   0.525   4.185  0.6928 -0.2176 -0.0875
 9513SOL    HW140175   4.243   0.466   4.233  0.3736 -2.1152 -2.0310
 9513SOL    HW240176   4.144   0.475   4.114 -0.1355  0.9084 -0.4137
 9514SOL     OW40177   1.796   3.358  12.747  0.0194 -0.0408  0.2219
 9514SOL    HW140178   1.757   3.344  12.660  0.9415  0.4828 -0.2848
 9514SOL    HW240179   1.721   3.404  12.785 -1.7021 -2.3710 -0.3328
 9515SOL     OW40180   2.818   4.209  16.297  0.1925  0.5195 -0.6032
 9515SOL    HW140181   2.859   4.188  16.213  0.9022  0.2948 -0.1974
 9515SOL    HW240182   2.838   4.303  16.303  1.5536  0.0577  2.2450
 9516SOL     OW40183   1.766   3.961   4.982  0.0385  0.3192  0.0877
 9516SOL    HW140184   1.833   3.992   5.043  0.3457  0.2063 -0.1926
 9516SOL    HW240185   1.824   3.936   4.910  0.3668  0.2279  0.3850
 9517SOL     OW40186   0.010   1.124  17.631  0.2943 -0.3341 -0.0880
 9517SOL    HW140187   0.052   1.207  17.611  0.8649 -0.6059 -0.0143
 9517SOL    HW240188   4.699   1.155  17.707 -0.0848  0.1967 -0.5513
 9518SOL     OW40189   3.382   1.776   7.186  0.5418 -0.9113  0.0664
 9518SOL    HW140190   3.408   1.821   7.266 -0.4227 -0.2453  0.0011
 9518SOL    HW240191   3.468   1.756   7.148  0.7359  0.2356 -0.1043
 9519SOL     OW40192   2.225   2.935   7.811 -0.5320 -0.0634 -0.2280
 9519SOL    HW140193   2.285   2.926   7.885 -0.1216  0.1498 -0.5330
 9519SOL    HW240194   2.214   2.842   7.794 -1.3506 -0.5880  3.3180
 9520SOL     OW40195   3.794   3.304   4.900  0.2243  0.0766  0.0518
 9520SOL    HW140196   3.751   3.376   4.946 -1.9097 -0.7785 -0.5960
 9520SOL    HW240197   3.883   3.307   4.934 -0.3485  1.0834  1.4863
 9521SOL     OW40198   3.076   4.457   3.753  0.2917 -0.1431  0.0695
 9521SOL    HW140199   3.141   4.463   3.683  0.4694 -1.6027  0.1141
 9521SOL    HW240200   3.117   4.414   3.828 -0.0793 -0.8263 -0.1126
 9522SOL     OW40201   0.414   0.422  16.511 -0.0464 -0.1458  0.2570
 9522SOL    HW140202   0.356   0.479  16.561 -0.4084 -1.3937  1.2626
 9522SOL    HW240203   0.471   0.494  16.485 -1.9895  1.3898  0.2364
 9523SOL     OW40204   2.533   4.484   9.905 -0.1069  0.4989  0.1604
 9523SOL    HW140205   2.581   4.419   9.957  2.0870  0.6182 -1.7241
 9523SOL    HW240206   2.453   4.466   9.955 -0.6126  1.4642 -0.3022
 9524SOL     OW40207   4.484   0.592   9.309  0.1303 -0.1024  0.0851
 9524SOL    HW140208   4.546   0.520   9.297 -0.0114 -0.1470 -0.3975
 9524SOL    HW240209   4.492   0.598   9.404  0.3569 -3.0968  0.2582
 9525SOL     OW40210   2.746   2.929   3.130  0.0640 -0.2739 -0.0604
 9525SOL    HW140211   2.822   2.873   3.119 -0.1794 -0.4502 -0.8560
 9525SOL    HW240212   2.713   2.914   3.218 -2.4604  0.9523 -0.7874
 9526SOL     OW40213   4.210   2.566  17.304  0.2094 -0.4130 -0.3985
 9526SOL    HW140214   4.171   2.479  17.315 -1.3912  0.2626 -0.6322
 9526SOL    HW240215   4.242   2.580  17.393 -0.3167 -1.1983 -0.0867
 9527SOL     OW40216   1.942   0.963   5.280  0.1312 -0.3589  0.3773
 9527SOL    HW140217   1.967   1.024   5.349 -4.4552  0.2331  1.5297
 9527SOL    HW240218   2.015   0.901   5.277 -0.9704 -1.5276 -1.9905
 9528SOL     OW40219   0.631   3.586  11.172  0.5460  0.1347 -0.5422
 9528SOL    HW140220   0.563   3.652  11.187 -0.1097 -1.1133  1.9196
 9528SOL    HW240221   0.641   3.581  11.076  0.8889 -1.0783 -0.4411
 9529SOL     OW40222   3.046   3.605   9.998  0.4604 -0.6369 -0.3367
 9529SOL    HW140223   3.096   3.622   9.918 -1.6150  1.5386 -1.1650
 9529SOL    HW240224   2.968   3.569   9.955 -0.2946  1.3550 -0.6291
 9530SOL     OW40225   4.520   2.789   4.356 -0.6918  0.8828  0.6997
 9530SOL    HW140226   4.508   2.699   4.389 -0.8255  0.6304 -0.0385
 9530SOL    HW240227   4.449   2.834   4.401  0.9512  0.6579  3.5505
 9531SOL     OW40228   0.904   1.231  10.764 -0.0844  0.0231 -0.3486
 9531SOL    HW140229   0.938   1.287  10.694  0.5521 -0.4426 -0.4137
 9531SOL    HW240230   0.952   1.149  10.771 -1.4424 -0.8037 -0.7744
 9532SOL     OW40231   1.871   1.692   5.985 -0.2367  0.0533  0.1678
 9532SOL    HW140232   1.845   1.778   6.017  1.1452  0.4074  0.3202
 9532SOL    HW240233   1.812   1.669   5.913  0.0126 -2.9453  0.8971
 9533SOL     OW40234   0.530   1.227  17.260 -0.0129 -0.6328 -0.2299
 9533SOL    HW140235   0.469   1.218  17.187 -0.2335  0.2937 -0.1579
 9533SOL    HW240236   0.463   1.242  17.326  1.3620  1.3489  0.7106
 9534SOL     OW40237   0.903   2.778   3.467 -0.0645  0.3346  0.0311
 9534SOL    HW140238   0.833   2.787   3.402  0.3106  1.1070 -0.2688
 9534SOL    HW240239   0.955   2.853   3.438 -1.4252  0.8913 -0.9840
 9535SOL     OW40240   0.728   4.506   5.178  0.3681 -0.9466 -0.6002
 9535SOL    HW140241   0.698   4.451   5.105  0.0510 -3.0758  1.1222
 9535SOL    HW240242   0.643   4.525   5.218 -0.1042 -1.6045 -1.2921
 9536SOL     OW40243   4.350   1.951   8.794  0.1507  0.3603  0.2864
 9536SOL    HW140244   4.347   1.915   8.882  3.5828 -1.5798 -0.3882
 9536SOL    HW240245   4.301   1.885   8.744 -2.4910  1.4018  1.5235
 9537SOL     OW40246   2.424   3.042   1.278  0.1682  0.1433 -0.0455
 9537SOL    HW140247   2.389   2.976   1.218 -1.1445  0.9680 -0.1882
 9537SOL    HW240248   2.506   3.001   1.304  1.1795  1.3422 -1.3478
 9538SOL     OW40249   1.163   1.328  17.660  0.3308 -0.1490  0.0082
 9538SOL    HW140250   1.242   1.310  17.608  1.1338  0.1833  1.1106
 9538SOL    HW240251   1.151   1.423  17.656  0.8727 -0.1145 -0.9720
 9539SOL     OW40252   1.841   1.933   6.072  0.0439  0.6747 -0.5154
 9539SOL    HW140253   1.775   1.964   6.133  0.8630 -0.7143  1.0972
 9539SOL    HW240254   1.920   1.976   6.106 -0.7660 -0.3235  2.6236
 9540SOL     OW40255   1.809   3.897   2.591 -0.1345 -0.1802 -0.0704
 9540SOL    HW140256   1.847   3.977   2.627  3.0108 -1.2814 -0.8743
 9540SOL    HW240257   1.822   3.904   2.496  2.3455  1.3718  0.3875
 9541SOL     OW40258   1.393   3.345   3.371 -0.6201 -0.2368 -0.3953
 9541SOL    HW140259   1.456   3.319   3.303  0.9546  3.7081 -0.4558
 9541SOL    HW240260   1.388   3.261   3.417 -0.6753 -1.0779 -1.9093
 9542SOL     OW40261   3.146   3.402   6.124 -0.4831 -0.5642 -0.3478
 9542SOL    HW140262   3.166   3.373   6.213  2.5615 -0.9772 -1.1597
 9542SOL    HW240263   3.208   3.353   6.069 -0.8262 -1.5605  0.1571
 9543SOL     OW40264   4.737   1.295   2.288 -0.0666  0.1548  0.9785
 9543SOL    HW140265   0.093   1.293   2.273  0.1468 -0.0858  2.3550
 9543SOL    HW240266   4.729   1.213   2.337 -0.3653  0.1834  0.9767
 9544SOL     OW40267   2.201   0.597   8.166  0.0229 -0.1548 -0.5313
 9544SOL    HW140268   2.257   0.528   8.130  1.2928  0.4454  0.3020
 9544SOL    HW240269   2.139   0.538   8.209 -0.6394  1.9747  1.4202
 9545SOL     OW40270   0.745   4.299   5.817 -0.5690 -0.0996 -0.6686
 9545SOL    HW140271   0.718   4.221   5.769 -2.1640 -0.9606  1.5872
 9545SOL    HW240272   0.688   4.361   5.772  1.1959  1.4495 -0.7646
 9546SOL     OW40273   3.966   0.156   7.886 -0.3473 -0.0635  0.3041
 9546SOL    HW140274   4.027   0.141   7.813  1.0739 -1.7538  1.8513
 9546SOL    HW240275   3.988   0.245   7.912  1.1067 -0.1505 -0.6022
 9547SOL     OW40276   1.041   3.162  10.849  0.2070  0.2510 -0.3092
 9547SOL    HW140277   1.100   3.208  10.789  0.6903  0.2388  0.1632
 9547SOL    HW240278   0.965   3.130  10.801  1.7872 -2.3710 -1.0376
 9548SOL     OW40279   3.129   3.286   1.271 -0.7433  0.5069 -0.3723
 9548SOL    HW140280   3.202   3.347   1.280  0.4046 -0.8541 -0.3587
 9548SOL    HW240281   3.121   3.251   1.359 -1.0332 -0.9067 -0.9498
 9549SOL     OW40282   2.628   0.808  15.050 -0.3888  0.4414 -0.4835
 9549SOL    HW140283   2.604   0.716  15.041  1.0156  0.1487 -1.1944
 9549SOL    HW240284   2.599   0.825  15.140 -0.3431 -3.0083  0.1737
 9550SOL     OW40285   0.454   0.031   3.499 -0.2206  0.2169 -0.2209
 9550SOL    HW140286   0.415   4.693   3.458  1.0553 -1.0837  0.9636
 9550SOL    HW240287   0.387   0.093   3.471  0.3853  0.7331 -0.5152
 9551SOL     OW40288   2.928   4.227  16.054  0.7340 -0.3807 -0.6675
 9551SOL    HW140289   2.971   4.312  16.068  0.0346  0.0917 -1.4213
 9551SOL    HW240290   2.893   4.226  15.965 -1.4441 -0.5796  0.1988
 9552SOL     OW40291   1.937   3.518  13.631  0.0362 -0.0897 -0.0850
 9552SOL    HW140292   1.928   3.577  13.555 -0.1274 -0.5986 -0.4584
 9552SOL    HW240293   1.852   3.474  13.631  0.3097 -0.6223 -1.6162
 9553SOL     OW40294   3.914   2.595   9.229 -0.5277  0.2761  0.3543
 9553SOL    HW140295   3.850   2.654   9.189  2.6552  0.7330 -4.0396
 9553SOL    HW240296   3.993   2.647   9.245 -0.2964 -0.0710  0.3616
 9554SOL     OW40297   3.124   1.103   7.117  0.0181  0.1738 -0.2846
 9554SOL    HW140298   3.196   1.088   7.178 -0.0356  0.1079 -0.2367
 9554SOL    HW240299   3.049   1.045   7.129  0.4082 -0.1877  0.3836
 9555SOL     OW40300   3.786   0.291   4.714  0.3252 -0.0444  0.4798
 9555SOL    HW140301   3.823   0.313   4.799 -0.3574 -0.1229  0.7983
 9555SOL    HW240302   3.712   0.239   4.745  0.3919 -1.3078 -1.4810
 9556SOL     OW40303   2.849   2.932  12.902  0.3091  0.2510 -0.6108
 9556SOL    HW140304   2.806   2.907  12.820 -1.0640 -0.2336  0.2585
 9556SOL    HW240305   2.884   2.847  12.927  1.7232  1.0165  0.0178
 9557SOL     OW40306   0.889   0.808  13.716  0.2607  0.7234 -0.0919
 9557SOL    HW140307   0.881   0.892  13.671  0.4888  0.7854 -0.0172
 9557SOL    HW240308   0.819   0.817  13.780  0.1138  0.2106 -0.1770
 9558SOL     OW40309   4.633   1.972   7.000 -0.4705 -0.0542  0.6326
 9558SOL    HW140310   4.648   1.891   6.952  2.3878  0.0408  1.3720
 9558SOL    HW240311   4.721   1.989   7.033  0.3335  1.0067 -2.0245
 9559SOL     OW40312   1.683   1.149   6.505  0.0880  0.4051  0.1593
 9559SOL    HW140313   1.624   1.190   6.569  2.0534 -0.6320  2.6177
 9559SOL    HW240314   1.762   1.150   6.559 -0.4938 -0.5471  1.0376
 9560SOL     OW40315   0.942   3.411   3.505 -0.2943 -0.4941 -0.2724
 9560SOL    HW140316   0.905   3.480   3.450  0.3975 -0.1004 -0.2406
 9560SOL    HW240317   0.905   3.335   3.460  0.2655 -0.8989 -0.0482
 9561SOL     OW40318   0.444   1.833   2.707 -0.4783 -0.2971  0.0729
 9561SOL    HW140319   0.487   1.916   2.689  0.4329 -0.5800  0.9783
 9561SOL    HW240320   0.519   1.775   2.723  0.6857  1.9245  2.7088
 9562SOL     OW40321   1.971   4.672   0.095  0.1427 -0.3252  0.3238
 9562SOL    HW140322   2.012   4.641   0.176  0.3171 -1.9941 -0.3991
 9562SOL    HW240323   2.041   4.707   0.039 -0.0089  1.7006  1.4233
 9563SOL     OW40324   2.671   2.676   1.624 -0.0159 -0.9934  0.3644
 9563SOL    HW140325   2.701   2.746   1.682 -0.8858 -0.1201 -0.2472
 9563SOL    HW240326   2.578   2.696   1.621 -0.0556 -1.3694 -1.2122
 9564SOL     OW40327   3.160   2.502  14.939  0.2619 -0.4530 -0.1623
 9564SOL    HW140328   3.149   2.409  14.958  0.7631 -0.1049  1.8403
 9564SOL    HW240329   3.070   2.532  14.924  0.9874  1.4735 -0.6078
 9565SOL     OW40330   2.146   4.069  15.667 -0.0535  0.1421  0.3744
 9565SOL    HW140331   2.094   4.074  15.747  2.5954  0.5668  2.0891
 9565SOL    HW240332   2.190   4.154  15.664  1.3121 -0.4833  2.1204
 9566SOL     OW40333   1.897   4.737  15.521  0.4591 -0.5549  0.5041
 9566SOL    HW140334   1.861   4.677  15.587 -3.2913 -0.5725 -1.5590
 9566SOL    HW240335   1.918   0.065  15.586  0.5712  0.2383 -0.3578
 9567SOL     OW40336   3.251   1.565   6.445  0.0268 -0.3654 -0.5618
 9567SOL    HW140337   3.219   1.570   6.356 -0.3149 -2.2973 -0.5642
 9567SOL    HW240338   3.225   1.479   6.479  2.4530 -1.1646 -0.6972
 9568SOL     OW40339   4.007   4.408  13.499 -0.5216  0.4321 -0.4207
 9568SOL    HW140340   4.070   4.480  13.506  0.7361 -0.5808 -1.3546
 9568SOL    HW240341   3.922   4.452  13.498 -0.7735 -0.0348  1.2178
 9569SOL     OW40342   2.409   1.070   2.842  0.4153  0.1668  0.4534
 9569SOL    HW140343   2.344   1.061   2.772  1.2973  1.4141 -0.5175
 9569SOL    HW240344   2.495   1.043   2.810  0.4722  0.3607  0.4445
   4.73917   4.73917  17.75448
