Membrane in water
40344
    1TMC1    C1    1   3.907   0.710  12.253  0.0460  0.1330  0.2927
    1TMC1    C2    2   4.032   0.745  12.281  0.2727  0.3520  0.1472
    1TMC1    C3    3   4.073   0.877  12.275  0.9060  0.2781  0.1637
    1TMC1    C4    4   3.822   0.804  12.212  0.6250  0.3008  0.2059
    1TMC1    C5    5   3.863   0.939  12.195 -0.3201 -0.2709  0.3899
    1TMC1    C6    6   3.991   0.981  12.228  0.3516 -0.5054 -0.0948
    1TMC1     C    7   3.868   0.575  12.286 -0.3899  0.4470 -0.6028
    1TMC1     O    8   3.758   0.534  12.241 -0.3111  0.5444  0.5393
    1TMC1     H    9   4.110   0.674  12.306  1.0026  0.6945 -1.1951
    1TMC1    H1   10   3.724   0.768  12.182 -0.5250  2.1507  1.7748
    1TMC1    H2   11   4.022   1.081  12.201 -1.9482  0.4017  0.6493
    1TMC1    C7   12   3.790   1.034  12.115 -0.0085 -0.4337 -0.3136
    1TMC1    C8   13   4.204   0.902  12.331 -0.1798  0.2656 -0.2251
    1TMC1    O1   14   3.817   1.154  12.125  0.2726  0.1467  0.2196
    1TMC1    O2   15   4.265   0.821  12.398 -0.7175 -0.4587 -0.2146
    1TMC1    O3   16   3.682   0.973  12.067 -0.4459 -0.0848  0.3375
    1TMC1    H3   17   3.622   1.037  12.022 -0.6104  0.0805  0.7978
    1TMC1    O5   18   4.246   1.027  12.309 -0.5317  0.2709  0.4248
    1TMC1    H5   19   4.221   1.075  12.227  2.7000 -1.5856 -1.6690
    2MPD2     C   20   3.922   0.140  12.536  0.4077  0.4205 -0.1712
    2MPD2    C1   21   3.853   0.156  12.422 -0.1968 -0.1335  1.0246
    2MPD2    C2   22   3.860   0.279  12.358 -0.2905 -0.8142 -0.0173
    2MPD2    C3   23   3.939   0.381  12.421  0.9586  0.8827 -0.1396
    2MPD2    C4   24   4.018   0.351  12.534 -0.1227  0.2238 -0.7011
    2MPD2    C5   25   4.024   0.228  12.583  0.8147 -0.0912  0.3752
    2MPD2     H   26   3.796   0.304  12.275 -0.1963 -1.9086 -0.4248
    2MPD2    H1   27   4.080   0.428  12.577 -0.8009 -0.1734  0.9662
    2MPD2    H2   28   3.903   0.052  12.597 -1.5798 -0.7105 -2.4265
    2MPD2    H3   29   4.079   0.209  12.675  1.8834  0.8140 -0.0779
    2MPD2     N   30   3.956   0.511  12.374  0.0045  0.1286 -0.2109
    2MPD2    H5   31   4.036   0.567  12.401  0.6278 -1.0510  0.3355
    2MPD2    N1   32   3.770   0.059  12.366 -0.0769  0.1515  0.2710
    2MPD2    H7   33   3.704   0.086  12.294  0.0938  1.5413  0.6381
    3TMC1    C1   34   2.345   0.779  10.474 -0.7363  0.1126  0.0676
    3TMC1    C2   35   2.370   0.792  10.340  0.1712  0.5383 -0.1443
    3TMC1    C3   36   2.478   0.731  10.288  0.1879 -0.7477  0.6374
    3TMC1    C4   37   2.435   0.706  10.555  0.6489  0.4764 -0.0187
    3TMC1    C5   38   2.540   0.635  10.492  0.3481  0.1222 -0.2494
    3TMC1    C6   39   2.555   0.642  10.354 -0.2070  0.1704  0.5514
    3TMC1     C   40   2.209   0.801  10.521  0.6530  0.4666  0.0432
    3TMC1     O   41   2.108   0.791  10.452 -0.3046 -0.1894  0.0203
    3TMC1     H   42   2.307   0.852  10.277  1.1193  0.4303 -1.1931
    3TMC1    H1   43   2.415   0.707  10.661 -0.4949 -0.5060 -0.2240
    3TMC1    H2   44   2.618   0.564  10.312 -0.4152  0.5253 -0.4105
    3TMC1    C7   45   2.641   0.565  10.567 -0.6697 -0.3295  1.2128
    3TMC1    C8   46   2.478   0.712  10.146 -0.4429 -0.4012  0.2201
    3TMC1    O1   47   2.745   0.532  10.522 -0.1547 -0.1057  0.2508
    3TMC1    O2   48   2.392   0.738  10.066  0.0011 -0.3647  0.5278
    3TMC1    O3   49   2.570   0.484  10.650  0.7014 -0.1141  0.6895
    3TMC1    H3   50   2.477   0.512  10.662  0.6705  0.1247 -0.0767
    3TMC1    O5   51   2.607   0.677  10.110 -0.1424  1.0653  0.1675
    3TMC1    H5   52   2.661   0.685  10.191 -2.7035  1.3433  1.8391
    4MPD2     C   53   1.913   1.029  10.881 -0.1339 -0.4782  0.0956
    4MPD2    C1   54   2.036   1.087  10.888  0.0601  0.2598  0.7119
    4MPD2    C2   55   2.141   1.033  10.807  0.0490  0.0112 -0.1964
    4MPD2    C3   56   2.120   0.930  10.722 -0.4412  0.0629  0.0661
    4MPD2    C4   57   1.999   0.877  10.714 -0.8145  0.5761 -0.2012
    4MPD2    C5   58   1.898   0.918  10.800 -0.2734  0.5239 -0.0531
    4MPD2     H   59   2.237   1.081  10.822 -0.5108  1.4801 -1.3099
    4MPD2    H1   60   1.986   0.791  10.650 -2.5718  1.9042 -1.6329
    4MPD2    H2   61   1.831   1.058  10.946  2.5129  1.5591  2.5569
    4MPD2    H3   62   1.810   0.856  10.816  1.5082 -1.3652  2.3736
    4MPD2     N   63   2.222   0.878  10.642 -0.7760 -0.4387 -0.0021
    4MPD2    H5   64   2.314   0.919  10.657 -1.4488  1.5111 -1.2122
    4MPD2    N1   65   2.070   1.198  10.971 -0.5781  0.5564  0.2380
    4MPD2    H7   66   2.163   1.238  10.967 -1.3602  2.3256 -0.2563
    5TCq1    O1   67   2.884   4.140  12.049 -0.3384  0.4298 -0.0332
    5TCq1    C1   68   2.996   4.167  11.979 -0.1833  0.6269 -0.1180
    5TCq1    O2   69   3.056   4.274  11.988  0.1050 -0.4917 -0.3020
    5TCq1    C2   70   3.062   4.040  11.958 -0.2086 -0.0936  0.4354
    5TCq1    C3   71   3.199   4.032  11.959 -0.0859  0.7596 -0.1778
    5TCq1    C4   72   3.265   3.919  11.913  0.2790 -0.3367 -0.8251
    5TCq1    C5   73   3.181   3.818  11.869  0.0689 -0.4630 -0.3520
    5TCq1    C6   74   3.047   3.834  11.861  0.1776  0.6678  0.2106
    5TCq1    C7   75   2.977   3.942  11.905  0.9251 -0.2396  0.4172
    5TCq1    C8   76   2.984   3.748  11.767 -0.2692 -0.3338  0.1284
    5TCq1    O4   77   3.028   3.635  11.761 -0.2022  0.1801 -0.6613
    5TCq1    C9   78   3.403   3.896  11.913 -0.6069  0.2292 -0.0291
    5TCq1    O5   79   3.482   3.997  11.911 -0.0567 -0.4295  0.6352
    5TCq1    O6   80   3.441   3.777  11.903  0.5255  0.4916 -0.6441
    5TCq1    H1   81   2.887   4.045  12.075 -0.5569  0.2890 -0.5149
    5TCq1    H2   82   3.254   4.124  11.974  0.5251  0.1380  1.3828
    5TCq1    H3   83   3.227   3.724  11.841  0.4791 -0.2483 -0.4063
    5TCq1    H4   84   2.873   3.959  11.881  0.7050 -1.7241  0.3119
    6MPD2     C   85   2.779   3.856  11.476 -0.3572 -0.4505 -0.0455
    6MPD2    C1   86   2.849   3.767  11.558 -0.5385 -0.2965 -1.0843
    6MPD2    C2   87   2.847   3.638  11.521 -0.4834  0.1403 -0.1199
    6MPD2    C3   88   2.787   3.586  11.404  0.6393 -0.0263  0.2168
    6MPD2    C4   89   2.724   3.681  11.322  0.6515  0.1971  0.2454
    6MPD2    C5   90   2.726   3.816  11.356 -0.2285 -0.0933 -0.1700
    6MPD2     H   91   2.905   3.567  11.580 -0.7991  1.3827  1.6906
    6MPD2    H1   92   2.670   3.655  11.232 -0.5950  2.0565  0.4516
    6MPD2    H2   93   2.777   3.964  11.491  0.4471 -0.1838 -1.7956
    6MPD2    H3   94   2.698   3.893  11.285 -0.3964  0.9671  1.0465
    6MPD2     N   95   2.802   3.449  11.381 -0.5641  0.5081 -0.5629
    6MPD2    H5   96   2.873   3.404  11.438 -1.7051 -0.7011 -0.0832
    6MPD2    N1   97   2.909   3.820  11.675  1.2420 -0.3161  0.5799
    6MPD2    H7   98   2.905   3.922  11.677 -4.1323 -0.5875  3.1599
    7TCq1    O1   99   1.148   1.800  13.300 -0.3956 -0.0404 -0.4035
    7TCq1    C1  100   1.238   1.700  13.277 -0.9183  0.2064 -0.3623
    7TCq1    O2  101   1.358   1.701  13.304  0.0050  0.6171 -0.3168
    7TCq1    C2  102   1.179   1.569  13.232 -0.0187  0.2491  0.0424
    7TCq1    C3  103   1.075   1.572  13.144  0.2559  0.2067 -0.0475
    7TCq1    C4  104   1.009   1.453  13.111 -0.6418 -0.0288 -0.1045
    7TCq1    C5  105   1.050   1.340  13.184 -0.1120  0.9957  0.3510
    7TCq1    C6  106   1.158   1.349  13.270 -0.0550  0.3154  0.6209
    7TCq1    C7  107   1.223   1.463  13.303  0.2248 -0.2352  0.1174
    7TCq1    C8  108   1.161   1.264  13.389  0.4499 -0.1909 -0.2818
    7TCq1    O4  109   1.202   1.314  13.495  0.0247  0.5314  0.0359
    7TCq1    C9  110   0.891   1.449  13.032  0.5970  0.1610 -0.1183
    7TCq1    O5  111   0.840   1.560  12.999  0.1778  0.1735  0.1375
    7TCq1    O6  112   0.842   1.333  13.012  0.5374  0.2832 -0.5354
    7TCq1    H1  113   1.055   1.779  13.280 -0.9589  2.0790  0.0065
    7TCq1    H2  114   1.047   1.663  13.091  0.8106  0.4297  0.0422
    7TCq1    H3  115   0.990   1.250  13.174  0.9224  0.5201 -1.7612
    7TCq1    H4  116   1.304   1.467  13.375 -0.5589 -0.6487  1.0171
    8MPD2     C  117   0.903   0.909  13.671  1.1707 -0.3418 -0.1884
    8MPD2    C1  118   1.004   0.995  13.711  0.3458  0.0609 -0.3646
    8MPD2    C2  119   1.070   1.068  13.618 -0.2934 -0.2569 -0.0590
    8MPD2    C3  120   1.038   1.065  13.482  0.0614  1.0606  0.1100
    8MPD2    C4  121   0.940   0.975  13.442 -0.1999  0.3772 -0.5600
    8MPD2    C5  122   0.871   0.900  13.533 -0.5004 -0.0540  0.6336
    8MPD2     H  123   1.145   1.139  13.650  1.3047 -0.8575 -2.5410
    8MPD2    H1  124   0.916   0.968  13.336 -1.5354  2.8376 -0.4375
    8MPD2    H2  125   0.845   0.844  13.736  0.8015  0.3550  0.1837
    8MPD2    H3  126   0.793   0.831  13.504 -1.1037  0.7722  0.2923
    8MPD2     N  127   1.089   1.150  13.377 -0.0656 -0.1973  0.2728
    8MPD2    H5  128   1.072   1.121  13.282 -0.7344 -0.8066  0.5741
    8MPD2    N1  129   1.057   0.989  13.839 -0.1876  0.2423 -0.1864
    8MPD2    H7  130   0.995   0.938  13.902  0.9459  0.0847  0.7890
    9TMC1    C1  131   3.446   1.008  11.045 -0.0272  0.2335 -0.2235
    9TMC1    C2  132   3.492   1.032  10.920 -0.0654  0.2174  0.1438
    9TMC1    C3  133   3.594   1.119  10.903 -0.1006  0.0245 -0.4288
    9TMC1    C4  134   3.510   1.059  11.158  0.3782 -0.2297  0.3882
    9TMC1    C5  135   3.603   1.151  11.140  0.4241 -0.8439  0.0410
    9TMC1    C6  136   3.638   1.189  11.012  0.1121  0.0650  0.4177
    9TMC1     C  137   3.343   0.909  11.066 -0.5862 -0.8067  0.1410
    9TMC1     O  138   3.329   0.837  10.968  0.6279  0.4453 -0.2294
    9TMC1     H  139   3.440   0.991  10.834  0.6610  0.2771 -0.3188
    9TMC1    H1  140   3.495   1.031  11.262  3.3203  0.4926  1.0209
    9TMC1    H2  141   3.717   1.262  11.013  1.5385 -1.4504 -0.6732
    9TMC1    C7  142   3.668   1.210  11.256 -0.8615 -0.1797 -0.7129
    9TMC1    C8  143   3.586   1.199  10.785  0.5946 -0.3544  0.3548
    9TMC1    O1  144   3.685   1.154  11.366  0.4050 -0.0238  0.5157
    9TMC1    O2  145   3.477   1.220  10.734  0.9358 -0.4975 -0.3604
    9TMC1    O3  146   3.667   1.343  11.245  0.1674 -0.3596  0.1986
    9TMC1    H3  147   3.658   1.383  11.156  0.0896  0.4942  0.5959
    9TMC1    O5  148   3.698   1.263  10.779  0.1705 -0.2300  0.4473
    9TMC1    H5  149   3.772   1.215  10.823 -0.5093 -2.2860 -0.7012
   10MPD2     C  150   3.136   0.714  11.146  0.0911  0.3081 -0.4562
   10MPD2    C1  151   3.190   0.811  11.227 -0.2017 -0.1718  0.1645
   10MPD2    C2  152   3.161   0.807  11.358 -0.1204  0.4390  0.4163
   10MPD2    C3  153   3.070   0.724  11.414  0.0055 -0.2951  0.6175
   10MPD2    C4  154   3.012   0.631  11.334  0.0954  0.2192 -0.0125
   10MPD2    C5  155   3.045   0.630  11.201  0.6325  0.0897  0.4174
   10MPD2     H  156   3.196   0.886  11.424  0.7363 -2.1110  3.0172
   10MPD2    H1  157   2.952   0.549  11.373  0.8507 -0.6673 -0.7088
   10MPD2    H2  158   3.149   0.704  11.039 -0.0856  0.8744 -0.5288
   10MPD2    H3  159   2.998   0.552  11.142 -0.6211  1.2532 -0.1265
   10MPD2     N  160   3.034   0.727  11.551  0.4518 -0.0752  0.1090
   10MPD2    H5  161   2.966   0.658  11.583 -1.8302  0.9327 -2.4892
   10MPD2    N1  162   3.281   0.916  11.185 -0.0222 -0.3205  0.4759
   10MPD2    H7  163   3.321   0.988  11.244 -0.7006  0.9949 -0.6583
   11TCq1    O1  164   3.977   0.939  14.168  0.3946  0.4174 -0.7918
   11TCq1    C1  165   4.032   0.880  14.272  0.5855 -1.1409 -1.3980
   11TCq1    O2  166   4.149   0.901  14.299  0.2837 -0.5395 -0.1146
   11TCq1    C2  167   3.931   0.851  14.365  0.0276  0.4546 -0.0552
   11TCq1    C3  168   3.915   0.921  14.484 -0.4451 -0.0910 -0.1121
   11TCq1    C4  169   3.790   0.922  14.537  0.0381  0.1977  0.4567
   11TCq1    C5  170   3.685   0.852  14.480  0.7117 -0.0641  0.0803
   11TCq1    C6  171   3.705   0.784  14.364  0.3369  0.2075  0.4712
   11TCq1    C7  172   3.822   0.794  14.294 -0.1133 -0.1544  0.0642
   11TCq1    C8  173   3.600   0.688  14.320 -0.9167 -0.1553  0.0150
   11TCq1    O4  174   3.493   0.713  14.371  0.0760  0.2092 -0.9271
   11TCq1    C9  175   3.761   0.985  14.664  0.2386 -0.0619  0.3243
   11TCq1    O5  176   3.648   0.969  14.717 -0.1472 -0.1697 -0.2393
   11TCq1    O6  177   3.863   1.029  14.722 -0.2154 -0.3605  0.0402
   11TCq1    H1  178   3.884   0.964  14.182  0.3486  0.2249 -0.7443
   11TCq1    H2  179   4.001   0.969  14.530 -0.4940  0.2267 -0.3513
   11TCq1    H3  180   3.592   0.858  14.535  0.6104  1.5310 -0.2660
   11TCq1    H4  181   3.834   0.737  14.203 -1.6285  0.3689 -0.4735
   12MPD2     C  182   3.428   0.488  14.184 -0.4661 -0.2116 -0.1307
   12MPD2    C1  183   3.565   0.495  14.177  0.0241  0.2859 -1.1617
   12MPD2    C2  184   3.628   0.388  14.119 -0.2096 -0.2324 -0.1803
   12MPD2    C3  185   3.557   0.284  14.055  0.4242 -0.9286  0.0449
   12MPD2    C4  186   3.421   0.286  14.054  0.6030 -0.3433  0.3550
   12MPD2    C5  187   3.364   0.387  14.122 -0.2289 -0.1139 -0.0715
   12MPD2     H  188   3.736   0.390  14.111 -0.3582  0.9475 -2.0374
   12MPD2    H1  189   3.362   0.204  14.014 -0.7992  0.0036  1.7145
   12MPD2    H2  190   3.370   0.572  14.221 -1.5407 -1.0117 -0.0151
   12MPD2    H3  191   3.256   0.384  14.135 -0.2261 -0.7056 -0.1791
   12MPD2     N  192   3.634   0.183  13.991 -0.1257  0.2222 -0.4336
   12MPD2    H5  193   3.734   0.201  13.994 -0.0407 -0.2277 -0.6140
   12MPD2    N1  194   3.646   0.590  14.232  0.1155 -0.2843  0.2988
   12MPD2    H7  195   3.747   0.576  14.226  0.1394 -0.0579  0.1558
   13TCq1    O1  196   3.253   1.461  11.860 -0.6510 -0.6194  0.7168
   13TCq1    C1  197   3.303   1.531  11.753 -0.0663 -0.3998 -0.3425
   13TCq1    O2  198   3.268   1.638  11.714  0.0130 -0.0480 -0.0255
   13TCq1    C2  199   3.390   1.427  11.690  0.1046  0.9143 -0.4814
   13TCq1    C3  200   3.436   1.336  11.781  0.9586  0.1968 -0.3792
   13TCq1    C4  201   3.453   1.206  11.735  0.0865  0.3905  0.1052
   13TCq1    C5  202   3.409   1.174  11.609 -0.0519  0.4413 -0.6141
   13TCq1    C6  203   3.367   1.273  11.518 -0.7720  0.1431  0.6039
   13TCq1    C7  204   3.348   1.400  11.564  0.0107  0.2058 -0.4048
   13TCq1    C8  205   3.294   1.227  11.404  0.0376  0.1331 -0.5917
   13TCq1    O4  206   3.275   1.108  11.398  0.0395  0.0244  0.2184
   13TCq1    C9  207   3.511   1.102  11.817  0.1884  0.4241 -0.3817
   13TCq1    O5  208   3.554   1.146  11.925 -0.2518 -0.9166 -0.2690
   13TCq1    O6  209   3.558   1.005  11.755 -0.1937  0.0715 -0.0956
   13TCq1    H1  210   3.275   1.366  11.850 -0.1153 -0.5134  0.8968
   13TCq1    H2  211   3.463   1.362  11.883 -0.9424  0.4012  0.0672
   13TCq1    H3  212   3.410   1.069  11.580 -1.2968  0.5817 -1.1572
   13TCq1    H4  213   3.311   1.482  11.504  0.9469 -0.5500 -2.0232
   14MPD2     C  214   3.300   1.381  11.075  0.0659 -0.1549 -0.0422
   14MPD2    C1  215   3.262   1.291  11.171  0.2381 -0.6682 -0.5825
   14MPD2    C2  216   3.143   1.225  11.149 -0.4057 -0.1454  0.1146
   14MPD2    C3  217   3.082   1.224  11.025  0.2866 -0.3134 -0.3095
   14MPD2    C4  218   3.134   1.308  10.924  0.0350  0.0940 -0.6544
   14MPD2    C5  219   3.239   1.390  10.955 -0.2592  1.2160 -0.1297
   14MPD2     H  220   3.087   1.175  11.228  0.3550 -0.0366  0.7174
   14MPD2    H1  221   3.089   1.328  10.827 -0.0182 -0.5946 -0.7693
   14MPD2    H2  222   3.385   1.446  11.089 -1.0441  0.9648  1.4905
   14MPD2    H3  223   3.279   1.459  10.882 -0.4802 -0.4099 -1.7740
   14MPD2     N  224   2.961   1.147  11.009  0.0048  0.0413  0.8497
   14MPD2    H5  225   2.922   1.118  11.098 -0.7602  2.0632  1.1641
   14MPD2    N1  226   3.321   1.306  11.297  0.1557 -0.0582  0.1935
   14MPD2    H7  227   3.379   1.386  11.319 -1.0965  0.6683  0.8713
   15TCq1    O1  228   1.716   4.706   1.692 -0.6416 -0.6337  0.2097
   15TCq1    C1  229   1.594   4.719   1.633 -0.0131 -1.0461  0.2936
   15TCq1    O2  230   1.538   0.095   1.628 -0.1790 -0.7498 -0.1717
   15TCq1    C2  231   1.601   4.617   1.530  0.3883 -0.5348  0.4351
   15TCq1    C3  232   1.717   4.593   1.462 -0.4717  0.9430  0.3749
   15TCq1    C4  233   1.708   4.519   1.348 -1.1035 -0.8577 -0.2780
   15TCq1    C5  234   1.595   4.455   1.310  0.4285  0.0630 -0.0632
   15TCq1    C6  235   1.483   4.477   1.382 -0.5095  0.6669  0.2693
   15TCq1    C7  236   1.479   4.558   1.494 -0.0631 -0.3032 -0.1774
   15TCq1    C8  237   1.361   4.402   1.349 -0.3242  0.0316  0.7407
   15TCq1    O4  238   1.385   4.310   1.271  0.0715  0.9321 -0.3573
   15TCq1    C9  239   1.823   4.499   1.259  0.9688 -0.1907  0.2201
   15TCq1    O5  240   1.939   4.537   1.300 -0.2179 -0.1168  0.3850
   15TCq1    O6  241   1.807   4.458   1.142 -0.2721 -0.3092  0.4086
   15TCq1    H1  242   1.752   4.616   1.675  1.7418  0.8286 -2.3083
   15TCq1    H2  243   1.811   4.644   1.479 -1.0674  1.9640  0.6430
   15TCq1    H3  244   1.600   4.397   1.219  2.5832  0.3638 -0.1511
   15TCq1    H4  245   1.395   4.589   1.556 -0.5408 -0.3605 -0.8026
   16MPD2     C  246   1.043   4.401   1.512 -0.8700 -0.0425 -0.3065
   16MPD2    C1  247   1.132   4.370   1.409  0.0405 -0.2823  0.2906
   16MPD2    C2  248   1.085   4.284   1.311 -0.2864 -0.0150  0.8928
   16MPD2    C3  249   0.957   4.227   1.311  0.4191 -0.0775 -0.1503
   16MPD2    C4  250   0.875   4.261   1.415  0.1685  0.4922 -0.8207
   16MPD2    C5  251   0.911   4.357   1.508 -0.2430  0.0505  0.2007
   16MPD2     H  252   1.150   4.257   1.228 -1.9618 -0.7619 -0.1728
   16MPD2    H1  253   0.780   4.210   1.429 -0.0022  0.9111 -0.4526
   16MPD2    H2  254   1.075   4.460   1.597 -2.9042 -0.6974  0.9036
   16MPD2    H3  255   0.839   4.385   1.583  0.5005  2.6125 -0.0418
   16MPD2     N  256   0.930   4.123   1.219  0.0745  0.3011  0.3841
   16MPD2    H5  257   1.007   4.095   1.159 -0.0796  1.0130 -0.1457
   16MPD2    N1  258   1.252   4.443   1.415  0.1885 -0.1466 -0.5517
   16MPD2    H7  259   1.263   4.498   1.499  2.9734 -0.5738 -0.6470
   17TMC1    C1  260   3.403   0.604  11.774  0.1115  0.0219  0.4797
   17TMC1    C2  261   3.502   0.699  11.783  0.2310 -0.1541  0.4179
   17TMC1    C3  262   3.582   0.702  11.892 -0.1271  0.4510  0.0928
   17TMC1    C4  263   3.374   0.521  11.881  0.1072 -0.0636  0.3607
   17TMC1    C5  264   3.452   0.523  11.989  0.8106  0.3954 -0.5762
   17TMC1    C6  265   3.557   0.615  11.998 -0.1982  0.8873  0.0968
   17TMC1     C  266   3.347   0.570  11.640  0.6799 -0.4142  0.0892
   17TMC1     O  267   3.248   0.497  11.638 -0.0389  0.2341  0.1916
   17TMC1     H  268   3.515   0.762  11.695 -1.5863  0.0086  0.2820
   17TMC1    H1  269   3.305   0.440  11.862  2.2913 -1.6378 -0.9214
   17TMC1    H2  270   3.606   0.637  12.092  0.7685  2.1355 -0.7014
   17TMC1    C7  271   3.398   0.461  12.105  0.7759  0.0365 -0.3358
   17TMC1    C8  272   3.721   0.742  11.876  0.3713 -0.1744 -0.3048
   17TMC1    O1  273   3.280   0.432  12.110  0.3053  0.5905  0.6905
   17TMC1    O2  274   3.805   0.664  11.914  0.1698 -0.1625  0.0221
   17TMC1    O3  275   3.493   0.435  12.202  0.2316 -0.1651  0.3009
   17TMC1    H3  276   3.584   0.469  12.191 -0.9859  2.7700 -0.8174
   17TMC1    O5  277   3.727   0.812  11.759  0.0683  0.2404 -0.1296
   17TMC1    H5  278   3.652   0.875  11.762  0.9924  1.2452  1.9046
   18MPD2     C  279   3.324   0.485  11.361 -0.4083  0.1171 -0.6793
   18MPD2    C1  280   3.426   0.563  11.402 -0.5908  0.3474  0.4200
   18MPD2    C2  281   3.515   0.616  11.310  0.0181 -0.0906 -0.0978
   18MPD2    C3  282   3.505   0.583  11.178 -0.9898 -0.4720  0.2567
   18MPD2    C4  283   3.424   0.474  11.142  0.0143 -0.0147 -0.3831
   18MPD2    C5  284   3.334   0.429  11.235  0.2131 -0.2012  0.8443
   18MPD2     H  285   3.590   0.690  11.335 -0.8355  0.4367  0.9137
   18MPD2    H1  286   3.434   0.425  11.045  1.8804  0.6168 -0.5188
   18MPD2    H2  287   3.241   0.448  11.419 -0.6301  2.3644  0.4288
   18MPD2    H3  288   3.263   0.355  11.201  0.2823 -0.4531  1.2429
   18MPD2     N  289   3.588   0.638  11.080  0.9981  0.0580 -0.2846
   18MPD2    H5  290   3.590   0.578  10.998  3.8111 -1.9183  1.2442
   18MPD2    N1  291   3.430   0.613  11.535 -0.0014  0.3069  0.1078
   18MPD2    H7  292   3.507   0.677  11.551  0.4992 -0.2895  0.0831
   19TMC2    C1  293   0.342   0.819  13.973  0.1497 -0.2448  0.2555
   19TMC2    C2  294   0.296   0.927  13.909 -0.3346  0.5188  0.4881
   19TMC2    C3  295   0.166   0.962  13.926 -0.2332  0.3216  0.2095
   19TMC2    C4  296   0.256   0.754  14.052  0.0225  0.0520  0.4649
   19TMC2    C5  297   0.120   0.786  14.067 -0.1914  0.4435 -0.0313
   19TMC2    C6  298   0.074   0.892  14.002 -0.2959 -0.5593 -0.2117
   19TMC2     C  299   0.474   0.764  13.947  0.4520 -0.4977  0.4499
   19TMC2     O  300   0.528   0.792  13.842 -0.7413 -0.2116  0.2316
   19TMC2     H  301   0.366   0.981  13.848  0.2129 -2.6782 -1.7119
   19TMC2    H1  302   0.288   0.659  14.093 -3.1832 -1.9316 -1.5872
   19TMC2    H2  303   4.708   0.929  14.022 -0.0580 -0.9280  1.6783
   19TMC2    C7  304   0.032   0.683  14.121  1.0333  1.2105  0.4441
   19TMC2    C8  305   0.128   1.100  13.887  0.9894  0.2691 -0.1069
   19TMC2    O1  306   0.087   0.574  14.110 -0.1885 -0.1111 -0.4078
   19TMC2    O2  307   0.011   1.135  13.869  0.4537  0.0304 -0.1900
   19TMC2    O5  308   0.214   1.177  13.956  0.2381 -0.1798  0.5478
   19TMC2    H5  309   0.293   1.121  13.970  1.5197  0.9426 -2.2247
   20MPD2     C  310   0.702   0.564  13.994 -0.3241 -0.7054 -0.0248
   20MPD2    C1  311   0.619   0.621  14.087 -0.5149 -0.4451 -0.6625
   20MPD2    C2  312   0.642   0.597  14.215  0.1304  0.2060 -0.3613
   20MPD2    C3  313   0.743   0.516  14.261 -0.9330  0.5762 -0.1515
   20MPD2    C4  314   0.829   0.466  14.173 -0.7352 -0.5122 -0.3197
   20MPD2    C5  315   0.805   0.481  14.038  0.3960  0.2108  0.5954
   20MPD2     H  316   0.569   0.640  14.283  2.7169  3.9994  0.0452
   20MPD2    H1  317   0.911   0.400  14.199 -2.4423 -2.5312 -0.0553
   20MPD2    H2  318   0.693   0.575  13.887 -1.4274  0.6804  0.2105
   20MPD2    H3  319   0.850   0.422  13.959  0.3892  0.1954  0.6032
   20MPD2     N  320   0.770   0.501  14.398 -1.1114  0.0294 -0.1511
   20MPD2    H5  321   0.835   0.424  14.414  2.0103  2.8258  0.6946
   20MPD2    N1  322   0.515   0.706  14.059 -0.4979  0.9937 -0.6569
   20MPD2    H7  323   0.472   0.740  14.145 -0.6915  1.3372 -0.8891
   21TMC2    C1  324   2.789   0.876  14.406  0.2537 -0.3628 -0.8655
   21TMC2    C2  325   2.884   0.781  14.371 -0.2025  0.4443  0.2975
   21TMC2    C3  326   2.854   0.650  14.395  0.4639 -0.2304  0.3122
   21TMC2    C4  327   2.672   0.846  14.476  1.0804 -0.6420 -0.2346
   21TMC2    C5  328   2.653   0.713  14.502  0.0409  0.0063  0.5006
   21TMC2    C6  329   2.738   0.614  14.458 -0.5276  0.0640 -0.0837
   21TMC2     C  330   2.835   1.010  14.414 -0.1188 -0.1307 -0.5032
   21TMC2     O  331   2.951   1.032  14.434 -0.5158  0.3836 -0.0554
   21TMC2     H  332   2.980   0.808  14.329 -1.2673  1.2194 -1.6411
   21TMC2    H1  333   2.595   0.918  14.504 -0.3645 -2.4105  0.3082
   21TMC2    H2  334   2.721   0.514  14.496  0.9023  0.9555  2.9442
   21TMC2    C7  335   2.541   0.677  14.587 -0.2298 -0.8574  0.6831
   21TMC2    C8  336   2.946   0.543  14.390  0.0309  1.2375 -0.3489
   21TMC2    O1  337   2.555   0.589  14.670 -0.3697  0.1038  0.0832
   21TMC2    O2  338   2.965   0.457  14.480  0.0428  0.0255 -0.2004
   21TMC2    O5  339   3.020   0.559  14.279 -0.6747  0.1108 -0.0122
   21TMC2    H5  340   3.003   0.642  14.229  0.4507  0.0237 -0.5513
   22MPD2     C  341   2.657   1.493  14.481  0.1783  0.2619  0.4471
   22MPD2    C1  342   2.767   1.439  14.541 -0.1001 -0.1106  0.0301
   22MPD2    C2  343   2.803   1.312  14.497  0.1001  0.5450 -0.2202
   22MPD2    C3  344   2.718   1.236  14.420 -0.5412 -0.0890 -0.8410
   22MPD2    C4  345   2.603   1.290  14.369  0.7417  0.3321 -0.0066
   22MPD2    C5  346   2.577   1.418  14.395 -0.6130  0.3042 -0.0223
   22MPD2     H  347   2.898   1.277  14.534  1.2206  2.3551 -1.3882
   22MPD2    H1  348   2.539   1.239  14.298 -0.9664  1.5828  0.6408
   22MPD2    H2  349   2.618   1.587  14.519  0.0306  1.2036 -2.0197
   22MPD2    H3  350   2.487   1.459  14.353 -0.8145  0.6081  0.7048
   22MPD2     N  351   2.728   1.094  14.397  0.0452 -0.9130 -0.3991
   22MPD2    H5  352   2.648   1.055  14.349 -1.5214  1.8512 -0.0279
   22MPD2    N1  353   2.847   1.505  14.641  0.8607  0.9539  0.4226
   22MPD2    H7  354   2.917   1.450  14.691  2.6215  0.5853 -2.4773
   23TMC2    C1  355   3.847   1.610  14.207  0.4157  0.4275 -0.3382
   23TMC2    C2  356   3.907   1.620  14.078 -0.2280  0.1147 -0.3722
   23TMC2    C3  357   3.828   1.585  13.971  0.5690 -0.2379  0.5621
   23TMC2    C4  358   3.719   1.571  14.230 -0.6719  0.5194  0.0843
   23TMC2    C5  359   3.647   1.528  14.113  0.5933 -0.4589 -0.1557
   23TMC2    C6  360   3.698   1.546  13.983 -0.4061 -0.4528 -0.7469
   23TMC2     C  361   3.916   1.676  14.316 -0.2108 -1.0411 -0.7923
   23TMC2     O  362   3.860   1.669  14.425  0.0833 -0.2940 -0.0474
   23TMC2     H  363   3.993   1.680  14.051 -1.3126  1.6283 -0.4892
   23TMC2    H1  364   3.675   1.555  14.328  0.0001 -0.0549  0.2870
   23TMC2    H2  365   3.638   1.531  13.894 -0.5084  1.5568 -1.0038
   23TMC2    C7  366   3.510   1.494  14.123  0.1035  0.3375  0.5760
   23TMC2    C8  367   3.862   1.645  13.847 -0.0981 -0.2384  0.2959
   23TMC2    O1  368   3.457   1.437  14.029 -0.1763 -0.0129 -0.4507
   23TMC2    O2  369   3.977   1.656  13.806 -0.4214  0.4655 -0.1459
   23TMC2    O5  370   3.757   1.708  13.798  0.6891  0.0914  0.1152
   23TMC2    H5  371   3.669   1.713  13.842  1.2621  3.3052  0.8821
   24MPD2     C  372   4.345   1.899  14.493 -0.2927 -0.1053  0.1797
   24MPD2    C1  373   4.256   1.814  14.552  0.3026 -0.5271  0.7760
   24MPD2    C2  374   4.140   1.765  14.485 -0.0962 -0.3242 -0.5713
   24MPD2    C3  375   4.129   1.801  14.356 -0.1498 -0.5401 -0.1362
   24MPD2    C4  376   4.225   1.883  14.294  0.4963 -0.4407  0.2904
   24MPD2    C5  377   4.327   1.928  14.359  0.2124  0.0416 -0.8277
   24MPD2     H  378   4.073   1.696  14.534  0.4014 -0.1010  0.4241
   24MPD2    H1  379   4.222   1.907  14.189 -2.9376 -0.9339  0.2640
   24MPD2    H2  380   4.437   1.934  14.538  0.1566 -0.0391 -0.8111
   24MPD2    H3  381   4.401   1.991  14.313  0.7607  1.2021  1.6773
   24MPD2     N  382   4.028   1.748  14.272  0.3373  0.5801 -0.3652
   24MPD2    H5  383   4.040   1.755  14.172 -0.5889 -1.4680 -0.6330
   24MPD2    N1  384   4.272   1.769  14.685  0.5765  0.4798 -0.1538
   24MPD2    H7  385   4.200   1.706  14.720  1.0634 -0.7390 -1.3359
   25TMC2    C1  386   2.685   0.209  11.366 -0.0211 -0.5127 -0.1271
   25TMC2    C2  387   2.691   0.343  11.383 -0.1703 -0.7236  0.5212
   25TMC2    C3  388   2.673   0.373  11.519  0.3840  0.0659  0.0907
   25TMC2    C4  389   2.684   0.110  11.469 -0.1431  0.4919  0.2647
   25TMC2    C5  390   2.681   0.148  11.595 -0.2729 -0.8978 -0.3363
   25TMC2    C6  391   2.662   0.277  11.618 -0.1281 -0.2756  0.1615
   25TMC2     C  392   2.673   0.171  11.229 -0.3185  0.1634 -1.1985
   25TMC2     O  393   2.697   0.248  11.141 -0.3331  0.0412  0.0605
   25TMC2     H  394   2.685   0.404  11.294  1.2578 -1.1928  0.1078
   25TMC2    H1  395   2.721   0.008  11.466 -0.6321  0.3084  0.4300
   25TMC2    H2  396   2.647   0.311  11.720  0.9466 -0.2758  0.3206
   25TMC2    C7  397   2.633   0.051  11.694 -1.0158 -0.4691  0.1942
   25TMC2    C8  398   2.669   0.512  11.559 -0.2296  0.0248 -0.2560
   25TMC2    O1  399   2.677   4.669  11.684 -0.2771  0.2912 -0.3719
   25TMC2    O2  400   2.761   0.590  11.536 -0.2361  0.1481  0.2884
   25TMC2    O5  401   2.538   0.538  11.550 -0.3606 -0.1946 -0.4701
   25TMC2    H5  402   2.480   0.460  11.541 -1.8934  0.6693  2.0230
   26MPD2     C  403   2.615   4.555  10.850  0.2922  0.0582  0.3492
   26MPD2    C1  404   2.583   4.497  10.968 -0.2495 -0.0347  0.2940
   26MPD2    C2  405   2.590   4.576  11.083  0.0159  0.0058  0.6959
   26MPD2    C3  406   2.635   4.706  11.089 -0.1667  0.8837 -0.2154
   26MPD2    C4  407   2.649   0.030  10.965 -0.4501  0.8376  0.0602
   26MPD2    C5  408   2.646   4.685  10.850 -0.2080 -0.8355  0.2688
   26MPD2     H  409   2.581   4.522  11.177  0.6186 -1.7486 -0.2448
   26MPD2    H1  410   2.666   0.136  10.954 -2.2716  1.2009  0.7211
   26MPD2    H2  411   2.627   4.502  10.756  2.7026 -0.8481  1.1703
   26MPD2    H3  412   2.671   4.718  10.750 -1.3812 -0.2744  0.1569
   26MPD2     N  413   2.638   0.040  11.213  1.0306 -0.3260 -0.3314
   26MPD2    H5  414   2.607   4.720  11.293  1.1587 -1.5741 -1.1216
   26MPD2    N1  415   2.530   4.370  10.961 -0.0283  0.4216  0.0306
   26MPD2    H7  416   2.529   4.327  10.869  2.9741 -1.6891  0.9894
   27TMC2    C1  417   1.206   2.210  11.545 -0.1126  0.5943 -0.2085
   27TMC2    C2  418   1.121   2.274  11.462  0.0248  0.4728 -0.0603
   27TMC2    C3  419   1.127   2.407  11.447 -0.1656  0.6558 -0.5546
   27TMC2    C4  420   1.298   2.278  11.618  0.2077  0.0020  0.9199
   27TMC2    C5  421   1.298   2.414  11.603 -0.4748  0.5849 -0.8453
   27TMC2    C6  422   1.216   2.481  11.526 -0.3224 -0.1108  0.3626
   27TMC2     C  423   1.206   2.061  11.544 -0.2344 -0.3833  0.1830
   27TMC2     O  424   1.183   1.999  11.441 -0.0795  0.2556  0.1475
   27TMC2     H  425   1.063   2.214  11.393 -1.0579  1.8541 -0.3460
   27TMC2    H1  426   1.374   2.218  11.666  0.8344  0.4980  0.5503
   27TMC2    H2  427   1.232   2.587  11.516 -1.1489  0.1591  1.9655
   27TMC2    C7  428   1.400   2.491  11.675 -0.4295 -0.3708  0.1403
   27TMC2    C8  429   1.019   2.474  11.377 -0.2216 -0.0104 -0.0187
   27TMC2    O1  430   1.427   2.595  11.631 -0.4617 -0.0354 -0.5941
   27TMC2    O2  431   0.947   2.411  11.296  0.3354 -0.7558  0.5554
   27TMC2    O5  432   0.975   2.574  11.452  0.1406 -0.4927  0.4816
   27TMC2    H5  433   1.014   2.605  11.536 -0.5189 -0.3903  0.7508
   28MPD2     C  434   1.175   1.651  11.842 -0.4739  0.2194 -0.1911
   28MPD2    C1  435   1.129   1.759  11.910 -0.6013 -0.3924  0.1292
   28MPD2    C2  436   1.131   1.882  11.851  0.4799  0.2650  0.5247
   28MPD2    C3  437   1.188   1.898  11.724  0.4970  0.2537  1.3313
   28MPD2    C4  438   1.227   1.787  11.650 -0.4849  0.0304  0.0722
   28MPD2    C5  439   1.233   1.664  11.715  0.4083 -0.1146 -0.0404
   28MPD2     H  440   1.104   1.974  11.902 -1.5186 -0.5148  0.8684
   28MPD2    H1  441   1.258   1.799  11.547 -0.2735 -2.1090 -0.1061
   28MPD2    H2  442   1.178   1.559  11.899  0.9492  2.4215  3.2737
   28MPD2    H3  443   1.258   1.576  11.657  1.3475  0.9425 -1.2614
   28MPD2     N  444   1.191   2.034  11.675 -0.1082 -0.3554  0.6894
   28MPD2    H5  445   1.157   2.107  11.737  0.6409  1.4524 -1.0049
   28MPD2    N1  446   1.071   1.724  12.038  0.2266  0.2175  0.5891
   28MPD2    H7  447   1.081   1.626  12.061  2.4508 -0.1553 -1.8593
   29TMC2    C1  448   1.666   3.818  14.382  0.0086  0.2430  0.4776
   29TMC2    C2  449   1.719   3.788  14.506  0.3900 -0.0792 -0.2948
   29TMC2    C3  450   1.716   3.885  14.603  0.1472 -0.7134 -0.4697
   29TMC2    C4  451   1.631   3.948  14.345 -0.4563  0.8198  0.3161
   29TMC2    C5  452   1.636   4.041  14.445 -1.0146  0.2777  0.3156
   29TMC2    C6  453   1.675   4.011  14.573  0.1542  0.9245 -0.0723
   29TMC2     C  454   1.651   3.712  14.292  0.2893 -0.6828  0.2444
   29TMC2     O  455   1.724   3.617  14.318 -0.1437 -0.0654  0.0562
   29TMC2     H  456   1.761   3.692  14.536 -0.8699 -1.0738 -1.6839
   29TMC2    H1  457   1.614   3.977  14.242 -0.2894  3.1876  0.9510
   29TMC2    H2  458   1.661   4.090  14.645 -0.4583  0.9935 -0.2613
   29TMC2    C7  459   1.614   4.182  14.409 -0.5577  0.0261 -0.5467
   29TMC2    C8  460   1.774   3.843  14.731  0.2923 -0.3595  0.0142
   29TMC2    O1  461   1.527   4.216  14.331  0.0119 -0.7322  0.6232
   29TMC2    O2  462   1.846   3.742  14.739  0.1754 -0.1206  0.2183
   29TMC2    O5  463   1.698   3.891  14.830  0.1006  0.6488  0.4038
   29TMC2    H5  464   1.623   3.940  14.789  0.0365  1.1599  1.1334
   30MPD2     C  465   1.423   3.415  13.947  0.8383  0.2134  0.3501
   30MPD2    C1  466   1.508   3.392  14.049 -0.0713  0.2570  0.2776
   30MPD2    C2  467   1.551   3.492  14.137 -0.1739 -0.3794  0.1615
   30MPD2    C3  468   1.503   3.620  14.124  0.3212 -0.0821  0.1103
   30MPD2    C4  469   1.420   3.649  14.021 -0.3306  0.3762  0.3560
   30MPD2    C5  470   1.383   3.549  13.930  1.5755 -0.4285 -0.2727
   30MPD2     H  471   1.601   3.458  14.227  1.9297 -0.7930 -1.1677
   30MPD2    H1  472   1.385   3.752  14.012  3.3979  1.3481 -3.3675
   30MPD2    H2  473   1.395   3.335  13.879 -1.5606 -0.7137  2.4071
   30MPD2    H3  474   1.323   3.579  13.845 -1.4569 -1.4304  1.5342
   30MPD2     N  475   1.546   3.730  14.203  0.1669  0.3156 -0.7025
   30MPD2    H5  476   1.503   3.818  14.179  2.3233  1.3478 -0.8185
   30MPD2    N1  477   1.556   3.266  14.080 -0.3229  0.0969  0.2118
   30MPD2    H7  478   1.630   3.257  14.149 -0.7006  0.0994  0.6140
   31TMC2    C1  479   3.856   2.882  15.057 -0.3056 -0.1431 -1.0962
   31TMC2    C2  480   3.731   2.885  15.005 -0.3011 -0.4886  0.0291
   31TMC2    C3  481   3.638   2.805  15.068 -0.0972  0.1863 -0.2847
   31TMC2    C4  482   3.892   2.803  15.165 -0.1140 -0.3832 -0.7342
   31TMC2    C5  483   3.798   2.720  15.221  0.2508 -0.2279 -0.1010
   31TMC2    C6  484   3.663   2.731  15.180  0.8103 -0.4021 -0.9451
   31TMC2     C  485   3.946   2.979  14.997 -0.3577 -0.1473  0.2586
   31TMC2     O  486   3.890   3.060  14.930 -0.1790  0.6803  0.0703
   31TMC2     H  487   3.703   2.950  14.923 -1.6803  0.7854  1.5152
   31TMC2    H1  488   3.997   2.792  15.192  0.8113  3.5396 -2.7184
   31TMC2    H2  489   3.585   2.671  15.226  0.2529  0.4849 -0.7503
   31TMC2    C7  490   3.834   2.622  15.321 -1.1960 -1.5594 -0.1612
   31TMC2    C8  491   3.520   2.785  14.991  0.4104 -0.1973 -0.1283
   31TMC2    O1  492   3.951   2.585  15.321 -0.4190 -0.2449 -0.2832
   31TMC2    O2  493   3.512   2.841  14.879 -0.4017 -0.7959  0.3120
   31TMC2    O5  494   3.490   2.653  15.024  0.1531  0.0012 -0.4594
   31TMC2    H5  495   3.425   2.606  14.967  0.2509 -0.0552 -0.5251
   32MPD2     C  496   4.368   3.206  14.822 -1.0777  0.5176  0.5754
   32MPD2    C1  497   4.248   3.185  14.767  0.1107 -1.0285 -0.5658
   32MPD2    C2  498   4.158   3.105  14.831  0.1207  0.3640 -0.4413
   32MPD2    C3  499   4.187   3.041  14.950 -0.5620  0.1033 -0.1631
   32MPD2    C4  500   4.319   3.048  14.997 -0.6010 -0.8040  0.1581
   32MPD2    C5  501   4.403   3.134  14.930  0.0708  0.0117  1.3495
   32MPD2     H  502   4.059   3.082  14.793  0.6902 -1.7400 -0.6734
   32MPD2    H1  503   4.346   3.009  15.095  3.3066 -2.1298 -1.4710
   32MPD2    H2  504   4.441   3.268  14.772 -1.6227  0.7882  0.1010
   32MPD2    H3  505   4.500   3.148  14.976  0.4331 -2.3557  1.3399
   32MPD2     N  506   4.082   2.967  15.021  0.3707 -0.6575 -0.2955
   32MPD2    H5  507   4.112   2.912  15.101 -0.3784 -0.3595  0.1838
   32MPD2    N1  508   4.221   3.246  14.647 -0.2134  0.6327  0.0383
   32MPD2    H7  509   4.304   3.279  14.598  0.3129  2.6372  2.2823
   33TMC2    C1  510   3.312   1.303  10.256  0.2245  0.5535  0.1002
   33TMC2    C2  511   3.207   1.319  10.335  0.5961  0.1460  0.2230
   33TMC2    C3  512   3.139   1.433  10.328 -0.1300  0.3018  0.7367
   33TMC2    C4  513   3.358   1.407  10.168  0.4759 -0.3403  0.0608
   33TMC2    C5  514   3.273   1.512  10.155 -0.6972  0.2456 -0.4346
   33TMC2    C6  515   3.168   1.531  10.237 -0.0556 -0.4250  0.8735
   33TMC2     C  516   3.401   1.199  10.292 -0.1152 -0.6197 -0.2943
   33TMC2     O  517   3.354   1.107  10.358 -0.4086  0.1698 -0.1431
   33TMC2     H  518   3.191   1.249  10.417 -0.7141 -1.3347 -1.2960
   33TMC2    H1  519   3.438   1.384  10.099  0.1461  1.9576 -1.0953
   33TMC2    H2  520   3.116   1.626  10.247  2.4174  1.0785 -0.6078
   33TMC2    C7  521   3.327   1.623  10.083  0.1015  0.3079  0.6710
   33TMC2    C8  522   3.013   1.443  10.402 -0.1225  0.1061 -0.0315
   33TMC2    O1  523   3.447   1.616  10.060 -0.0355  0.6484 -0.1516
   33TMC2    O2  524   2.922   1.524  10.375  0.6521  0.0007  0.3254
   33TMC2    O5  525   3.043   1.396  10.525 -0.1130  0.1075 -0.2425
   33TMC2    H5  526   3.114   1.331  10.541 -1.1618 -1.9398 -3.9299
   34MPD2     C  527   3.894   1.070  10.381 -0.0164 -0.1643  0.5852
   34MPD2    C1  528   3.777   1.031  10.446  0.0356 -0.5118 -0.3484
   34MPD2    C2  529   3.654   1.065  10.390 -0.1982  0.5262 -0.4729
   34MPD2    C3  530   3.654   1.159  10.291 -0.2681  0.5044 -0.1224
   34MPD2    C4  531   3.767   1.202  10.237  0.3695 -0.0469 -1.0415
   34MPD2    C5  532   3.882   1.157  10.277 -0.4339 -0.8022  0.2121
   34MPD2     H  533   3.572   1.040  10.456 -0.5785  2.1228 -0.3441
   34MPD2    H1  534   3.778   1.268  10.152  0.9542  2.4914  1.0109
   34MPD2    H2  535   3.996   1.037  10.400  0.1488  1.5831  2.7529
   34MPD2    H3  536   3.975   1.192  10.234 -0.6706  0.6753  0.8869
   34MPD2     N  537   3.530   1.225  10.250 -0.5778 -0.4843  0.4572
   34MPD2    H5  538   3.544   1.308  10.194  1.1817 -0.6338  0.6745
   34MPD2    N1  539   3.795   0.942  10.551  0.0275  0.0118  0.3200
   34MPD2    H7  540   3.894   0.920  10.559  0.2336  0.8790  0.1700
   35TMC2    C1  541   0.399   2.290  11.013 -0.3737  0.2457  0.4809
   35TMC2    C2  542   0.314   2.298  10.904 -0.5750  0.3772 -0.0966
   35TMC2    C3  543   0.179   2.298  10.927 -0.4327 -0.0737 -0.6260
   35TMC2    C4  544   0.344   2.277  11.136  0.2814  0.1218  0.1021
   35TMC2    C5  545   0.207   2.289  11.154  0.4181  0.0718 -0.1895
   35TMC2    C6  546   0.120   2.286  11.050  0.1124 -0.1012 -0.4475
   35TMC2     C  547   0.533   2.241  10.979  0.2102  0.0145  0.6849
   35TMC2     O  548   0.569   2.270  10.863  0.4371  0.2362  0.0667
   35TMC2     H  549   0.348   2.288  10.802  1.6393 -0.6680  0.7539
   35TMC2    H1  550   0.418   2.291  11.214 -1.6358  0.1127  1.9375
   35TMC2    H2  551   0.014   2.297  11.069  0.2762  0.5313  0.1231
   35TMC2    C7  552   0.170   2.244  11.285 -1.1475  0.5066 -0.1975
   35TMC2    C8  553   0.094   2.307  10.810  0.1342  1.0737 -0.0237
   35TMC2    O1  554   0.261   2.197  11.353 -0.0669  0.6851  0.6495
   35TMC2    O2  555   0.134   2.349  10.704 -0.0020 -0.1205  0.2805
   35TMC2    O5  556   4.723   2.219  10.826  0.3077  0.5325  0.7082
   35TMC2    H5  557   4.710   2.181  10.916  1.4789  0.1351  0.7154
   36MPD2     C  558   0.934   1.937  11.084  1.1417  0.0049 -1.0056
   36MPD2    C1  559   0.849   1.930  11.191  0.3549  0.3247 -1.0065
   36MPD2    C2  560   0.729   1.996  11.173  0.1345  0.5990  0.5693
   36MPD2    C3  561   0.689   2.062  11.058  0.1279 -0.1532 -0.5081
   36MPD2    C4  562   0.770   2.050  10.953  0.0107 -0.3526 -0.0504
   36MPD2    C5  563   0.893   1.985  10.964 -0.3353 -0.0266 -0.0642
   36MPD2     H  564   0.663   2.003  11.259  1.6279  1.3639  1.6661
   36MPD2    H1  565   0.747   2.097  10.858 -3.1513 -2.7727 -0.5123
   36MPD2    H2  566   1.029   1.884  11.091  1.7633  0.9605 -2.1468
   36MPD2    H3  567   0.967   1.983  10.885 -0.4828  0.6866 -0.2255
   36MPD2     N  568   0.576   2.150  11.067  0.3416  0.6790 -0.3994
   36MPD2    H5  569   0.525   2.148  11.155  0.9998  0.7548 -0.0160
   36MPD2    N1  570   0.889   1.867  11.311  0.2038  0.1559  0.0238
   36MPD2    H7  571   0.984   1.837  11.329 -0.8125 -2.3639  1.0472
   37TMC2    C1  572   2.408   2.634  11.665 -0.7879 -0.0799  0.0923
   37TMC2    C2  573   2.305   2.686  11.599  0.7377  0.6119  0.1445
   37TMC2    C3  574   2.305   2.686  11.462 -0.6536  0.3974  0.2631
   37TMC2    C4  575   2.514   2.582  11.593  0.3169 -0.3766 -0.1769
   37TMC2    C5  576   2.503   2.576  11.460 -0.3608  0.5672  0.5885
   37TMC2    C6  577   2.401   2.627  11.387 -0.2147  0.1604 -0.3354
   37TMC2     C  578   2.402   2.631  11.809  0.1145  0.4349 -0.8291
   37TMC2     O  579   2.317   2.699  11.870  0.1761 -0.1466  0.0747
   37TMC2     H  580   2.219   2.727  11.651 -1.2960 -3.2898 -0.1243
   37TMC2    H1  581   2.605   2.554  11.644  1.5527  1.1772 -1.5377
   37TMC2    H2  582   2.403   2.631  11.279  2.5674  1.5734 -0.2398
   37TMC2    C7  583   2.584   2.474  11.407  0.3281  0.4532 -0.5979
   37TMC2    C8  584   2.189   2.712  11.380 -1.3190  0.8178 -0.4921
   37TMC2    O1  585   2.681   2.432  11.466  0.0371  0.8282 -0.0557
   37TMC2    O2  586   2.201   2.774  11.274  0.2239 -0.2415  0.5879
   37TMC2    O5  587   2.121   2.594  11.374 -0.4514 -0.8535  0.0683
   37TMC2    H5  588   2.119   2.536  11.453  0.7251 -0.7285  0.1923
   38MPD2     C  589   2.551   2.442  12.269  0.7418 -0.1145  0.2475
   38MPD2    C1  590   2.606   2.357  12.176  0.1727 -0.2492  0.0767
   38MPD2    C2  591   2.570   2.386  12.039 -0.0928 -0.4028 -0.0961
   38MPD2    C3  592   2.510   2.495  11.992 -0.5680 -0.4261 -0.3620
   38MPD2    C4  593   2.455   2.575  12.096  0.4556  0.2718 -0.3918
   38MPD2    C5  594   2.479   2.551  12.227  0.1612 -0.2468 -0.0449
   38MPD2     H  595   2.614   2.325  11.962 -0.9880  0.1460 -1.0484
   38MPD2    H1  596   2.396   2.665  12.077 -0.9496 -0.4822  0.4496
   38MPD2    H2  597   2.574   2.444  12.375  0.5455  2.6381  0.2537
   38MPD2    H3  598   2.446   2.620  12.304  0.8518  0.2197 -0.1689
   38MPD2     N  599   2.480   2.523  11.860  0.3974  0.4763  0.3943
   38MPD2    H5  600   2.533   2.463  11.798  2.2598  0.7699  1.7051
   38MPD2    N1  601   2.686   2.244  12.202  0.4312  0.4385 -0.8511
   38MPD2    H7  602   2.722   2.196  12.120  0.3490  0.0792 -0.6795
   39TMC2    C1  603   1.044   3.197   1.609 -0.4849 -0.1503  0.3116
   39TMC2    C2  604   1.022   3.129   1.728  0.2805 -0.3085  0.3002
   39TMC2    C3  605   1.124   3.122   1.815  0.0440 -0.4266 -0.7161
   39TMC2    C4  606   1.163   3.265   1.575  0.3897  0.5864  0.5748
   39TMC2    C5  607   1.263   3.247   1.675 -0.1850 -0.8812  0.2363
   39TMC2    C6  608   1.247   3.170   1.792  0.4266 -0.7391  0.0136
   39TMC2     C  609   0.936   3.183   1.513 -0.1387 -0.0484  0.2565
   39TMC2     O  610   0.901   3.284   1.454  0.3922  0.0554  0.5312
   39TMC2     H  611   0.937   3.067   1.754 -0.7969  0.2319 -1.9665
   39TMC2    H1  612   1.188   3.311   1.480  0.3808  2.1103  1.3039
   39TMC2    H2  613   1.328   3.152   1.861  1.6133 -1.3130 -1.5215
   39TMC2    C7  614   1.400   3.261   1.636 -0.5198 -1.0204 -1.0437
   39TMC2    C8  615   1.097   3.047   1.938 -0.3708 -0.8828  0.2676
   39TMC2    O1  616   1.476   3.174   1.683 -0.0190 -0.8379 -0.4336
   39TMC2    O2  617   0.993   3.046   2.003  0.3477  0.0982  0.4262
   39TMC2    O5  618   1.195   2.954   1.936 -0.5786  0.4565  0.0654
   39TMC2    H5  619   1.229   2.939   1.845 -1.5453  2.7487 -0.6854
   40MPD2     C  620   0.738   2.867   1.454 -0.1024  0.1153  0.1070
   40MPD2    C1  621   0.770   3.003   1.447 -0.3181  0.2947  0.3835
   40MPD2    C2  622   0.683   3.087   1.385  0.4863  0.1328  0.1662
   40MPD2    C3  623   0.564   3.045   1.333  0.5913 -0.1760 -0.0622
   40MPD2    C4  624   0.538   2.911   1.337 -1.3524  0.2490 -0.5356
   40MPD2    C5  625   0.618   2.829   1.404  0.5557 -0.5742  0.3473
   40MPD2     H  626   0.709   3.192   1.385  0.3585  0.1662  0.4900
   40MPD2    H1  627   0.440   2.877   1.307 -1.1531 -1.4084  0.7302
   40MPD2    H2  628   0.795   2.794   1.510 -2.0524 -2.3374 -1.1198
   40MPD2    H3  629   0.595   2.723   1.407  3.3386 -1.1983 -0.9987
   40MPD2     N  630   0.461   3.122   1.277  0.3385 -0.9504  0.4616
   40MPD2    H5  631   0.378   3.075   1.244 -2.6121  4.2988  0.4560
   40MPD2    N1  632   0.894   3.050   1.512  0.1489 -0.6804  0.2050
   40MPD2    H7  633   0.945   2.976   1.560 -0.1598 -0.4393  0.8917
   41TMC2    C1  634   1.071   2.210  13.767  0.4255 -0.4455 -0.2280
   41TMC2    C2  635   1.173   2.271  13.713  0.3688 -0.6002  0.3683
   41TMC2    C3  636   1.180   2.279  13.577 -0.1340 -0.3761 -0.0146
   41TMC2    C4  637   0.963   2.170  13.690  0.2005 -0.0305  0.1707
   41TMC2    C5  638   0.964   2.187  13.551  0.0068 -0.4235  0.5791
   41TMC2    C6  639   1.079   2.235  13.494 -0.5696  0.1008  0.2505
   41TMC2     C  640   1.029   2.253  13.897  0.1808  0.0475  0.8483
   41TMC2     O  641   1.103   2.242  13.996  0.2587  0.0168 -0.3788
   41TMC2     H  642   1.259   2.285  13.778 -0.4236  1.4209  0.9637
   41TMC2    H1  643   0.881   2.109  13.727 -0.3630 -0.6844 -2.1326
   41TMC2    H2  644   1.084   2.251  13.387 -0.6596  1.4556  0.4410
   41TMC2    C7  645   0.833   2.216  13.490  0.3155  0.2011  0.1913
   41TMC2    C8  646   1.276   2.375  13.525  0.1595  0.1621  0.1080
   41TMC2    O1  647   0.735   2.210  13.561  0.2419  0.0983 -0.3814
   41TMC2    O2  648   1.330   2.465  13.585 -0.1829 -0.3722 -0.4690
   41TMC2    O5  649   1.344   2.298  13.436  0.2774  0.0402  1.0282
   41TMC2    H5  650   1.293   2.215  13.426 -0.4500  0.5925  0.0908
   42MPD2     C  651   0.851   2.372  14.098  0.5287  0.5219  0.3584
   42MPD2    C1  652   0.838   2.394  13.961 -0.5001  0.6908 -0.3031
   42MPD2    C2  653   0.737   2.476  13.918  0.1702  0.3204 -0.3839
   42MPD2    C3  654   0.649   2.533  14.007 -0.2731 -0.1026 -0.2418
   42MPD2    C4  655   0.664   2.507  14.137  0.2039 -0.0735 -0.5129
   42MPD2    C5  656   0.762   2.432  14.187 -0.6041  0.1785 -0.0244
   42MPD2     H  657   0.730   2.491  13.811 -2.5645 -2.4552 -0.6107
   42MPD2    H1  658   0.601   2.549  14.215 -0.1456 -2.1306  0.3160
   42MPD2    H2  659   0.923   2.302  14.138 -0.2216 -0.0220  0.7634
   42MPD2    H3  660   0.773   2.405  14.291 -0.0792  0.6857  0.0521
   42MPD2     N  661   0.530   2.606  13.972 -0.1097  0.2866  0.1198
   42MPD2    H5  662   0.480   2.634  14.056 -0.6597 -2.0746  0.6058
   42MPD2    N1  663   0.917   2.326  13.869  0.3212 -0.5738  0.1969
   42MPD2    H7  664   0.904   2.346  13.771 -0.2440  0.2716  0.4425
   43TMC2    C1  665   1.280   0.014   0.787 -0.5519  0.3923  0.4414
   43TMC2    C2  666   1.179   0.078   0.852  0.3688  0.5100  0.2536
   43TMC2    C3  667   1.212   0.133   0.973  0.2168  0.4074 -0.9875
   43TMC2    C4  668   1.413   0.019   0.829  0.7331  0.7792 -0.7560
   43TMC2    C5  669   1.432   0.070   0.953 -0.1784 -0.1986  0.4034
   43TMC2    C6  670   1.337   0.136   1.027 -0.5239 -0.4926 -0.1273
   43TMC2     C  671   1.244   4.665   0.667 -0.5073 -0.3220 -0.1928
   43TMC2     O  672   1.336   4.643   0.588  0.3430 -0.0012 -0.7764
   43TMC2     H  673   1.080   0.095   0.810  0.1746 -0.3075  0.3929
   43TMC2    H1  674   1.490   4.697   0.778 -0.0099  1.6677 -2.8718
   43TMC2    H2  675   1.347   0.196   1.117  0.3436 -1.7463  0.6293
   43TMC2    C7  676   1.569   0.092   0.985  0.0773  0.4766 -0.1993
   43TMC2    C8  677   1.117   0.191   1.060 -0.0758 -0.3893  0.6210
   43TMC2    O1  678   1.635   0.118   0.887 -0.0794 -0.2090 -0.4264
   43TMC2    O2  679   1.104   0.157   1.178  0.2848  0.5145 -0.0362
   43TMC2    O5  680   1.052   0.291   1.007 -0.4197 -0.3933  0.8546
   43TMC2    H5  681   1.099   0.318   0.924 -1.7871  0.8358  0.4823
   44MPD2     C  682   1.009   4.269   0.448  0.3636  0.7365  0.0371
   44MPD2    C1  683   1.143   4.299   0.458  0.9287 -0.9594  0.1483
   44MPD2    C2  684   1.174   4.419   0.518  0.1233  1.0365 -0.7286
   44MPD2    C3  685   1.084   4.495   0.586  0.7999 -0.1112  0.0519
   44MPD2    C4  686   0.948   4.461   0.576 -0.1598 -0.5889  0.2514
   44MPD2    C5  687   0.904   4.347   0.503 -0.5065  0.2570 -0.5065
   44MPD2     H  688   1.279   4.433   0.541  0.2321  0.2541 -0.7438
   44MPD2    H1  689   0.888   4.527   0.636  0.8356  0.5130  0.0331
   44MPD2    H2  690   0.982   4.176   0.400  2.6718  0.2391 -0.2820
   44MPD2    H3  691   0.804   4.307   0.489 -0.3106 -1.0631  1.8526
   44MPD2     N  692   1.119   4.608   0.657  0.3491 -0.0812  0.2573
   44MPD2    H5  693   1.050   4.645   0.722  0.3174 -1.5393  1.0434
   44MPD2    N1  694   1.245   4.221   0.416  0.2477  0.2773  0.4013
   44MPD2    H7  695   1.337   4.261   0.402  0.7943 -1.3274 -0.7130
   45TMC2    C1  696   2.207   2.099   9.703  0.3419  0.3555  0.4547
   45TMC2    C2  697   2.273   2.006   9.782 -0.0635 -0.3190 -1.0560
   45TMC2    C3  698   2.337   2.059   9.895  0.2967 -0.1519 -0.2321
   45TMC2    C4  699   2.223   2.240   9.717  0.0867  0.1899 -0.1392
   45TMC2    C5  700   2.301   2.275   9.825  0.0225  0.7697  0.6598
   45TMC2    C6  701   2.364   2.191   9.910 -0.0930 -0.7808  0.2468
   45TMC2     C  702   2.131   2.035   9.598 -0.3624  0.2446  0.4610
   45TMC2     O  703   2.136   1.910   9.596 -0.1437  0.3361 -0.2461
   45TMC2     H  704   2.274   1.899   9.766 -1.4919 -0.5053  0.0988
   45TMC2    H1  705   2.169   2.311   9.656 -0.0247 -0.3105 -0.6294
   45TMC2    H2  706   2.427   2.221   9.994  0.2149 -0.1809 -0.2039
   45TMC2    C7  707   2.325   2.411   9.848 -0.2321 -0.8732  0.3587
   45TMC2    C8  708   2.415   1.967   9.990  0.1331 -0.6254  0.6121
   45TMC2    O1  709   2.372   2.439   9.954  0.4031 -0.0021  0.8533
   45TMC2    O2  710   2.512   1.994  10.061 -0.0326  0.8091 -0.1383
   45TMC2    O5  711   2.337   1.858  10.015 -0.0740  0.1526 -0.1123
   45TMC2    H5  712   2.253   1.875   9.967  0.0402  1.6922  0.2328
   46MPD2     C  713   1.945   1.963   9.376 -0.4692  0.5161 -0.5172
   46MPD2    C1  714   1.966   2.092   9.416 -0.1462  0.2152  0.5675
   46MPD2    C2  715   1.883   2.192   9.364  0.0140  0.3773  0.6487
   46MPD2    C3  716   1.770   2.166   9.286  0.4679 -0.2780  0.1091
   46MPD2    C4  717   1.760   2.034   9.246 -0.2675  0.6177  0.0275
   46MPD2    C5  718   1.849   1.940   9.290  0.1121 -0.5599  0.3139
   46MPD2     H  719   1.888   2.295   9.398 -1.1723  0.7781 -0.3814
   46MPD2    H1  720   1.686   1.996   9.176 -1.0042 -1.1393  1.7469
   46MPD2    H2  721   2.009   1.879   9.400  1.8039  2.3801 -0.1032
   46MPD2    H3  722   1.833   1.835   9.271 -0.2458 -0.7906  1.8586
   46MPD2     N  723   1.679   2.273   9.251 -0.1503  0.2082  0.0982
   46MPD2    H5  724   1.695   2.370   9.275  1.1194 -0.6936  2.8876
   46MPD2    N1  725   2.054   2.124   9.525  0.4901  1.0714  0.5668
   46MPD2    H7  726   2.050   2.222   9.552  0.2314  1.4463 -0.8259
   47TMC2    C1  727   3.820   3.085  10.081 -0.2357  0.1659  0.3692
   47TMC2    C2  728   3.778   3.054  10.209 -0.0999 -0.1729 -0.6038
   47TMC2    C3  729   3.660   3.100  10.256  0.5393  0.0799  0.6069
   47TMC2    C4  730   3.743   3.183  10.010 -0.6159 -0.1715  0.3188
   47TMC2    C5  731   3.622   3.218  10.061  0.6439  0.4293 -0.2708
   47TMC2    C6  732   3.577   3.183  10.187 -0.0873 -0.4452  0.2774
   47TMC2     C  733   3.963   3.083  10.063 -0.2490  0.3459  0.1811
   47TMC2     O  734   4.031   3.085  10.165  0.2634  0.5522 -0.5543
   47TMC2     H  735   3.845   2.988  10.264  0.1203  0.3106 -0.2978
   47TMC2    H1  736   3.779   3.223   9.916 -0.1385 -2.6754 -0.5457
   47TMC2    H2  737   3.478   3.193  10.230 -0.2789 -0.7830 -0.0847
   47TMC2    C7  738   3.539   3.301   9.969  0.3166 -0.6020  0.8185
   47TMC2    C8  739   3.626   3.067  10.393  0.4585  0.8702  0.2892
   47TMC2    O1  740   3.591   3.346   9.869 -0.8070  0.0501 -0.1412
   47TMC2    O2  741   3.673   2.965  10.442 -0.2392  0.6117  0.1735
   47TMC2    O5  742   3.640   3.193  10.449  0.2190 -0.0815  0.4355
   47TMC2    H5  743   3.629   3.263  10.381 -0.6519 -1.4660 -0.8577
   48MPD2     C  744   4.246   3.101   9.965 -0.1209 -0.9368  0.2397
   48MPD2    C1  745   4.131   3.101   9.885  0.7238 -0.3437  0.2540
   48MPD2    C2  746   4.159   3.088   9.753 -0.3431 -0.0782  0.4450
   48MPD2    C3  747   4.284   3.099   9.697  0.8927  0.1363 -0.3656
   48MPD2    C4  748   4.387   3.132   9.777 -0.3245 -0.3614 -1.0104
   48MPD2    C5  749   4.369   3.126   9.911  0.2115 -0.0854  0.1006
   48MPD2     H  750   4.077   3.080   9.682  0.1136  0.0276 -0.0960
   48MPD2    H1  751   4.488   3.144   9.740 -0.3880 -0.9803 -1.3838
   48MPD2    H2  752   4.239   3.104  10.073 -0.3913 -0.1099  0.2039
   48MPD2    H3  753   4.447   3.159   9.979 -1.2969  1.9558  0.8433
   48MPD2     N  754   4.294   3.084   9.559  0.8786 -0.0860  0.1177
   48MPD2    H5  755   4.204   3.068   9.514 -0.2232  2.4851  1.3739
   48MPD2    N1  756   3.997   3.093   9.929  0.5698  0.3638 -0.6868
   48MPD2    H7  757   3.924   3.081   9.859  0.3561 -1.1092 -0.2139
   49TMC2    C1  758   2.648   0.898   9.785 -0.1047  0.6087  0.5410
   49TMC2    C2  759   2.590   0.944   9.900  0.0568 -0.5025 -0.4276
   49TMC2    C3  760   2.629   1.059   9.962  0.3968  0.0926  0.3413
   49TMC2    C4  761   2.756   0.964   9.738  0.3374 -0.0852  0.3812
   49TMC2    C5  762   2.788   1.088   9.795  0.1453 -0.6601 -0.0585
   49TMC2    C6  763   2.730   1.138   9.910 -0.3345 -0.0873  0.3057
   49TMC2     C  764   2.612   0.777   9.706  0.2722 -0.7084 -0.0147
   49TMC2     O  765   2.614   0.785   9.584  0.0544  0.6599 -0.4139
   49TMC2     H  766   2.505   0.888   9.938 -0.7517  2.3727  2.0086
   49TMC2    H1  767   2.797   0.935   9.642 -0.7235 -1.0537  0.2115
   49TMC2    H2  768   2.751   1.233   9.958  0.2667 -0.6135  1.0734
   49TMC2    C7  769   2.890   1.170   9.736  0.4323 -0.9789  0.1078
   49TMC2    C8  770   2.556   1.109  10.076 -0.3976 -0.0416 -0.3585
   49TMC2    O1  771   2.904   1.280   9.789 -0.5240  0.1253  0.1978
   49TMC2    O2  772   2.598   1.193  10.152 -0.6811  0.0645 -0.0196
   49TMC2    O5  773   2.431   1.067  10.058  0.4361 -0.5826  0.0100
   49TMC2    H5  774   2.409   1.031   9.969 -2.6559 -2.6241  1.6273
   50MPD2     C  775   2.498   0.520   9.624 -0.9030  0.0602 -0.0959
   50MPD2    C1  776   2.506   0.559   9.761 -0.1678  0.1390 -0.3467
   50MPD2    C2  777   2.463   0.476   9.864  0.1756 -0.3412  0.1810
   50MPD2    C3  778   2.424   0.353   9.836 -0.7856  0.1694 -0.0137
   50MPD2    C4  779   2.415   0.310   9.706 -0.5808 -0.1168  0.5877
   50MPD2    C5  780   2.454   0.394   9.601 -0.1078 -0.2988  0.5698
   50MPD2     H  781   2.460   0.503   9.969 -1.6328  0.5474 -0.0978
   50MPD2    H1  782   2.394   0.205   9.685  0.4795 -0.1185 -0.4253
   50MPD2    H2  783   2.524   0.580   9.538  0.8777  1.0394  1.1072
   50MPD2    H3  784   2.450   0.350   9.502 -0.8763  0.2316  0.3705
   50MPD2     N  785   2.375   0.261   9.938  0.6847 -0.6548  0.7434
   50MPD2    H5  786   2.331   0.172   9.915  1.6626 -1.2058  0.9959
   50MPD2    N1  787   2.550   0.689   9.794 -0.5650  0.4551 -0.1159
   50MPD2    H7  788   2.550   0.713   9.893 -0.7403 -0.3249  0.0665
   51TMC2    C1  789   2.941   3.713   0.883 -0.3813  0.0393 -0.4185
   51TMC2    C2  790   2.887   3.783   0.781 -0.1023  0.5078 -0.0318
   51TMC2    C3  791   2.960   3.821   0.672  0.6882 -0.2603 -0.0135
   51TMC2    C4  792   3.068   3.666   0.865 -1.4655  0.6829  0.2717
   51TMC2    C5  793   3.133   3.690   0.748  0.4858 -0.4221  0.2436
   51TMC2    C6  794   3.085   3.786   0.657 -0.1521 -0.0708  0.1524
   51TMC2     C  795   2.854   3.611   0.940  0.5662 -0.4625  0.9644
   51TMC2     O  796   2.900   3.494   0.944 -0.5094 -0.0893 -0.0142
   51TMC2     H  797   2.780   3.787   0.768 -0.3805  1.6573  2.6541
   51TMC2    H1  798   3.100   3.582   0.926 -3.0907 -1.2297 -1.5164
   51TMC2    H2  799   3.150   3.819   0.577 -1.2679  2.2610  0.2319
   51TMC2    C7  800   3.265   3.638   0.738 -0.1110 -0.7197  0.5464
   51TMC2    C8  801   2.900   3.860   0.546 -0.0990 -0.3565 -0.1701
   51TMC2    O1  802   3.365   3.710   0.745  0.1083 -0.3189 -0.0272
   51TMC2    O2  803   2.784   3.895   0.557  0.3382  0.2693 -0.4549
   51TMC2    O5  804   2.939   3.763   0.454  0.0994  0.8391  0.2586
   51TMC2    H5  805   3.034   3.754   0.433 -0.6220  0.7027 -3.0381
   52MPD2     C  806   2.396   3.454   1.110  0.5381 -0.3884  0.1891
   52MPD2    C1  807   2.514   3.384   1.084 -0.1657 -0.4277  0.4617
   52MPD2    C2  808   2.634   3.444   1.042 -0.4739  0.1693 -0.2345
   52MPD2    C3  809   2.636   3.581   1.042  0.1080 -0.3173  0.1973
   52MPD2    C4  810   2.520   3.652   1.085  0.5094  0.1618 -1.2091
   52MPD2    C5  811   2.407   3.588   1.133 -0.2121 -0.0596 -0.3906
   52MPD2     H  812   2.716   3.377   1.019  2.3891  2.6310  2.6292
   52MPD2    H1  813   2.516   3.760   1.085  3.1054  0.2536 -1.1109
   52MPD2    H2  814   2.307   3.405   1.146 -0.9040  1.9559 -0.1544
   52MPD2    H3  815   2.315   3.641   1.157 -0.1811 -0.5577  0.8295
   52MPD2     N  816   2.737   3.664   0.988 -0.9884  0.3968 -0.2175
   52MPD2    H5  817   2.727   3.765   0.981 -0.0432  0.5626  0.7705
   52MPD2    N1  818   2.522   3.240   1.081 -0.2797 -0.5236 -0.5258
   52MPD2    H7  819   2.613   3.204   1.054 -0.3195  0.9043 -2.5065
   53TMC2    C1  820   2.857   1.799  11.414 -0.0434 -0.2108  0.2643
   53TMC2    C2  821   2.876   1.661  11.406 -0.1498 -0.4702  0.6943
   53TMC2    C3  822   2.930   1.605  11.516 -0.4984 -0.3208 -0.9189
   53TMC2    C4  823   2.898   1.872  11.525  0.2047 -0.3838 -0.5018
   53TMC2    C5  824   2.964   1.803  11.628 -0.7204 -0.4323  0.1008
   53TMC2    C6  825   2.974   1.665  11.627 -0.5946 -0.3564  0.1424
   53TMC2     C  826   2.762   1.851  11.321  0.4784 -0.4420  0.0967
   53TMC2     O  827   2.680   1.765  11.280  0.0154 -0.2241  0.0589
   53TMC2     H  828   2.827   1.605  11.328 -2.1012 -0.9698  2.2822
   53TMC2    H1  829   2.879   1.977  11.544  2.1118 -0.2084  0.4251
   53TMC2    H2  830   3.009   1.603  11.708  1.3147 -0.2465 -0.5818
   53TMC2    C7  831   3.001   1.883  11.745 -0.0845  0.2737  0.3103
   53TMC2    C8  832   2.970   1.462  11.489  0.1593 -0.6957  0.0431
   53TMC2    O1  833   2.967   2.001  11.751  0.1282 -0.2127 -0.0660
   53TMC2    O2  834   3.031   1.397  11.573 -0.3442 -0.1922  0.3823
   53TMC2    O5  835   2.985   1.450  11.357 -0.2270 -0.3608 -0.6841
   53TMC2    H5  836   2.990   1.536  11.311  2.5511  0.5612  1.3296
   54MPD2     C  837   2.562   2.010  11.185 -0.2078 -0.5813 -0.5879
   54MPD2    C1  838   2.648   2.063  11.274 -0.4784 -0.9226 -0.1819
   54MPD2    C2  839   2.638   2.197  11.311 -0.0048 -0.1149  0.3874
   54MPD2    C3  840   2.537   2.274  11.262  0.6006 -0.3688  0.0649
   54MPD2    C4  841   2.452   2.217  11.174  0.2104 -1.3097 -0.1612
   54MPD2    C5  842   2.460   2.090  11.135  0.2944  0.3311 -0.5933
   54MPD2     H  843   2.705   2.240  11.385 -2.2563  0.6442  1.9762
   54MPD2    H1  844   2.364   2.264  11.131 -0.7072 -0.3497  2.7689
   54MPD2    H2  845   2.566   1.909  11.146 -0.5785 -0.1927 -1.6322
   54MPD2    H3  846   2.380   2.056  11.070  0.4037  0.3876 -0.7568
   54MPD2     N  847   2.511   2.400  11.310  0.0492 -0.9272 -0.8836
   54MPD2    H5  848   2.422   2.437  11.276 -0.1149 -0.5261 -0.0135
   54MPD2    N1  849   2.759   1.986  11.328  0.2634  0.1845 -1.1709
   54MPD2    H7  850   2.830   2.039  11.377  0.6790 -2.0523  0.6961
   55TMC2    C1  851   4.224   4.101   0.061 -0.4080 -0.3295  0.1322
   55TMC2    C2  852   4.284   4.058  17.685  0.4212  0.2085  0.4709
   55TMC2    C3  853   4.346   3.937  17.693 -0.3722 -0.0649 -0.1784
   55TMC2    C4  854   4.214   4.019   0.171 -0.4962 -0.1461  0.0272
   55TMC2    C5  855   4.258   3.896   0.167 -0.7108  0.1724  0.5727
   55TMC2    C6  856   4.343   3.855   0.067 -0.5423  0.4868 -0.7011
   55TMC2     C  857   4.132   4.217   0.054 -1.2440 -0.0478  0.1824
   55TMC2     O  858   4.095   4.266   0.161 -0.3682  0.1505 -0.2899
   55TMC2     H  859   4.308   4.117  17.598 -0.1177 -2.0636 -1.2346
   55TMC2    H1  860   4.161   4.059   0.257 -1.6443  1.1604 -1.2950
   55TMC2    H2  861   4.384   3.755   0.061 -2.4123 -0.3690  1.1490
   55TMC2    C7  862   4.278   3.818   0.288 -0.2797 -0.1403 -0.5912
   55TMC2    C8  863   4.415   3.894  17.579  0.0367  0.7554 -0.3126
   55TMC2    O1  864   4.385   3.759   0.303  0.1571  0.4297  0.3305
   55TMC2    O2  865   4.368   3.916  17.470  0.1102  0.4526  0.0307
   55TMC2    O5  866   4.540   3.861  17.615 -1.0620  0.9138 -0.4283
   55TMC2    H5  867   4.557   3.895  17.706  0.0061 -1.8266  0.3840
   56MPD2     C  868   4.043   4.413  17.500 -0.7293 -0.0450 -0.2473
   56MPD2    C1  869   4.033   4.374  17.634 -0.1414 -0.4630  0.7681
   56MPD2    C2  870   3.967   4.457  17.724  0.1722 -0.1829  0.5787
   56MPD2    C3  871   3.906   4.570  17.676  0.6518  0.3641 -0.5364
   56MPD2    C4  872   3.924   4.618  17.547  0.7281 -0.0521 -0.1951
   56MPD2    C5  873   3.989   4.535  17.461  0.2033  0.2964  0.5320
   56MPD2     H  874   3.937   4.430   0.090  0.4174  1.0066  0.9609
   56MPD2    H1  875   3.876   4.708  17.509 -0.5454 -0.2262  1.0096
   56MPD2    H2  876   4.093   4.343  17.434 -0.2604 -1.2298  1.3430
   56MPD2    H3  877   4.001   4.567  17.358 -0.3723  0.9588  0.6705
   56MPD2     N  878   3.833   4.646   0.034  0.2544  0.2168  0.3197
   56MPD2    H5  879   3.825   4.599   0.124  0.6002  0.7444  0.6220
   56MPD2    N1  880   4.099   4.255  17.663  0.1262 -0.6537  0.2555
   56MPD2    H7  881   4.150   4.210  17.588 -0.3656 -1.0540  0.1609
   57TMC2    C1  882   3.971   1.045  13.476 -0.6546  0.2112 -0.5539
   57TMC2    C2  883   3.995   1.168  13.527 -0.8777  0.1132 -0.4672
   57TMC2    C3  884   4.113   1.198  13.589 -0.6428  0.1470  0.8947
   57TMC2    C4  885   4.068   0.949  13.485  0.2323 -0.1043  0.0533
   57TMC2    C5  886   4.186   0.979  13.547 -0.3223  0.3441 -0.1732
   57TMC2    C6  887   4.217   1.105  13.595  0.8385  0.3453 -0.6065
   57TMC2     C  888   3.833   1.011  13.442  0.0823  0.6766  0.4047
   57TMC2     O  889   3.764   1.110  13.424 -0.9522 -0.3305  0.1723
   57TMC2     H  890   3.923   1.248  13.519 -1.6836 -0.4723  1.0172
   57TMC2    H1  891   4.057   0.852  13.438 -2.8632  0.5259 -0.5463
   57TMC2    H2  892   4.315   1.135  13.630  0.8153  0.0300 -0.2626
   57TMC2    C7  893   4.298   0.899  13.500  0.5409  0.1191  0.1864
   57TMC2    C8  894   4.155   1.339  13.599  0.0013 -0.1895  1.0682
   57TMC2    O1  895   4.400   0.958  13.480  0.0610  0.2425 -0.3138
   57TMC2    O2  896   4.098   1.417  13.671 -0.3714 -1.1659 -0.0703
   57TMC2    O5  897   4.207   1.352  13.475  0.2696  0.6408  0.4786
   57TMC2    H5  898   4.234   1.264  13.442  2.5640  1.8980 -0.9533
   58MPD2     C  899   3.440   0.703  13.574  0.2065 -0.1042  0.6563
   58MPD2    C1  900   3.435   0.840  13.545  0.7682 -0.5326 -1.0116
   58MPD2    C2  901   3.549   0.897  13.503 -0.3492  0.0497  0.0215
   58MPD2    C3  902   3.665   0.821  13.487 -0.4412  0.0851  0.6118
   58MPD2    C4  903   3.662   0.686  13.514 -0.3594 -0.8490  0.6689
   58MPD2    C5  904   3.548   0.624  13.553  0.1059  0.3695  0.9145
   58MPD2     H  905   3.547   1.006  13.497  1.0548  0.0705 -0.1451
   58MPD2    H1  906   3.746   0.620  13.495  1.8333  1.4358  2.3553
   58MPD2    H2  907   3.357   0.657  13.627 -0.7098  1.0124  0.1856
   58MPD2    H3  908   3.550   0.518  13.571  1.0157  0.1536 -0.4675
   58MPD2     N  909   3.796   0.878  13.472  0.2411 -0.1454  0.2104
   58MPD2    H5  910   3.874   0.819  13.500 -0.2594 -0.7086  0.4068
   58MPD2    N1  911   3.325   0.925  13.563  0.3586  0.0670 -0.4419
   58MPD2    H7  912   3.338   1.025  13.551 -0.8536  0.5908  2.5394
   59TMC2    C1  913   1.047   1.209  12.572  0.1192  0.1521 -0.3038
   59TMC2    C2  914   1.015   1.107  12.647  0.3962  0.4930 -0.0785
   59TMC2    C3  915   0.953   0.999  12.583 -0.5001 -0.6473 -0.3221
   59TMC2    C4  916   1.015   1.214  12.437 -0.3236  0.5352  0.3927
   59TMC2    C5  917   0.953   1.105  12.374 -1.0778 -0.5392  0.0295
   59TMC2    C6  918   0.925   0.995  12.450 -0.1975 -0.0375 -0.3261
   59TMC2     C  919   1.113   1.330  12.617 -0.6860 -0.0639  0.3694
   59TMC2     O  920   1.125   1.424  12.543  0.4389  0.2446  0.2896
   59TMC2     H  921   1.019   1.103  12.755 -0.7996  2.2644  0.0472
   59TMC2    H1  922   1.077   1.277  12.375 -0.0891  0.8510  0.9506
   59TMC2    H2  923   0.856   0.918  12.416 -1.5604  1.1987 -0.3675
   59TMC2    C7  924   0.955   1.098  12.227 -0.2458 -0.1791 -0.4738
   59TMC2    C8  925   0.920   0.889  12.669 -0.5026  0.1638 -0.1932
   59TMC2    O1  926   0.998   0.989  12.189  0.2433  0.0020  0.0852
   59TMC2    O2  927   0.902   0.903  12.789 -0.3957 -0.7477  0.0078
   59TMC2    O5  928   1.007   0.796  12.621 -0.2633 -0.4463  0.3313
   59TMC2    H5  929   1.020   0.790  12.524  0.0530 -2.5166  0.4981
   60MPD2     C  930   1.245   1.540  12.777 -0.5612 -0.1126 -0.2480
   60MPD2    C1  931   1.242   1.407  12.814  0.0128  0.1822 -0.1762
   60MPD2    C2  932   1.318   1.365  12.922  0.4602  0.7028  0.4211
   60MPD2    C3  933   1.400   1.453  12.987 -0.0213  0.6343 -0.6572
   60MPD2    C4  934   1.400   1.583  12.944  0.1135 -0.0418 -0.0466
   60MPD2    C5  935   1.324   1.627  12.848 -0.3050  0.0353  0.3549
   60MPD2     H  936   1.308   1.263  12.958  0.2148  1.3864  2.2892
   60MPD2    H1  937   1.467   1.651  12.995 -0.3448  0.2615  0.1468
   60MPD2    H2  938   1.195   1.579  12.689 -1.4278  0.1455  0.3628
   60MPD2    H3  939   1.311   1.731  12.821  0.9672  0.3372  0.8792
   60MPD2     N  940   1.480   1.420  13.096  0.1288  0.1093 -0.1184
   60MPD2    H5  941   1.543   1.496  13.119 -0.2773  0.4851 -0.2659
   60MPD2    N1  942   1.165   1.313  12.745  0.0926  0.3242 -0.1532
   60MPD2    H7  943   1.167   1.219  12.783 -0.1781 -0.2432 -1.5045
   61TMC2    C1  944   4.644   3.072  15.769  0.4577 -0.2608 -0.4237
   61TMC2    C2  945   4.693   2.985  15.862 -0.2792  0.5922  0.7588
   61TMC2    C3  946   0.052   3.033  15.947  0.3801  0.2125  0.3251
   61TMC2    C4  947   4.689   3.204  15.760 -0.0839  0.1120 -0.5052
   61TMC2    C5  948   0.056   3.243  15.845  0.5201  0.4336  0.3578
   61TMC2    C6  949   0.105   3.162  15.938 -0.4857  0.2675 -0.3556
   61TMC2     C  950   4.604   3.011  15.637  0.4840  0.2830  0.5512
   61TMC2     O  951   4.520   2.918  15.642 -0.5401  0.2164 -0.4117
   61TMC2     H  952   4.656   2.883  15.853 -0.9568  0.9243 -0.2020
   61TMC2    H1  953   4.654   3.273  15.684 -0.5263 -1.8208 -2.0469
   61TMC2    H2  954   0.181   3.190  16.010 -1.7036 -1.0669  1.4957
   61TMC2    C7  955   0.139   3.350  15.795 -0.2409 -0.2120  0.4065
   61TMC2    C8  956   0.128   2.944  16.037  0.2612 -0.4744 -0.1418
   61TMC2    O1  957   0.116   3.388  15.678 -0.7586 -0.2230  0.3252
   61TMC2    O2  958   0.241   2.964  16.075 -0.1220 -0.2193  0.0099
   61TMC2    O5  959   0.054   2.833  16.041 -0.7583  0.5227  0.6691
   61TMC2    H5  960   4.692   2.845  16.023 -0.2472  0.7539 -2.0298
   62MPD2     C  961   4.572   2.922  15.357  0.4399  0.4809  0.4291
   62MPD2    C1  962   4.657   3.023  15.395  0.4470  0.1431 -0.4504
   62MPD2    C2  963   4.728   3.096  15.301  0.0583  0.1919  0.5794
   62MPD2    C3  964   4.718   3.064  15.167 -0.7616  0.1166  0.3221
   62MPD2    C4  965   4.642   2.956  15.126 -0.6750  0.5340 -0.2281
   62MPD2    C5  966   4.576   2.884  15.225  0.2478  0.5892  0.0475
   62MPD2     H  967   0.047   3.182  15.338 -1.5816  0.9367  1.1809
   62MPD2    H1  968   4.648   2.908  15.029 -1.6683 -0.5020  0.2155
   62MPD2    H2  969   4.512   2.867  15.428  0.6605  0.1457  0.3572
   62MPD2    H3  970   4.517   2.800  15.191  1.3126  0.3108 -1.1118
   62MPD2     N  971   0.054   3.146  15.071 -0.3293 -0.3607 -0.0889
   62MPD2    H5  972   0.051   3.111  14.976  2.9543  0.1958 -0.4021
   62MPD2    N1  973   4.662   3.071  15.529  0.2406 -1.0310 -0.1971
   62MPD2    H7  974   4.723   3.151  15.543 -2.3340  0.9008 -0.0719
   63TMC2    C1  975   4.630   2.939  10.863  0.8314  0.3614  0.5905
   63TMC2    C2  976   0.002   2.966  10.941  0.0787  0.2523  0.4875
   63TMC2    C3  977   0.115   3.012  10.880 -0.5197  0.2456 -0.3762
   63TMC2    C4  978   4.635   2.955  10.726 -0.5019  0.3643  0.8912
   63TMC2    C5  979   0.011   3.019  10.673 -0.0410  0.1856 -0.2586
   63TMC2    C6  980   0.123   3.043  10.745 -0.3518 -0.2962  0.3729
   63TMC2     C  981   4.515   2.883  10.929 -0.3371 -0.5576  0.2763
   63TMC2     O  982   4.510   2.898  11.052 -0.0930  0.0459  0.1857
   63TMC2     H  983   4.733   2.933  11.044 -0.4523 -1.5257 -0.0917
   63TMC2    H1  984   4.541   2.956  10.670 -0.0428  0.1122  0.1184
   63TMC2    H2  985   0.217   3.066  10.695 -0.9042  2.6624  0.7449
   63TMC2    C7  986   4.726   3.060  10.537 -0.1991 -0.2958 -0.2176
   63TMC2    C8  987   0.226   3.047  10.969  0.1315 -0.1319 -0.3550
   63TMC2    O1  988   4.624   3.023  10.482  0.7075  0.2777  0.3297
   63TMC2    O2  989   0.260   2.994  11.073  0.1381  0.2755 -0.0923
   63TMC2    O5  990   0.288   3.159  10.918  0.9638  0.3947 -0.0399
   63TMC2    H5  991   0.248   3.203  10.840  0.5560 -2.2419 -1.3105
   64MPD2     C  992   4.111   2.565  10.937 -0.7492 -0.0894 -0.1567
   64MPD2    C1  993   4.163   2.573  10.803 -0.0080  0.0177  1.0733
   64MPD2    C2  994   4.263   2.660  10.778  0.3900  0.0971  0.0326
   64MPD2    C3  995   4.325   2.735  10.876 -0.2986  0.3588  0.7368
   64MPD2    C4  996   4.274   2.727  11.003 -0.6329 -0.3842  0.1507
   64MPD2    C5  997   4.164   2.646  11.029 -0.2277  0.1059 -0.0752
   64MPD2     H  998   4.308   2.668  10.680 -1.4988  1.3066 -0.7345
   64MPD2    H1  999   4.314   2.796  11.077 -1.5522  1.7570 -1.3631
   64MPD2    H2 1000   4.040   2.488  10.968  0.9053 -0.5118  2.5399
   64MPD2    H3 1001   4.116   2.630  11.124 -1.8801  1.6851 -0.6375
   64MPD2     N 1002   4.435   2.818  10.842  0.5096 -0.2907 -0.2131
   64MPD2    H5 1003   4.445   2.837  10.743 -0.4983  0.1731 -0.2333
   64MPD2    N1 1004   4.110   2.495  10.698 -0.6121  0.1385  0.2666
   64MPD2    H7 1005   4.151   2.509  10.606  1.0901 -0.6117  0.9096
   65TMC2    C1 1006   1.537   2.021  15.471  0.2909 -0.2127  0.5486
   65TMC2    C2 1007   1.512   1.931  15.370 -0.7200 -0.2160 -0.6779
   65TMC2    C3 1008   1.449   1.986  15.263 -0.7839 -0.5333  0.0207
   65TMC2    C4 1009   1.485   2.146  15.474  0.3200  0.2259  1.1051
   65TMC2    C5 1010   1.414   2.186  15.367  0.3529  0.4606  0.4054
   65TMC2    C6 1011   1.395   2.112  15.254 -0.2185  0.3714 -0.7591
   65TMC2     C 1012   1.540   1.961  15.603  0.0119  0.0944 -0.4590
   65TMC2     O 1013   1.556   2.034  15.699 -0.6671 -0.5385 -0.2305
   65TMC2     H 1014   1.563   1.836  15.364  0.6274  0.3923  0.9023
   65TMC2    H1 1015   1.501   2.212  15.559 -0.0748  1.2538  0.3812
   65TMC2    H2 1016   1.329   2.137  15.172 -0.2355  1.2123 -0.4853
   65TMC2    C7 1017   1.329   2.295  15.377  0.1302 -0.0864 -0.1476
   65TMC2    C8 1018   1.444   1.908  15.145  0.5398  0.1442 -0.3511
   65TMC2    O1 1019   1.267   2.334  15.279  0.2893  0.1359 -0.4257
   65TMC2    O2 1020   1.343   1.918  15.073 -0.7578 -0.5586 -0.1935
   65TMC2    O5 1021   1.566   1.907  15.105 -0.0556 -0.4565 -0.3039
   65TMC2    H5 1022   1.636   1.920  15.173  1.2876 -0.5275 -1.6678
   66MPD2     C 1023   1.422   1.828  15.847  0.1878  0.4433 -0.2753
   66MPD2    C1 1024   1.399   1.791  15.714 -0.2183  0.0031 -0.7636
   66MPD2    C2 1025   1.304   1.706  15.688 -0.0373  0.2465  0.0592
   66MPD2    C3 1026   1.217   1.657  15.786 -0.0405 -0.0886 -0.3613
   66MPD2    C4 1027   1.243   1.681  15.921 -0.8117  0.5729 -0.1888
   66MPD2    C5 1028   1.345   1.770  15.952  0.4938 -0.5230  0.4969
   66MPD2     H 1029   1.290   1.692  15.582  2.5590  3.0472 -0.6437
   66MPD2    H1 1030   1.185   1.637  16.001 -0.5130  0.4018 -0.0715
   66MPD2    H2 1031   1.506   1.890  15.874  0.8095 -1.3471  1.8961
   66MPD2    H3 1032   1.356   1.812  16.051  2.1559  0.0354  0.0683
   66MPD2     N 1033   1.117   1.559  15.763 -0.0860 -0.5558 -0.6261
   66MPD2    H5 1034   1.048   1.552  15.836 -0.1058 -1.9508 -0.7617
   66MPD2    N1 1035   1.468   1.839  15.601  0.0817 -0.7528 -0.4158
   66MPD2    H7 1036   1.446   1.798  15.510 -1.7500  1.8059 -1.1216
   67TMC2    C1 1037   1.349   1.011  14.942 -0.2585  0.1530  0.7781
   67TMC2    C2 1038   1.254   1.096  14.987  0.3406  0.2127 -0.0960
   67TMC2    C3 1039   1.289   1.209  15.049  0.1458  0.1974  0.0834
   67TMC2    C4 1040   1.485   1.031  14.967 -0.6951 -0.0278  0.3303
   67TMC2    C5 1041   1.511   1.144  15.041 -0.3694  0.1598  0.2181
   67TMC2    C6 1042   1.418   1.238  15.081  0.5847 -0.5331 -0.0204
   67TMC2     C 1043   1.318   0.903  14.849 -0.3710  0.6750 -0.5742
   67TMC2     O 1044   1.411   0.833  14.814  0.4911  0.8794 -0.3468
   67TMC2     H 1045   1.149   1.076  14.969  1.1577 -1.3181 -3.1740
   67TMC2    H1 1046   1.559   0.954  14.949  0.3227  0.6496  1.6456
   67TMC2    H2 1047   1.441   1.320  15.149 -0.2717 -0.0051 -0.3624
   67TMC2    C7 1048   1.643   1.150  15.113 -0.5277 -0.2886  0.4415
   67TMC2    C8 1049   1.193   1.292  15.130 -1.0495  0.6067  0.2665
   67TMC2    O1 1050   1.735   1.077  15.077 -0.3558 -0.0277  0.3349
   67TMC2    O2 1051   1.226   1.348  15.235 -0.4278 -0.1422 -0.2605
   67TMC2    O5 1052   1.070   1.289  15.082 -0.2709  0.0613  0.4444
   67TMC2    H5 1053   1.070   1.269  14.986 -1.5306 -0.7472  0.6083
   68MPD2     C 1054   1.206   0.739  14.609  0.1190  0.6250 -0.1018
   68MPD2    C1 1055   1.133   0.836  14.677  0.5872  0.1261  0.6290
   68MPD2    C2 1056   1.010   0.879  14.630  0.0711  0.0451 -0.1025
   68MPD2    C3 1057   0.970   0.836  14.503  0.2163  0.3605 -0.3556
   68MPD2    C4 1058   1.052   0.747  14.427  0.4636  0.1705  0.0792
   68MPD2    C5 1059   1.161   0.698  14.490  0.6019  0.0908  0.4556
   68MPD2     H 1060   0.954   0.949  14.692 -0.2110  1.2544 -1.7435
   68MPD2    H1 1061   1.025   0.705  14.330 -0.2881  0.8801 -0.0256
   68MPD2    H2 1062   1.298   0.692  14.642 -0.0075  0.0273 -0.5981
   68MPD2    H3 1063   1.211   0.612  14.447  0.8970  2.2450 -3.5574
   68MPD2     N 1064   0.862   0.894  14.435 -1.0219 -0.6191  0.2270
   68MPD2    H5 1065   0.851   0.854  14.343  0.3314 -0.0836 -0.1714
   68MPD2    N1 1066   1.187   0.902  14.793  0.4296 -0.2363 -0.7384
   68MPD2    H7 1067   1.128   0.959  14.854 -1.0411 -0.5195 -1.8845
   69TMC2    C1 1068   3.241   2.461  12.626 -0.4136 -0.0573  0.1819
   69TMC2    C2 1069   3.162   2.569  12.650 -0.4534  0.7027 -0.1936
   69TMC2    C3 1070   3.160   2.660  12.550 -0.4849  0.1225  0.2614
   69TMC2    C4 1071   3.302   2.437  12.507 -0.3864 -0.2617  0.0462
   69TMC2    C5 1072   3.297   2.537  12.411  1.0934  0.3988  0.1407
   69TMC2    C6 1073   3.221   2.648  12.433 -0.1760  0.6257  0.4569
   69TMC2     C 1074   3.231   2.349  12.717  0.4128  0.6687 -0.2652
   69TMC2     O 1075   3.124   2.341  12.769 -0.3123  0.1244 -0.5009
   69TMC2     H 1076   3.099   2.584  12.736 -3.2952  1.5445 -2.4084
   69TMC2    H1 1077   3.375   2.356  12.507  2.0143  1.9038 -0.2558
   69TMC2    H2 1078   3.227   2.726  12.359 -1.6769  1.0679  0.8136
   69TMC2    C7 1079   3.348   2.521  12.277  0.2725 -0.4941 -0.1880
   69TMC2    C8 1080   3.086   2.777  12.584 -0.2512  0.0324 -0.5336
   69TMC2    O1 1081   3.333   2.611  12.189 -0.3214 -0.2800  0.2096
   69TMC2    O2 1082   2.997   2.772  12.671  0.3147 -0.1777  0.0824
   69TMC2    O5 1083   3.096   2.861  12.476 -0.4800 -0.1029  0.4919
   69TMC2    H5 1084   3.185   2.864  12.436 -0.6786 -1.5804 -0.0640
   70MPD2     C 1085   3.498   2.164  12.879 -0.1601  0.2826  0.1293
   70MPD2    C1 1086   3.368   2.194  12.844  0.4323  0.4829 -0.1253
   70MPD2    C2 1087   3.270   2.126  12.920  0.2176  0.2749  0.7191
   70MPD2    C3 1088   3.301   2.054  13.032 -0.4382 -0.2028 -0.2214
   70MPD2    C4 1089   3.434   2.048  13.073 -0.3515 -0.3964 -0.9798
   70MPD2    C5 1090   3.526   2.097  12.988 -0.7132  0.2233 -0.0848
   70MPD2     H 1091   3.165   2.129  12.893 -0.0081  1.2887  1.7369
   70MPD2    H1 1092   3.461   1.994  13.163  1.8398  0.3305 -1.1920
   70MPD2    H2 1093   3.576   2.203  12.814 -0.2137  1.0628  0.5326
   70MPD2    H3 1094   3.632   2.093  13.011 -0.5377  0.9811 -0.7767
   70MPD2     N 1095   3.206   2.002  13.131  0.1791 -0.0561  0.2078
   70MPD2    H5 1096   3.251   1.965  13.214  1.0421  0.0280 -0.2241
   70MPD2    N1 1097   3.347   2.283  12.736  0.1522  0.2922  0.3227
   70MPD2    H7 1098   3.427   2.315  12.682  0.3910  1.0706  1.1487
   71TMC2    C1 1099   0.995   2.192   1.803 -0.2582 -0.1028  0.4862
   71TMC2    C2 1100   1.104   2.116   1.832 -0.1846  0.0414  0.3290
   71TMC2    C3 1101   1.089   2.027   1.929 -0.1071 -0.5437  0.5816
   71TMC2    C4 1102   0.876   2.168   1.862  0.0294 -0.5149  0.0487
   71TMC2    C5 1103   0.864   2.060   1.942 -0.0833  0.3603  0.2784
   71TMC2    C6 1104   0.972   1.990   1.982  1.5875  1.1691  0.1379
   71TMC2     C 1105   1.002   2.290   1.693 -0.1204 -0.4891  0.5689
   71TMC2     O 1106   0.893   2.325   1.650 -0.2000  0.2249 -0.2461
   71TMC2     H 1107   1.196   2.112   1.775  0.1127  2.3570  0.6161
   71TMC2    H1 1108   0.785   2.222   1.836 -0.7566 -0.9012  1.9867
   71TMC2    H2 1109   0.959   1.916   2.061 -1.0732  0.2546 -1.1298
   71TMC2    C7 1110   0.734   2.008   1.988  0.1236 -0.1206  0.3616
   71TMC2    C8 1111   1.218   1.951   1.965  0.0304 -0.4187  0.2826
   71TMC2    O1 1112   0.725   1.896   2.038  0.5308  0.1692  0.2526
   71TMC2    O2 1113   1.230   1.830   1.994 -0.3650 -0.2587  0.0912
   71TMC2    O5 1114   1.299   2.039   2.026 -0.7990 -0.2853  0.4211
   71TMC2    H5 1115   1.276   2.134   2.036  0.7179  0.0335  0.9286
   72MPD2     C 1116   1.239   2.625   1.384 -0.0241  0.2847  0.3114
   72MPD2    C1 1117   1.106   2.586   1.388 -0.5808 -0.5286 -0.1462
   72MPD2    C2 1118   1.068   2.485   1.481 -0.3855 -0.0031 -0.9582
   72MPD2    C3 1119   1.159   2.434   1.570  0.0223  0.5939 -0.7014
   72MPD2    C4 1120   1.287   2.490   1.575  0.8017 -0.2400 -0.1950
   72MPD2    C5 1121   1.322   2.577   1.475  0.9587  0.3642  0.2869
   72MPD2     H 1122   0.963   2.457   1.477 -0.0975 -1.0234 -1.2666
   72MPD2    H1 1123   1.364   2.445   1.637 -0.5340  0.0373  1.6567
   72MPD2    H2 1124   1.280   2.697   1.314 -1.4261  0.9022  0.1253
   72MPD2    H3 1125   1.426   2.606   1.469  1.0646 -0.7986 -3.5933
   72MPD2     N 1126   1.131   2.334   1.670 -0.2129 -0.2290  0.0154
   72MPD2    H5 1127   1.208   2.306   1.730 -1.5551  0.3345  1.9797
   72MPD2    N1 1128   1.004   2.643   1.310  0.0913 -0.4561  0.4260
   72MPD2    H7 1129   0.919   2.589   1.316 -1.5810  1.9045 -1.8994
   73TMC2    C1 1130   0.338   0.215  14.262  0.1101  1.4179  0.2946
   73TMC2    C2 1131   0.316   0.339  14.320  0.3983  0.1288 -0.4974
   73TMC2    C3 1132   0.366   0.362  14.441  0.4896 -0.6909 -0.0541
   73TMC2    C4 1133   0.413   0.119  14.333 -0.3292  0.1933 -0.4745
   73TMC2    C5 1134   0.479   0.160  14.447 -0.9926 -1.0046 -0.3568
   73TMC2    C6 1135   0.459   0.284  14.501  0.0612  0.1361 -0.9353
   73TMC2     C 1136   0.383   0.221  14.124 -0.6023  0.8449 -0.2995
   73TMC2     O 1137   0.471   0.144  14.091  0.8307 -0.3987 -0.2985
   73TMC2     H 1138   0.247   0.406  14.269 -0.7198 -0.0273  0.8320
   73TMC2    H1 1139   0.439   0.024  14.287  1.8587 -0.5574  2.3814
   73TMC2    H2 1140   0.521   0.318  14.583  0.5183 -0.0253 -1.2152
   73TMC2    C7 1141   0.621   0.129  14.430 -0.2772  0.2270 -0.0931
   73TMC2    C8 1142   0.357   0.501  14.494  0.0846  0.6905 -0.2456
   73TMC2    O1 1143   0.695   0.159  14.520  0.1073  0.3268  0.4371
   73TMC2    O2 1144   0.345   0.608  14.431 -0.5487 -0.4311 -0.4114
   73TMC2    O5 1145   0.383   0.490  14.626  0.0563 -0.2873  0.3869
   73TMC2    H5 1146   0.338   0.408  14.653 -0.0752  0.5286  2.6545
   74MPD2     C 1147   0.489   0.490  13.689  0.2354 -0.2923  0.6887
   74MPD2    C1 1148   0.557   0.381  13.748  0.0418 -0.2793 -0.1886
   74MPD2    C2 1149   0.518   0.329  13.867  0.0352 -0.9843 -0.1187
   74MPD2    C3 1150   0.395   0.371  13.923  0.2405 -0.3596 -0.4574
   74MPD2    C4 1151   0.320   0.468  13.860 -0.7381 -0.0215  0.0043
   74MPD2    C5 1152   0.366   0.520  13.742  0.2102  0.4875 -1.2715
   74MPD2     H 1153   0.577   0.261  13.927  0.1826  1.6357  2.6990
   74MPD2    H1 1154   0.222   0.500  13.894 -0.6356  0.7704 -0.4423
   74MPD2    H2 1155   0.514   0.534  13.593 -0.3787 -1.4201  0.0124
   74MPD2    H3 1156   0.308   0.592  13.686 -0.3857 -1.1788 -2.8229
   74MPD2     N 1157   0.346   0.336  14.051 -0.6331 -1.1014  1.0405
   74MPD2    H5 1158   0.268   0.391  14.087 -1.0244 -1.8337  1.3166
   74MPD2    N1 1159   0.673   0.336  13.676  0.2127 -0.2067 -0.0151
   74MPD2    H7 1160   0.702   0.399  13.603 -1.2962  2.1409  1.4253
   75TMC2    C1 1161   0.651   1.000  14.414 -0.6128 -0.2222  0.5584
   75TMC2    C2 1162   0.539   1.057  14.486  0.4750 -0.4975  0.1184
   75TMC2    C3 1163   0.445   1.127  14.411 -0.0769  0.1820  0.0984
   75TMC2    C4 1164   0.660   1.026  14.276  0.8993  0.0970 -0.3863
   75TMC2    C5 1165   0.559   1.091  14.210  0.3438 -0.4439 -0.1053
   75TMC2    C6 1166   0.447   1.136  14.271  0.3548  0.2874 -0.1502
   75TMC2     C 1167   0.774   0.980  14.488 -0.5528 -0.1786 -0.1475
   75TMC2     O 1168   0.780   1.057  14.584  0.3370  0.1356 -0.1911
   75TMC2     H 1169   0.532   1.045  14.594  2.7366  1.0148  0.4234
   75TMC2    H1 1170   0.745   0.997  14.215  0.9860  2.9047 -1.5623
   75TMC2    H2 1171   0.379   1.203  14.220  0.1129  1.4915  1.7380
   75TMC2    C7 1172   0.570   1.127  14.073  0.1712  0.0990 -0.4726
   75TMC2    C8 1173   0.308   1.130  14.466 -0.2703 -0.1518  0.0906
   75TMC2    O1 1174   0.467   1.140  14.007  0.9796  0.3173  0.6142
   75TMC2    O2 1175   0.277   1.032  14.532 -0.2273 -0.5346  0.0992
   75TMC2    O5 1176   0.230   1.201  14.385  0.1110 -0.4193 -0.2686
   75TMC2    H5 1177   0.282   1.282  14.365 -0.0141  0.1971  1.9940
   76TMC2    C1 1178   4.603   2.392  11.923  0.0509  0.2376 -0.5126
   76TMC2    C2 1179   4.586   2.278  11.995 -0.0106 -0.2445  0.2361
   76TMC2    C3 1180   4.674   2.249  12.091  0.0787  0.3175  0.3421
   76TMC2    C4 1181   4.721   2.464  11.927 -0.5403 -0.8871  0.1245
   76TMC2    C5 1182   0.085   2.419  12.012 -0.6876  0.0392 -1.1014
   76TMC2    C6 1183   0.061   2.305  12.089 -0.4433 -0.7261 -0.4826
   76TMC2     C 1184   4.497   2.420  11.826  0.4825 -0.0431  0.0339
   76TMC2     O 1185   4.393   2.355  11.837 -0.3195 -0.6853 -0.0370
   76TMC2     H 1186   4.496   2.217  11.994  1.6203 -2.6250 -2.1164
   76TMC2    H1 1187   4.724   2.561  11.880  0.4696 -2.0854 -2.2591
   76TMC2    H2 1188   0.131   2.267  12.163 -2.4788 -0.3380  1.6596
   76TMC2    C7 1189   0.206   2.498  12.030  0.3623  0.0365  0.0108
   76TMC2    C8 1190   4.643   2.178  12.210 -0.4550  0.6616  0.6894
   76TMC2    O1 1191   0.217   2.604  11.971  0.3135 -0.2328 -0.4277
   76TMC2    O2 1192   4.716   2.161  12.302 -0.2519 -0.1754 -0.0582
   76TMC2    O5 1193   4.508   2.173  12.219  0.4244  0.5097  0.0669
   76TMC2    H5 1194   4.472   2.217  12.139  0.5969  1.0582  0.2928
   77MPD2     C 1195   4.290   2.649  11.427 -0.0518 -0.0261 -0.8396
   77MPD2    C1 1196   4.233   2.590  11.540  0.1666 -0.1065  0.4381
   77MPD2    C2 1197   4.321   2.538  11.630  0.0236  0.6121  0.3836
   77MPD2    C3 1198   4.461   2.545  11.619  0.0763 -0.1085  0.3836
   77MPD2    C4 1199   4.515   2.607  11.511  0.0895  0.5662  0.0619
   77MPD2    C5 1200   4.422   2.658  11.417 -0.3549 -0.4133 -0.0514
   77MPD2     H 1201   4.268   2.486  11.709 -3.0978  1.3891 -1.1836
   77MPD2    H1 1202   4.611   2.657  11.509  0.0750  0.5322 -1.0176
   77MPD2    H2 1203   4.232   2.689  11.346  0.1248 -0.7054 -1.3020
   77MPD2    H3 1204   4.468   2.717  11.338 -0.8096  0.6622  0.4890
   77MPD2     N 1205   4.544   2.493  11.723 -0.1053  0.0327 -0.2067
   77MPD2    H5 1206   4.643   2.517  11.723  0.1924 -1.1926 -2.0071
   77MPD2    N1 1207   4.092   2.579  11.569 -0.5100 -0.0493 -0.7498
   77MPD2    H7 1208   4.058   2.540  11.656 -2.8299  0.0991 -1.5999
   78TMC2    C1 1209   0.376   1.744   1.603  0.3021 -0.1551 -0.0477
   78TMC2    C2 1210   0.298   1.833   1.533  0.0915  0.8275  0.4724
   78TMC2    C3 1211   0.349   1.956   1.514 -0.2081 -0.4756  0.2038
   78TMC2    C4 1212   0.500   1.776   1.659  0.0099 -0.4266  0.1394
   78TMC2    C5 1213   0.539   1.903   1.649 -0.8939 -0.0389 -0.0141
   78TMC2    C6 1214   0.464   1.994   1.583  0.0213 -0.1388  0.3382
   78TMC2     C 1215   0.309   1.622   1.661  0.7222 -0.1386  1.2410
   78TMC2     O 1216   0.187   1.627   1.667 -0.1360  0.0242 -0.0672
   78TMC2     H 1217   0.203   1.810   1.484  0.8981 -2.1329  0.2603
   78TMC2    H1 1218   0.558   1.704   1.716 -0.7968 -1.7627 -0.7558
   78TMC2    H2 1219   0.497   2.097   1.573 -1.7662  0.1630 -2.5237
   78TMC2    C7 1220   0.681   1.946   1.650  0.6058 -0.3973 -0.5698
   78TMC2    C8 1221   0.257   2.049   1.453 -0.1113  0.1819 -0.9226
   78TMC2    O1 1222   0.713   2.044   1.591  0.3983  1.0525  0.1530
   78TMC2    O2 1223   0.137   2.041   1.466 -0.5203 -0.0150  0.9607
   78TMC2    O5 1224   0.323   2.113   1.356 -0.6618  0.0745  0.0696
   78TMC2    H5 1225   0.420   2.099   1.344 -0.7133  1.0932 -1.6140
   79MPD1     C 1226   0.289   1.147   1.855 -0.2324 -0.0497 -0.0040
   79MPD1    C1 1227   0.185   1.220   1.797  0.4585 -0.0017  0.4885
   79MPD1    C2 1228   0.221   1.352   1.761 -0.2093 -0.3899 -0.4080
   79MPD1    C3 1229   0.356   1.400   1.759  0.4279 -1.0880 -0.6719
   79MPD1    C4 1230   0.449   1.326   1.822  0.0270  0.1705 -0.2975
   79MPD1    C5 1231   0.416   1.202   1.868  0.4057  0.0651  0.1443
   79MPD1     H 1232   0.147   1.420   1.720 -0.3223 -0.2289  0.0612
   79MPD1    H1 1233   0.554   1.352   1.833 -0.3165  0.8270  1.4455
   79MPD1    H2 1234   0.273   1.046   1.891 -0.8927  0.8507  2.2018
   79MPD1    H3 1235   0.496   1.142   1.910 -0.5652 -0.4357  1.2754
   79MPD1     N 1236   0.393   1.523   1.702  0.2730 -0.5047 -0.2564
   79MPD1    H5 1237   0.493   1.542   1.696  0.2344 -0.6888 -1.4622
   79MPD1    N1 1238   0.051   1.180   1.812  0.4341  0.3229 -0.3327
   79MPD1    H6 1239   0.041   1.078   1.814 -0.1668  0.3516 -1.7920
   79MPD1    H7 1240   4.716   1.228   1.755 -1.0305 -2.4280 -0.8980
   80TMC2    C1 1241   2.737   1.214  11.624  0.3550  0.8479 -0.2587
   80TMC2    C2 1242   2.794   1.153  11.512 -0.0648  0.1285 -0.7557
   80TMC2    C3 1243   2.802   1.019  11.513  0.1470 -0.1867  0.1488
   80TMC2    C4 1244   2.713   1.147  11.743 -0.4586  0.1826 -0.1268
   80TMC2    C5 1245   2.723   1.012  11.731 -0.5690 -0.2832 -0.7626
   80TMC2    C6 1246   2.762   0.937  11.612 -0.5026 -0.3520 -0.7614
   80TMC2     C 1247   2.680   1.343  11.599  0.1277  0.2613  0.3935
   80TMC2     O 1248   2.652   1.375  11.483 -0.0434 -0.4486 -0.0542
   80TMC2     H 1249   2.833   1.210  11.429 -1.6200 -0.1713 -1.6964
   80TMC2    H1 1250   2.671   1.197  11.829 -1.3475  1.1245 -1.0976
   80TMC2    H2 1251   2.797   0.836  11.630 -1.3972 -0.4789  0.2248
   80TMC2    C7 1252   2.723   0.927  11.847  0.1469  0.7915 -0.6430
   80TMC2    C8 1253   2.842   0.964  11.387 -0.7502 -0.4060 -0.0008
   80TMC2    O1 1254   2.693   0.812  11.828 -0.0989  0.0673  0.3098
   80TMC2    O2 1255   2.897   1.030  11.299  0.1997 -0.6510  0.1516
   80TMC2    O5 1256   2.768   0.846  11.377  0.6328 -0.3626  0.1983
   80TMC2    H5 1257   2.743   0.830  11.470  0.7929 -0.4202  0.2317
   81MPD2     C 1258   2.595   1.627  11.613  0.0554  0.2536  0.6548
   81MPD2    C1 1259   2.633   1.547  11.718  0.8385  0.2555 -0.1308
   81MPD2    C2 1260   2.649   1.606  11.841  0.2976  0.6091 -0.5073
   81MPD2    C3 1261   2.651   1.742  11.854 -0.2398  0.4482 -0.2146
   81MPD2    C4 1262   2.613   1.815  11.744 -0.7928  0.3354 -0.8184
   81MPD2    C5 1263   2.578   1.763  11.622  0.0364 -0.3186 -0.1624
   81MPD2     H 1264   2.673   1.543  11.926 -2.4080 -2.1198 -1.7634
   81MPD2    H1 1265   2.602   1.923  11.751 -1.3194  0.2215  0.0479
   81MPD2    H2 1266   2.556   1.594  11.517 -1.6587  1.7422  0.8424
   81MPD2    H3 1267   2.544   1.821  11.538  0.5268 -3.3642 -2.4677
   81MPD2     N 1268   2.687   1.813  11.968 -0.3059 -0.3101 -0.1944
   81MPD2    H5 1269   2.687   1.914  11.956  1.0849  0.1336  3.6407
   81MPD2    N1 1270   2.667   1.415  11.710 -0.4277 -0.4941 -0.2549
   81MPD2    H7 1271   2.695   1.370  11.796  0.0886  0.2797 -0.0172
   82TMC2    C1 1272   1.236   1.114  10.838  0.5896  0.8148  0.0238
   82TMC2    C2 1273   1.287   1.192  10.940 -0.6966  0.0493  0.5998
   82TMC2    C3 1274   1.302   1.135  11.065  0.0386 -0.0929  0.0111
   82TMC2    C4 1275   1.191   0.985  10.863  0.1118 -0.1760 -0.0587
   82TMC2    C5 1276   1.224   0.939  10.989 -0.5043 -0.2417  0.1959
   82TMC2    C6 1277   1.274   1.010  11.095  0.2359  0.0541 -0.3256
   82TMC2     C 1278   1.201   1.170  10.706  0.2525  0.2987  0.0201
   82TMC2     O 1279   1.182   1.095  10.609  0.2284 -0.0720 -0.0168
   82TMC2     H 1280   1.308   1.298  10.932 -3.8620  0.5824 -0.8316
   82TMC2    H1 1281   1.155   0.923  10.782  0.6990 -0.2910 -0.2309
   82TMC2    H2 1282   1.298   0.966  11.191  0.2996 -1.8196 -1.1997
   82TMC2    C7 1283   1.194   0.799  11.016  0.1199  0.4099  0.4720
   82TMC2    C8 1284   1.390   1.198  11.157 -0.7203  0.3483  0.5286
   82TMC2    O1 1285   1.192   0.771  11.137 -0.4074 -0.2339  0.0299
   82TMC2    O2 1286   1.493   1.145  11.192 -0.4310  0.5002  0.2839
   82TMC2    O5 1287   1.358   1.331  11.161  0.1575 -0.0457 -0.3407
   82TMC2    H5 1288   1.264   1.351  11.140  0.6217  1.8410 -0.5581
   83MPD2     C 1289   1.049   1.534  10.393 -0.3702  0.0600  0.0153
   83MPD2    C1 1290   0.993   1.414  10.411 -0.3072 -0.0885  0.8457
   83MPD2    C2 1291   1.060   1.332  10.511 -0.5880 -0.2357  0.2242
   83MPD2    C3 1292   1.153   1.382  10.598 -0.9646 -0.0641 -0.5847
   83MPD2    C4 1293   1.187   1.516  10.582 -0.3605  0.0979  0.2242
   83MPD2    C5 1294   1.139   1.582  10.480 -0.0086 -0.4226 -0.4917
   83MPD2     H 1295   1.021   1.231  10.517  0.2951 -0.6415 -0.7753
   83MPD2    H1 1296   1.261   1.563  10.645  0.5533  0.5123 -1.1711
   83MPD2    H2 1297   1.007   1.603  10.320  1.1768  0.0029 -0.9223
   83MPD2    H3 1298   1.173   1.684  10.468 -2.3104  0.4215  0.0690
   83MPD2     N 1299   1.216   1.309  10.699 -0.1583  0.3406  0.0999
   83MPD2    H5 1300   1.268   1.352  10.775  0.4714 -0.7814  0.3051
   83MPD2    N1 1301   0.894   1.374  10.318 -0.4967  0.0505 -0.9112
   83MPD2    H7 1302   0.883   1.444  10.246  0.9751  0.7685 -0.4476
   84TMC2    C1 1303   2.268   0.102  10.363  0.2101  0.0887  0.3455
   84TMC2    C2 1304   2.206   4.725  10.307 -0.5437 -0.2672 -0.8728
   84TMC2    C3 1305   2.220   4.703  10.173  0.2791  0.1539  0.3058
   84TMC2    C4 1306   2.346   0.186  10.289  0.6160 -1.1126  0.0641
   84TMC2    C5 1307   2.360   0.163  10.157 -0.4872 -0.5608 -0.2944
   84TMC2    C6 1308   2.298   0.051  10.099  0.0967  0.5440 -0.2292
   84TMC2     C 1309   2.265   0.128  10.509  0.0028 -0.2923 -0.0748
   84TMC2     O 1310   2.297   0.242  10.543  0.1445  0.0403  0.2323
   84TMC2     H 1311   2.148   4.661  10.374 -1.3013  0.7203 -0.5950
   84TMC2    H1 1312   2.382   0.278  10.333 -1.1284 -0.6683  0.5752
   84TMC2    H2 1313   2.329   0.022   9.999 -2.4844 -1.4434 -0.4195
   84TMC2    C7 1314   2.400   0.276  10.078  0.1979  0.0229 -0.0757
   84TMC2    C8 1315   2.162   4.590  10.109  0.7226  0.4721 -0.4830
   84TMC2    O1 1316   2.467   0.362  10.138  0.1681 -0.2791  0.0850
   84TMC2    O2 1317   2.085   4.594  10.014  0.1017 -0.2438 -0.2722
   84TMC2    O5 1318   2.252   4.494  10.129 -0.1762  0.0292  0.3432
   84TMC2    H5 1319   2.328   4.508  10.189 -1.0947 -1.8894  1.9557
   85TMC2    C1 1320   3.364   3.109  16.146 -0.0821  0.0034 -0.0932
   85TMC2    C2 1321   3.251   3.076  16.076 -0.6888 -0.1096 -0.2060
   85TMC2    C3 1322   3.233   3.140  15.952  0.0724  0.6934 -0.5176
   85TMC2    C4 1323   3.448   3.208  16.097 -0.4535  0.5964 -0.2986
   85TMC2    C5 1324   3.424   3.275  15.985 -0.1290  0.5063 -0.2398
   85TMC2    C6 1325   3.311   3.246  15.909 -0.3438  0.1775  0.2583
   85TMC2     C 1326   3.376   3.075  16.283 -0.3430  0.3439 -0.0952
   85TMC2     O 1327   3.437   3.139  16.369  0.1304  0.1765  0.1915
   85TMC2     H 1328   3.186   2.998  16.112  0.0003  0.2245  1.7729
   85TMC2    H1 1329   3.527   3.239  16.164  0.2795 -0.3089 -0.7360
   85TMC2    H2 1330   3.302   3.264  15.802 -1.5910 -0.7461  0.2162
   85TMC2    C7 1331   3.524   3.348  15.928 -0.1156  0.0388 -0.4204
   85TMC2    C8 1332   3.124   3.109  15.864 -0.3577  0.3803 -0.4538
   85TMC2    O1 1333   3.637   3.346  15.972  0.4734 -0.2322  0.3263
   85TMC2    O2 1334   3.109   3.160  15.753  0.0881 -0.5371 -0.5410
   85TMC2    O5 1335   3.025   3.053  15.936 -1.1502  0.1807 -0.4034
   85TMC2    H5 1336   3.020   3.027  16.031 -1.9138 -0.5144 -0.6326
   86MPD2     C 1337   3.360   2.682  16.610 -0.0953  0.1021 -0.0673
   86MPD2    C1 1338   3.286   2.649  16.495 -0.8237  0.4051  0.2821
   86MPD2    C2 1339   3.282   2.740  16.388  0.1218  0.4116  0.6098
   86MPD2    C3 1340   3.334   2.866  16.401  0.5155  0.5039 -0.9546
   86MPD2    C4 1341   3.398   2.899  16.521 -0.0987 -1.1780  0.2898
   86MPD2    C5 1342   3.416   2.803  16.627 -0.5548  0.0247  0.2841
   86MPD2     H 1343   3.237   2.703  16.296 -0.8872 -1.6752  1.9574
   86MPD2    H1 1344   3.433   3.002  16.527 -0.3895 -1.0281 -0.4749
   86MPD2    H2 1345   3.370   2.612  16.693 -2.0846 -0.0622  0.0325
   86MPD2    H3 1346   3.466   2.824  16.721 -3.1990 -2.5646  2.2565
   86MPD2     N 1347   3.305   2.957  16.307 -0.2477 -0.4056 -0.7241
   86MPD2    H5 1348   3.254   2.923  16.226 -0.8397 -1.0452 -0.0766
   86MPD2    N1 1349   3.223   2.519  16.471 -0.4035  0.1846 -0.5653
   86MPD2    H7 1350   3.159   2.515  16.392 -1.6042  0.0505  0.4230
   87TMC2    C1 1351   1.081   0.667   0.946 -0.1747  0.4590 -0.0228
   87TMC2    C2 1352   1.203   0.720   0.966 -0.6673  0.2222  0.0052
   87TMC2    C3 1353   1.232   0.756   1.097  0.4850  0.3072 -0.5050
   87TMC2    C4 1354   0.987   0.662   1.048  0.2658 -0.1029  0.7846
   87TMC2    C5 1355   1.024   0.695   1.176 -0.1672  0.0344  0.5365
   87TMC2    C6 1356   1.145   0.749   1.201  0.3969  0.5151  0.1648
   87TMC2     C 1357   1.040   0.674   0.807  0.0464 -0.1185 -0.1186
   87TMC2     O 1358   1.116   0.720   0.723  0.1452  0.2160  1.1401
   87TMC2     H 1359   1.275   0.712   0.886 -1.8787 -1.8163 -0.9012
   87TMC2    H1 1360   0.891   0.613   1.039  0.4764 -0.2685 -0.5956
   87TMC2    H2 1361   1.163   0.784   1.302  0.5190 -0.0510  0.3378
   87TMC2    C7 1362   0.917   0.731   1.260  1.2194 -0.0393 -0.0407
   87TMC2    C8 1363   1.364   0.783   1.138 -0.3607 -0.4088 -0.8741
   87TMC2    O1 1364   0.817   0.656   1.251  0.1269  0.1822 -0.2370
   87TMC2    O2 1365   1.398   0.773   1.252 -0.4574 -0.0777  0.5257
   87TMC2    O5 1366   1.428   0.851   1.034 -0.4308  0.0071 -0.0082
   87TMC2    H5 1367   1.380   0.856   0.948  2.0279  1.2499 -1.3118
   88MPD2     C 1368   0.714   0.891   1.407  0.3902  0.5583  0.8489
   88MPD2    C1 1369   0.824   0.950   1.352 -0.4637 -0.5802  0.3044
   88MPD2    C2 1370   0.840   1.082   1.364  0.7173  0.7186  0.4726
   88MPD2    C3 1371   0.750   1.169   1.428 -0.1765  0.2782  0.1727
   88MPD2    C4 1372   0.636   1.111   1.478 -0.5760 -0.4421  0.4767
   88MPD2    C5 1373   0.623   0.971   1.474 -0.0104 -0.6831  0.2808
   88MPD2     H 1374   0.928   1.120   1.313 -0.4290  2.5696 -0.0966
   88MPD2    H1 1375   0.558   1.166   1.530 -0.2025  0.6007 -0.0718
   88MPD2    H2 1376   0.702   0.784   1.398  0.6284  0.5749  0.3180
   88MPD2    H3 1377   0.537   0.928   1.524  0.9308 -1.2224  1.4396
   88MPD2     N 1378   0.775   1.312   1.440 -0.5766 -0.8554 -0.4748
   88MPD2    H5 1379   0.703   1.366   1.487  2.2295  1.2647  1.3914
   88MPD2    N1 1380   0.929   0.867   1.296 -0.0415  0.2474  0.0632
   88MPD2    H7 1381   1.022   0.899   1.273 -0.6775  0.5427 -2.0770
   89TMC2    C1 1382   1.680   3.933   1.277 -0.1399 -0.9912  0.1246
   89TMC2    C2 1383   1.791   3.982   1.345  0.1530 -0.6840  0.2869
   89TMC2    C3 1384   1.836   4.103   1.305  0.0100 -0.5445 -0.1505
   89TMC2    C4 1385   1.622   3.994   1.173 -0.2214  0.1106  0.3190
   89TMC2    C5 1386   1.674   4.115   1.133 -0.6581  0.8579  0.7668
   89TMC2    C6 1387   1.788   4.159   1.192  0.3639  0.0521  0.3414
   89TMC2     C 1388   1.616   3.804   1.314 -0.3475  0.6480  0.3088
   89TMC2     O 1389   1.502   3.786   1.274  0.5057 -0.1976 -0.3150
   89TMC2     H 1390   1.828   3.920   1.426 -0.0042  1.1213  1.7254
   89TMC2    H1 1391   1.526   3.961   1.137 -1.3434  1.7080  1.8337
   89TMC2    H2 1392   1.853   4.236   1.151  1.3849 -2.4558 -2.7546
   89TMC2    C7 1393   1.614   4.186   1.023 -0.3641  0.2535  0.4136
   89TMC2    C8 1394   1.974   4.121   1.328 -0.0431  0.4608  0.3913
   89TMC2    O1 1395   1.528   4.121   0.965  0.6199 -0.0097 -0.6435
   89TMC2    O2 1396   2.056   4.137   1.238 -0.2423 -0.2074 -0.6769
   89TMC2    O5 1397   1.988   4.167   1.459  0.1613 -0.4652 -0.1350
   89TMC2    H5 1398   1.901   4.148   1.500  0.1329 -0.2194 -0.0804
   90MPD2     C 1399   1.667   3.342   1.527  0.0138 -0.4104  0.0905
   90MPD2    C1 1400   1.551   3.418   1.505 -1.2878  0.0801  0.5101
   90MPD2    C2 1401   1.565   3.541   1.441  0.6173  0.6315 -0.0132
   90MPD2    C3 1402   1.689   3.588   1.404  0.2788  0.9183 -0.3406
   90MPD2    C4 1403   1.802   3.509   1.427 -0.0206 -0.3710 -0.0654
   90MPD2    C5 1404   1.786   3.384   1.484  0.2008 -0.1709 -0.3434
   90MPD2     H 1405   1.474   3.598   1.421 -0.9118 -1.4835  0.9488
   90MPD2    H1 1406   1.898   3.560   1.417  0.6761 -1.7022 -0.2429
   90MPD2    H2 1407   1.663   3.240   1.565  0.7080 -1.1433 -1.7572
   90MPD2    H3 1408   1.872   3.319   1.490 -0.5969 -1.1648  0.2878
   90MPD2     N 1409   1.713   3.717   1.353  0.5786  0.8330  0.4406
   90MPD2    H5 1410   1.811   3.741   1.341  0.7796  0.3038  1.0540
   90MPD2    N1 1411   1.423   3.375   1.557 -0.3458 -0.2051 -0.4253
   90MPD2    H7 1412   1.347   3.439   1.534 -0.9665 -0.8650 -0.2358
   91TMC2    C1 1413   3.235   4.172  16.019 -0.4043 -0.0901  0.1603
   91TMC2    C2 1414   3.261   4.191  16.153 -0.0052 -0.9855 -0.4372
   91TMC2    C3 1415   3.156   4.230  16.241  0.0247  0.3394 -0.3788
   91TMC2    C4 1416   3.106   4.182  15.971  0.4844 -0.7919 -0.2904
   91TMC2    C5 1417   3.013   4.233  16.059  0.0197 -0.1761  0.2925
   91TMC2    C6 1418   3.030   4.253  16.188 -0.0366  0.0049 -0.6117
   91TMC2     C 1419   3.337   4.208  15.921 -1.2007  0.4884  0.0181
   91TMC2     O 1420   3.304   4.272  15.821  0.0838 -0.2343  0.4578
   91TMC2     H 1421   3.360   4.186  16.196  0.8292  3.3595 -1.8484
   91TMC2    H1 1422   3.086   4.171  15.865  1.4592 -1.3750 -0.4192
   91TMC2    H2 1423   2.945   4.280  16.250  1.0056 -4.8657  2.9532
   91TMC2    C7 1424   2.874   4.243  16.016  0.0212  1.0904  0.4309
   91TMC2    C8 1425   3.180   4.216  16.386 -0.5008 -0.3368  0.9574
   91TMC2    O1 1426   2.796   4.309  16.080  0.0787 -0.3691 -0.1144
   91TMC2    O2 1427   3.234   4.113  16.428  0.4810  0.0840  0.6038
   91TMC2    O5 1428   3.084   4.280  16.454 -0.6631 -0.2999  0.4067
   91TMC2    H5 1429   3.072   4.377  16.442  0.5449 -0.3956 -1.4467
   92MPD2     C 1430   3.599   4.314  15.794 -0.1527 -0.2498 -0.2503
   92MPD2    C1 1431   3.591   4.231  15.901 -0.2145  0.6487 -0.2989
   92MPD2    C2 1432   3.715   4.195  15.963  0.1006  0.1449  0.0093
   92MPD2    C3 1433   3.836   4.236  15.912  0.3325  0.6154  0.5056
   92MPD2    C4 1434   3.834   4.319  15.796 -0.0899 -0.4410 -0.6083
   92MPD2    C5 1435   3.717   4.356  15.744 -0.0348  0.4528 -0.4356
   92MPD2     H 1436   3.728   4.125  16.044 -1.0954  0.0011  0.0699
   92MPD2    H1 1437   3.921   4.369  15.755  2.2218 -3.1614  0.9745
   92MPD2    H2 1438   3.512   4.350  15.741  0.8567 -1.3608 -2.6881
   92MPD2    H3 1439   3.716   4.419  15.656  1.0541  0.6377 -0.3133
   92MPD2     N 1440   3.952   4.201  15.983 -0.0401  0.4062 -0.2140
   92MPD2    H5 1441   3.938   4.134  16.057 -1.3032  3.8138  2.6426
   92MPD2    N1 1442   3.469   4.186  15.969  0.1782  0.0570 -0.7127
   92MPD2    H7 1443   3.470   4.132  16.055  1.0998  1.8118  0.3885
   93TMC2    C1 1444   0.685   4.317  13.854  0.2040 -0.1337 -0.6196
   93TMC2    C2 1445   0.649   4.359  13.979 -0.6837 -1.0689  0.2451
   93TMC2    C3 1446   0.734   4.428  14.063 -0.1101  0.2802 -0.1558
   93TMC2    C4 1447   0.810   4.350  13.807  0.8685  0.2963 -0.1014
   93TMC2    C5 1448   0.897   4.402  13.899 -0.2047 -0.0631  0.2603
   93TMC2    C6 1449   0.861   4.447  14.026 -0.0723 -0.1494 -0.4886
   93TMC2     C 1450   0.599   4.234  13.770 -0.3672  0.5171  0.5878
   93TMC2     O 1451   0.657   4.192  13.669  0.0249  0.1413 -0.0880
   93TMC2     H 1452   0.553   4.328  14.021 -0.8377  1.4049  1.6976
   93TMC2    H1 1453   0.843   4.318  13.708  0.2182 -2.1191  0.4535
   93TMC2    H2 1454   0.934   4.489  14.094  1.0181  1.0251 -2.3892
   93TMC2    C7 1455   1.039   4.411  13.863 -0.0319  0.9687  0.4247
   93TMC2    C8 1456   0.693   4.472  14.187  0.7547 -0.5633  0.0178
   93TMC2    O1 1457   1.119   4.424  13.954  0.1647  0.2152 -0.4551
   93TMC2    O2 1458   0.716   4.412  14.292 -0.3359 -0.0831  0.3158
   93TMC2    O5 1459   0.574   4.529  14.154 -0.5136  0.2200 -0.4518
   93TMC2    H5 1460   0.577   4.569  14.064  0.4226 -0.8253 -0.8844
   94MPD2     C 1461   0.404   4.053  13.644  0.5164 -0.1838  0.2435
   94MPD2    C1 1462   0.374   4.129  13.755  0.8993  0.0810  0.0330
   94MPD2    C2 1463   0.245   4.114  13.818  0.0142 -0.3645 -0.4172
   94MPD2    C3 1464   0.147   4.037  13.754 -0.4414 -0.0808 -0.8501
   94MPD2    C4 1465   0.185   3.955  13.651  0.2727  0.0271 -0.0817
   94MPD2    C5 1466   0.308   3.968  13.594  0.0013 -0.3375 -0.3616
   94MPD2     H 1467   0.229   4.160  13.915  1.0678 -0.6449 -0.1043
   94MPD2    H1 1468   0.112   3.892  13.602 -0.7103  1.2217 -0.1635
   94MPD2    H2 1469   0.501   4.047  13.596 -0.1978 -1.7046 -0.9856
   94MPD2    H3 1470   0.326   3.910  13.504 -0.4136  1.2740 -1.4893
   94MPD2     N 1471   0.010   4.023  13.783  0.4644 -0.3970 -0.0334
   94MPD2    H5 1472   4.696   3.975  13.708  0.4957 -0.0815 -0.2562
   94MPD2    N1 1473   0.470   4.208  13.815 -0.6417 -0.3108 -0.8493
   94MPD2    H7 1474   0.448   4.257  13.901  2.2148 -0.4772 -0.0106
   95TMC2    C1 1475   0.317   0.852  16.217  0.0385 -0.4785 -1.2082
   95TMC2    C2 1476   0.273   0.755  16.130  0.2715  0.1040  0.4088
   95TMC2    C3 1477   0.243   0.629  16.186  0.1973 -0.0883 -0.0101
   95TMC2    C4 1478   0.320   0.832  16.354  0.0936 -0.3409 -0.4476
   95TMC2    C5 1479   0.290   0.707  16.403 -0.1784  0.0165  0.1884
   95TMC2    C6 1480   0.254   0.603  16.322  0.2220 -0.7703  0.2008
   95TMC2     C 1481   0.393   0.957  16.153  0.4126 -0.1929 -0.2037
   95TMC2     O 1482   0.417   0.940  16.033 -0.7382  0.1828 -0.5348
   95TMC2     H 1483   0.265   0.766  16.022  0.7632 -2.1529  0.1368
   95TMC2    H1 1484   0.352   0.904  16.428 -2.5859  0.3131  0.0750
   95TMC2    H2 1485   0.197   0.520  16.362 -0.7361 -0.2029  0.0103
   95TMC2    C7 1486   0.300   0.666  16.548 -0.4379 -0.8315 -0.2413
   95TMC2    C8 1487   0.203   0.514  16.107  0.0515 -0.6957  0.1849
   95TMC2    O1 1488   0.285   0.550  16.573 -0.1436 -0.8439  0.0173
   95TMC2    O2 1489   0.230   0.397  16.132  0.5473 -0.0396  0.2341
   95TMC2    O5 1490   0.089   0.561  16.053  0.2950 -0.2917  0.4869
   95TMC2    H5 1491   0.066   0.655  16.067 -0.0222 -0.2634 -0.2150
   96MPD2     C 1492   0.675   1.395  16.171  0.6439  0.9803  0.2429
   96MPD2    C1 1493   0.641   1.317  16.064 -0.2880  0.1309  0.1154
   96MPD2    C2 1494   0.564   1.203  16.087 -0.1742  0.0342 -0.0385
   96MPD2    C3 1495   0.508   1.169  16.214  0.0948  0.2677 -0.3087
   96MPD2    C4 1496   0.523   1.259  16.321  0.3898  0.4302  0.5865
   96MPD2    C5 1497   0.621   1.360  16.298 -0.3262  0.6772  0.1953
   96MPD2     H 1498   0.537   1.131  16.011 -0.0722  0.9386 -0.9311
   96MPD2    H1 1499   0.473   1.249  16.417  1.2471  1.7054  1.1871
   96MPD2    H2 1500   0.750   1.473  16.172  0.3358  1.2664  2.1731
   96MPD2    H3 1501   0.643   1.421  16.385  0.3994 -0.2881  0.6795
   96MPD2     N 1502   0.430   1.054  16.240 -0.1689 -0.0231  0.0840
   96MPD2    H5 1503   0.394   1.043  16.335 -1.1213 -1.5170 -0.4571
   96MPD2    N1 1504   0.711   1.344  15.944  0.0261  0.1954  0.3771
   96MPD2    H7 1505   0.773   1.424  15.953 -0.3287  0.3459  1.5013
   97TMC2    C1 1506   2.860   3.486   0.148 -0.2080  0.6355  0.2253
   97TMC2    C2 1507   2.950   3.405   0.080 -0.3162 -0.6687  0.3907
   97TMC2    C3 1508   3.051   3.469   0.020 -0.0876  0.1250  0.7580
   97TMC2    C4 1509   2.875   3.626   0.156  0.0627 -0.1589 -0.3451
   97TMC2    C5 1510   2.980   3.685   0.090  0.4132  0.0283  0.4885
   97TMC2    C6 1511   3.068   3.605   0.024 -0.7957 -0.6318  0.1381
   97TMC2     C 1512   2.770   3.425   0.241 -0.5639  0.1226  0.1611
   97TMC2     O 1513   2.740   3.308   0.222 -0.3770 -0.1247  0.0147
   97TMC2     H 1514   2.934   3.298   0.080 -1.1969 -0.5398 -0.0563
   97TMC2    H1 1515   2.800   3.692   0.199  0.6268  0.6659 -0.6353
   97TMC2    H2 1516   3.152   3.649  17.707  1.2674 -2.0951  2.1891
   97TMC2    C7 1517   3.007   3.829   0.093  0.4694  0.2029 -0.6422
   97TMC2    C8 1518   3.151   3.388  17.691 -0.4240 -0.0634 -0.4517
   97TMC2    O1 1519   3.119   3.872   0.069 -0.2458 -0.2396  0.3987
   97TMC2    O2 1520   3.270   3.404  17.689  0.3204  0.1719  0.0939
   97TMC2    O5 1521   3.085   3.305  17.606  0.1451  0.4955 -0.3936
   97TMC2    H5 1522   2.998   3.347  17.590 -1.0260 -1.8846 -0.1950
   98MPD2     C 1523   2.486   3.451   0.672 -0.7418  0.1787  0.4726
   98MPD2    C1 1524   2.501   3.349   0.584  0.3431  0.7025  0.1717
   98MPD2    C2 1525   2.584   3.360   0.475  0.5186  0.8716  0.4424
   98MPD2    C3 1526   2.655   3.478   0.459  0.2163  0.0928 -0.1192
   98MPD2    C4 1527   2.643   3.579   0.548 -0.4538  0.0482 -0.8498
   98MPD2    C5 1528   2.562   3.571   0.653  0.0499  0.1790 -0.0285
   98MPD2     H 1529   2.596   3.285   0.397 -1.4182 -0.1741  1.1757
   98MPD2    H1 1530   2.703   3.669   0.544  2.2459 -1.7232  0.2572
   98MPD2    H2 1531   2.420   3.453   0.759 -1.7497 -0.5379 -0.2749
   98MPD2    H3 1532   2.557   3.651   0.725  1.1316  0.4820 -0.2852
   98MPD2     N 1533   2.744   3.503   0.350  0.0974 -0.4352  0.1001
   98MPD2    H5 1534   2.793   3.591   0.358  1.5623 -1.2264 -0.1403
   98MPD2    N1 1535   2.421   3.235   0.612 -0.1890 -0.1030  0.8299
   98MPD2    H7 1536   2.366   3.245   0.698  0.1824 -0.1338  1.0688
   99TMC2    C1 1537   1.870   0.245   1.769  0.1218 -0.6650  0.8717
   99TMC2    C2 1538   1.965   0.223   1.867 -0.7671 -0.0200 -0.0059
   99TMC2    C3 1539   1.921   0.203   2.000  0.4137  0.5372  0.2012
   99TMC2    C4 1540   1.737   0.252   1.800 -1.1928 -0.2145  0.6242
   99TMC2    C5 1541   1.699   0.226   1.929 -0.3695 -0.4573  0.5291
   99TMC2    C6 1542   1.787   0.193   2.024  0.1300  0.5762  0.8352
   99TMC2     C 1543   1.906   0.235   1.628  0.1630 -0.1661 -0.7317
   99TMC2     O 1544   2.024   0.228   1.609  0.5763  0.1415  0.1977
   99TMC2     H 1545   2.068   0.213   1.837 -1.1220  2.6740 -2.0828
   99TMC2    H1 1546   1.660   0.282   1.730  2.1697  1.3286 -2.4165
   99TMC2    H2 1547   1.753   0.170   2.124 -1.1479 -1.0206  0.0331
   99TMC2    C7 1548   1.564   0.236   1.974  0.4030  0.1227  0.5079
   99TMC2    C8 1549   2.012   0.198   2.113 -0.5016 -0.4602 -0.6264
   99TMC2    O1 1550   1.548   0.255   2.095  0.3123 -0.3860  0.6314
   99TMC2    O2 1551   1.983   0.197   2.228  0.3679 -1.0619  0.2147
   99TMC2    O5 1552   2.140   0.221   2.069  0.5318 -0.4380 -0.0256
   99TMC2    H5 1553   2.156   0.258   1.980  0.2294 -1.1537 -0.3784
  100MPD2     C 1554   1.931   0.227   1.321  0.4387  0.0378  0.2711
  100MPD2    C1 1555   1.813   0.209   1.395  0.0740  0.4594 -0.2444
  100MPD2    C2 1556   1.706   0.167   1.319  0.2838 -0.7211  0.1197
  100MPD2    C3 1557   1.708   0.146   1.182 -0.3338  0.7492  0.7930
  100MPD2    C4 1558   1.825   0.175   1.107  0.7155  0.0530  0.1096
  100MPD2    C5 1559   1.932   0.213   1.176  0.4101 -0.0347 -0.2741
  100MPD2     H 1560   1.616   0.145   1.375 -0.2110 -1.4697 -0.9732
  100MPD2    H1 1561   1.830   0.176   0.999  0.4083  1.2790  0.1013
  100MPD2    H2 1562   2.013   0.279   1.368 -1.8240  1.8736  2.2084
  100MPD2    H3 1563   2.024   0.221   1.118  1.4787  0.0814  1.4183
  100MPD2     N 1564   1.587   0.110   1.118 -0.0609 -0.4990  0.3728
  100MPD2    H5 1565   1.511   0.083   1.180  0.2683 -0.6412  0.7173
  100MPD2    N1 1566   1.797   0.234   1.541 -0.7267 -0.0673 -0.0021
  100MPD2    H7 1567   1.705   0.229   1.584 -0.2699 -0.3678  0.9288
  101TMC2    C1 1568   2.063   2.140  12.983 -0.4499  0.3611  0.1320
  101TMC2    C2 1569   1.958   2.216  12.948 -0.5651  0.0005  0.6408
  101TMC2    C3 1570   1.988   2.341  12.899 -0.1710  0.4571 -0.1400
  101TMC2    C4 1571   2.191   2.186  13.005 -0.2044 -0.0292 -0.4982
  101TMC2    C5 1572   2.215   2.311  12.954 -0.2084  0.1965  0.2935
  101TMC2    C6 1573   2.116   2.390  12.896  0.2305  0.4712 -0.2301
  101TMC2     C 1574   2.039   1.992  13.017  0.2584 -0.3567  0.4840
  101TMC2     O 1575   1.927   1.957  13.049  0.5972 -0.0519  0.1678
  101TMC2     H 1576   1.868   2.163  12.919 -0.3447 -1.2842  2.3391
  101TMC2    H1 1577   2.264   2.113  13.038  2.2773  2.8307  0.3868
  101TMC2    H2 1578   2.142   2.484  12.850  0.0178 -0.7747 -2.8848
  101TMC2    C7 1579   2.356   2.351  12.929  0.1796  0.3616  0.2054
  101TMC2    C8 1580   1.882   2.407  12.831  0.1488  0.4881  0.1641
  101TMC2    O1 1581   2.368   2.428  12.836  0.4711 -0.0909 -0.9472
  101TMC2    O2 1582   1.766   2.423  12.858  0.4210  0.7495 -0.3551
  101TMC2    O5 1583   1.917   2.370  12.703 -0.4664  0.6317 -0.3795
  101TMC2    H5 1584   2.011   2.352  12.682 -0.5206 -1.3498  1.0289
  102MPD2     C 1585   2.275   1.716  13.026  0.0016  0.5642  0.2714
  102MPD2    C1 1586   2.156   1.779  13.038  0.2286 -0.3498 -0.3539
  102MPD2    C2 1587   2.048   1.708  13.089 -0.6715  0.2751 -0.0989
  102MPD2    C3 1588   2.056   1.583  13.145 -0.5180 -0.0562  0.0616
  102MPD2    C4 1589   2.178   1.525  13.138 -1.1617 -0.4001 -0.5780
  102MPD2    C5 1590   2.283   1.593  13.073 -0.5166  0.1893 -0.1106
  102MPD2     H 1591   1.950   1.752  13.104  0.5174  2.5801  1.0468
  102MPD2    H1 1592   2.203   1.429  13.182  0.9596  0.0900 -0.7166
  102MPD2    H2 1593   2.362   1.777  13.005 -0.4000  1.1045  0.1575
  102MPD2    H3 1594   2.376   1.539  13.087  0.1749  1.3175 -0.3589
  102MPD2     N 1595   1.940   1.524  13.201 -0.3030 -0.7576 -0.4282
  102MPD2    H5 1596   1.855   1.574  13.177  0.4755  0.1873 -1.1929
  102MPD2    N1 1597   2.144   1.915  12.992  0.3619 -0.8197  0.3293
  102MPD2    H7 1598   2.223   1.964  12.951  0.1634 -0.3118  0.5560
  103TMC2    C1 1599   0.821   2.263  12.487  0.3275 -0.2130 -0.4386
  103TMC2    C2 1600   0.946   2.261  12.441 -0.0935 -0.7667 -0.6244
  103TMC2    C3 1601   1.053   2.278  12.526  0.5121 -0.2030  0.4583
  103TMC2    C4 1602   0.803   2.292  12.623 -0.2845 -0.2995  0.0346
  103TMC2    C5 1603   0.902   2.308  12.709 -0.3881  0.2770  0.7428
  103TMC2    C6 1604   1.034   2.310  12.663 -0.8741  0.1613 -0.3888
  103TMC2     C 1605   0.712   2.285  12.399  0.1355 -0.2863  0.5729
  103TMC2     O 1606   0.603   2.251  12.432 -0.4546 -0.7090 -0.3318
  103TMC2     H 1607   0.965   2.263  12.334 -3.0486 -0.3410 -1.1398
  103TMC2    H1 1608   0.697   2.294  12.643 -0.4001  0.2697 -0.6105
  103TMC2    H2 1609   1.125   2.313  12.721  0.3012  1.1250 -2.2727
  103TMC2    C7 1610   0.865   2.334  12.849 -0.0903 -0.0565 -0.7663
  103TMC2    C8 1611   1.166   2.308  12.456 -0.1362 -0.0736 -0.8380
  103TMC2    O1 1612   0.954   2.381  12.916 -0.3651 -0.1353  0.9700
  103TMC2    O2 1613   1.180   2.265  12.344  0.3139 -0.2583  0.2809
  103TMC2    O5 1614   1.206   2.429  12.499  0.0178 -0.2155 -0.4140
  103TMC2    H5 1615   1.174   2.455  12.589  0.9192 -0.0890 -0.1285
  104MPD2     C 1616   0.707   2.461  12.076 -0.0809  0.4520  0.3821
  104MPD2    C1 1617   0.651   2.408  12.185 -0.3748 -0.0816 -0.8158
  104MPD2    C2 1618   0.517   2.402  12.198 -0.0396  0.7816  0.3203
  104MPD2    C3 1619   0.436   2.448  12.093 -0.3175  0.0715  0.3939
  104MPD2    C4 1620   0.491   2.512  11.988 -0.4748 -0.4431 -0.4540
  104MPD2    C5 1621   0.627   2.515  11.980  0.1909  0.8346 -0.0481
  104MPD2     H 1622   0.468   2.369  12.289 -0.0515 -1.3251 -0.4362
  104MPD2    H1 1623   0.435   2.560  11.909  2.0058 -0.1910 -2.0657
  104MPD2    H2 1624   0.815   2.471  12.071 -0.1640 -0.5103 -3.2934
  104MPD2    H3 1625   0.691   2.553  11.900  0.3811  1.9984  0.6691
  104MPD2     N 1626   0.297   2.433  12.109  0.2707 -0.1915  0.2721
  104MPD2    H5 1627   0.265   2.353  12.162  0.1155 -1.7032 -2.0780
  104MPD2    N1 1628   0.738   2.359  12.290  0.0359 -0.4562  0.0987
  104MPD2    H7 1629   0.834   2.386  12.270  0.4931 -1.0145  1.4868
  105TMC2    C1 1630   1.046   0.838   0.004  0.1270 -0.5662  0.5882
  105TMC2    C2 1631   1.091   0.962   0.010  0.1107  0.0499 -0.4414
  105TMC2    C3 1632   1.009   1.044   0.088 -0.0065 -0.7431 -0.0461
  105TMC2    C4 1633   0.936   0.789   0.062  0.5655  0.0891 -0.0685
  105TMC2    C5 1634   0.848   0.883   0.123 -0.1803 -0.0258  0.1745
  105TMC2    C6 1635   0.883   1.009   0.146 -0.0371  0.3901  0.0930
  105TMC2     C 1636   1.119   0.744  17.658 -0.8975 -0.6211  0.1205
  105TMC2     O 1637   1.084   0.627  17.665  0.2009  0.3562  0.6085
  105TMC2     H 1638   1.197   0.975  17.726  0.1878 -0.2748 -0.2334
  105TMC2    H1 1639   0.899   0.689   0.040  1.2564 -0.7001  2.3699
  105TMC2    H2 1640   0.836   1.080   0.212 -0.7341  0.8958 -0.9508
  105TMC2    C7 1641   0.772   0.829   0.234 -0.5688  0.6281  0.1117
  105TMC2    C8 1642   1.053   1.181   0.101  0.4484 -1.0655 -0.7498
  105TMC2    O1 1643   0.675   0.895   0.271 -0.1760 -0.1553 -0.2409
  105TMC2    O2 1644   0.987   1.271   0.157  0.1202  0.3979 -0.0979
  105TMC2    O5 1645   1.154   1.206   0.022 -0.2714 -0.6267 -0.2749
  105TMC2    H5 1646   1.183   1.129  17.703  1.0096  0.2316 -0.8187
  106MPD2     C 1647   1.454   0.576  17.296  0.7694 -0.2843 -0.1586
  106MPD2    C1 1648   1.467   0.714  17.317  0.4550  0.4388  0.1811
  106MPD2    C2 1649   1.404   0.780  17.421  0.3466 -0.5502  0.0228
  106MPD2    C3 1650   1.314   0.712  17.496  0.5198  0.2257 -0.6974
  106MPD2    C4 1651   1.300   0.576  17.479 -1.2390 -0.0530 -0.0337
  106MPD2    C5 1652   1.357   0.517  17.374 -0.4499  0.0909  0.5006
  106MPD2     H 1653   1.418   0.884  17.444  0.1508 -0.6445  0.5512
  106MPD2    H1 1654   1.246   0.514  17.550  0.5108  0.9297  2.1447
  106MPD2    H2 1655   1.482   0.532  17.201  2.6108  0.6199 -0.0223
  106MPD2    H3 1656   1.344   0.410  17.381  0.3064 -0.0219  0.1489
  106MPD2     N 1657   1.224   0.794  17.571  0.0822  0.2796 -0.3976
  106MPD2    H5 1658   1.230   0.895  17.564  2.1226  0.2220  0.6262
  106MPD2    N1 1659   1.538   0.797  17.226 -0.3772  0.4902  0.9151
  106MPD2    H7 1660   1.533   0.898  17.233  0.3754  0.5815  0.0369
  107TMC2    C1 1661   2.269   0.548  11.303  0.1707 -0.5810  0.4877
  107TMC2    C2 1662   2.326   0.630  11.210  0.6931  0.0473 -0.4453
  107TMC2    C3 1663   2.402   0.577  11.109 -0.0924  0.1516 -0.1661
  107TMC2    C4 1664   2.286   0.415  11.295  0.1061 -0.3062 -0.7033
  107TMC2    C5 1665   2.356   0.363  11.190 -0.2164 -0.4341 -0.1078
  107TMC2    C6 1666   2.420   0.441  11.099  0.4190 -0.2108 -0.0539
  107TMC2     C 1667   2.187   0.604  11.412 -0.0631 -0.8556  0.2396
  107TMC2     O 1668   2.156   0.519  11.499 -0.2735 -0.2256  0.2979
  107TMC2     H 1669   2.333   0.738  11.204 -1.4739  0.2357  0.6495
  107TMC2    H1 1670   2.235   0.346  11.363  0.2571 -0.4016 -0.6864
  107TMC2    H2 1671   2.479   0.391  11.024 -0.3092 -0.4951 -0.4441
  107TMC2    C7 1672   2.325   0.225  11.154 -0.0796 -0.0247 -0.2723
  107TMC2    C8 1673   2.413   0.655  10.989  0.1816 -0.1614  0.6446
  107TMC2    O1 1674   2.295   0.147  11.238 -0.6189 -0.3690  0.0466
  107TMC2    O2 1675   2.311   0.688  10.929  0.1639 -0.9590 -0.0607
  107TMC2    O5 1676   2.526   0.611  10.925  1.0602 -0.2987  0.0937
  107TMC2    H5 1677   2.589   0.595  10.998  0.6884  0.3148  0.5448
  108MPD2     C 1678   2.071   0.950  11.432  0.3439 -0.5775  0.3916
  108MPD2    C1 1679   2.097   0.824  11.477  0.1284 -0.4037 -0.3334
  108MPD2    C2 1680   2.087   0.790  11.615  0.7363  0.8588  0.1268
  108MPD2    C3 1681   2.017   0.877  11.696  0.0579  0.1252 -0.5296
  108MPD2    C4 1682   1.974   1.002  11.649 -0.0064  0.9729  0.8889
  108MPD2    C5 1683   2.012   1.041  11.522 -0.0258  0.4800  0.1937
  108MPD2     H 1684   2.120   0.691  11.644 -0.5568  0.3543 -0.1453
  108MPD2    H1 1685   1.914   1.069  11.710 -0.2854  2.3776 -0.9154
  108MPD2    H2 1686   2.088   0.982  11.330 -3.5123  4.3585  1.2324
  108MPD2    H3 1687   1.988   1.140  11.483 -0.7676  0.4924  0.6840
  108MPD2     N 1688   1.964   0.837  11.823  0.1132  0.4795 -0.6049
  108MPD2    H5 1689   1.908   0.909  11.868  0.9296  0.8351 -0.1471
  108MPD2    N1 1690   2.147   0.735  11.381 -0.7642 -0.0494 -0.1340
  108MPD2    H7 1691   2.175   0.770  11.289 -1.0790  2.0011  0.5504
  109TMC2    C1 1692   1.109   3.056   0.819 -0.0925 -0.0186 -0.1185
  109TMC2    C2 1693   1.038   3.169   0.807  0.0792 -0.4439  0.9154
  109TMC2    C3 1694   1.098   3.286   0.822  0.0922 -0.0212  0.0175
  109TMC2    C4 1695   1.246   3.062   0.846  0.3869  0.1768  0.2677
  109TMC2    C5 1696   1.303   3.184   0.857 -0.0916 -0.6710  0.1835
  109TMC2    C6 1697   1.233   3.305   0.844  0.1347  0.1893  0.4308
  109TMC2     C 1698   1.051   2.930   0.788 -1.6483 -0.2979 -0.3784
  109TMC2     O 1699   0.952   2.935   0.719 -0.3454 -0.1660  0.0485
  109TMC2     H 1700   0.937   3.158   0.770  0.4851  1.3852 -0.7147
  109TMC2    H1 1701   1.320   2.982   0.849  0.9118  0.7734  2.7807
  109TMC2    H2 1702   1.272   3.406   0.842 -2.6156  1.2753  1.0004
  109TMC2    C7 1703   1.453   3.188   0.850  0.3232  0.6475 -0.3149
  109TMC2    C8 1704   1.011   3.400   0.817 -0.1865  0.0442  0.3994
  109TMC2    O1 1705   1.514   3.083   0.860 -0.3264 -0.2238  0.1021
  109TMC2    O2 1706   1.063   3.512   0.791 -0.0618  0.0317 -0.1087
  109TMC2    O5 1707   0.916   3.371   0.910 -0.1221 -0.5168 -0.2878
  109TMC2    H5 1708   0.887   3.277   0.914 -0.3210 -0.4087  0.9311
  110MPD2     C 1709   0.973   2.424   0.876 -0.3454 -0.2289 -0.0773
  110MPD2    C1 1710   1.084   2.465   0.945 -0.2455 -0.3798 -0.4988
  110MPD2    C2 1711   1.128   2.601   0.928 -0.0620  0.2943 -0.7308
  110MPD2    C3 1712   1.060   2.698   0.857  1.1720  0.2285 -0.0029
  110MPD2    C4 1713   0.944   2.658   0.802  0.3589 -0.1576  0.8209
  110MPD2    C5 1714   0.908   2.527   0.813 -0.1102 -0.1150 -0.3518
  110MPD2     H 1715   1.212   2.637   0.987  0.7774 -0.1528 -1.6534
  110MPD2    H1 1716   0.871   2.721   0.753  1.0911  0.4485  0.5148
  110MPD2    H2 1717   0.927   2.325   0.878  0.1314 -0.4635 -0.6028
  110MPD2    H3 1718   0.809   2.508   0.773 -0.5755 -1.6226  1.4908
  110MPD2     N 1719   1.111   2.830   0.858 -0.5365  0.6964 -0.2692
  110MPD2    H5 1720   1.196   2.845   0.912 -2.4049  3.7156  1.7570
  110MPD2    N1 1721   1.154   2.371   1.022  0.8478 -0.1484 -0.3471
  110MPD2    H7 1722   1.113   2.281   1.042  0.4975  0.1696  0.3507
  111TMC2    C1 1723   2.278   3.147  11.820  0.2009  0.3495  0.2951
  111TMC2    C2 1724   2.269   3.273  11.865  0.3577  0.3911  0.3013
  111TMC2    C3 1725   2.364   3.306  11.964 -0.3366 -0.0680 -0.2586
  111TMC2    C4 1726   2.365   3.055  11.865  0.7515 -0.2021  0.0165
  111TMC2    C5 1727   2.452   3.094  11.955 -0.1411 -0.1346  0.2004
  111TMC2    C6 1728   2.459   3.222  12.007 -0.0976  1.0265  0.3534
  111TMC2     C 1729   2.171   3.101  11.733  0.6021  0.2856 -1.1392
  111TMC2     O 1730   2.124   3.184  11.656  0.5998 -0.5471  0.1944
  111TMC2     H 1731   2.184   3.331  11.832  0.1173  0.2738  0.7164
  111TMC2    H1 1732   2.363   2.953  11.828  0.6078 -0.1647 -0.0786
  111TMC2    H2 1733   2.533   3.243  12.084  0.2382 -0.2015  0.3657
  111TMC2    C7 1734   2.581   3.020  11.961  0.3750  0.2122  0.1289
  111TMC2    C8 1735   2.358   3.419  12.048  0.0307  0.3213 -0.3459
  111TMC2    O1 1736   2.660   3.044  12.052 -0.4813 -0.5168  0.1764
  111TMC2    O2 1737   2.410   3.420  12.159 -0.1099  0.2256 -0.6770
  111TMC2    O5 1738   2.246   3.492  12.015 -0.7938 -0.5116 -0.0731
  111TMC2    H5 1739   2.217   3.480  11.922 -0.4528 -1.3043 -0.0760
  112MPD2     C 1740   1.816   2.761  11.595  0.4214 -0.1226 -0.1057
  112MPD2    C1 1741   1.858   2.871  11.528 -0.4499 -0.3071  0.3620
  112MPD2    C2 1742   1.960   2.945  11.589 -0.2444  0.1890  0.0959
  112MPD2    C3 1743   2.012   2.910  11.717 -0.9818 -0.6035 -0.7030
  112MPD2    C4 1744   1.968   2.797  11.769 -0.4153 -0.5268  0.5662
  112MPD2    C5 1745   1.871   2.726  11.716 -0.4975  0.2267 -0.2625
  112MPD2     H 1746   1.992   3.024  11.522 -2.1169  0.8491 -0.0277
  112MPD2    H1 1747   2.005   2.770  11.867 -1.4091  1.4108  1.4724
  112MPD2    H2 1748   1.739   2.698  11.551 -0.0069 -0.2565  0.8446
  112MPD2    H3 1749   1.835   2.645  11.778  0.8743 -1.2597 -1.4389
  112MPD2     N 1750   2.122   2.979  11.777  0.1893 -0.5938  0.2987
  112MPD2    H5 1751   2.173   2.943  11.857  0.8656 -1.2088 -0.4191
  112MPD2    N1 1752   1.815   2.900  11.395  0.4031  0.1536 -0.3856
  112MPD2    H7 1753   1.862   2.975  11.346  2.1204  0.1578  1.2366
  113TMC2    C1 1754   0.008   0.558   0.642 -0.2195  0.2839  0.3776
  113TMC2    C2 1755   4.685   0.680   0.666 -0.0994  0.9077 -0.3048
  113TMC2    C3 1756   4.553   0.706   0.640  0.4056  0.0321 -0.4709
  113TMC2    C4 1757   4.658   0.458   0.592  0.8161 -0.4279  0.4898
  113TMC2    C5 1758   4.526   0.484   0.579 -0.0128 -0.0883 -0.0936
  113TMC2    C6 1759   4.467   0.605   0.602  0.0040  0.4975  0.0633
  113TMC2     C 1760   0.146   0.532   0.687 -0.4864  0.2859 -0.7092
  113TMC2     O 1761   0.199   0.622   0.755 -0.5666 -0.6308  0.2643
  113TMC2     H 1762   0.012   0.752   0.720  1.5689 -0.1225 -0.8032
  113TMC2    H1 1763   4.694   0.357   0.582  0.8849 -0.5669  2.0776
  113TMC2    H2 1764   4.366   0.630   0.573 -0.5020 -1.3232  0.2992
  113TMC2    C7 1765   4.435   0.366   0.557 -0.4499  0.6496  0.2330
  113TMC2    C8 1766   4.500   0.835   0.676 -0.4414 -0.0462  0.1034
  113TMC2    O1 1767   4.342   0.389   0.481 -0.3168  0.2789 -0.1973
  113TMC2    O2 1768   4.552   0.901   0.762 -0.6730 -0.0293  0.3518
  113TMC2    O5 1769   4.447   0.884   0.562 -0.0579  0.2300  0.8297
  113TMC2    H5 1770   4.418   0.828   0.487 -0.1169 -1.4226  2.0723
  114MPD2     C 1771   0.576   0.247   0.746 -0.2690 -1.4728 -0.0484
  114MPD2    C1 1772   0.527   0.350   0.821 -0.1688  0.5473 -0.0656
  114MPD2    C2 1773   0.412   0.418   0.777 -0.7174 -0.3825 -0.3411
  114MPD2    C3 1774   0.334   0.369   0.678  0.1392  0.2087  0.6510
  114MPD2    C4 1775   0.382   0.252   0.607  0.1394 -0.6278  0.1929
  114MPD2    C5 1776   0.507   0.203   0.633 -0.1725 -0.7090 -0.3863
  114MPD2     H 1777   0.386   0.509   0.830 -3.2993 -0.3170 -1.7126
  114MPD2    H1 1778   0.318   0.199   0.538  1.8559 -0.6651 -1.3792
  114MPD2    H2 1779   0.678   0.212   0.757  0.6680  0.7894 -1.5742
  114MPD2    H3 1780   0.538   0.122   0.569 -0.3324  1.1021 -2.7677
  114MPD2     N 1781   0.206   0.417   0.641 -0.1259 -0.3390 -0.0907
  114MPD2    H5 1782   0.157   0.362   0.571  3.2195 -0.3135 -2.4374
  114MPD2    N1 1783   0.589   0.389   0.940  0.2576  0.3749 -0.3103
  114MPD2    H7 1784   0.553   0.475   0.979  0.2596 -0.7367  2.1214
  115TMC2    C1 1785   1.274   3.370  17.408  0.3957  0.0133  0.3947
  115TMC2    C2 1786   1.237   3.364  17.272 -0.1548  0.0085  0.2421
  115TMC2    C3 1787   1.250   3.479  17.200  0.2343 -0.4129  0.2440
  115TMC2    C4 1788   1.319   3.483  17.471  0.1763  0.0388  0.0856
  115TMC2    C5 1789   1.326   3.596  17.391 -0.5408  0.2337 -0.0776
  115TMC2    C6 1790   1.291   3.598  17.257 -0.1176 -0.8503  0.1458
  115TMC2     C 1791   1.242   3.254  17.488  0.1847 -0.3568  0.3019
  115TMC2     O 1792   1.241   3.149  17.425  0.0735 -0.2348  0.0519
  115TMC2     H 1793   1.213   3.265  17.234  0.4813 -0.5710  1.3345
  115TMC2    H1 1794   1.361   3.484  17.571  0.9111 -1.1368 -0.2178
  115TMC2    H2 1795   1.273   3.691  17.205  0.6811  0.3836  2.0708
  115TMC2    C7 1796   1.379   3.719  17.444  0.2170 -0.3254 -0.0097
  115TMC2    C8 1797   1.205   3.472  17.068 -0.1488  0.3418 -0.4991
  115TMC2    O1 1798   1.373   3.739  17.567  0.0904 -0.0936 -0.2812
  115TMC2    O2 1799   1.156   3.367  17.029 -0.6928 -0.6068 -0.2212
  115TMC2    O5 1800   1.273   3.560  16.996  0.2165 -0.0924  0.0559
  115TMC2    H5 1801   1.327   3.628  17.042  0.2538 -0.3205  0.3508
  116MPD2     C 1802   1.207   2.957   0.145 -0.2868  0.7255 -0.1995
  116MPD2    C1 1803   1.153   2.942   0.017 -0.0173 -0.3518 -0.6299
  116MPD2    C2 1804   1.155   3.048  17.663 -0.6853  0.3464 -0.1484
  116MPD2    C3 1805   1.197   3.175  17.711  0.3973 -0.5685 -0.6408
  116MPD2    C4 1806   1.226   3.194   0.111  0.1615  0.0814  0.4813
  116MPD2    C5 1807   1.238   3.086   0.188  0.0661  0.1576  0.0383
  116MPD2     H 1808   1.118   3.031  17.562  0.3596  0.4503 -0.5430
  116MPD2    H1 1809   1.257   3.291   0.148 -1.4779  0.7270  0.1920
  116MPD2    H2 1810   1.215   2.877   0.218 -0.9957  0.0180 -0.8979
  116MPD2    H3 1811   1.294   3.088   0.281  0.7844  0.0328 -0.3901
  116MPD2     N 1812   1.216   3.278  17.622 -0.1906  0.0637 -0.2586
  116MPD2    H5 1813   1.221   3.374  17.653  2.2719 -0.5979  1.3846
  116MPD2    N1 1814   1.115   2.821  17.696 -0.0680  0.4030  0.4960
  116MPD2    H7 1815   1.080   2.822  17.601  0.6000 -0.7240  0.2323
  117TMC2    C1 1816   4.606   4.627  14.405 -0.4673 -0.1060  0.0377
  117TMC2    C2 1817   4.704   4.597  14.490  0.1995 -0.3594  0.0224
  117TMC2    C3 1818   0.040   4.697  14.553 -0.3187  0.0172 -0.0735
  117TMC2    C4 1819   4.567   0.027  14.380  0.0522  0.3185 -0.0478
  117TMC2    C5 1820   4.638   0.126  14.443  0.5979 -0.0206  0.3110
  117TMC2    C6 1821   0.004   0.098  14.535 -0.1043 -0.3243  0.1371
  117TMC2     C 1822   4.535   4.517  14.337  0.0786  0.9657  0.2054
  117TMC2     O 1823   4.596   4.410  14.331 -0.3495 -0.9442 -0.2684
  117TMC2     H 1824   4.733   4.493  14.493 -0.5311 -0.5664 -0.1295
  117TMC2    H1 1825   4.480   0.042  14.318 -0.9053  0.7722  1.3876
  117TMC2    H2 1826   0.058   0.170  14.595 -2.4164  0.7133  0.9719
  117TMC2    C7 1827   4.614   0.268  14.410  0.0790  0.0880  0.2009
  117TMC2    C8 1828   0.148   4.663  14.653  0.2898 -0.5318  0.4337
  117TMC2    O1 1829   4.701   0.347  14.448  0.5596  0.2460 -0.0247
  117TMC2    O2 1830   0.238   0.006  14.692  0.0736 -0.2507  0.1787
  117TMC2    O5 1831   0.156   4.536  14.686  0.0029 -0.4476  0.0940
  117TMC2    H5 1832   0.078   4.478  14.673  1.2979 -1.9942 -0.7089
  118MPD2     C 1833   4.348   0.425  14.212 -0.4915  0.0427  0.0353
  118MPD2    C1 1834   4.479   0.408  14.251 -0.0028 -0.1553  0.4098
  118MPD2    C2 1835   4.570   0.511  14.242 -0.3541 -0.4465  0.9598
  118MPD2    C3 1836   4.532   0.632  14.188  0.1862  0.0133 -0.6002
  118MPD2    C4 1837   4.405   0.653  14.144  0.5311 -0.3097 -0.5839
  118MPD2    C5 1838   4.316   0.552  14.160 -0.3740  0.6048  0.0794
  118MPD2     H 1839   4.670   0.502  14.281 -0.1052 -0.6140  0.2833
  118MPD2    H1 1840   4.364   0.746  14.104  1.3059 -0.1785 -1.0742
  118MPD2    H2 1841   4.268   0.351  14.212 -0.9806  0.5742 -0.1228
  118MPD2    H3 1842   4.220   0.569  14.113 -1.0833 -0.7595  1.0167
  118MPD2     N 1843   4.635   0.723  14.150 -0.2067  0.2783  0.8938
  118MPD2    H5 1844   4.610   0.818  14.124  1.5572  0.5260  0.1044
  118MPD2    N1 1845   4.514   0.289  14.314  0.0902 -0.9171 -0.0582
  118MPD2    H7 1846   4.440   0.220  14.305  0.1173 -0.7196 -1.9103
  119TMC2    C1 1847   2.938   0.740  13.314 -0.1492  0.0804  0.3637
  119TMC2    C2 1848   3.014   0.643  13.381 -0.2999 -0.0591  0.0875
  119TMC2    C3 1849   2.948   0.564  13.469 -0.0903  0.1715 -0.3358
  119TMC2    C4 1850   2.802   0.754  13.334  0.5034 -0.0632 -0.0069
  119TMC2    C5 1851   2.749   0.670  13.427  0.0470 -0.1146 -0.0712
  119TMC2    C6 1852   2.817   0.571  13.491 -0.2586 -0.0605 -0.0970
  119TMC2     C 1853   2.995   0.851  13.248  0.0849 -0.1202  0.4799
  119TMC2     O 1854   2.922   0.935  13.194 -0.6704 -0.3931 -0.4716
  119TMC2     H 1855   3.123   0.638  13.373 -0.1547  0.6643  1.7179
  119TMC2    H1 1856   2.739   0.824  13.281  3.2182  1.4229 -1.2700
  119TMC2    H2 1857   2.775   0.489  13.548  0.0819 -1.6034 -2.0510
  119TMC2    C7 1858   2.599   0.684  13.447  0.0686  0.5528 -0.2206
  119TMC2    C8 1859   3.026   0.468  13.545 -0.1741 -0.6077  0.0684
  119TMC2    O1 1860   2.535   0.769  13.386 -0.2190 -0.4497 -0.1447
  119TMC2    O2 1861   3.122   0.412  13.493  0.4366  0.4353 -0.1376
  119TMC2    O5 1862   2.969   0.447  13.663 -0.4094  0.4470 -0.4057
  119TMC2    H5 1863   2.900   0.514  13.686 -0.0205  0.6302  0.2070
  120MPD2     C 1864   3.382   1.187  13.303 -0.2702  0.5120 -0.6577
  120MPD2    C1 1865   3.249   1.198  13.334 -0.2882 -0.1695 -0.5355
  120MPD2    C2 1866   3.166   1.097  13.296 -0.0825  0.8048 -0.5637
  120MPD2    C3 1867   3.215   0.966  13.258  0.3238 -0.8405  0.3068
  120MPD2    C4 1868   3.348   0.952  13.244 -0.0664 -0.3933  0.3083
  120MPD2    C5 1869   3.423   1.064  13.262  0.9836  0.2606  0.4339
  120MPD2     H 1870   3.058   1.100  13.304  0.0751 -1.7866  2.4237
  120MPD2    H1 1871   3.385   0.853  13.219  1.5659  0.3867 -0.3447
  120MPD2    H2 1872   3.456   1.262  13.323 -0.9363  1.5733 -2.1728
  120MPD2    H3 1873   3.531   1.051  13.259  0.9330 -0.0192 -0.2741
  120MPD2     N 1874   3.132   0.850  13.236  0.7551 -0.5489 -0.1780
  120MPD2    H5 1875   3.180   0.766  13.267 -0.4971 -0.4324  2.0713
  120MPD2    N1 1876   3.212   1.320  13.397  0.2558 -0.1601 -0.6761
  120MPD2    H7 1877   3.275   1.400  13.391 -0.9618  0.8129 -0.3519
  121TMC2    C1 1878   4.427   2.890  14.148 -0.4363 -0.1616  0.7663
  121TMC2    C2 1879   4.551   2.871  14.184 -0.2734  0.0401 -0.3941
  121TMC2    C3 1880   4.580   2.763  14.253 -0.9207 -0.4815  0.4219
  121TMC2    C4 1881   4.326   2.804  14.186  0.1508 -0.6458 -0.2065
  121TMC2    C5 1882   4.361   2.686  14.249 -0.0357  0.9393  0.0720
  121TMC2    C6 1883   4.492   2.663  14.280  0.3955 -0.2053  0.3982
  121TMC2     C 1884   4.390   2.982  14.040  0.4263  0.1500  0.1369
  121TMC2     O 1885   4.272   3.016  14.026  0.3412 -0.0384 -0.0404
  121TMC2     H 1886   4.629   2.939  14.152 -0.8913  2.0099  2.3416
  121TMC2    H1 1887   4.223   2.840  14.181  0.6905  0.2298 -4.8238
  121TMC2    H2 1888   4.530   2.571  14.324  0.0168  0.4582  2.1082
  121TMC2    C7 1889   4.261   2.602  14.316  0.1239 -0.5648  0.1416
  121TMC2    C8 1890   4.708   2.742  14.303  0.1459 -0.5869 -0.1081
  121TMC2    O1 1891   4.306   2.508  14.384  0.8500  0.4032  0.2261
  121TMC2    O2 1892   0.021   2.631  14.327  0.2999 -0.0605  0.0220
  121TMC2    O5 1893   4.727   2.846  14.387  0.1311 -0.1791  0.1132
  121TMC2    H5 1894   4.672   2.926  14.370  0.7542  0.3306  0.5127
  122MPD2     C 1895   4.364   3.156  13.792 -0.2714  0.0738  0.8188
  122MPD2    C1 1896   4.486   3.110  13.847 -0.1252 -0.0012 -0.1915
  122MPD2    C2 1897   4.597   3.136  13.773 -0.9301 -0.3583  0.3866
  122MPD2    C3 1898   4.602   3.204  13.648 -0.3143  0.3808 -0.5134
  122MPD2    C4 1899   4.485   3.257  13.602  0.3695 -0.1851 -0.0851
  122MPD2    C5 1900   4.368   3.228  13.671  0.5401  0.1076 -0.3501
  122MPD2     H 1901   4.691   3.088  13.797 -0.9354 -0.4203  0.2850
  122MPD2    H1 1902   4.472   3.294  13.501 -1.5212 -0.5195  0.0286
  122MPD2    H2 1903   4.268   3.131  13.834 -1.1159  2.4226  0.3198
  122MPD2    H3 1904   4.275   3.245  13.617  0.0700 -0.0362  0.4089
  122MPD2     N 1905   4.706   3.225  13.562  0.0635  0.0877 -0.1206
  122MPD2    H5 1906   4.685   3.271  13.474 -1.5509 -0.4980 -0.0488
  122MPD2    N1 1907   4.499   3.034  13.969  0.8400  0.7733  0.0611
  122MPD2    H7 1908   4.592   2.997  13.984  0.9745  0.7395 -0.8039
  123TMC2    C1 1909   2.524   1.610  10.229  0.4517  0.3105  0.4328
  123TMC2    C2 1910   2.650   1.657  10.228  0.6803 -0.8094 -0.2278
  123TMC2    C3 1911   2.715   1.661  10.106  0.5758 -0.5277  0.1447
  123TMC2    C4 1912   2.460   1.570  10.114 -0.1937 -0.5183 -0.8711
  123TMC2    C5 1913   2.527   1.574   9.999  0.3059 -0.4381 -0.4600
  123TMC2    C6 1914   2.662   1.617   9.989 -0.4148  0.5157 -0.3356
  123TMC2     C 1915   2.476   1.540  10.347  0.0383 -0.0217 -0.2478
  123TMC2     O 1916   2.492   1.593  10.457  0.1602 -0.1367 -0.1941
  123TMC2     H 1917   2.695   1.699  10.317 -1.3722  1.4764 -0.2757
  123TMC2    H1 1918   2.353   1.552  10.120 -0.0427 -0.7842  0.9334
  123TMC2    H2 1919   2.724   1.631   9.901 -1.7935 -2.6885 -1.7700
  123TMC2    C7 1920   2.488   1.460   9.911 -0.8057 -0.5870  0.0022
  123TMC2    C8 1921   2.822   1.756  10.106 -0.1161 -0.1070 -0.4158
  123TMC2    O1 1922   2.420   1.374   9.968  0.3537 -0.0143 -0.4681
  123TMC2    O2 1923   2.823   1.855  10.180  0.0163  0.0503 -0.5739
  123TMC2    O5 1924   2.927   1.695  10.044 -1.0315 -0.2650 -0.0175
  123TMC2    H5 1925   2.916   1.598  10.028  1.4109 -0.2807 -1.6918
  124MPD2     C 1926   2.125   1.193  10.500  0.2456 -0.9398 -0.4427
  124MPD2    C1 1927   2.150   1.159  10.368 -0.2300 -0.0110  0.5438
  124MPD2    C2 1928   2.246   1.245  10.309  0.2382  0.0060  0.1320
  124MPD2    C3 1929   2.314   1.344  10.378  0.1224  1.0806  0.2569
  124MPD2    C4 1930   2.288   1.368  10.507 -0.2042 -0.7409  0.3843
  124MPD2    C5 1931   2.197   1.292  10.568  0.1510 -0.7603  0.1090
  124MPD2     H 1932   2.264   1.232  10.203 -2.5195  0.2264 -0.3446
  124MPD2    H1 1933   2.333   1.452  10.560 -2.0494  0.3407  0.2444
  124MPD2    H2 1934   2.036   1.160  10.552 -0.2365  0.9045 -0.0998
  124MPD2    H3 1935   2.153   1.326  10.662 -0.7605  0.5198 -0.7772
  124MPD2     N 1936   2.413   1.421  10.306  0.4275 -0.4390 -0.2655
  124MPD2    H5 1937   2.423   1.401  10.207  0.8161  0.6682 -0.4457
  124MPD2    N1 1938   2.064   1.074  10.295 -0.2262 -0.1870 -0.5290
  124MPD2    H7 1939   2.002   1.017  10.350 -0.6346  0.9146  0.1440
  125TMC2    C1 1940   3.175   3.967   9.378  0.3282  0.0574 -0.5908
  125TMC2    C2 1941   3.254   3.891   9.293 -0.1055 -0.6161  0.0287
  125TMC2    C3 1942   3.299   3.767   9.334 -0.0007 -0.2676 -0.3080
  125TMC2    C4 1943   3.122   3.915   9.492  0.1975  0.5512 -0.1802
  125TMC2    C5 1944   3.164   3.789   9.535 -0.3381  0.2602  0.2204
  125TMC2    C6 1945   3.257   3.724   9.456  0.2262 -0.7487 -0.1230
  125TMC2     C 1946   3.088   4.072   9.328  0.1006  0.0619 -0.2693
  125TMC2     O 1947   2.994   4.104   9.400 -0.2672 -0.9569 -0.1009
  125TMC2     H 1948   3.304   3.931   9.206 -0.1614  0.7631  0.6147
  125TMC2    H1 1949   3.059   3.973   9.559 -1.2228  0.9207 -1.8263
  125TMC2    H2 1950   3.276   3.620   9.477 -1.3917 -0.6548  1.8390
  125TMC2    C7 1951   3.139   3.738   9.666  0.4153 -0.3048  0.1737
  125TMC2    C8 1952   3.374   3.678   9.256 -0.2585  0.6456  0.1596
  125TMC2    O1 1953   3.030   3.782   9.704 -0.0371 -0.7833 -0.3451
  125TMC2    O2 1954   3.428   3.577   9.295 -0.0103 -0.0138  0.2962
  125TMC2    O5 1955   3.376   3.709   9.122 -0.0375  0.0107  0.1812
  125TMC2    H5 1956   3.310   3.768   9.079 -1.8121 -1.2969  1.0922
  126MPD1     C 1957   3.003   4.463   9.009 -0.4448  0.3542 -0.4692
  126MPD1    C1 1958   3.121   4.400   8.968 -0.0001 -0.1212  0.2558
  126MPD1    C2 1959   3.163   4.288   9.037  0.6939  0.3181 -0.3925
  126MPD1    C3 1960   3.084   4.233   9.136 -0.2624 -0.2505  0.7165
  126MPD1    C4 1961   2.957   4.279   9.161  0.2177 -0.0603 -0.0684
  126MPD1    C5 1962   2.925   4.395   9.103 -0.2630 -0.4789  0.9247
  126MPD1     H 1963   3.249   4.228   9.011  1.6036  0.9606  1.1928
  126MPD1    H1 1964   2.894   4.231   9.235 -0.7081 -2.2273 -2.2863
  126MPD1    H2 1965   2.957   4.553   8.970  2.4111  1.3656 -1.5040
  126MPD1    H3 1966   2.824   4.432   9.119 -0.5811 -2.2006  3.0028
  126MPD1     N 1967   3.142   4.129   9.213 -0.3714  0.1085  0.3833
  126MPD1    H5 1968   3.236   4.096   9.194  0.2791  1.0805  1.8979
  126MPD1    N1 1969   3.209   4.467   8.884  0.0256  0.2035  1.3055
  126MPD1    H6 1970   3.266   4.404   8.828 -4.9492 -1.9267 -1.3323
  126MPD1    H7 1971   3.166   4.536   8.824  0.0888  1.6075  2.8796
  127TMC2    C1 1972   3.897   2.252   9.663 -0.3670  0.1118 -1.0165
  127TMC2    C2 1973   3.978   2.214   9.764  0.2695 -0.2902 -0.0446
  127TMC2    C3 1974   3.921   2.166   9.881  0.3205  0.1900 -0.1243
  127TMC2    C4 1975   3.758   2.245   9.668  0.4517 -0.2659  0.7070
  127TMC2    C5 1976   3.708   2.180   9.785 -0.5957  0.1998 -0.5203
  127TMC2    C6 1977   3.785   2.141   9.888  0.6528 -0.0724 -0.0934
  127TMC2     C 1978   3.963   2.340   9.566 -0.7263  1.7136  0.7405
  127TMC2     O 1979   4.043   2.415   9.621  0.1209 -0.0074 -0.3011
  127TMC2     H 1980   4.086   2.216   9.754  0.6458  0.7834  4.2599
  127TMC2    H1 1981   3.695   2.273   9.585 -0.1639 -1.1940  0.8609
  127TMC2    H2 1982   3.737   2.102   9.977 -1.7621  0.3408 -1.2248
  127TMC2    C7 1983   3.569   2.146   9.780  0.2685 -0.2306 -0.7299
  127TMC2    C8 1984   4.000   2.192   9.995 -0.9866 -0.4375  0.0162
  127TMC2    O1 1985   3.507   2.198   9.692  0.4837  0.2689  0.2219
  127TMC2    O2 1986   4.070   2.115  10.055 -0.0979  0.7232 -0.4743
  127TMC2    O5 1987   3.935   2.290  10.055  0.2394  0.1271  0.3202
  127TMC2    H5 1988   3.876   2.335   9.992  0.9256 -0.0200 -0.4351
  128MPD2     C 1989   3.861   2.408   9.222  0.4523  0.6558 -0.1846
  128MPD2    C1 1990   3.934   2.428   9.335  0.0623 -0.1362 -0.1543
  128MPD2    C2 1991   4.027   2.528   9.349  0.2395 -0.2434  1.0136
  128MPD2    C3 1992   4.051   2.612   9.244  0.3474 -0.1620 -0.1851
  128MPD2    C4 1993   3.984   2.590   9.129 -0.1241  0.6818 -0.1853
  128MPD2    C5 1994   3.885   2.494   9.116  0.6994 -0.3332 -0.7122
  128MPD2     H 1995   4.087   2.533   9.439 -2.9325  0.2407  3.1002
  128MPD2    H1 1996   3.986   2.650   9.039 -1.4530  1.6422  0.4265
  128MPD2    H2 1997   3.794   2.323   9.212  0.9667  0.3621 -1.1549
  128MPD2    H3 1998   3.836   2.482   9.021 -0.4018  1.2831 -0.3557
  128MPD2     N 1999   4.137   2.720   9.265 -0.0542  0.0587 -0.5099
  128MPD2    H5 2000   4.187   2.725   9.353 -0.4472 -0.0156 -0.2814
  128MPD2    N1 2001   3.901   2.341   9.446  0.1145 -0.2944 -0.1038
  128MPD2    H7 2002   3.834   2.266   9.434 -1.3833  0.9738  0.1707
  129TMC2    C1 2003   2.880   2.101   1.672 -0.5276  0.9406  0.8412
  129TMC2    C2 2004   2.995   2.160   1.623  0.3049  0.6677 -0.2791
  129TMC2    C3 2005   3.106   2.077   1.618  0.0807 -0.1863  0.2220
  129TMC2    C4 2006   2.878   1.969   1.712 -0.2954 -0.5955 -0.5094
  129TMC2    C5 2007   2.991   1.896   1.694 -0.5470  0.0938 -0.1856
  129TMC2    C6 2008   3.107   1.940   1.641  0.1160 -0.6642  0.4615
  129TMC2     C 2009   2.754   2.172   1.688  1.1501  0.0357 -0.5226
  129TMC2     O 2010   2.676   2.129   1.774  0.2113 -0.4209  0.1674
  129TMC2     H 2011   3.011   2.266   1.606  0.4245  0.4151 -1.6829
  129TMC2    H1 2012   2.793   1.925   1.761 -0.5174 -0.1257 -0.4738
  129TMC2    H2 2013   3.201   1.887   1.630 -0.5402 -1.3223 -1.8836
  129TMC2    C7 2014   2.957   1.753   1.679  0.0343 -0.0639 -0.0940
  129TMC2    C8 2015   3.233   2.124   1.563  0.3122  0.6037 -0.5051
  129TMC2    O1 2016   2.836   1.716   1.690  0.3080 -0.0654 -0.1295
  129TMC2    O2 2017   3.317   2.052   1.513  0.3093  0.0787 -0.3223
  129TMC2    O5 2018   3.263   2.228   1.640  0.0386 -0.3481  0.0430
  129TMC2    H5 2019   3.196   2.253   1.708  2.5979  1.6239  1.8399
  130MPD2     C 2020   2.522   2.360   1.659 -0.2501  0.5237 -0.0082
  130MPD2    C1 2021   2.636   2.359   1.580 -0.8179 -0.3005 -0.5225
  130MPD2    C2 2022   2.637   2.448   1.479  0.2883 -0.5372 -0.3466
  130MPD2    C3 2023   2.536   2.529   1.442 -0.0287  0.4399 -0.5900
  130MPD2    C4 2024   2.420   2.523   1.518  0.2084 -0.1595 -0.6991
  130MPD2    C5 2025   2.417   2.444   1.627  0.2562 -0.2747  0.2645
  130MPD2     H 2026   2.733   2.460   1.429  0.2659  0.2531 -0.1940
  130MPD2    H1 2027   2.325   2.563   1.483 -1.5797 -1.7183  2.3761
  130MPD2    H2 2028   2.520   2.297   1.748 -1.3632  0.2844 -0.1973
  130MPD2    H3 2029   2.326   2.447   1.685  1.3114 -2.3032  2.0060
  130MPD2     N 2030   2.537   2.626   1.335 -0.2001 -0.0668  0.0102
  130MPD2    H5 2031   2.617   2.622   1.273  0.2525  0.6578  0.5474
  130MPD2    N1 2032   2.749   2.273   1.592  0.0978  0.3579 -0.2968
  130MPD2    H7 2033   2.818   2.288   1.520  1.2680 -1.6128  0.4203
  131TMC2    C1 2034   2.292   1.571   9.455  0.0784  0.3839 -0.0907
  131TMC2    C2 2035   2.256   1.631   9.346 -0.3166  0.2344 -0.2701
  131TMC2    C3 2036   2.331   1.743   9.314  0.0110 -0.4441 -0.1065
  131TMC2    C4 2037   2.389   1.625   9.545 -0.0033 -0.4590 -0.4786
  131TMC2    C5 2038   2.456   1.742   9.512  0.3048 -0.8777 -0.1256
  131TMC2    C6 2039   2.417   1.810   9.393  0.4381 -0.3373 -0.2008
  131TMC2     C 2040   2.211   1.464   9.509 -0.1409 -0.8764  0.2506
  131TMC2     O 2041   2.149   1.474   9.613 -0.0890 -0.1478 -0.4037
  131TMC2     H 2042   2.181   1.594   9.278  0.1493 -1.7365  0.2977
  131TMC2    H1 2043   2.394   1.581   9.644 -1.9334  0.4807  0.0388
  131TMC2    H2 2044   2.479   1.878   9.336 -1.5629  0.4075 -1.5041
  131TMC2    C7 2045   2.536   1.801   9.610  0.7534  0.6026  0.2771
  131TMC2    C8 2046   2.293   1.806   9.194 -0.3516 -0.4743  1.1483
  131TMC2    O1 2047   2.591   1.723   9.684 -0.6549 -0.2356 -0.4920
  131TMC2    O2 2048   2.173   1.812   9.157 -0.1116  0.4132 -0.5644
  131TMC2    O5 2049   2.389   1.765   9.115 -0.4782  0.3341 -0.1412
  131TMC2    H5 2050   2.463   1.719   9.160  0.0363  0.8024 -0.5193
  132MPD2     C 2051   2.113   1.152   9.322  0.0561 -0.8537 -0.7125
  132MPD2    C1 2052   2.123   1.243   9.429 -0.2939  0.2908 -0.3045
  132MPD2    C2 2053   2.058   1.207   9.547 -0.0922 -0.3498  0.8939
  132MPD2    C3 2054   1.995   1.082   9.555  0.3871  0.5132 -0.5943
  132MPD2    C4 2055   1.991   0.997   9.447 -0.2173  0.1192 -0.6973
  132MPD2    C5 2056   2.045   1.034   9.335  0.0141  0.0571 -0.3871
  132MPD2     H 2057   2.061   1.268   9.637  0.8828 -1.0069  1.3050
  132MPD2    H1 2058   1.930   0.908   9.454 -0.2293  0.1595 -0.2945
  132MPD2    H2 2059   2.164   1.170   9.227  1.7902  1.8443  0.7300
  132MPD2    H3 2060   2.031   0.973   9.246 -1.7496 -0.8947  0.5385
  132MPD2     N 2061   1.952   1.046   9.686  0.2434  0.4573 -0.3295
  132MPD2    H5 2062   1.968   1.116   9.758  0.8051 -0.2779  0.2555
  132MPD2    N1 2063   2.201   1.360   9.422 -0.7737 -0.2078  0.1798
  132MPD2    H7 2064   2.252   1.376   9.336 -1.2205  0.7850  0.0926
  133TMC2    C1 2065   1.412   3.303   9.581  0.1878 -0.5930  0.3416
  133TMC2    C2 2066   1.494   3.384   9.643 -0.0664  0.4118 -0.3238
  133TMC2    C3 2067   1.446   3.508   9.678  0.3043  0.3792  0.6057
  133TMC2    C4 2068   1.282   3.336   9.543 -0.2471  0.0658 -0.0409
  133TMC2    C5 2069   1.242   3.466   9.575 -0.4673 -0.0804 -0.8203
  133TMC2    C6 2070   1.318   3.550   9.653 -0.2111  0.1340 -0.3264
  133TMC2     C 2071   1.456   3.169   9.537 -0.6799 -0.2144 -0.5007
  133TMC2     O 2072   1.374   3.082   9.506  0.1134  0.2741 -0.3176
  133TMC2     H 2073   1.600   3.361   9.652 -0.8492 -2.8437  0.6064
  133TMC2    H1 2074   1.224   3.267   9.482  1.1789 -1.4618  0.3043
  133TMC2    H2 2075   1.273   3.636   9.702  1.3198  1.7105 -1.6728
  133TMC2    C7 2076   1.110   3.505   9.534  0.7414 -0.0061  0.7410
  133TMC2    C8 2077   1.528   3.604   9.748  0.2070 -0.0011  0.2421
  133TMC2    O1 2078   1.034   3.412   9.512  0.7621  0.2679  0.1235
  133TMC2    O2 2079   1.500   3.723   9.764 -0.1739 -0.4842 -0.2804
  133TMC2    O5 2080   1.632   3.546   9.807 -0.7506  0.2109  0.2497
  133TMC2    H5 2081   1.626   3.451   9.832  0.9238  0.3389  1.1773
  134MPD2     C 2082   1.769   3.094   9.349  0.7307  0.5702  0.1202
  134MPD2    C1 2083   1.640   3.075   9.395 -0.4562 -0.0661 -0.5438
  134MPD2    C2 2084   1.584   2.951   9.357 -0.0100 -0.0006 -0.4967
  134MPD2    C3 2085   1.640   2.861   9.271  0.2449  0.3140  0.4876
  134MPD2    C4 2086   1.768   2.885   9.226  0.4986  0.0295  1.0256
  134MPD2    C5 2087   1.829   3.004   9.266 -0.5578  0.7214 -0.6362
  134MPD2     H 2088   1.480   2.935   9.382  0.4538 -2.0306  0.0990
  134MPD2    H1 2089   1.822   2.821   9.157  0.3296  0.6011  0.3613
  134MPD2    H2 2090   1.818   3.189   9.364 -0.0274  0.8717  0.6440
  134MPD2    H3 2091   1.935   3.020   9.252 -0.0415 -0.4930  1.7668
  134MPD2     N 2092   1.574   2.750   9.210 -0.7192  0.7274 -0.1846
  134MPD2    H5 2093   1.627   2.704   9.137  1.5461  1.6494  0.9032
  134MPD2    N1 2094   1.582   3.172   9.480  0.5515  0.1721 -0.1618
  134MPD2    H7 2095   1.636   3.256   9.497  0.1843  0.1694  1.0191
  135TMC2    C1 2096   3.687   3.334  11.011 -0.0748  0.0657 -0.1552
  135TMC2    C2 2097   3.731   3.203  10.991  0.8245  0.1183 -0.0947
  135TMC2    C3 2098   3.641   3.107  11.031 -0.6993 -0.1753 -0.6437
  135TMC2    C4 2099   3.579   3.363  11.080  0.0305  0.3621 -0.6961
  135TMC2    C5 2100   3.501   3.260  11.129  0.4651 -1.0443  0.2164
  135TMC2    C6 2101   3.524   3.131  11.096 -0.0272 -0.0917  0.3680
  135TMC2     C 2102   3.760   3.448  10.960 -0.1617 -0.1100  0.3596
  135TMC2     O 2103   3.746   3.560  11.011  0.7489  0.2553  0.5009
  135TMC2     H 2104   3.824   3.177  10.941 -0.0064 -2.3469 -0.3386
  135TMC2    H1 2105   3.551   3.468  11.083 -1.9276 -0.3131  4.2435
  135TMC2    H2 2106   3.466   3.051  11.140 -2.8470  1.0450 -1.2587
  135TMC2    C7 2107   3.364   3.306  11.139  0.4790 -0.5872  0.1781
  135TMC2    C8 2108   3.657   2.972  10.990  0.1592  0.3784  0.2730
  135TMC2    O1 2109   3.334   3.420  11.174 -0.2590  0.7990 -0.0015
  135TMC2    O2 2110   3.609   2.880  11.055  0.0245  0.0817 -0.2414
  135TMC2    O5 2111   3.706   2.974  10.866 -0.0436  0.2378 -0.3422
  135TMC2    H5 2112   3.718   3.057  10.815 -1.7247 -0.7466 -2.3466
  136MPD2     C 2113   3.893   3.654  10.785 -0.3070 -0.3512  0.4253
  136MPD2    C1 2114   3.843   3.528  10.742 -0.0140  0.0020 -0.3727
  136MPD2    C2 2115   3.839   3.504  10.604 -0.4198  0.3242 -0.6928
  136MPD2    C3 2116   3.856   3.604  10.511  0.1144  0.3166  0.1113
  136MPD2    C4 2117   3.891   3.724  10.556  0.2376 -0.4494  0.0588
  136MPD2    C5 2118   3.915   3.750  10.690 -0.5024  0.4812  0.3868
  136MPD2     H 2119   3.817   3.404  10.567  0.5155  0.2061 -0.9178
  136MPD2    H1 2120   3.906   3.805  10.486  1.4696 -1.9054 -1.3368
  136MPD2    H2 2121   3.923   3.673  10.887  0.3747 -0.2070  0.1928
  136MPD2    H3 2122   3.950   3.845  10.728  0.3755 -0.5453  2.1391
  136MPD2     N 2123   3.855   3.579  10.371  0.4065 -0.0960 -0.4043
  136MPD2    H5 2124   3.854   3.660  10.311 -3.2616  0.7707  0.8032
  136MPD2    N1 2125   3.810   3.428  10.835 -0.1066 -0.5378  0.7587
  136MPD2    H7 2126   3.790   3.337  10.796  1.5067  0.0628 -1.4900
  137TMC2    C1 2127   3.667   3.033   9.567 -0.4193  0.3068  0.7326
  137TMC2    C2 2128   3.779   3.090   9.529 -0.3441  0.3518 -0.1892
  137TMC2    C3 2129   3.786   3.134   9.406  0.5279  0.0293 -0.2323
  137TMC2    C4 2130   3.550   3.016   9.491 -0.6503 -0.5891  0.1714
  137TMC2    C5 2131   3.568   3.059   9.361  0.3999 -0.7311  0.4568
  137TMC2    C6 2132   3.682   3.121   9.318 -0.2650 -0.1620  0.0879
  137TMC2     C 2133   3.653   3.007   9.708  0.3348  0.2901 -0.2027
  137TMC2     O 2134   3.755   3.003   9.774  0.3479  1.0099 -0.1848
  137TMC2     H 2135   3.857   3.115   9.600  0.2288 -0.2348 -0.6066
  137TMC2    H1 2136   3.475   2.948   9.529 -1.3593 -0.1073 -0.3545
  137TMC2    H2 2137   3.713   3.140   9.216 -2.8341 -0.5070 -0.7544
  137TMC2    C7 2138   3.456   3.038   9.272 -0.1394 -0.1085  0.4267
  137TMC2    C8 2139   3.923   3.146   9.363 -0.2341  0.4281  0.1839
  137TMC2    O1 2140   3.481   3.062   9.153  0.6555  0.2636 -0.3391
  137TMC2    O2 2141   4.023   3.106   9.421  0.3324  0.1878 -0.5932
  137TMC2    O5 2142   3.928   3.232   9.260 -0.0840  0.6525 -0.5544
  137TMC2    H5 2143   3.839   3.273   9.248 -1.2237 -1.7323 -0.1353
  138MPD2     C 2144   3.345   3.023   9.899 -0.2992 -0.7495  0.7238
  138MPD2    C1 2145   3.473   2.982   9.875  0.3019 -0.1415  0.6067
  138MPD2    C2 2146   3.544   2.902   9.965 -0.0415  0.8264 -0.5672
  138MPD2    C3 2147   3.481   2.844  10.074 -0.1021 -0.0198 -0.1584
  138MPD2    C4 2148   3.342   2.864  10.076  0.1416 -0.1016 -0.2506
  138MPD2    C5 2149   3.277   2.957   9.998 -0.1490 -0.5168 -0.2858
  138MPD2     H 2150   3.645   2.871   9.941  0.1916  2.1741 -1.3240
  138MPD2    H1 2151   3.284   2.803  10.145 -1.1458  1.1121 -0.2658
  138MPD2    H2 2152   3.301   3.104   9.842  0.1998  0.5303  2.1923
  138MPD2    H3 2153   3.174   2.982  10.021  0.3551  1.8671 -0.6290
  138MPD2     N 2154   3.529   2.748  10.167 -0.1513  0.0659 -0.2502
  138MPD2    H5 2155   3.464   2.710  10.235  1.5191 -1.2584  0.5965
  138MPD2    N1 2156   3.523   3.021   9.750  0.8182 -0.5911 -0.2569
  138MPD2    H7 2157   3.460   3.060   9.681  0.6941 -1.4952 -0.6654
  139TMC2    C1 2158   4.643   0.497  13.811  0.0387  0.3042 -0.6062
  139TMC2    C2 2159   4.696   0.605  13.751  0.4238 -0.3636 -0.1490
  139TMC2    C3 2160   4.624   0.721  13.730 -0.2101 -0.0342 -0.3281
  139TMC2    C4 2161   4.507   0.498  13.832 -0.3953 -0.7213  0.2136
  139TMC2    C5 2162   4.440   0.620  13.811 -0.2630 -1.0637  0.1231
  139TMC2    C6 2163   4.493   0.735  13.757 -1.0867 -0.5386 -0.1640
  139TMC2     C 2164   4.722   0.373  13.812  0.7033 -0.6296 -0.2886
  139TMC2     O 2165   0.056   0.352  13.709 -0.5309 -0.0633  0.4392
  139TMC2     H 2166   0.069   0.598  13.734  0.5736  1.5602  0.0105
  139TMC2    H1 2167   4.470   0.403  13.869  2.7283 -0.5999  3.6596
  139TMC2    H2 2168   4.434   0.824  13.739 -1.1390 -1.1556 -2.9342
  139TMC2    C7 2169   4.296   0.615  13.814 -0.0910  0.2772  0.5198
  139TMC2    C8 2170   4.689   0.812  13.632  0.0278  0.2638 -0.6468
  139TMC2    O1 2171   4.244   0.729  13.804  0.2187 -0.5048  0.4819
  139TMC2    O2 2172   0.061   0.781  13.576 -0.1412  0.1180  0.3186
  139TMC2    O5 2173   4.648   0.937  13.648  0.3717  0.0646 -0.6975
  139TMC2    H5 2174   4.589   0.953  13.724  1.9535  1.6549  0.2079
  140MPD2     C 2175   4.725   0.114  14.073  0.8190 -1.3156  0.4727
  140MPD2    C1 2176   0.025   0.177  13.956 -0.2580  0.2547  0.4522
  140MPD2    C2 2177   0.134   0.127  13.884 -0.5776  0.0628  0.0875
  140MPD2    C3 2178   0.193   0.007  13.918 -0.2841 -0.2965  0.0719
  140MPD2    C4 2179   0.154   4.679  14.032  0.0248 -0.0906  0.3171
  140MPD2    C5 2180   0.060   0.002  14.110 -0.0569  0.2144  0.2415
  140MPD2     H 2181   0.172   0.176  13.795  0.5381  1.7242  1.4874
  140MPD2    H1 2182   0.195   4.585  14.067  0.2873 -0.8116 -1.8995
  140MPD2    H2 2183   4.649   0.156  14.138  0.8238 -0.3485 -0.1521
  140MPD2    H3 2184   0.029   4.698  14.207  0.6868  1.7919  1.0899
  140MPD2     N 2185   0.283   4.680  13.820  0.8709 -0.3064 -0.0658
  140MPD2    H5 2186   0.307   0.003  13.739 -2.0370  1.7068  0.5186
  140MPD2    N1 2187   4.695   0.294  13.920 -0.0879 -0.3714 -0.2618
  140MPD2    H7 2188   4.618   0.327  13.979 -0.2163  1.7517 -1.6064
  141TMC2    C1 2189   0.370   2.701  13.825 -0.0707  0.5295  0.0075
  141TMC2    C2 2190   0.287   2.639  13.734 -0.2601  0.0389  0.8114
  141TMC2    C3 2191   0.152   2.648  13.753 -0.4562 -0.2891  0.1265
  141TMC2    C4 2192   0.323   2.773  13.932  0.7613  0.8758 -0.2310
  141TMC2    C5 2193   0.189   2.797  13.923  0.4933  0.1627  0.0013
  141TMC2    C6 2194   0.108   2.733  13.843 -0.2107 -0.4098 -0.8370
  141TMC2     C 2195   0.505   2.645  13.840  0.2357  1.0091  0.0904
  141TMC2     O 2196   0.556   2.614  13.732  0.4841  0.1689 -0.3854
  141TMC2     H 2197   0.327   2.563  13.668  0.4086 -1.1647  2.6041
  141TMC2    H1 2198   0.384   2.830  14.001  2.3613  0.6499 -1.4688
  141TMC2    H2 2199   0.001   2.749  13.846 -0.2733 -0.8048 -1.0271
  141TMC2    C7 2200   0.126   2.901  13.990  0.1289  0.0201  0.2948
  141TMC2    C8 2201   0.078   2.639  13.630  0.4314  0.3830  0.3456
  141TMC2    O1 2202   0.021   2.940  13.942 -0.1095 -0.0789 -0.1787
  141TMC2    O2 2203   0.128   2.632  13.517 -0.1348  0.4424 -0.4039
  141TMC2    O5 2204   4.701   2.576  13.673 -1.1229 -0.0168  0.4077
  141TMC2    H5 2205   4.693   2.577  13.771 -1.2446  0.3179  0.3916
  142TMC2    C1 2206   2.181   0.652   9.741 -0.2115 -0.2968 -0.1888
  142TMC2    C2 2207   2.165   0.613   9.610  0.2749 -0.8854 -0.3158
  142TMC2    C3 2208   2.190   0.701   9.512 -0.2029  0.7018 -0.0913
  142TMC2    C4 2209   2.220   0.771   9.779  0.1063  0.0467 -0.3093
  142TMC2    C5 2210   2.240   0.859   9.678 -0.1176  0.0163  0.2752
  142TMC2    C6 2211   2.222   0.826   9.548  0.0030  0.7003 -0.7999
  142TMC2     C 2212   2.130   0.558   9.836  0.3346 -0.1845 -0.4857
  142TMC2     O 2213   2.052   0.471   9.794 -0.5353 -0.3168 -0.0418
  142TMC2     H 2214   2.141   0.510   9.585  2.4408 -1.4937  0.1055
  142TMC2    H1 2215   2.237   0.798   9.882  0.4522  2.4603 -0.9747
  142TMC2    H2 2216   2.217   0.900   9.469  1.3051  2.2115  0.5252
  142TMC2    C7 2217   2.299   0.984   9.709  0.2864  0.5201  0.6139
  142TMC2    C8 2218   2.158   0.658   9.370  0.0194 -0.0848 -0.5049
  142TMC2    O1 2219   2.292   1.020   9.827 -0.2947  0.4229  0.6338
  142TMC2    O2 2220   2.076   0.570   9.343  0.4551 -0.4572 -0.3352
  142TMC2    O5 2221   2.207   0.741   9.277  0.0785  0.4318 -0.3709
  142TMC2    H5 2222   2.280   0.790   9.320  1.1665 -1.9391  0.4937
  143MPD2     C 2223   2.048   0.361  10.309 -0.2018 -0.0545 -0.0097
  143MPD2    C1 2224   1.992   0.330  10.193 -0.6202 -0.0659 -0.2764
  143MPD2    C2 2225   2.034   0.392  10.079  0.3815  0.3329  0.1946
  143MPD2    C3 2226   2.129   0.492  10.077  0.5895  0.4052 -0.2054
  143MPD2    C4 2227   2.173   0.533  10.203 -0.3211 -0.3934 -0.6799
  143MPD2    C5 2228   2.131   0.469  10.322 -0.1434  0.4082 -0.2849
  143MPD2     H 2229   1.986   0.359   9.988  1.0411 -2.8390  1.0062
  143MPD2    H1 2230   2.237   0.617  10.226 -1.7081  0.8512 -1.3742
  143MPD2    H2 2231   2.021   0.307  10.399  0.5088 -0.6059 -0.1189
  143MPD2    H3 2232   2.160   0.513  10.417  1.2636 -1.2721  0.0491
  143MPD2     N 2233   2.185   0.561   9.965  0.2672  0.2296  0.6073
  143MPD2    H5 2234   2.266   0.615   9.995  0.4088  0.3056  0.0865
  143MPD2    N1 2235   1.895   0.231  10.192 -0.3940 -0.6884 -0.7020
  143MPD2    H7 2236   1.878   0.190  10.283  2.3074  2.7496  1.3756
  144TMC2    C1 2237   0.658   3.992   0.702  0.4433 -0.1416  0.6208
  144TMC2    C2 2238   0.672   3.857   0.689  0.2717  0.4145  0.8713
  144TMC2    C3 2239   0.800   3.803   0.693 -0.0102 -0.3137  0.1872
  144TMC2    C4 2240   0.767   4.072   0.716  0.3617 -0.1590 -0.0170
  144TMC2    C5 2241   0.893   4.017   0.718  0.7728 -0.2511  0.0450
  144TMC2    C6 2242   0.910   3.877   0.710 -0.7874 -0.1638  0.3287
  144TMC2     C 2243   0.528   4.042   0.693 -0.2776 -0.3985 -0.2920
  144TMC2     O 2244   0.520   4.157   0.648  0.2399  0.2769  0.8767
  144TMC2     H 2245   0.589   3.800   0.647  1.2462 -0.1245 -0.3205
  144TMC2    H1 2246   0.749   4.178   0.703 -0.1465 -0.4667 -1.8296
  144TMC2    H2 2247   1.007   3.830   0.707 -1.8352 -2.2716 -0.9783
  144TMC2    C7 2248   1.008   4.083   0.784 -1.0726 -0.0642 -0.1041
  144TMC2    C8 2249   0.811   3.664   0.665  0.6266 -0.0074 -0.2934
  144TMC2    O1 2250   1.111   4.015   0.794 -0.2212 -0.4733 -0.0533
  144TMC2    O2 2251   0.722   3.581   0.694  0.0364 -0.7231  0.4668
  144TMC2    O5 2252   0.887   3.647   0.558 -0.1262  0.8397 -0.1308
  144TMC2    H5 2253   0.953   3.711   0.525  1.1450 -0.2665  0.2817
  145MPD2     C 2254   0.052   4.070   0.874  0.5915 -0.2128 -0.0709
  145MPD2    C1 2255   0.119   4.148   0.777 -0.1194  0.5687 -0.2030
  145MPD2    C2 2256   0.251   4.117   0.746  0.1684 -0.1761 -0.1553
  145MPD2    C3 2257   0.311   4.006   0.798  0.3850 -0.0743  0.1093
  145MPD2    C4 2258   0.246   3.922   0.889  0.5706 -0.2355  0.2402
  145MPD2    C5 2259   0.118   3.964   0.923  0.4490 -0.0586 -0.6326
  145MPD2     H 2260   0.297   4.179   0.669 -1.1309 -1.1519 -1.7362
  145MPD2    H1 2261   0.289   3.829   0.921 -0.5859 -0.8782 -0.0568
  145MPD2    H2 2262   4.684   4.091   0.905  0.7027  0.7342 -0.3517
  145MPD2    H3 2263   0.062   3.899   0.988  1.4929  1.2752  1.5904
  145MPD2     N 2264   0.438   3.964   0.768  0.2977  0.3916 -0.2552
  145MPD2    H5 2265   0.477   3.878   0.804 -1.0115 -0.3197 -0.5305
  145MPD2    N1 2266   0.065   4.265   0.719  0.3283  0.5040 -0.1738
  145MPD2    H7 2267   0.121   4.324   0.658 -1.3745  1.4467 -0.8200
  146TMC2    C1 2268   1.965   3.293  13.057  0.4320  0.8231 -0.0272
  146TMC2    C2 2269   1.888   3.383  12.990 -0.0241  0.0461 -0.6535
  146TMC2    C3 2270   1.912   3.399  12.857 -0.7826  0.8195  0.1204
  146TMC2    C4 2271   2.066   3.220  12.992 -0.1209 -0.1091 -0.1411
  146TMC2    C5 2272   2.077   3.231  12.852 -0.3640  0.5249 -0.1725
  146TMC2    C6 2273   1.999   3.323  12.786  0.3937  0.7171 -0.1251
  146TMC2     C 2274   1.934   3.284  13.193 -0.2373 -0.0483 -0.0091
  146TMC2     O 2275   1.864   3.366  13.256 -0.1703 -0.2244  0.2451
  146TMC2     H 2276   1.807   3.438  13.036 -0.8713  0.3311 -2.4818
  146TMC2    H1 2277   2.129   3.150  13.045  0.6276  1.0941  0.5580
  146TMC2    H2 2278   1.993   3.327  12.677 -1.0344  0.3030 -0.0586
  146TMC2    C7 2279   2.197   3.183  12.784  0.3950 -0.3398  0.7287
  146TMC2    C8 2280   1.858   3.525  12.793  0.4626  0.3480 -0.3362
  146TMC2    O1 2281   2.201   3.214  12.664  0.6388 -0.0020 -0.0704
  146TMC2    O2 2282   1.792   3.604  12.864 -0.0658  0.0727  0.0818
  146TMC2    O5 2283   1.969   3.575  12.742 -0.5279 -0.6533 -0.3999
  146TMC2    H5 2284   2.036   3.522  12.693  0.0986  0.2668 -0.5469
  147MPD2     C 2285   2.622   2.911  12.758 -0.9395 -0.7654  0.4776
  147MPD2    C1 2286   2.551   2.864  12.867  0.1017  0.4784  0.2730
  147MPD2    C2 2287   2.433   2.925  12.908  0.2013 -0.2308 -0.2871
  147MPD2    C3 2288   2.385   3.033  12.822 -0.3976  0.4943 -0.3079
  147MPD2    C4 2289   2.453   3.070  12.709 -0.3937 -0.0586  0.1580
  147MPD2    C5 2290   2.578   3.018  12.687  0.3041  0.6107  0.4185
  147MPD2     H 2291   2.381   2.892  12.997 -1.5013 -0.3949 -1.3391
  147MPD2    H1 2292   2.426   3.163  12.659 -0.0598 -0.8898 -1.5564
  147MPD2    H2 2293   2.717   2.870  12.726  0.2779  0.5310  2.3529
  147MPD2    H3 2294   2.633   3.046  12.598  1.1045  0.5116  0.8809
  147MPD2     N 2295   2.270   3.099  12.857  0.6440  0.3179  0.0245
  147MPD2    H5 2296   2.229   3.077  12.947  0.4747 -0.2174 -0.1821
  147MPD2    N1 2297   2.625   2.769  12.939 -0.0264 -0.6486  0.0564
  147MPD2    H7 2298   2.721   2.754  12.909 -0.9337 -0.2129 -3.0629
  148TMC2    C1 2299   1.742   2.141  10.243 -0.0147  0.6523 -0.9139
  148TMC2    C2 2300   1.778   2.222  10.345 -0.4570 -0.5094 -0.0953
  148TMC2    C3 2301   1.832   2.162  10.450  0.2583  0.0775 -0.3934
  148TMC2    C4 2302   1.762   2.006  10.239  0.8550  1.1373 -0.5084
  148TMC2    C5 2303   1.821   1.947  10.345  0.0146 -0.5762  0.0129
  148TMC2    C6 2304   1.855   2.027  10.454  0.5075  0.0984  0.3358
  148TMC2     C 2305   1.650   2.207  10.149  0.4474 -0.2129 -0.3014
  148TMC2     O 2306   1.644   2.329  10.160 -0.2927 -0.0560  0.4589
  148TMC2     H 2307   1.774   2.329  10.333  1.1321 -0.2329  1.9869
  148TMC2    H1 2308   1.740   1.943  10.154  0.7221  2.8021 -1.6955
  148TMC2    H2 2309   1.912   1.984  10.537  2.1700 -0.0929 -0.9091
  148TMC2    C7 2310   1.843   1.806  10.353  0.1437 -0.4826  0.7897
  148TMC2    C8 2311   1.822   2.227  10.577  0.0608 -0.5754  0.0667
  148TMC2    O1 2312   1.853   1.749  10.244  0.1340  0.4246 -0.1465
  148TMC2    O2 2313   1.805   2.160  10.677 -0.2304  0.0762  0.7608
  148TMC2    O5 2314   1.756   2.350  10.563  0.4369  0.1257 -0.1107
  148TMC2    H5 2315   1.803   2.396  10.490  0.5263  0.4029  0.1190
  149MPD2     C 2316   1.424   2.288   9.970  0.5168  0.0148  0.3053
  149MPD2    C1 2317   1.456   2.155   9.997 -0.5897 -0.2697 -0.6459
  149MPD2    C2 2318   1.374   2.050   9.949  0.4950 -0.5758 -0.0695
  149MPD2    C3 2319   1.264   2.088   9.870 -0.0658  0.4871 -0.0206
  149MPD2    C4 2320   1.242   2.221   9.844 -0.5025 -0.6455 -0.4286
  149MPD2    C5 2321   1.312   2.316   9.901  0.1390 -0.3665 -0.0226
  149MPD2     H 2322   1.397   1.947   9.977 -0.1066 -0.8613 -0.6311
  149MPD2    H1 2323   1.157   2.258   9.787 -1.8283 -0.6356  1.5450
  149MPD2    H2 2324   1.478   2.373  10.010  1.4399  0.8033 -2.5892
  149MPD2    H3 2325   1.279   2.418   9.889  0.7228 -0.0270  1.2771
  149MPD2     N 2326   1.181   1.994   9.803  0.1701  0.3348  0.0194
  149MPD2    H5 2327   1.123   2.032   9.729 -1.4683 -4.8231 -1.2850
  149MPD2    N1 2328   1.564   2.114  10.086  0.2776 -0.8712  0.4307
  149MPD2    H7 2329   1.571   2.013  10.093 -2.9905 -1.0595  0.8259
  150TMC2    C1 2330   3.737   1.240  12.411  0.7104 -0.3098  0.3703
  150TMC2    C2 2331   3.646   1.330  12.379  0.1377 -0.2001 -0.9526
  150TMC2    C3 2332   3.693   1.459  12.400  0.6993 -0.5056  0.2565
  150TMC2    C4 2333   3.868   1.265  12.438 -0.1431  0.2319 -0.0817
  150TMC2    C5 2334   3.909   1.393  12.440 -0.1691  0.3188 -0.3398
  150TMC2    C6 2335   3.823   1.500  12.431  0.9359 -0.2588 -0.3249
  150TMC2     C 2336   3.695   1.102  12.447  0.1642  0.0797 -0.2695
  150TMC2     O 2337   3.766   1.037  12.524  0.5140  0.4759  0.2312
  150TMC2     H 2338   3.538   1.326  12.365 -0.1344 -0.1202  1.1458
  150TMC2    H1 2339   3.931   1.180  12.458 -1.9945 -1.2615 -0.5974
  150TMC2    H2 2340   3.859   1.602  12.430  0.7638 -0.1853  0.7398
  150TMC2    C7 2341   4.046   1.428  12.435  0.0144  0.0066  0.5168
  150TMC2    C8 2342   3.599   1.560  12.374  0.2339 -0.5875  0.0465
  150TMC2    O1 2343   4.075   1.539  12.385 -0.9502 -0.2620 -0.2538
  150TMC2    O2 2344   3.520   1.557  12.281  0.2379 -0.1738 -0.2360
  150TMC2    O5 2345   3.618   1.668  12.455  0.5429  0.0875 -0.3219
  150TMC2    H5 2346   3.687   1.671  12.524  0.5792  1.4872 -0.4140
  151MPD2     C 2347   3.406   0.690  12.376  0.1503  0.4240 -0.5049
  151MPD2    C1 2348   3.359   0.788  12.291 -0.9431  0.1846  0.5649
  151MPD2    C2 2349   3.414   0.909  12.301 -0.3469 -0.3775 -0.7654
  151MPD2    C3 2350   3.520   0.937  12.389 -0.0300 -0.2886 -0.8492
  151MPD2    C4 2351   3.565   0.834  12.473  0.5673  0.8261  0.3412
  151MPD2    C5 2352   3.502   0.710  12.462 -1.0987 -0.4112  0.8621
  151MPD2     H 2353   3.379   0.990  12.238  1.4106  0.4068 -0.7478
  151MPD2    H1 2354   3.642   0.840  12.548  0.9163  4.5050 -0.2695
  151MPD2    H2 2355   3.354   0.595  12.371  0.3202  0.4161 -2.2058
  151MPD2    H3 2356   3.535   0.636  12.533 -1.7856 -0.8243  0.7550
  151MPD2     N 2357   3.574   1.070  12.392  0.6992  0.7229  0.6712
  151MPD2    H5 2358   3.535   1.142  12.333 -0.4906  1.9920  3.0209
  151MPD2    N1 2359   3.261   0.753  12.200 -0.2235  0.2615 -0.0759
  151MPD2    H7 2360   3.219   0.661  12.206  0.8626 -0.2170  0.0614
  152TMC2    C1 2361   4.009   0.759  13.136  0.1226 -0.2834  0.8070
  152TMC2    C2 2362   4.047   0.628  13.159 -0.1658 -0.0834 -0.5866
  152TMC2    C3 2363   4.178   0.592  13.139  0.2858 -0.5779 -1.1009
  152TMC2    C4 2364   4.106   0.857  13.112  0.0255  0.0875 -0.4644
  152TMC2    C5 2365   4.241   0.826  13.103  0.0715 -0.8693 -0.2255
  152TMC2    C6 2366   4.274   0.691  13.112  0.1054 -0.0959  0.3238
  152TMC2     C 2367   3.870   0.802  13.121 -0.3187 -0.2376 -0.1298
  152TMC2     O 2368   3.865   0.919  13.088  0.1357  0.0488 -0.2122
  152TMC2     H 2369   3.971   0.551  13.153  0.2757 -0.4255 -1.6573
  152TMC2    H1 2370   4.081   0.959  13.087 -2.0245 -0.0693  0.9458
  152TMC2    H2 2371   4.377   0.660  13.101 -0.1456 -1.1818  0.9824
  152TMC2    C7 2372   4.326   0.934  13.057  0.5096 -0.2260  0.3689
  152TMC2    C8 2373   4.224   0.457  13.151  0.0169 -0.5562  0.1137
  152TMC2    O1 2374   4.259   1.026  13.009 -0.9341 -0.3316 -0.0940
  152TMC2    O2 2375   4.164   0.383  13.228 -0.0685  0.4826  0.5060
  152TMC2    O5 2376   4.307   0.426  13.054  0.4014 -0.1876  0.3469
  152TMC2    H5 2377   4.321   0.505  12.998 -2.0754 -0.2301 -0.3301
  153MPD2     C 2378   3.549   0.630  13.122  0.3168 -0.1003  0.3217
  153MPD2    C1 2379   3.644   0.725  13.092  0.5821 -0.5296  0.6292
  153MPD2    C2 2380   3.606   0.818  12.998  0.3455  0.2624 -0.3861
  153MPD2    C3 2381   3.479   0.815  12.935  0.0710 -0.4129  0.1733
  153MPD2    C4 2382   3.392   0.722  12.971 -0.0986 -0.2517 -1.3830
  153MPD2    C5 2383   3.422   0.635  13.067  0.0697  0.1648  0.3453
  153MPD2     H 2384   3.682   0.886  12.960  1.9452 -0.4870  1.4739
  153MPD2    H1 2385   3.294   0.716  12.925 -0.9209  2.5842 -0.0481
  153MPD2    H2 2386   3.565   0.548  13.191  0.9651 -0.3213 -0.0935
  153MPD2    H3 2387   3.350   0.558  13.091  0.0709  0.1033  0.1509
  153MPD2     N 2388   3.455   0.907  12.831 -0.2381 -0.3608  0.0442
  153MPD2    H5 2389   3.526   0.978  12.815 -0.3861 -0.6070 -1.6468
  153MPD2    N1 2390   3.773   0.708  13.146  0.0801 -0.2346  0.0839
  153MPD2    H7 2391   3.791   0.622  13.196  2.5251  0.1339 -0.1951
  154TMC2    C1 2392   0.322   0.422   0.243 -0.0200  0.1071  0.1648
  154TMC2    C2 2393   0.242   0.352   0.157  0.0343 -0.3279 -0.1210
  154TMC2    C3 2394   0.273   0.224   0.117 -0.2734 -0.2317 -0.0718
  154TMC2    C4 2395   0.445   0.376   0.282  0.1457  0.2028  0.3929
  154TMC2    C5 2396   0.473   0.242   0.246  0.6886 -0.4600  0.1089
  154TMC2    C6 2397   0.385   0.163   0.169 -0.6202  0.0059 -0.2076
  154TMC2     C 2398   0.277   0.552   0.290  0.5284  0.3526  0.0769
  154TMC2     O 2399   0.344   0.607   0.379 -0.0196  0.5377 -0.0686
  154TMC2     H 2400   0.144   0.393   0.134  0.2427 -0.4315 -1.2300
  154TMC2    H1 2401   0.511   0.433   0.346 -1.3216  3.8770 -1.3420
  154TMC2    H2 2402   0.419   0.062   0.153  0.6505 -0.3843  4.7645
  154TMC2    C7 2403   0.599   0.168   0.277 -0.5422 -0.8177 -0.3036
  154TMC2    C8 2404   0.186   0.126   0.057  0.1777 -0.3509 -0.6458
  154TMC2    O1 2405   0.624   0.064   0.210  0.2024 -0.0031 -0.0959
  154TMC2    O2 2406   0.216   0.009   0.064 -0.6965  0.1033  0.0266
  154TMC2    O5 2407   0.057   0.166   0.045 -0.4170 -0.1368 -0.7521
  154TMC2    H5 2408   0.046   0.262   0.024 -1.2803 -0.1033 -0.1452
  155MPD2     C 2409   4.715   0.751   0.192  0.8051 -0.1839  0.0280
  155MPD2    C1 2410   0.084   0.716   0.272 -0.2479  0.5919 -0.1944
  155MPD2    C2 2411   0.112   0.792   0.382 -0.1217 -0.6958 -0.0502
  155MPD2    C3 2412   0.033   0.902   0.411  0.2027 -0.4762 -0.6247
  155MPD2    C4 2413   4.670   0.946   0.329  0.0274  0.5510 -0.2965
  155MPD2    C5 2414   4.649   0.869   0.218 -0.2733 -0.9718 -0.2545
  155MPD2     H 2415   0.189   0.772   0.455  0.1270  0.3799 -0.0204
  155MPD2    H1 2416   4.595   1.020   0.352  0.3987  0.8780 -0.1335
  155MPD2    H2 2417   4.699   0.693   0.102 -1.8515  0.3798  0.1575
  155MPD2    H3 2418   4.568   0.890   0.149 -0.3705  2.1220  0.8122
  155MPD2     N 2419   0.061   0.976   0.530  0.5906 -0.4023  0.1804
  155MPD2    H5 2420   0.140   0.942   0.583  1.7421  0.4410 -0.9924
  155MPD2    N1 2421   0.161   0.600   0.243  0.3692  0.4802  0.1497
  155MPD2    H7 2422   0.123   0.543   0.168 -0.0935 -0.8345  1.3863
  156TMC2    C1 2423   4.004   3.765  12.058 -0.3850  0.3734  0.5036
  156TMC2    C2 2424   3.906   3.679  12.024 -0.1171 -0.3388  0.3056
  156TMC2    C3 2425   3.776   3.716  12.035 -0.4029  0.0436 -0.1253
  156TMC2    C4 2426   3.974   3.889  12.094  0.5826  0.0966  0.0177
  156TMC2    C5 2427   3.840   3.924  12.080  0.4965  0.5591  0.4558
  156TMC2    C6 2428   3.727   3.850  12.051 -0.7476 -0.1403 -0.2632
  156TMC2     C 2429   4.148   3.726  12.058 -0.2125 -0.5322 -0.5230
  156TMC2     O 2430   4.228   3.811  12.094 -0.1151  0.1377 -0.4888
  156TMC2     H 2431   3.923   3.585  11.971  0.6774  0.1652 -0.3281
  156TMC2    H1 2432   4.058   3.956  12.103 -1.1831  2.1992  0.7795
  156TMC2    H2 2433   3.624   3.879  12.064 -0.4481  1.6672 -1.9810
  156TMC2    C7 2434   3.819   4.064  12.091  0.3763 -0.0090 -0.2185
  156TMC2    C8 2435   3.692   3.603  12.037 -0.8251  0.2676  0.1027
  156TMC2    O1 2436   3.912   4.136  12.120 -0.0934 -0.3583 -0.0969
  156TMC2    O2 2437   3.742   3.498  12.076 -0.2619 -0.1504 -0.6494
  156TMC2    O5 2438   3.567   3.646  12.074  0.3701  0.3209 -0.0964
  156TMC2    H5 2439   3.522   3.700  12.005 -0.6354 -1.0426 -0.5104
  157MPD2     C 2440   4.281   3.402  11.940  0.8428 -0.1870  0.2222
  157MPD2    C1 2441   4.286   3.527  12.005  0.1645 -0.0569 -0.1733
  157MPD2    C2 2442   4.408   3.576  12.055 -0.4261 -0.0488 -0.0340
  157MPD2    C3 2443   4.514   3.491  12.052  0.7054  0.1643  0.5956
  157MPD2    C4 2444   4.500   3.369  11.986 -0.0491  0.0474  1.1895
  157MPD2    C5 2445   4.390   3.324  11.923  0.7103 -0.2663  0.1928
  157MPD2     H 2446   4.409   3.676  12.097  0.7487 -0.0778 -0.0156
  157MPD2    H1 2447   4.582   3.299  11.976  1.7714  1.8450  3.7491
  157MPD2    H2 2448   4.190   3.373  11.890 -0.4777 -1.4325  3.3529
  157MPD2    H3 2449   4.391   3.226  11.876 -2.6494  0.1125 -0.6803
  157MPD2     N 2450   4.635   3.525  12.129  0.6540 -0.4462 -0.3359
  157MPD2    H5 2451   4.632   3.612  12.181  1.8493 -1.1308  0.8914
  157MPD2    N1 2452   4.164   3.597  12.011  0.8072 -0.3645 -0.6928
  157MPD2    H7 2453   4.077   3.557  11.976  1.0204  0.4825 -2.2034
  158TMC2    C1 2454   4.281   1.743  13.572 -0.3265 -0.5395 -0.5071
  158TMC2    C2 2455   4.341   1.818  13.477 -0.2817 -0.4785 -1.0889
  158TMC2    C3 2456   4.279   1.820  13.355 -0.8097 -0.1156 -0.3520
  158TMC2    C4 2457   4.158   1.695  13.554  0.0506  0.3234  0.2766
  158TMC2    C5 2458   4.089   1.705  13.439 -0.8011  0.4704 -0.2307
  158TMC2    C6 2459   4.152   1.766  13.331 -0.1459 -0.0395 -0.1799
  158TMC2     C 2460   4.354   1.744  13.701  1.1756  0.3856 -0.0513
  158TMC2     O 2461   4.460   1.803  13.710  0.5248  0.5551  0.8319
  158TMC2     H 2462   4.446   1.844  13.477 -0.4734  0.2922 -1.0757
  158TMC2    H1 2463   4.114   1.638  13.635  2.7673 -1.2876  0.6205
  158TMC2    H2 2464   4.108   1.775  13.233 -2.2454  0.7429  0.8356
  158TMC2    C7 2465   3.971   1.624  13.412  0.0748  0.2475  0.1856
  158TMC2    C8 2466   4.316   1.904  13.242  0.5286 -0.3683 -0.2889
  158TMC2    O1 2467   3.918   1.651  13.306  0.1046 -0.9378 -0.2274
  158TMC2    O2 2468   4.265   1.894  13.133 -0.3358 -0.2300 -0.5995
  158TMC2    O5 2469   4.413   1.988  13.277 -0.1665 -0.1680 -0.0434
  158TMC2    H5 2470   4.425   1.993  13.374  1.7814 -0.9241 -0.2449
  159MPD2     C 2471   4.404   1.626  14.202 -0.6205  0.8368 -0.1533
  159MPD2    C1 2472   4.290   1.556  14.143  0.0509  0.2777  0.7665
  159MPD2    C2 2473   4.261   1.568  14.012 -0.1204  0.4605  0.2928
  159MPD2    C3 2474   4.336   1.653  13.934 -0.0413  0.3496  0.2136
  159MPD2    C4 2475   4.442   1.726  13.995  0.0051  0.0857  0.3701
  159MPD2    C5 2476   4.474   1.721  14.123  0.3744  0.0511  0.2491
  159MPD2     H 2477   4.179   1.512  13.969 -0.4250  0.4231  0.9143
  159MPD2    H1 2478   4.501   1.800  13.941 -1.1682  0.5101 -0.3417
  159MPD2    H2 2479   4.420   1.625  14.309 -0.6238  2.2859 -0.1302
  159MPD2    H3 2480   4.550   1.787  14.164  0.7226 -0.0150 -0.2943
  159MPD2     N 2481   4.289   1.673  13.802 -0.2644  0.2367 -0.3678
  159MPD2    H5 2482   4.200   1.628  13.780  0.6539 -2.4628  1.4456
  159MPD2    N1 2483   4.226   1.466  14.234  0.2249  0.2618  0.8426
  159MPD2    H7 2484   4.253   1.453  14.331  0.5308 -2.7179  0.3375
  160TMC2    C1 2485   3.873   4.401   1.504  0.6588 -0.4328 -1.0583
  160TMC2    C2 2486   3.894   4.344   1.624  0.5336 -0.4241  0.7240
  160TMC2    C3 2487   4.005   4.391   1.682 -0.6323  0.0952  0.2313
  160TMC2    C4 2488   3.956   4.496   1.443 -0.0964  0.7530  0.1455
  160TMC2    C5 2489   4.080   4.521   1.501  0.4208 -0.1951 -0.4877
  160TMC2    C6 2490   4.102   4.473   1.624 -0.8512  0.4907  0.1594
  160TMC2     C 2491   3.750   4.363   1.436 -0.3550  0.0192  0.1551
  160TMC2     O 2492   3.701   4.254   1.463  0.9402 -0.3156 -0.1291
  160TMC2     H 2493   3.821   4.293   1.684 -0.5939 -0.5364 -0.7411
  160TMC2    H1 2494   3.931   4.512   1.339 -0.3455  0.3148  0.1368
  160TMC2    H2 2495   4.189   4.501   1.683  0.1611  0.1114 -1.1424
  160TMC2    C7 2496   4.169   4.612   1.437  0.3720  1.1855 -0.6980
  160TMC2    C8 2497   4.027   4.346   1.815 -0.3725  0.2431 -0.9299
  160TMC2    O1 2498   4.267   4.644   1.501  0.6623 -0.5896 -0.0061
  160TMC2    O2 2499   4.138   4.302   1.846 -0.1798  0.2347 -0.2437
  160TMC2    O5 2500   3.944   4.400   1.906  0.3830 -0.1786  0.0909
  160TMC2    H5 2501   3.879   4.459   1.861  0.8946  0.1554 -0.2136
  161MPD2     C 2502   3.525   4.299   1.249 -0.1517 -0.2310 -0.0214
  161MPD2    C1 2503   3.577   4.429   1.265 -0.0126 -0.3543 -0.0637
  161MPD2    C2 2504   3.510   4.541   1.218  0.3086  0.2357  0.6937
  161MPD2    C3 2505   3.387   4.522   1.155 -1.0828 -0.4318 -0.2856
  161MPD2    C4 2506   3.343   4.392   1.132  0.2778  0.8338  0.9095
  161MPD2    C5 2507   3.405   4.283   1.185 -0.0265 -0.1872 -0.5600
  161MPD2     H 2508   3.545   4.639   1.251 -0.3303  1.4331 -2.1814
  161MPD2    H1 2509   3.247   4.371   1.085  0.3480  2.5747 -0.0413
  161MPD2    H2 2510   3.583   4.212   1.278  0.0632 -0.1028 -0.0645
  161MPD2    H3 2511   3.359   4.185   1.183 -3.4788  1.4304  1.3036
  161MPD2     N 2512   3.301   4.628   1.110 -0.9021  0.3976 -0.0154
  161MPD2    H5 2513   3.207   4.594   1.093 -0.8982  0.7895 -0.8355
  161MPD2    N1 2514   3.692   4.453   1.350 -0.1055  0.1903  0.7150
  161MPD2    H7 2515   3.722   4.549   1.358 -0.7256  0.3459  1.1441
  162TMC2    C1 2516   1.900   1.863   1.540  0.4445  0.2368 -0.1681
  162TMC2    C2 2517   1.771   1.897   1.554 -0.0591 -0.1435  0.0722
  162TMC2    C3 2518   1.712   1.885   1.675  0.0110 -0.0084  0.1059
  162TMC2    C4 2519   1.963   1.798   1.639 -0.0231 -0.4780  0.7338
  162TMC2    C5 2520   1.889   1.765   1.749  0.4384  0.0966 -0.6120
  162TMC2    C6 2521   1.766   1.817   1.777 -0.0236 -0.3579  0.2463
  162TMC2     C 2522   1.961   1.857   1.407  0.4651  0.4765  0.4905
  162TMC2     O 2523   1.884   1.872   1.311  0.2223  0.3472  0.2112
  162TMC2     H 2524   1.721   1.931   1.464 -0.0020  0.0795  0.1245
  162TMC2    H1 2525   2.066   1.765   1.634  0.5676  1.3719  0.4895
  162TMC2    H2 2526   1.706   1.784   1.861  0.3450 -1.8228 -0.0718
  162TMC2    C7 2527   1.945   1.674   1.850 -0.0198  0.1894 -0.5074
  162TMC2    C8 2528   1.566   1.915   1.698 -0.1791 -0.2206 -0.4819
  162TMC2    O1 2529   1.890   1.672   1.959 -0.3645  0.4928  0.3874
  162TMC2    O2 2530   1.525   2.000   1.777 -1.3897 -0.0207  0.0351
  162TMC2    O5 2531   1.500   1.877   1.588  0.6980 -0.1644  0.3400
  162TMC2    H5 2532   1.533   1.787   1.571 -0.6064 -0.1453 -2.3623
  163MPD2     C 2533   2.376   1.811   1.097  0.3126 -0.5398 -0.5794
  163MPD2    C1 2534   2.241   1.816   1.065 -0.1469  0.2996  0.6371
  163MPD2    C2 2535   2.153   1.835   1.172  0.8432  0.0368 -0.1053
  163MPD2    C3 2536   2.188   1.851   1.307  0.0565 -0.0125 -0.0715
  163MPD2    C4 2537   2.323   1.851   1.331 -0.3589 -0.4110  0.0904
  163MPD2    C5 2538   2.415   1.827   1.228  0.0793  0.6467  0.3127
  163MPD2     H 2539   2.046   1.838   1.155  0.7951 -0.0044  0.1891
  163MPD2    H1 2540   2.358   1.858   1.433  0.0190  0.6628 -0.1125
  163MPD2    H2 2541   2.451   1.799   1.020  0.9719 -1.1432  0.1725
  163MPD2    H3 2542   2.521   1.814   1.248  0.9033  2.5550 -2.8854
  163MPD2     N 2543   2.101   1.861   1.413 -0.4739 -0.1424  0.2184
  163MPD2    H5 2544   2.148   1.875   1.501  0.3365  4.1276 -0.8754
  163MPD2    N1 2545   2.209   1.802   0.925 -1.0076  0.1846 -0.1913
  163MPD2    H7 2546   2.290   1.786   0.866 -1.7619 -2.0525 -0.6139
  164TMC2    C1 2547   2.044   1.387  11.104  0.1426 -0.2311 -0.2966
  164TMC2    C2 2548   2.142   1.362  11.195 -0.9342 -0.4368 -1.0833
  164TMC2    C3 2549   2.192   1.480  11.257  0.3660  0.0987 -0.6739
  164TMC2    C4 2550   1.993   1.506  11.078  0.4843  0.4647  0.1381
  164TMC2    C5 2551   2.060   1.615  11.125  0.0665  0.2351 -0.1303
  164TMC2    C6 2552   2.148   1.609  11.225  0.1252  0.3206 -0.0611
  164TMC2     C 2553   1.977   1.269  11.043  0.5560 -0.4122  0.0086
  164TMC2     O 2554   1.861   1.237  11.066  0.3305  0.1428  0.5208
  164TMC2     H 2555   2.180   1.262  11.211 -0.6405 -0.2909 -0.8872
  164TMC2    H1 2556   1.912   1.517  11.007 -0.6716 -1.8535  1.1015
  164TMC2    H2 2557   2.177   1.690  11.291  0.5152  0.1924 -0.0766
  164TMC2    C7 2558   1.992   1.744  11.092  0.2410  0.7295  0.2864
  164TMC2    C8 2559   2.226   1.458  11.388  0.0310 -0.2652 -0.4568
  164TMC2    O1 2560   1.901   1.745  11.014  0.4103  0.3350  0.0948
  164TMC2    O2 2561   2.207   1.363  11.467 -0.5889  0.5149  0.1149
  164TMC2    O5 2562   2.322   1.548  11.410  0.5118  0.4362  0.0217
  164TMC2    H5 2563   2.352   1.582  11.323  3.9966 -0.0054  1.0530
  165TMC2    C1 2564   3.885   3.444   0.929  0.2318 -0.6651 -0.3594
  165TMC2    C2 2565   3.910   3.323   0.979 -0.2253  0.1232 -0.1290
  165TMC2    C3 2566   4.005   3.307   1.079  0.0543  0.0880  0.7794
  165TMC2    C4 2567   3.943   3.553   0.980  0.0826 -0.2212 -0.7651
  165TMC2    C5 2568   4.037   3.533   1.080  0.5083 -0.4751 -0.1478
  165TMC2    C6 2569   4.081   3.417   1.128  0.0232  0.3453  0.2914
  165TMC2     C 2570   3.748   3.459   0.881  0.1645 -0.0301 -0.2427
  165TMC2     O 2571   3.699   3.569   0.899  0.2694  0.5403  0.0111
  165TMC2     H 2572   3.851   3.235   0.957  1.7268 -1.5780  1.4116
  165TMC2    H1 2573   3.933   3.650   0.933 -0.9264 -1.0137 -2.1975
  165TMC2    H2 2574   4.154   3.409   1.207  0.8921 -1.3028 -0.6735
  165TMC2    C7 2575   4.109   3.645   1.128 -0.6409 -0.1567 -0.3474
  165TMC2    C8 2576   4.052   3.172   1.106  0.2385 -0.3410  0.3880
  165TMC2    O1 2577   4.230   3.638   1.146  0.0843 -0.2519  0.3346
  165TMC2    O2 2578   4.020   3.074   1.042 -0.1921  0.2754 -0.0738
  165TMC2    O5 2579   4.133   3.173   1.214  0.5638 -0.0735  0.1396
  165TMC2    H5 2580   4.113   3.245   1.277  1.1445 -0.2707  0.5554
  166MPD2     C 2581   3.312   3.282   0.670 -0.1080  0.2735 -0.0338
  166MPD2    C1 2582   3.348   3.408   0.712  1.0210  0.4653 -0.1952
  166MPD2    C2 2583   3.470   3.429   0.768  0.4707  0.3446  0.7013
  166MPD2    C3 2584   3.569   3.332   0.761 -0.5758  0.2207 -0.0059
  166MPD2    C4 2585   3.538   3.213   0.697 -0.4738  0.6961 -0.5393
  166MPD2    C5 2586   3.411   3.188   0.654 -0.0946  0.0031  0.0174
  166MPD2     H 2587   3.485   3.530   0.804  2.3216  0.2997  0.0565
  166MPD2    H1 2588   3.619   3.142   0.686  0.3492  1.1945  2.2351
  166MPD2    H2 2589   3.206   3.265   0.651  0.0836 -1.6273  0.5817
  166MPD2    H3 2590   3.395   3.083   0.632 -2.1310  0.3534 -0.2386
  166MPD2     N 2591   3.697   3.350   0.817  0.1838 -0.0475 -0.2625
  166MPD2    H5 2592   3.764   3.282   0.782 -0.1275  0.4148 -1.7636
  166MPD2    N1 2593   3.251   3.508   0.718  0.3939 -0.6123  0.9720
  166MPD2    H7 2594   3.158   3.472   0.701 -0.0654  0.4022  1.3508
  167TMC2    C1 2595   1.707   2.276  12.418  0.1351  0.7023  0.5097
  167TMC2    C2 2596   1.594   2.284  12.499  0.1576  0.7945 -0.7214
  167TMC2    C3 2597   1.589   2.199  12.609  0.3051  0.8093  0.1641
  167TMC2    C4 2598   1.809   2.190  12.444  0.6063  0.5150  0.7383
  167TMC2    C5 2599   1.801   2.114  12.558  0.0665  0.2583 -0.0204
  167TMC2    C6 2600   1.694   2.121  12.647 -0.2997 -0.8330 -0.1422
  167TMC2     C 2601   1.730   2.381  12.317  0.0294 -0.1990  0.4485
  167TMC2     O 2602   1.827   2.447  12.333  0.1208 -0.2980 -0.4152
  167TMC2     H 2603   1.516   2.357  12.488 -1.1893 -0.7305 -1.2799
  167TMC2    H1 2604   1.892   2.181  12.375 -0.9494  1.4805 -1.2805
  167TMC2    H2 2605   1.694   2.074  12.745 -1.6480  1.9858  1.2166
  167TMC2    C7 2606   1.895   2.002  12.589 -0.9702  0.2576 -0.2433
  167TMC2    C8 2607   1.503   2.235  12.719  0.1076  0.2293  0.5156
  167TMC2    O1 2608   1.884   1.945  12.697  0.6713  0.3642 -0.1941
  167TMC2    O2 2609   1.455   2.345  12.722  0.1015  0.3594 -0.5729
  167TMC2    O5 2610   1.462   2.129  12.784  0.5222  0.2975 -0.1499
  167TMC2    H5 2611   1.507   2.049  12.751 -1.5832 -0.5736 -0.9034
  168MPD2     C 2612   1.684   2.576  12.097  0.5938 -0.3631  0.2315
  168MPD2    C1 2613   1.623   2.451  12.100  0.4621 -0.1966  0.3692
  168MPD2    C2 2614   1.545   2.404  11.996 -0.6026 -0.5387 -0.4368
  168MPD2    C3 2615   1.524   2.480  11.888 -0.5483 -0.2115  0.1594
  168MPD2    C4 2616   1.578   2.613  11.880  0.0533 -0.5129  0.9293
  168MPD2    C5 2617   1.656   2.655  11.987  0.5590 -0.2100  0.1182
  168MPD2     H 2618   1.507   2.303  12.008  0.6901 -0.9191  0.4591
  168MPD2    H1 2619   1.556   2.678  11.796  4.2116 -0.8808 -0.4123
  168MPD2    H2 2620   1.735   2.623  12.180 -0.8139 -0.1293  0.9778
  168MPD2    H3 2621   1.711   2.748  11.986  0.0473  0.0914  0.1466
  168MPD2     N 2622   1.444   2.424  11.788 -0.0190  0.0482 -0.1443
  168MPD2    H5 2623   1.410   2.331  11.810  0.0975  0.1176  0.3293
  168MPD2    N1 2624   1.636   2.371  12.219 -0.0672 -0.3080 -0.2485
  168MPD2    H7 2625   1.577   2.288  12.217 -1.0234  0.3399  2.1264
  169MPD1     C 2626   3.050   2.518   9.588 -0.0733  0.0168  0.0867
  169MPD1    C1 2627   3.133   2.489   9.487  0.0972  0.2820  0.5457
  169MPD1    C2 2628   3.170   2.361   9.475  0.3553  0.3418 -0.5412
  169MPD1    C3 2629   3.133   2.250   9.551 -0.1354  0.4527 -0.5113
  169MPD1    C4 2630   3.050   2.285   9.657 -0.1984 -0.8885  0.3888
  169MPD1    C5 2631   3.014   2.416   9.670  0.3628  0.5686 -0.3214
  169MPD1     H 2632   3.244   2.345   9.397  0.1385  1.1814 -0.9209
  169MPD1    H1 2633   3.031   2.211   9.734 -0.7294  1.0160  2.0845
  169MPD1    H2 2634   3.022   2.619   9.614  0.7753 -0.0116  1.1417
  169MPD1    H3 2635   2.943   2.442   9.747  1.8948 -2.3482  2.0894
  169MPD1     N 2636   3.185   2.124   9.526  0.1636  0.4710  0.2346
  169MPD1    H5 2637   3.262   2.111   9.461  0.8181  2.3892  0.6062
  169MPD1    N1 2638   3.205   2.585   9.421  0.7126  0.0221  0.2711
  169MPD1    H6 2639   3.158   2.675   9.424 -0.3351 -0.5848  2.0059
  169MPD1    H7 2640   3.231   2.559   9.326 -1.6519  1.1433 -0.6570
  170MPD1     C 2641   3.458   3.522  12.725  0.1138  0.3015 -0.8916
  170MPD1    C1 2642   3.414   3.413  12.797  0.2306  0.3621  0.4014
  170MPD1    C2 2643   3.289   3.423  12.849  0.1835 -0.3043  0.4130
  170MPD1    C3 2644   3.207   3.523  12.810 -0.4305 -0.4846 -0.0239
  170MPD1    C4 2645   3.242   3.612  12.714  0.3265  0.6398  0.6751
  170MPD1    C5 2646   3.371   3.609  12.674 -0.3204  0.2960  0.8971
  170MPD1     H 2647   3.247   3.351  12.919 -0.4760 -0.3287 -0.0076
  170MPD1    H1 2648   3.178   3.696  12.686 -0.6703  0.2323  1.7015
  170MPD1    H2 2649   3.563   3.522  12.697 -0.4822  3.2485 -3.0851
  170MPD1    H3 2650   3.401   3.680  12.598 -1.5227  0.0178  0.1574
  170MPD1     N 2651   3.081   3.522  12.877 -0.6084  0.5145 -0.1459
  170MPD1    H5 2652   3.063   3.441  12.935 -0.3570  2.8447  3.2375
  170MPD1    N1 2653   3.506   3.329  12.859 -0.0020 -0.2158  0.1487
  170MPD1    H6 2654   3.573   3.303  12.786 -1.3626  1.2007 -1.5871
  170MPD1    H7 2655   3.467   3.247  12.906 -0.0673 -1.0615 -1.3740
  171MPD1     C 2656   1.521   0.327  15.142  0.3689 -0.2582  0.7056
  171MPD1    C1 2657   1.624   0.238  15.125 -0.8944 -0.2029 -0.0634
  171MPD1    C2 2658   1.611   0.108  15.166  0.1381 -0.1367 -0.0749
  171MPD1    C3 2659   1.499   0.071  15.229 -0.7085  0.9463  0.0779
  171MPD1    C4 2660   1.401   0.161  15.254 -0.0334  0.5157  0.1597
  171MPD1    C5 2661   1.409   0.286  15.207 -0.1917  0.3365  0.0270
  171MPD1     H 2662   1.690   0.034  15.157  1.8447  1.8417 -1.4180
  171MPD1    H1 2663   1.309   0.134  15.306  1.1167  2.9980  3.4367
  171MPD1    H2 2664   1.538   0.431  15.117 -1.5804 -0.1033  0.0056
  171MPD1    H3 2665   1.332   0.360  15.225  1.2051  2.0194 -0.8927
  171MPD1     N 2666   1.480   4.670  15.281 -0.3743  0.2710 -0.9567
  171MPD1    H5 2667   1.393   4.649  15.328  0.3993  0.5840  0.6295
  171MPD1    N1 2668   1.723   0.272  15.032 -0.5310 -0.1481  0.4300
  171MPD1    H6 2669   1.736   0.373  15.030  2.5237 -0.4733  1.9931
  171MPD1    H7 2670   1.811   0.220  15.039 -0.8863 -0.6410  1.3150
  172MPD1     C 2671   1.455   0.359   0.587  0.5254  0.4723 -0.1886
  172MPD1    C1 2672   1.395   0.478   0.546 -0.5706  0.3405  0.4742
  172MPD1    C2 2673   1.307   0.466   0.442 -0.2862 -0.0490 -0.1508
  172MPD1    C3 2674   1.299   0.345   0.370  0.6142 -0.7689  0.2875
  172MPD1    C4 2675   1.372   0.238   0.413  0.4105  0.3769 -0.3712
  172MPD1    C5 2676   1.451   0.240   0.522  0.0884  0.1675 -0.2815
  172MPD1     H 2677   1.249   0.546   0.398 -0.3277 -0.0047 -0.0145
  172MPD1    H1 2678   1.371   0.145   0.358  1.3997 -0.6284  1.3364
  172MPD1    H2 2679   1.504   0.359   0.684  0.7123  0.6219 -0.2820
  172MPD1    H3 2680   1.498   0.151   0.561 -0.9171  1.0510  2.9297
  172MPD1     N 2681   1.204   0.329   0.261  0.4987  0.1809 -0.9221
  172MPD1    H5 2682   1.197   0.232   0.231  0.2273 -0.1887  0.3495
  172MPD1    N1 2683   1.388   0.592   0.624 -0.4961 -0.4488 -0.0534
  172MPD1    H6 2684   1.478   0.597   0.671 -1.4547 -0.6341  1.7878
  172MPD1    H7 2685   1.367   0.678   0.572 -1.0024 -1.0962 -0.9300
  173MPD1     C 2686   2.003   4.458  14.276  0.2414  0.4163 -0.5950
  173MPD1    C1 2687   1.918   4.373  14.208  0.2411  0.2485  0.2836
  173MPD1    C2 2688   1.931   4.240  14.235  0.4113  0.2457  0.3072
  173MPD1    C3 2689   2.007   4.198  14.342  0.4224 -1.1764  0.1954
  173MPD1    C4 2690   2.071   4.284  14.428 -0.3458 -0.6963 -0.4475
  173MPD1    C5 2691   2.082   4.419  14.381 -0.4366 -0.0357 -0.4706
  173MPD1     H 2692   1.871   4.176  14.172  0.9694 -1.4385  1.4851
  173MPD1    H1 2693   2.134   4.248  14.509 -2.6214  0.3047  1.7747
  173MPD1    H2 2694   2.004   4.566  14.267 -0.1439  0.8293  3.9229
  173MPD1    H3 2695   2.147   4.491  14.430  1.6073 -0.3655 -2.6942
  173MPD1     N 2696   2.016   4.058  14.349 -0.1532  0.3957 -0.4333
  173MPD1    H5 2697   1.994   4.008  14.264  1.8421 -0.5054 -0.4268
  173MPD1    N1 2698   1.860   4.418  14.092 -0.4150 -0.3598  0.0707
  173MPD1    H6 2699   1.770   4.372  14.078 -0.3324 -0.2200 -0.9405
  173MPD1    H7 2700   1.850   4.519  14.083  1.9430 -0.2633 -1.6025
  174MPD1     C 2701   2.603   3.920  13.754  0.2788  0.4224  0.1827
  174MPD1    C1 2702   2.602   3.793  13.804 -0.3210 -0.4899 -0.6183
  174MPD1    C2 2703   2.513   3.762  13.911 -0.3218  0.0752 -0.1531
  174MPD1    C3 2704   2.431   3.859  13.958 -0.0947  0.7849  0.5119
  174MPD1    C4 2705   2.445   3.978  13.910  0.0418  0.0858 -0.3516
  174MPD1    C5 2706   2.527   4.015  13.805 -0.1096  0.6772 -0.1851
  174MPD1     H 2707   2.496   3.661  13.948  0.9185 -0.4231 -0.9302
  174MPD1    H1 2708   2.392   4.060  13.957 -0.0641  1.1752 -2.3395
  174MPD1    H2 2709   2.673   3.933  13.672 -0.5477  1.8612 -0.2924
  174MPD1    H3 2710   2.537   4.114  13.761 -0.3208  1.1981  0.9380
  174MPD1     N 2711   2.346   3.839  14.072  0.2877  1.0882 -0.1304
  174MPD1    H5 2712   2.296   3.921  14.106 -0.2487  0.8900 -0.4405
  174MPD1    N1 2713   2.660   3.692  13.724  0.2182  0.0274  0.5199
  174MPD1    H6 2714   2.747   3.729  13.686  0.1656  0.5787  0.9467
  174MPD1    H7 2715   2.691   3.609  13.774 -1.0854  0.0702  1.3818
  175MPD1     C 2716   4.714   1.307  15.392  0.4149 -0.0966  0.2577
  175MPD1    C1 2717   0.096   1.258  15.465 -0.0100  0.6768 -1.0207
  175MPD1    C2 2718   0.075   1.139  15.532 -0.4181 -0.1976  0.4198
  175MPD1    C3 2719   4.692   1.069  15.524 -0.2343  0.3435  0.9075
  175MPD1    C4 2720   4.585   1.111  15.454  0.3714 -0.1440  0.0486
  175MPD1    C5 2721   4.600   1.227  15.386  0.1139 -0.7502  0.3373
  175MPD1     H 2722   0.156   1.111  15.599 -0.9338  0.3836  1.2899
  175MPD1    H1 2723   4.500   1.045  15.440  0.9570 -1.5877  3.2596
  175MPD1    H2 2724   4.724   1.397  15.334 -2.0958 -0.5792 -0.9334
  175MPD1    H3 2725   4.514   1.252  15.325 -1.2081  0.9645  2.9207
  175MPD1     N 2726   4.676   0.944  15.589  0.1412  0.3510 -0.1635
  175MPD1    H5 2727   4.584   0.903  15.585 -0.6256  1.9790  0.7221
  175MPD1    N1 2728   0.204   1.344  15.499  0.3062  0.5254  0.2693
  175MPD1    H6 2729   0.288   1.296  15.529 -0.2708 -1.3165 -1.0429
  175MPD1    H7 2730   0.225   1.404  15.420  0.2085  0.5482  0.2609
  176MPD1     C 2731   1.968   1.928   0.207 -0.3853 -0.3384 -0.0942
  176MPD1    C1 2732   1.866   1.988   0.137  0.4018 -0.6170 -0.0200
  176MPD1    C2 2733   1.899   2.067   0.027 -0.1050 -0.2114  0.0905
  176MPD1    C3 2734   2.021   2.060  17.707  0.6996  0.0603  0.3362
  176MPD1    C4 2735   2.116   1.983   0.045  0.1770 -0.6211  0.0629
  176MPD1    C5 2736   2.091   1.921   0.159 -0.4766 -0.0701  0.0634
  176MPD1     H 2737   1.826   2.119  17.702  1.4666  0.8312 -0.9435
  176MPD1    H1 2738   2.220   1.982   0.015  0.0982 -2.5446 -0.1355
  176MPD1    H2 2739   1.947   1.872   0.298  0.7704  0.5549  0.7360
  176MPD1    H3 2740   2.178   1.865   0.190 -1.1263  0.0948  2.1818
  176MPD1     N 2741   2.065   2.140  17.598 -0.1046 -0.0854  0.0946
  176MPD1    H5 2742   1.992   2.185  17.543 -0.6629 -0.0698  0.8395
  176MPD1    N1 2743   1.736   2.005   0.189 -0.0278 -0.0606  0.4144
  176MPD1    H6 2744   1.711   1.935   0.260  0.1757  0.7949  1.3237
  176MPD1    H7 2745   1.654   2.020   0.131 -0.7680  2.5250  2.1491
  177MPD1     C 2746   0.097   3.313   8.679  0.0522 -0.0744  0.0423
  177MPD1    C1 2747   0.162   3.240   8.778 -0.0728 -0.5777 -0.6665
  177MPD1    C2 2748   0.092   3.189   8.887 -0.2020  0.2408  1.2674
  177MPD1    C3 2749   4.686   3.203   8.895 -0.2653 -0.5384  0.2773
  177MPD1    C4 2750   4.626   3.266   8.785  0.3498 -0.5184  0.4816
  177MPD1    C5 2751   4.697   3.314   8.680 -0.0869  0.2977  0.1151
  177MPD1     H 2752   0.149   3.140   8.965  1.3788 -1.4889 -0.9678
  177MPD1    H1 2753   4.522   3.297   8.785  0.2429 -0.8797 -0.0122
  177MPD1    H2 2754   0.147   3.349   8.590 -1.0970 -2.0436 -1.4025
  177MPD1    H3 2755   4.651   3.370   8.599  1.0801 -0.7786 -1.2982
  177MPD1     N 2756   4.617   3.144   9.008 -0.1543 -0.0966 -0.8360
  177MPD1    H5 2757   4.678   3.081   9.060  1.2638  1.7846 -0.2251
  177MPD1    N1 2758   0.302   3.235   8.779 -0.2715 -0.0338 -0.1331
  177MPD1    H6 2759   0.354   3.247   8.692  0.7248  1.7659  0.7065
  177MPD1    H7 2760   0.343   3.157   8.832  1.2654  1.5947  1.0782
  178MPD1     C 2761   2.757   2.838   0.452  0.8327  0.1334  0.3915
  178MPD1    C1 2762   2.795   2.955   0.389  0.1585  0.2004 -0.0264
  178MPD1    C2 2763   2.882   2.952   0.281 -0.2208 -0.5330  0.1773
  178MPD1    C3 2764   2.915   2.831   0.218  1.0317  0.2014 -0.3822
  178MPD1    C4 2765   2.879   2.716   0.280  0.2460 -0.8126  0.6759
  178MPD1    C5 2766   2.801   2.717   0.398  0.0526 -0.2158  0.7135
  178MPD1     H 2767   2.918   3.048   0.246 -1.6115  1.0964  3.2002
  178MPD1    H1 2768   2.897   2.620   0.233 -0.3649 -0.1126 -0.9983
  178MPD1    H2 2769   2.695   2.831   0.541 -1.1455 -0.3854 -1.0252
  178MPD1    H3 2770   2.768   2.629   0.453 -0.7939 -0.1276  0.3511
  178MPD1     N 2771   2.985   2.829   0.092  0.6237  0.5896  0.0105
  178MPD1    H5 2772   3.010   2.739   0.052 -2.6859  0.4567 -1.8200
  178MPD1    N1 2773   2.757   3.079   0.444  0.0751  0.0789  0.2509
  178MPD1    H6 2774   2.763   3.161   0.384 -0.3288  0.5869  0.9103
  178MPD1    H7 2775   2.660   3.079   0.477 -0.2144 -2.2534 -0.5857
  179MPD1     C 2776   2.275   1.809  16.723  0.2843 -0.7251  0.3007
  179MPD1    C1 2777   2.177   1.725  16.749 -0.5904 -0.3340 -0.1401
  179MPD1    C2 2778   2.173   1.601  16.683  0.6670 -0.6552  0.4108
  179MPD1    C3 2779   2.277   1.571  16.595  0.6663  0.1001 -0.5220
  179MPD1    C4 2780   2.386   1.649  16.587 -0.5645  0.7473 -0.3981
  179MPD1    C5 2781   2.391   1.769  16.657 -0.3056  0.5715  1.0615
  179MPD1     H 2782   2.089   1.532  16.690 -0.3804  0.7718  1.8019
  179MPD1    H1 2783   2.472   1.617  16.529 -1.0546 -1.6783  0.2060
  179MPD1    H2 2784   2.264   1.913  16.750  1.8328 -0.3966 -0.2915
  179MPD1    H3 2785   2.469   1.843  16.642 -0.9215  1.0360  0.0741
  179MPD1     N 2786   2.285   1.441  16.528 -0.0494  0.4781  0.3383
  179MPD1    H5 2787   2.370   1.415  16.479 -0.4121 -1.4387  0.7422
  179MPD1    N1 2788   2.069   1.770  16.822  0.1093 -0.1065  0.0019
  179MPD1    H6 2789   2.015   1.690  16.856 -0.7613  0.4446 -0.0818
  179MPD1    H7 2790   2.107   1.827  16.896  0.8336 -2.9767  1.8528
  180MPD1     C 2791   1.664   2.517  15.426  0.1809  0.0771  0.1192
  180MPD1    C1 2792   1.797   2.525  15.411  0.6644 -0.2558  0.5828
  180MPD1    C2 2793   1.848   2.504  15.285 -0.2485  0.0511  0.1759
  180MPD1    C3 2794   1.772   2.494  15.171  1.2085 -1.0225  0.0298
  180MPD1    C4 2795   1.636   2.495  15.188 -0.7570 -0.1137  0.1947
  180MPD1    C5 2796   1.583   2.515  15.317 -0.3537 -0.5329  0.0852
  180MPD1     H 2797   1.956   2.495  15.286 -0.3213 -0.6427  2.5744
  180MPD1    H1 2798   1.572   2.492  15.100  1.6282  1.0593 -1.5715
  180MPD1    H2 2799   1.610   2.523  15.520  0.4683  0.6710  0.2491
  180MPD1    H3 2800   1.476   2.520  15.327 -0.5221 -1.7937 -1.1353
  180MPD1     N 2801   1.840   2.462  15.053  0.2525  0.4531 -0.2260
  180MPD1    H5 2802   1.941   2.468  15.057  0.2397  1.3366 -1.3047
  180MPD1    N1 2803   1.880   2.529  15.525  0.0657  0.3711  0.2676
  180MPD1    H6 2804   1.845   2.587  15.601 -0.6593  0.5448 -0.1991
  180MPD1    H7 2805   1.967   2.576  15.504  1.5961 -2.5519  0.0121
  181MPD1     C 2806   3.714   0.084  10.182 -0.0473  0.7696  0.2614
  181MPD1    C1 2807   3.707   0.183  10.282 -0.0657 -0.3520 -0.0410
  181MPD1    C2 2808   3.826   0.206  10.357 -0.0411  0.7517  0.4155
  181MPD1    C3 2809   3.949   0.151  10.319  0.6366 -0.3536 -0.1746
  181MPD1    C4 2810   3.955   0.061  10.211  0.3243  0.8073  0.8775
  181MPD1    C5 2811   3.836   0.028  10.150 -0.0415 -0.1832  0.5045
  181MPD1     H 2812   3.819   0.279  10.437 -0.4491  0.4805  0.6282
  181MPD1    H1 2813   4.051   0.033  10.169 -1.1547 -2.7780 -0.0700
  181MPD1    H2 2814   3.627   0.059  10.123  1.2318 -0.8173 -0.9575
  181MPD1    H3 2815   3.834   4.687  10.071 -0.0256 -0.1017  0.4267
  181MPD1     N 2816   4.071   0.180  10.384 -0.1218 -0.0235 -0.1174
  181MPD1    H5 2817   4.162   0.145  10.355  0.4217  0.2625  1.2458
  181MPD1    N1 2818   3.588   0.235  10.331  0.6647  0.1196 -0.6427
  181MPD1    H6 2819   3.610   0.323  10.377  0.4722 -0.9814  1.5461
  181MPD1    H7 2820   3.512   0.247  10.264  2.7933 -2.8619 -3.6061
  182MPD1     C 2821   4.216   2.214   1.318  0.3414  0.4452  0.3326
  182MPD1    C1 2822   4.232   2.344   1.352  0.3016  0.0547  0.0129
  182MPD1    C2 2823   4.214   2.440   1.254 -0.3354 -1.2100 -0.6156
  182MPD1    C3 2824   4.183   2.397   1.122 -0.5231  0.4605 -0.2082
  182MPD1    C4 2825   4.177   2.260   1.091  0.1159  0.2116 -0.2142
  182MPD1    C5 2826   4.195   2.173   1.192 -0.6155  0.4873 -0.5875
  182MPD1     H 2827   4.236   2.542   1.285 -0.7616 -1.2592 -0.1455
  182MPD1    H1 2828   4.151   2.227   0.991  2.4405  0.9929 -1.0950
  182MPD1    H2 2829   4.243   2.140   1.393 -0.3788 -0.4566 -0.3007
  182MPD1    H3 2830   4.188   2.065   1.183  1.2035  0.3601 -0.5210
  182MPD1     N 2831   4.163   2.477   1.003  0.7929 -0.0182 -0.6251
  182MPD1    H5 2832   4.184   2.424   0.919  0.9420 -0.8990 -0.0225
  182MPD1    N1 2833   4.256   2.374   1.482 -0.4272 -0.4454  0.6711
  182MPD1    H6 2834   4.302   2.298   1.531  0.8074 -0.1022  0.0424
  182MPD1    H7 2835   4.317   2.456   1.487 -0.1377 -0.4087 -2.9450
  183MPD1     C 2836   0.424   4.700   8.863  0.8869  0.3123  0.1023
  183MPD1    C1 2837   0.411   0.102   8.896  0.4521 -0.4114  0.4954
  183MPD1    C2 2838   0.420   0.140   9.026 -0.0650  0.3742  0.2022
  183MPD1    C3 2839   0.428   0.050   9.132 -0.9889  0.2471  0.0031
  183MPD1    C4 2840   0.438   4.650   9.102 -0.4106  1.3750 -0.2102
  183MPD1    C5 2841   0.439   4.611   8.967  0.0417 -0.2228  1.6038
  183MPD1     H 2842   0.417   0.244   9.057 -0.7842  0.8882 -1.6295
  183MPD1    H1 2843   0.430   4.566   9.170 -1.1798  0.7128 -1.1204
  183MPD1    H2 2844   0.418   4.663   8.761  1.3956  2.8553 -0.8558
  183MPD1    H3 2845   0.442   4.504   8.951  1.6105 -0.3163  2.4942
  183MPD1     N 2846   0.421   0.108   9.262 -0.1630 -0.2695  0.7684
  183MPD1    H5 2847   0.400   0.207   9.263 -0.8415 -0.4066  0.1752
  183MPD1    N1 2848   0.416   0.214   8.806  0.6919  0.3400  0.1223
  183MPD1    H6 2849   0.380   0.302   8.842 -1.8625 -0.3685 -0.7329
  183MPD1    H7 2850   0.385   0.199   8.711  2.5595 -3.3865  0.1078
  184MPD1     C 2851   3.300   2.327  10.080  0.0092 -0.5255  0.0526
  184MPD1    C1 2852   3.437   2.302  10.102  0.6081  0.4451  0.4315
  184MPD1    C2 2853   3.532   2.380  10.039  0.1224 -0.4533 -0.3346
  184MPD1    C3 2854   3.497   2.478   9.946 -0.1963  0.4388 -0.3863
  184MPD1    C4 2855   3.368   2.512   9.938  0.7888 -0.3704 -0.3152
  184MPD1    C5 2856   3.272   2.435   9.999 -0.4356 -0.4197  0.0266
  184MPD1     H 2857   3.637   2.363  10.056  0.5427  2.7470  0.3389
  184MPD1    H1 2858   3.337   2.587   9.866  1.6719 -0.7674 -1.1075
  184MPD1    H2 2859   3.218   2.275  10.127  0.4073  0.5349  1.9272
  184MPD1    H3 2860   3.166   2.456   9.993  0.0402  2.2153  0.8723
  184MPD1     N 2861   3.587   2.552   9.865 -0.0341 -0.4136  0.0123
  184MPD1    H5 2862   3.544   2.615   9.798  0.6916 -0.3262 -0.3671
  184MPD1    N1 2863   3.468   2.211  10.199 -0.0176  0.0643 -0.0582
  184MPD1    H6 2864   3.567   2.187  10.200  0.1152  0.6507  1.8022
  184MPD1    H7 2865   3.408   2.129  10.196  2.2900 -1.7437  2.6776
  185MPD1     C 2866   3.434   2.611   8.986  0.4233 -0.4110 -0.1207
  185MPD1    C1 2867   3.513   2.721   9.007 -0.2912 -0.1015 -0.0248
  185MPD1    C2 2868   3.578   2.730   9.129  0.5864 -0.1908 -0.8964
  185MPD1    C3 2869   3.549   2.636   9.231  0.4745  0.4481  0.0058
  185MPD1    C4 2870   3.459   2.541   9.212  0.2277 -0.1452  0.2491
  185MPD1    C5 2871   3.405   2.527   9.086 -0.1271 -0.2416 -0.5650
  185MPD1     H 2872   3.642   2.817   9.142 -0.3105  0.4523 -0.7504
  185MPD1    H1 2873   3.443   2.469   9.291 -0.5737  2.2730  2.2879
  185MPD1    H2 2874   3.404   2.580   8.886  0.1080  1.4562 -0.5983
  185MPD1    H3 2875   3.331   2.449   9.070  1.8259 -2.9062  3.4122
  185MPD1     N 2876   3.625   2.639   9.351  0.3406 -0.1678 -0.1705
  185MPD1    H5 2877   3.598   2.570   9.420 -1.4350 -0.9974 -1.6886
  185MPD1    N1 2878   3.554   2.791   8.890 -0.9638 -0.0792  0.4721
  185MPD1    H6 2879   3.590   2.882   8.918  0.3590  0.6390 -3.5395
  185MPD1    H7 2880   3.470   2.809   8.837  0.1189  0.7012 -0.9862
  186MPD1     C 2881   3.347   1.325  15.809 -0.6897 -0.1245 -1.0337
  186MPD1    C1 2882   3.333   1.222  15.900 -0.1889 -0.1450  0.8994
  186MPD1    C2 2883   3.266   1.247  16.016 -0.1014 -0.2449 -0.1365
  186MPD1    C3 2884   3.211   1.378  16.046  0.6569  0.2457 -0.0457
  186MPD1    C4 2885   3.241   1.477  15.953  0.0805  0.2023  0.6796
  186MPD1    C5 2886   3.308   1.448  15.837 -0.0936  0.2767 -0.2312
  186MPD1     H 2887   3.251   1.169  16.090 -0.8787 -0.2249 -0.2738
  186MPD1    H1 2888   3.215   1.583  15.961 -3.3241 -0.7277  2.0959
  186MPD1    H2 2889   3.393   1.323  15.711 -2.8082  1.2014 -2.0398
  186MPD1    H3 2890   3.324   1.533  15.772  1.3477 -1.3657 -2.0116
  186MPD1     N 2891   3.147   1.422  16.165  0.1659  1.1014  0.0011
  186MPD1    H5 2892   3.119   1.519  16.174  0.1606  1.1974 -0.9879
  186MPD1    N1 2893   3.382   1.097  15.871  0.6066 -0.3621  0.0410
  186MPD1    H6 2894   3.449   1.087  15.795  0.9538 -1.4084  0.4814
  186MPD1    H7 2895   3.433   1.062  15.952  1.4620 -0.1965 -0.4290
  187MPD1     C 2896   1.621   3.440   0.406  0.4441 -0.2833  0.8469
  187MPD1    C1 2897   1.705   3.531   0.343 -0.2606  0.0747  0.2103
  187MPD1    C2 2898   1.794   3.478   0.249 -0.7739  0.1844  0.0434
  187MPD1    C3 2899   1.794   3.340   0.213  0.3052 -0.2815  0.3778
  187MPD1    C4 2900   1.708   3.256   0.276 -0.6397 -0.3044  0.7045
  187MPD1    C5 2901   1.622   3.305   0.370 -0.2325  0.0713  0.4458
  187MPD1     H 2902   1.866   3.542   0.199 -0.5591  0.6696  0.9761
  187MPD1    H1 2903   1.695   3.151   0.252 -1.2868 -0.3668  1.3096
  187MPD1    H2 2904   1.553   3.467   0.486  0.1348 -0.1597  0.5391
  187MPD1    H3 2905   1.554   3.237   0.420 -1.6710  0.4165 -1.0315
  187MPD1     N 2906   1.885   3.275   0.123  0.4695  0.3482  0.5447
  187MPD1    H5 2907   1.876   3.174   0.128 -0.2402  0.4295  0.9853
  187MPD1    N1 2908   1.706   3.661   0.385  0.1257 -0.5934 -0.4021
  187MPD1    H6 2909   1.747   3.660   0.478 -1.3278 -1.1630  0.2297
  187MPD1    H7 2910   1.772   3.711   0.326 -0.7636 -1.0487 -1.7964
  188MPD1     C 2911   1.981   3.562  10.441 -0.3145  0.2357  0.3066
  188MPD1    C1 2912   2.001   3.444  10.516 -0.6478  0.2246  0.1163
  188MPD1    C2 2913   1.995   3.322  10.449  0.2542  0.6134 -0.0450
  188MPD1    C3 2914   1.966   3.318  10.310 -0.2287 -0.0706  0.6132
  188MPD1    C4 2915   1.960   3.437  10.239  0.3290 -0.1445 -0.1463
  188MPD1    C5 2916   1.971   3.556  10.305 -0.6510 -0.0763  0.5226
  188MPD1     H 2917   2.001   3.235  10.514 -1.3017  0.3844 -0.2029
  188MPD1    H1 2918   1.924   3.447  10.138 -1.3658  1.7878  0.6429
  188MPD1    H2 2919   1.991   3.661  10.483 -2.7003  1.4659 -2.0736
  188MPD1    H3 2920   1.965   3.647  10.248 -0.6561 -0.2661  0.2176
  188MPD1     N 2921   1.928   3.204  10.239  0.4011  0.4486 -0.6641
  188MPD1    H5 2922   1.914   3.222  10.140 -3.1553  0.2468 -0.1904
  188MPD1    N1 2923   2.014   3.448  10.656 -0.9888 -0.0525  0.6475
  188MPD1    H6 2924   2.066   3.365  10.683  1.2392  0.2397 -2.7539
  188MPD1    H7 2925   2.072   3.527  10.683 -0.2028 -0.1110 -0.9151
  189MPD1     C 2926   3.816   3.507   0.493 -0.1826  0.2267  0.0851
  189MPD1    C1 2927   3.677   3.505   0.505  0.2835  0.1066 -0.5943
  189MPD1    C2 2928   3.617   3.627   0.544 -0.3109 -0.2582  0.4165
  189MPD1    C3 2929   3.695   3.736   0.581  0.1351  0.0540 -0.6953
  189MPD1    C4 2930   3.828   3.726   0.574 -0.1113  0.1933 -0.9396
  189MPD1    C5 2931   3.889   3.613   0.528 -0.3619 -0.5806 -0.2025
  189MPD1     H 2932   3.509   3.624   0.553 -0.2476 -2.2831  0.5599
  189MPD1    H1 2933   3.896   3.805   0.603  2.8714 -2.3377 -1.0857
  189MPD1    H2 2934   3.860   3.411   0.467  0.8773  0.3984  1.2415
  189MPD1    H3 2935   3.997   3.610   0.520 -0.3379  2.9533 -1.2467
  189MPD1     N 2936   3.623   3.857   0.595  0.0156  0.5371  0.5573
  189MPD1    H5 2937   3.523   3.848   0.590  0.2002 -0.4286 -1.0920
  189MPD1    N1 2938   3.609   3.394   0.447  0.0498  0.0619 -0.3722
  189MPD1    H6 2939   3.666   3.310   0.457 -0.2210 -0.0293  0.4103
  189MPD1    H7 2940   3.518   3.377   0.490 -0.5778  0.9327 -1.3662
  190MPD1     C 2941   2.314   1.976  15.419 -0.4589  1.0748 -1.3878
  190MPD1    C1 2942   2.421   2.053  15.379  0.2393 -0.7936  0.4335
  190MPD1    C2 2943   2.496   2.116  15.476  0.2928 -0.2105  0.8521
  190MPD1    C3 2944   2.484   2.071  15.610  0.5007 -0.4127 -0.0606
  190MPD1    C4 2945   2.385   1.983  15.643 -0.9538  0.2710 -0.1502
  190MPD1    C5 2946   2.295   1.937  15.550 -0.2234  0.0792 -0.1752
  190MPD1     H 2947   2.574   2.180  15.436 -1.4775  1.1297 -0.4885
  190MPD1    H1 2948   2.377   1.948  15.746 -1.5263  2.1135  0.4368
  190MPD1    H2 2949   2.236   1.944  15.352 -1.7480  2.9553 -0.7817
  190MPD1    H3 2950   2.226   1.864  15.591 -1.3275  2.7725  2.8155
  190MPD1     N 2951   2.573   2.126  15.709 -0.9387  0.3564  0.1524
  190MPD1    H5 2952   2.657   2.164  15.666 -1.1822  2.2016  1.3139
  190MPD1    N1 2953   2.438   2.077  15.244  0.1964  0.4944  0.1327
  190MPD1    H6 2954   2.536   2.097  15.227 -0.0496  0.4879 -1.2904
  190MPD1    H7 2955   2.412   1.989  15.200  1.0578  0.1037  0.4117
  191MPD1     C 2956   1.825   4.530  12.660 -0.1832  0.0214 -0.3430
  191MPD1    C1 2957   1.942   4.510  12.587  1.1424  0.2273  0.9044
  191MPD1    C2 2958   1.965   4.614  12.492 -0.3575 -0.0067  0.3696
  191MPD1    C3 2959   1.889   4.720  12.479 -0.3404  0.2916 -0.2454
  191MPD1    C4 2960   1.771   0.001  12.552  0.4064  0.2329 -0.4920
  191MPD1    C5 2961   1.744   4.639  12.642 -0.5489 -0.1629  0.3560
  191MPD1     H 2962   2.056   4.607  12.434 -0.7407  1.9745 -0.4511
  191MPD1    H1 2963   1.702   0.085  12.553 -1.2672 -1.1321 -0.2672
  191MPD1    H2 2964   1.798   4.481  12.753 -1.2176 -0.9679 -1.1783
  191MPD1    H3 2965   1.669   4.647  12.720  0.0870 -0.1911  0.9637
  191MPD1     N 2966   1.931   0.084  12.387  0.3728  0.6247  0.5587
  191MPD1    H5 2967   2.010   0.058  12.329  1.3956 -0.4010  2.4205
  191MPD1    N1 2968   2.042   4.421  12.632 -0.3897  0.0325  0.1738
  191MPD1    H6 2969   2.014   4.340  12.687  0.6274 -0.9470 -0.7244
  191MPD1    H7 2970   2.106   4.385  12.561 -0.5620  0.4173 -0.1796
  192MPD1     C 2971   1.627   0.559  11.468  0.2147  0.1367 -0.6487
  192MPD1    C1 2972   1.591   0.600  11.598 -0.0573 -0.2613 -0.2533
  192MPD1    C2 2973   1.664   0.557  11.707 -0.3175  0.2480 -0.2193
  192MPD1    C3 2974   1.765   0.477  11.695 -0.4350  0.4012 -0.3431
  192MPD1    C4 2975   1.803   0.434  11.574  0.1459  0.1300 -0.6019
  192MPD1    C5 2976   1.733   0.474  11.458  0.5383 -0.9357  0.0493
  192MPD1     H 2977   1.641   0.604  11.802  0.7758 -0.5955  0.4551
  192MPD1    H1 2978   1.900   0.386  11.564  0.1578 -0.0166  0.1938
  192MPD1    H2 2979   1.577   0.604  11.383 -0.2716  2.6560  0.9935
  192MPD1    H3 2980   1.759   0.434  11.360 -1.6677 -0.3737 -0.7667
  192MPD1     N 2981   1.830   0.418  11.806 -0.3562 -0.4284  0.0677
  192MPD1    H5 2982   1.910   0.361  11.780  0.3704 -0.3415  2.1010
  192MPD1    N1 2983   1.469   0.680  11.615  0.5236  0.9514 -0.3041
  192MPD1    H6 2984   1.402   0.665  11.690  0.0007 -0.7793 -1.1114
  192MPD1    H7 2985   1.415   0.701  11.531 -0.6165  0.6321  0.3528
  193MPD1     C 2986   1.028   4.196  16.833 -0.1412 -0.1216  0.0187
  193MPD1    C1 2987   1.031   4.315  16.906  0.5748  0.3630  0.4149
  193MPD1    C2 2988   1.109   4.419  16.859  0.3396  0.0140  0.0925
  193MPD1    C3 2989   1.173   4.410  16.738  0.1813  0.5617  0.1762
  193MPD1    C4 2990   1.177   4.288  16.671 -0.0945  0.2991 -0.6943
  193MPD1    C5 2991   1.106   4.183  16.720 -0.6555 -0.4367  0.4985
  193MPD1     H 2992   1.121   4.505  16.925  0.3368  2.6503 -3.3547
  193MPD1    H1 2993   1.234   4.262  16.583 -2.3005 -0.5407 -1.8882
  193MPD1    H2 2994   0.979   4.107  16.870  3.2920 -2.4821 -1.0976
  193MPD1    H3 2995   1.107   4.087  16.669  1.2852  0.2804 -0.8444
  193MPD1     N 2996   1.254   4.515  16.688 -0.0584 -0.1263  0.4935
  193MPD1    H5 2997   1.308   4.495  16.605  0.4148  0.7095  0.6005
  193MPD1    N1 2998   0.950   4.323  17.026 -0.7290  0.2134  0.2483
  193MPD1    H6 2999   0.920   4.235  17.067 -1.1074  1.4807  2.6606
  193MPD1    H7 3000   0.984   4.390  17.095  0.6795 -0.3461  0.1024
  194MPD1     C 3001   4.541   2.354  16.950 -0.3736 -0.2745 -0.2099
  194MPD1    C1 3002   4.598   2.224  16.940 -0.6191  0.0264  0.0842
  194MPD1    C2 3003   4.541   2.120  17.006 -0.0508 -0.3743  0.9686
  194MPD1    C3 3004   4.435   2.149  17.094  0.4203  0.3243  0.0096
  194MPD1    C4 3005   4.384   2.274  17.105  0.1376  0.1253  0.2045
  194MPD1    C5 3006   4.430   2.371  17.024  0.2918  0.1720  0.1556
  194MPD1     H 3007   4.583   2.020  17.000 -0.3243 -0.3888 -0.7612
  194MPD1    H1 3008   4.315   2.289  17.188  0.2540  1.0115  0.1416
  194MPD1    H2 3009   4.580   2.445  16.907 -1.3582 -0.0743 -0.6777
  194MPD1    H3 3010   4.390   2.470  17.047 -0.1195  0.2789 -1.0421
  194MPD1     N 3011   4.376   2.044  17.173 -0.4031 -0.2647  0.4759
  194MPD1    H5 3012   4.306   2.076  17.239 -1.1258 -0.4328 -0.2132
  194MPD1    N1 3013   4.717   2.207  16.862  0.0646  0.2050  0.2871
  194MPD1    H6 3014   0.037   2.293  16.862  0.8286 -0.2633  0.2405
  194MPD1    H7 3015   0.055   2.147  16.903 -1.2301 -1.8150 -0.3896
  195MPD1     C 3016   1.745   3.587  17.266  0.5652  0.0379 -0.0662
  195MPD1    C1 3017   1.721   3.584  17.400  0.0849 -0.6085 -0.4127
  195MPD1    C2 3018   1.686   3.462  17.452 -0.4720  0.0080  0.5145
  195MPD1    C3 3019   1.657   3.351  17.372 -0.1912  0.2543 -0.2616
  195MPD1    C4 3020   1.666   3.364  17.230  0.3106  0.4392  0.2756
  195MPD1    C5 3021   1.724   3.481  17.183  0.5705 -0.0832  0.0034
  195MPD1     H 3022   1.663   3.454  17.557  0.2113 -1.1079  0.5802
  195MPD1    H1 3023   1.645   3.279  17.166 -2.3754  0.9257  0.5143
  195MPD1    H2 3024   1.796   3.670  17.220 -0.1087  0.6201  0.2283
  195MPD1    H3 3025   1.734   3.503  17.077  0.3247  0.5996  0.1247
  195MPD1     N 3026   1.610   3.227  17.420 -0.5594  0.4472  0.2990
  195MPD1    H5 3027   1.590   3.165  17.342 -2.5615  0.2939  0.9249
  195MPD1    N1 3028   1.764   3.689  17.487  0.0481 -0.1669  0.1797
  195MPD1    H6 3029   1.769   3.781  17.444  0.9645 -0.0989  0.4230
  195MPD1    H7 3030   1.705   3.692  17.570 -1.9069  0.4047 -1.2594
  196MPD1     C 3031   0.171   2.325   0.898 -0.3280  0.0638 -0.0673
  196MPD1    C1 3032   0.247   2.295   1.011 -0.0468 -0.4315 -0.1643
  196MPD1    C2 3033   0.354   2.376   1.038 -0.3818 -0.4161 -0.0697
  196MPD1    C3 3034   0.385   2.490   0.962 -0.1132 -0.0063  0.2114
  196MPD1    C4 3035   0.303   2.516   0.861 -0.0872 -0.5576  0.6339
  196MPD1    C5 3036   0.192   2.440   0.831  0.2685  0.3383 -0.8603
  196MPD1     H 3037   0.415   2.364   1.128  2.1042 -2.3464 -2.0120
  196MPD1    H1 3038   0.315   2.609   0.806  0.7641 -0.2877  1.2899
  196MPD1    H2 3039   0.083   2.270   0.868 -0.4233 -1.1413  2.4904
  196MPD1    H3 3040   0.121   2.461   0.752 -1.1671  0.3893  0.4621
  196MPD1     N 3041   0.493   2.583   0.984  0.3910 -0.1149 -0.5086
  196MPD1    H5 3042   0.506   2.666   0.927 -0.3477 -1.3836 -2.4984
  196MPD1    N1 3043   0.228   2.176   1.084  0.1290 -0.5574 -0.5974
  196MPD1    H6 3044   0.279   2.181   1.172 -0.4370  0.4753 -0.3227
  196MPD1    H7 3045   0.131   2.153   1.105  0.3509 -0.1002  0.9430
  197MPD1     C 3046   0.508   3.860  17.012  0.0998 -0.1039  0.1306
  197MPD1    C1 3047   0.426   3.943  16.938 -0.6719 -0.7795  1.0938
  197MPD1    C2 3048   0.482   4.050  16.870  0.5764 -0.0793  0.5252
  197MPD1    C3 3049   0.621   4.075  16.853  0.7517  0.4057 -0.5092
  197MPD1    C4 3050   0.697   3.985  16.922 -0.4038  0.0487 -0.5639
  197MPD1    C5 3051   0.643   3.877  17.001 -0.2504  0.0454 -0.2725
  197MPD1     H 3052   0.417   4.129  16.835  2.5248  0.5934 -1.6118
  197MPD1    H1 3053   0.805   3.993  16.925 -0.4077 -0.2108  0.2028
  197MPD1    H2 3054   0.474   3.776  17.071 -1.6442  1.5418  1.4769
  197MPD1    H3 3055   0.710   3.815  17.059 -1.4798 -1.4758 -0.4807
  197MPD1     N 3056   0.681   4.178  16.781 -0.3658  0.3677 -0.1716
  197MPD1    H5 3057   0.778   4.197  16.801 -0.8981  0.6002  2.1611
  197MPD1    N1 3058   0.288   3.940  16.965  0.0675  0.0616  0.3860
  197MPD1    H6 3059   0.251   3.848  16.983 -0.8511  0.6995  1.7053
  197MPD1    H7 3060   0.240   3.981  16.885 -2.3126 -0.4930  1.5347
  198MPD1     C 3061   1.761   3.367  15.366  0.6511 -0.1239  0.7669
  198MPD1    C1 3062   1.842   3.300  15.444  0.2232 -0.0748 -0.0054
  198MPD1    C2 3063   1.979   3.324  15.438 -1.0180  1.1478  0.4022
  198MPD1    C3 3064   2.033   3.415  15.355 -0.5575 -0.0970 -0.3397
  198MPD1    C4 3065   1.949   3.486  15.275 -0.0731  0.1656  0.3372
  198MPD1    C5 3066   1.815   3.464  15.285  0.3943 -0.2714  0.1750
  198MPD1     H 3067   2.045   3.281  15.512  1.3127  1.5853 -1.4124
  198MPD1    H1 3068   1.983   3.565  15.208 -0.9810  0.0591 -0.2416
  198MPD1    H2 3069   1.654   3.355  15.361  0.4774  2.1794 -1.5201
  198MPD1    H3 3070   1.747   3.527  15.229  1.6956 -0.1341 -1.2603
  198MPD1     N 3071   2.173   3.452  15.374  0.2875 -0.6222  0.0772
  198MPD1    H5 3072   2.227   3.406  15.447  0.2110  0.2195  0.6655
  198MPD1    N1 3073   1.798   3.184  15.512  0.7997  0.0137 -0.0171
  198MPD1    H6 3074   1.702   3.191  15.545  1.3883 -0.0287  1.6640
  198MPD1    H7 3075   1.859   3.160  15.589  2.0809  0.9985 -0.7202
  199MPD1     C 3076   4.547   0.903   9.774  0.0488 -1.5320 -0.3543
  199MPD1    C1 3077   4.515   0.841   9.891 -0.3779 -0.6545 -1.0673
  199MPD1    C2 3078   4.383   0.849   9.929 -0.3253 -0.5561  0.4530
  199MPD1    C3 3079   4.289   0.934   9.868 -0.6141 -0.1049 -0.1769
  199MPD1    C4 3080   4.330   1.005   9.755  0.5975  0.5951 -1.3445
  199MPD1    C5 3081   4.456   0.980   9.704  0.0277 -0.0228  0.0913
  199MPD1     H 3082   4.359   0.786  10.014  1.5597  1.0946  2.2185
  199MPD1    H1 3083   4.257   1.063   9.699 -2.2289 -1.7971 -0.1401
  199MPD1    H2 3084   4.637   0.860   9.731  1.4682 -0.6626  1.7169
  199MPD1    H3 3085   4.479   1.013   9.603 -0.1110 -1.0131 -0.2650
  199MPD1     N 3086   4.153   0.954   9.905 -0.2793 -0.5459  0.7118
  199MPD1    H5 3087   4.099   1.025   9.857  1.0617  0.0306  0.0511
  199MPD1    N1 3088   4.606   0.760   9.959  0.1627  0.1449  0.3161
  199MPD1    H6 3089   4.702   0.792   9.944 -0.0183 -1.1204 -3.6370
  199MPD1    H7 3090   4.582   0.753  10.058  0.8401 -3.6392  0.2132
  200MPD1     C 3091   3.511   0.185  15.124  0.5595 -0.1508 -0.3523
  200MPD1    C1 3092   3.447   0.165  15.004  0.0907  0.7469 -0.5509
  200MPD1    C2 3093   3.390   0.271  14.938 -0.2072 -0.2419 -0.2909
  200MPD1    C3 3094   3.405   0.401  14.980  0.9800 -0.0003 -0.3245
  200MPD1    C4 3095   3.472   0.416  15.100 -0.6353  0.2792 -0.3940
  200MPD1    C5 3096   3.521   0.316  15.172 -0.2125 -0.0129 -0.4807
  200MPD1     H 3097   3.334   0.255  14.847  1.3531  2.1520 -1.6510
  200MPD1    H1 3098   3.511   0.515  15.123  0.3897 -0.2349  0.1055
  200MPD1    H2 3099   3.548   0.105  15.186  2.2448  0.2348 -0.8732
  200MPD1    H3 3100   3.574   0.342  15.262  1.2950 -1.0753 -1.0804
  200MPD1     N 3101   3.346   0.505  14.903 -0.2276 -0.3293  0.3676
  200MPD1    H5 3102   3.290   0.488  14.820 -1.4359  0.6179  0.9853
  200MPD1    N1 3103   3.444   0.041  14.938 -0.2053 -0.5694  0.5672
  200MPD1    H6 3104   3.364   0.019  14.878 -1.1614  0.3073  1.5187
  200MPD1    H7 3105   3.465   4.696  14.999 -1.3242 -0.7189  0.7581
  201MPD1     C 3106   1.203   4.215  13.075  0.2915 -0.1290 -0.3566
  201MPD1    C1 3107   1.281   4.120  13.006 -0.6128  0.5926 -0.4814
  201MPD1    C2 3108   1.294   3.993  13.054  1.7172  0.6570 -0.1568
  201MPD1    C3 3109   1.240   3.951  13.170  0.1843  0.4616  0.7934
  201MPD1    C4 3110   1.153   4.037  13.233 -0.4248 -0.2331 -0.1549
  201MPD1    C5 3111   1.130   4.163  13.178 -0.1630 -0.5990  0.0820
  201MPD1     H 3112   1.351   3.924  12.993 -0.2426 -3.0995  2.1696
  201MPD1    H1 3113   1.094   4.005  13.318  1.1430  0.2007  1.0989
  201MPD1    H2 3114   1.187   4.317  13.041  0.1401 -0.4745 -1.3475
  201MPD1    H3 3115   1.063   4.229  13.230  0.5244  1.1528 -1.2546
  201MPD1     N 3116   1.278   3.820  13.216  0.0814  0.5151 -0.2482
  201MPD1    H5 3117   1.352   3.783  13.158  0.0713 -1.7387  1.1590
  201MPD1    N1 3118   1.344   4.147  12.882 -0.1379 -0.1071 -0.1840
  201MPD1    H6 3119   1.382   4.241  12.871 -0.7338  0.3220  1.3201
  201MPD1    H7 3120   1.423   4.087  12.864  0.0923  0.0020  0.4692
  202MPD1     C 3121   0.239   3.425   9.285  0.4204  0.0928 -0.1064
  202MPD1    C1 3122   0.269   3.554   9.268 -0.3656  0.2364 -0.6513
  202MPD1    C2 3123   0.323   3.618   9.376  0.0447 -0.1089  0.2432
  202MPD1    C3 3124   0.393   3.546   9.478  0.3161 -0.4698  0.4564
  202MPD1    C4 3125   0.394   3.411   9.471 -0.2880 -0.4313  0.5225
  202MPD1    C5 3126   0.306   3.354   9.377 -0.5796 -0.6211  0.3821
  202MPD1     H 3127   0.325   3.726   9.384  0.2222 -0.0097 -1.1765
  202MPD1    H1 3128   0.451   3.344   9.534  1.6017 -0.4712 -1.2389
  202MPD1    H2 3129   0.178   3.365   9.218  2.5753 -0.3850 -1.6104
  202MPD1    H3 3130   0.287   3.247   9.382 -1.1639 -0.5285  0.1126
  202MPD1     N 3131   0.485   3.596   9.574  0.9027 -0.3776 -0.2061
  202MPD1    H5 3132   0.521   3.531   9.643 -1.9209 -1.2587  0.4468
  202MPD1    N1 3133   0.188   3.626   9.172 -0.4630 -0.0968  0.2233
  202MPD1    H6 3134   0.221   3.721   9.157  1.5719 -0.8759 -0.1207
  202MPD1    H7 3135   0.182   3.567   9.090  0.4760  1.0530 -0.6719
  203MPD1     C 3136   0.107   0.045  12.643 -0.2410 -0.0072  0.3070
  203MPD1    C1 3137   0.128   4.710  12.767  0.1885  0.5028  0.6688
  203MPD1    C2 3138   0.186   4.586  12.760 -0.4212 -0.5369 -0.6759
  203MPD1    C3 3139   0.241   4.530  12.650 -0.2325  0.0795  0.0329
  203MPD1    C4 3140   0.228   4.600  12.538 -0.0501 -0.0035  0.0753
  203MPD1    C5 3141   0.165   4.725  12.529 -0.7431 -0.0305 -0.7288
  203MPD1     H 3142   0.191   4.527  12.851  0.7468  0.7450  0.0899
  203MPD1    H1 3143   0.279   4.563  12.450  0.2319 -1.7863  0.9829
  203MPD1    H2 3144   0.043   0.129  12.621 -0.8576 -1.2083 -2.5528
  203MPD1    H3 3145   0.160   0.043  12.433 -1.7357 -0.4815 -0.9256
  203MPD1     N 3146   0.322   4.410  12.652 -0.6580 -0.3669  0.3336
  203MPD1    H5 3147   0.358   4.378  12.563  0.5975  0.8491  0.3950
  203MPD1    N1 3148   0.052   0.013  12.880  0.1203 -0.6913  0.3427
  203MPD1    H6 3149   0.099   4.721  12.967  0.5364 -0.4875  0.1753
  203MPD1    H7 3150   0.038   0.114  12.877  0.6484 -0.6607 -1.1857
  204MPD1     C 3151   3.117   0.208   0.350  0.3286  0.0775 -0.6374
  204MPD1    C1 3152   3.160   0.266   0.237 -0.5062 -0.1194 -0.1624
  204MPD1    C2 3153   3.230   0.184   0.154  0.1034 -0.1110 -0.3450
  204MPD1    C3 3154   3.264   0.051   0.181  0.5491 -0.7176  0.1706
  204MPD1    C4 3155   3.220   4.730   0.298  0.2149 -0.2041  0.2131
  204MPD1    C5 3156   3.158   0.081   0.384 -0.1241 -0.4744  0.2215
  204MPD1     H 3157   3.261   0.215   0.055 -0.1631  2.9980  0.5262
  204MPD1    H1 3158   3.222   4.623   0.315  0.3861 -0.4251 -1.2291
  204MPD1    H2 3159   3.057   0.259   0.424 -0.0400 -2.0526  0.5402
  204MPD1    H3 3160   3.125   0.045   0.481  0.1694 -0.5149  0.3039
  204MPD1     N 3161   3.334   4.707   0.085 -0.0109 -0.3987 -0.5318
  204MPD1    H5 3162   3.335   0.016  17.727  1.5244  1.7656  0.4892
  204MPD1    N1 3163   3.108   0.396   0.204  0.2205  0.3021  0.4706
  204MPD1    H6 3164   3.086   0.451   0.287  2.2545  0.4622  0.8929
  204MPD1    H7 3165   3.180   0.448   0.156  0.8172 -2.3043 -1.4427
  205MPD1     C 3166   4.056   3.504  16.655 -0.1558  0.0622 -0.2635
  205MPD1    C1 3167   3.948   3.543  16.720  0.2682  0.6756 -0.3258
  205MPD1    C2 3168   3.952   3.542  16.856  0.3799 -0.3685 -0.4516
  205MPD1    C3 3169   4.060   3.485  16.928  0.4184 -0.1388  0.3021
  205MPD1    C4 3170   4.162   3.433  16.855 -0.3975  0.1731  0.1614
  205MPD1    C5 3171   4.160   3.441  16.719  0.6922  0.0195  0.3551
  205MPD1     H 3172   3.874   3.604  16.899  0.2666 -0.4712 -0.5071
  205MPD1    H1 3173   4.253   3.393  16.897 -0.6422  0.4339  0.9362
  205MPD1    H2 3174   4.054   3.514  16.547 -1.4072 -1.5502 -0.4084
  205MPD1    H3 3175   4.241   3.392  16.666  2.0421  3.2810 -0.5868
  205MPD1     N 3176   4.059   3.481  17.069 -0.1544  0.1332  0.0357
  205MPD1    H5 3177   4.147   3.441  17.100  0.0390  1.2121  0.8742
  205MPD1    N1 3178   3.854   3.628  16.648 -0.3253  0.3525 -0.0266
  205MPD1    H6 3179   3.843   3.592  16.554 -0.9426  0.7658 -0.1058
  205MPD1    H7 3180   3.764   3.612  16.693 -1.8439  0.5482 -3.0271
  206MPD1     C 3181   4.384   2.250  16.652  0.4607 -0.8300  0.1889
  206MPD1    C1 3182   4.458   2.164  16.575 -0.5058 -0.9966  0.2443
  206MPD1    C2 3183   4.432   2.140  16.441  0.7137 -0.0430  0.2409
  206MPD1    C3 3184   4.337   2.228  16.381  0.2170 -0.3351 -0.2774
  206MPD1    C4 3185   4.283   2.326  16.458  0.5852 -0.1932 -0.6998
  206MPD1    C5 3186   4.301   2.332  16.596  0.4719 -0.0981  0.4051
  206MPD1     H 3187   4.495   2.067  16.392  0.5154  1.3500 -2.0606
  206MPD1    H1 3188   4.199   2.378  16.415  0.4454 -0.6366 -0.9631
  206MPD1    H2 3189   4.396   2.264  16.759  1.6133  0.0146 -0.0546
  206MPD1    H3 3190   4.254   2.405  16.660 -0.6619  1.1691 -1.8845
  206MPD1     N 3191   4.285   2.215  16.253 -0.4621 -0.0213  0.4959
  206MPD1    H5 3192   4.222   2.287  16.221 -1.2606 -0.1542  1.7507
  206MPD1    N1 3193   4.538   2.075  16.642 -0.1221 -0.0439  0.0615
  206MPD1    H6 3194   4.616   2.038  16.587 -2.5496 -0.8257 -2.8538
  206MPD1    H7 3195   4.575   2.126  16.722 -1.8676  2.5560 -0.7920
  207MPD1     C 3196   0.933   4.487  10.036 -0.4227 -0.3898 -0.5166
  207MPD1    C1 3197   0.994   4.574   9.951 -0.8596 -0.0755  0.2313
  207MPD1    C2 3198   1.122   4.620   9.978  0.2151  0.8431  1.1439
  207MPD1    C3 3199   1.182   4.590  10.095  0.4186  0.5005  0.8545
  207MPD1    C4 3200   1.118   4.504  10.185  0.8564  0.1930 -0.1653
  207MPD1    C5 3201   0.997   4.450  10.148 -0.1436 -0.2659  0.8300
  207MPD1     H 3202   1.166   4.693   9.911  1.7926 -0.4466  0.7929
  207MPD1    H1 3203   1.178   4.467  10.268 -1.2471 -0.7786  0.9077
  207MPD1    H2 3204   0.834   4.453  10.010 -0.8176  0.5136 -0.2085
  207MPD1    H3 3205   0.930   4.394  10.211 -1.8844  1.3264  0.4078
  207MPD1     N 3206   1.313   4.625  10.131  0.4661 -0.1376 -0.1765
  207MPD1    H5 3207   1.355   4.588  10.216  0.7947  1.9460  0.5733
  207MPD1    N1 3208   0.923   4.606   9.830  0.0686 -0.8017 -0.0789
  207MPD1    H6 3209   0.953   4.694   9.789  0.1113 -1.1592 -0.8009
  207MPD1    H7 3210   0.824   4.597   9.854  0.0700  0.3089  0.3831
  208MPD1     C 3211   0.020   1.884  17.264  0.0070 -0.7598  0.2500
  208MPD1    C1 3212   4.714   1.887  17.395 -1.2900 -0.1954 -0.0585
  208MPD1    C2 3213   4.664   2.007  17.445 -0.7234 -0.3296  0.1842
  208MPD1    C3 3214   4.679   2.125  17.377  0.6472 -0.2662 -0.3887
  208MPD1    C4 3215   0.014   2.121  17.254  0.1412  0.7134 -0.4210
  208MPD1    C5 3216   0.039   1.999  17.193 -0.1223 -0.8535 -0.2300
  208MPD1     H 3217   4.624   2.012  17.546  1.5173  0.4614  1.0301
  208MPD1    H1 3218   0.023   2.209  17.190  2.1273  1.0858  0.3805
  208MPD1    H2 3219   0.059   1.793  17.221  0.7790 -0.2687 -0.0796
  208MPD1    H3 3220   0.077   1.998  17.091 -0.1153 -0.1000 -0.2409
  208MPD1     N 3221   4.635   2.242  17.445 -0.7455  0.4830  0.4140
  208MPD1    H5 3222   4.572   2.225  17.523  1.5902 -2.0165  1.7453
  208MPD1    N1 3223   4.690   1.768  17.467  0.4130  0.5204 -0.0398
  208MPD1    H6 3224   0.026   1.696  17.454  1.1383  1.4227 -1.1591
  208MPD1    H7 3225   4.693   1.794  17.566 -3.1658  0.8439  0.0109
  209MPD1     C 3226   2.255   3.308  11.173 -0.4330 -0.1153 -0.2434
  209MPD1    C1 3227   2.151   3.373  11.242  0.2395 -0.0017 -0.0509
  209MPD1    C2 3228   2.093   3.487  11.186  0.7038  0.5843  0.1865
  209MPD1    C3 3229   2.129   3.533  11.065 -0.5165  1.0682  0.8751
  209MPD1    C4 3230   2.229   3.468  10.998  0.4050  0.4591  0.0497
  209MPD1    C5 3231   2.289   3.357  11.052 -0.1145 -0.2468 -0.4124
  209MPD1     H 3232   2.010   3.538  11.233  0.9850  0.1486  1.1610
  209MPD1    H1 3233   2.264   3.505  10.903 -0.9531 -1.0271 -1.0313
  209MPD1    H2 3234   2.314   3.219  11.193  1.0073  1.3423  2.0500
  209MPD1    H3 3235   2.363   3.305  10.992 -0.4445  0.7922 -1.7279
  209MPD1     N 3236   2.080   3.660  11.025 -0.4710  0.4570 -0.7170
  209MPD1    H5 3237   2.021   3.708  11.093  1.4328 -1.4850  2.3185
  209MPD1    N1 3238   2.087   3.304  11.350 -0.4161 -0.0458 -0.0252
  209MPD1    H6 3239   2.034   3.366  11.411 -0.4366 -1.3101  1.2384
  209MPD1    H7 3240   2.157   3.250  11.402  0.1476 -0.9588 -1.7187
  210MPD1     C 3241   2.220   4.492  11.516  0.2401 -0.0892 -0.5114
  210MPD1    C1 3242   2.245   4.360  11.529 -0.5741 -0.6013  0.6919
  210MPD1    C2 3243   2.231   4.283  11.407 -0.1198  0.4448  0.3675
  210MPD1    C3 3244   2.184   4.334  11.292 -0.1757  0.8060 -0.2996
  210MPD1    C4 3245   2.159   4.469  11.281  0.0980  0.7613 -0.4352
  210MPD1    C5 3246   2.182   4.544  11.392  0.5236 -0.6532  0.0340
  210MPD1     H 3247   2.263   4.180  11.418  0.2242  0.6438  1.1750
  210MPD1    H1 3248   2.116   4.526  11.200  1.7637  2.1722 -0.3326
  210MPD1    H2 3249   2.233   4.563  11.597  1.2219  0.4643 -1.1567
  210MPD1    H3 3250   2.145   4.646  11.395  2.3855 -0.0147  1.0262
  210MPD1     N 3251   2.160   4.263  11.175 -0.6094  0.1209 -0.6666
  210MPD1    H5 3252   2.121   4.312  11.095  0.8370  0.2396 -1.2890
  210MPD1    N1 3253   2.298   4.312  11.644  0.0444  0.0086  0.0252
  210MPD1    H6 3254   2.259   4.369  11.719  2.0827  0.8005  0.4738
  210MPD1    H7 3255   2.279   4.212  11.655  0.2288  0.1083  1.2278
  211MPD1     C 3256   0.145   4.171  15.596 -0.2636 -0.3487  0.3021
  211MPD1    C1 3257   0.018   4.224  15.566  0.0847 -0.2682 -0.0108
  211MPD1    C2 3258   4.643   4.197  15.644 -0.2052 -0.0000 -0.1475
  211MPD1    C3 3259   4.654   4.117  15.754  0.0149 -0.0936 -0.6636
  211MPD1    C4 3260   0.048   4.064  15.791  0.2207 -0.3853  0.3209
  211MPD1    C5 3261   0.156   4.092  15.710  0.2147 -0.9219 -0.0413
  211MPD1     H 3262   4.554   4.251  15.614  0.1044 -0.4756 -1.9490
  211MPD1    H1 3263   0.061   4.024  15.891  3.0718  0.1474  0.1747
  211MPD1    H2 3264   0.234   4.189  15.537  0.1349 -0.4228  0.8834
  211MPD1    H3 3265   0.253   4.057  15.742  1.6038  1.1509 -2.0114
  211MPD1     N 3266   4.541   4.112  15.841  0.9498  0.1410 -0.0558
  211MPD1    H5 3267   4.461   4.163  15.806  0.5558  0.0290  0.6888
  211MPD1    N1 3268   0.016   4.333  15.478  0.2454  0.0720 -0.5653
  211MPD1    H6 3269   0.079   4.326  15.399 -0.7005 -1.7904 -1.1422
  211MPD1    H7 3270   4.659   4.362  15.440  0.3259  1.3213  0.1780
  212MPD1     C 3271   4.062   2.279  16.926 -0.0853  0.2091 -0.7642
  212MPD1    C1 3272   4.014   2.305  17.050  0.4412 -0.6452 -0.4765
  212MPD1    C2 3273   3.908   2.226  17.096  0.1173  0.9217 -0.7506
  212MPD1    C3 3274   3.861   2.123  17.019 -0.3115  0.4075 -0.0481
  212MPD1    C4 3275   3.892   2.112  16.887 -0.5387  0.0295 -0.1298
  212MPD1    C5 3276   3.991   2.198  16.839 -0.1406  0.4483  0.0811
  212MPD1     H 3277   3.870   2.236  17.197  1.4668 -0.3085 -0.1128
  212MPD1    H1 3278   3.847   2.045  16.815 -0.5358 -0.5743  0.4338
  212MPD1    H2 3279   4.139   2.341  16.882 -1.1344  0.4918 -2.2447
  212MPD1    H3 3280   4.018   2.188  16.735  1.8994 -0.3473  0.6915
  212MPD1     N 3281   3.773   2.030  17.066  0.1739 -0.0103 -0.1037
  212MPD1    H5 3282   3.764   1.947  17.008 -0.0190 -1.2727  1.7222
  212MPD1    N1 3283   4.085   2.387  17.146 -0.2284  0.0399  0.0969
  212MPD1    H6 3284   4.123   2.465  17.092 -1.1343  0.9290  0.7556
  212MPD1    H7 3285   4.012   2.434  17.199 -0.7983  1.0658 -1.5856
  213MPD1     C 3286   1.391   2.872  16.070 -0.2270 -0.2523 -0.1667
  213MPD1    C1 3287   1.408   2.752  16.008  0.6885  0.4657  0.1833
  213MPD1    C2 3288   1.454   2.762  15.875  0.1722  0.6069 -0.4991
  213MPD1    C3 3289   1.440   2.879  15.803 -0.2711  0.1932  0.8050
  213MPD1    C4 3290   1.379   2.988  15.860 -1.1300  0.4858 -0.4724
  213MPD1    C5 3291   1.359   2.988  15.994  0.2107 -1.1481 -0.3136
  213MPD1     H 3292   1.504   2.678  15.828  0.4281  0.4840 -0.0012
  213MPD1    H1 3293   1.345   3.072  15.800 -0.8213  0.5610 -0.5414
  213MPD1    H2 3294   1.375   2.878  16.177 -0.3623  0.8555 -0.2492
  213MPD1    H3 3295   1.335   3.081  16.043  2.0854 -1.1066  0.5594
  213MPD1     N 3296   1.491   2.906  15.669  0.2605  0.0112  0.2305
  213MPD1    H5 3297   1.447   2.976  15.609 -0.7558  1.5196  2.7306
  213MPD1    N1 3298   1.448   2.649  16.092 -0.2100 -0.5713  0.3630
  213MPD1    H6 3299   1.402   2.639  16.182  0.3305  4.6998  1.1804
  213MPD1    H7 3300   1.452   2.563  16.037  2.4652  0.3375 -0.8992
  214MPD1     C 3301   1.161   3.084  14.779  0.4717 -0.4250 -0.1038
  214MPD1    C1 3302   1.124   2.990  14.871 -0.6375 -0.6809 -0.1295
  214MPD1    C2 3303   1.206   2.963  14.973 -0.0904  0.5641 -0.5521
  214MPD1    C3 3304   1.340   3.004  14.971 -0.3774 -0.4527 -0.4519
  214MPD1    C4 3305   1.381   3.087  14.867 -0.5130 -0.1300 -0.7552
  214MPD1    C5 3306   1.294   3.124  14.771  0.1832  0.0145  0.0031
  214MPD1     H 3307   1.164   2.906  15.055  2.2227 -1.4590 -0.7714
  214MPD1    H1 3308   1.489   3.099  14.863 -0.3120 -1.4740  0.8344
  214MPD1    H2 3309   1.092   3.134  14.711  0.9264  0.1444 -0.1417
  214MPD1    H3 3310   1.327   3.193  14.694  0.3911 -0.2176 -0.1136
  214MPD1     N 3311   1.432   2.962  15.066 -0.4800 -0.1706  0.6492
  214MPD1    H5 3312   1.525   3.003  15.065 -0.0090 -1.2403  0.8389
  214MPD1    N1 3313   0.985   2.954  14.874  0.4882  0.1175 -0.5155
  214MPD1    H6 3314   0.968   2.873  14.933 -2.0308  0.7704 -0.3399
  214MPD1    H7 3315   0.948   2.952  14.780  0.3134 -1.2347 -0.4120
  215MPD1     C 3316   1.315   3.660  10.384  0.1906 -0.0652  0.1539
  215MPD1    C1 3317   1.286   3.798  10.362 -0.6572  0.7246  0.2767
  215MPD1    C2 3318   1.356   3.897  10.430  0.2466  0.0947 -0.3654
  215MPD1    C3 3319   1.429   3.866  10.543  0.2820 -0.5721 -0.4862
  215MPD1    C4 3320   1.447   3.727  10.580 -0.1708  0.5208 -0.1688
  215MPD1    C5 3321   1.389   3.630  10.495 -0.1848 -0.2045  0.1440
  215MPD1     H 3322   1.355   4.000  10.398  0.5728  0.1673 -0.1371
  215MPD1    H1 3323   1.511   3.683  10.655  0.7281 -0.2089 -1.3558
  215MPD1    H2 3324   1.275   3.578  10.325  0.9862  0.4406 -1.0826
  215MPD1    H3 3325   1.399   3.524  10.516  1.4354 -0.2171 -0.6494
  215MPD1     N 3326   1.474   3.971  10.624 -0.5908  0.3169  0.2191
  215MPD1    H5 3327   1.446   4.063  10.592 -0.0535  1.0494  1.8502
  215MPD1    N1 3328   1.210   3.838  10.248 -0.2407 -0.3314 -0.8908
  215MPD1    H6 3329   1.157   3.924  10.256  0.9829  0.4019 -0.6414
  215MPD1    H7 3330   1.152   3.759  10.220  1.3926 -1.0883 -2.1705
  216MPD1     C 3331   2.577   0.589   0.020  0.4156  0.0351 -0.1141
  216MPD1    C1 3332   2.617   0.692  17.675  0.2060 -0.4803 -0.3384
  216MPD1    C2 3333   2.738   0.754  17.690 -0.7553 -0.2578 -0.1404
  216MPD1    C3 3334   2.814   0.727   0.066 -0.1975 -0.6009  0.0092
  216MPD1    C4 3335   2.785   0.616   0.142  0.7030 -0.2392  0.4166
  216MPD1    C5 3336   2.669   0.545   0.119  0.9516 -0.3778  0.2999
  216MPD1     H 3337   2.770   0.830  17.620 -2.5025  0.0637 -0.5861
  216MPD1    H1 3338   2.857   0.586   0.217  1.1761  0.4523  0.2382
  216MPD1    H2 3339   2.478   0.546   0.009  0.0640  0.9525 -0.4822
  216MPD1    H3 3340   2.650   0.460   0.183  1.4677 -1.9423 -1.6354
  216MPD1     N 3341   2.934   0.799   0.075  0.1089  0.4178 -0.1730
  216MPD1    H5 3342   2.956   0.856  17.728 -1.3400 -0.1890 -0.9765
  216MPD1    N1 3343   2.540   0.719  17.558 -0.4655  0.0254 -0.1085
  216MPD1    H6 3344   2.439   0.708  17.573 -0.3213 -2.4512 -0.9382
  216MPD1    H7 3345   2.552   0.816  17.528  1.2340 -0.1064  0.1850
  217MPD1     C 3346   3.253   3.995   9.902 -0.5207  0.1939 -0.0970
  217MPD1    C1 3347   3.379   4.016   9.852 -0.5800 -0.6144  0.2532
  217MPD1    C2 3348   3.479   3.927   9.894 -0.0576  0.0442 -0.2615
  217MPD1    C3 3349   3.455   3.814   9.974  0.8426 -0.3331 -0.2834
  217MPD1    C4 3350   3.328   3.793  10.019 -0.5176  0.0616  0.7402
  217MPD1    C5 3351   3.225   3.879   9.973  0.5463  0.4920 -0.0829
  217MPD1     H 3352   3.580   3.959   9.869  1.1407 -2.1780  1.8190
  217MPD1    H1 3353   3.303   3.708  10.082 -2.0823  2.3465  3.1632
  217MPD1    H2 3354   3.171   4.066   9.899 -0.5728  0.1275 -0.2315
  217MPD1    H3 3355   3.122   3.866  10.005 -0.7812  0.5966 -4.2552
  217MPD1     N 3356   3.556   3.718  10.011 -0.1537  0.2159  0.1432
  217MPD1    H5 3357   3.545   3.660  10.093 -0.4292 -2.2239 -1.6382
  217MPD1    N1 3358   3.394   4.137   9.787  0.2508 -0.5484  0.2524
  217MPD1    H6 3359   3.311   4.161   9.732  0.6256 -0.4018 -0.2478
  217MPD1    H7 3360   3.483   4.151   9.739  0.2684  2.0669  1.0322
  218MPD1     C 3361   1.630   3.817  13.353  0.6586 -0.4028  0.2797
  218MPD1    C1 3362   1.695   3.711  13.294  0.0518  0.5690 -0.7815
  218MPD1    C2 3363   1.727   3.737  13.162 -0.1522  0.0618 -0.3054
  218MPD1    C3 3364   1.687   3.843  13.087  0.4012  0.0003  0.4443
  218MPD1    C4 3365   1.609   3.939  13.150  0.2379  0.3743 -0.5139
  218MPD1    C5 3366   1.588   3.920  13.284 -0.3443  0.1507  0.0147
  218MPD1     H 3367   1.785   3.667  13.104  0.8488  0.2205  0.4952
  218MPD1    H1 3368   1.563   4.030  13.113  0.4893  1.2682  1.3774
  218MPD1    H2 3369   1.618   3.824  13.460  1.7248 -2.4266  0.5386
  218MPD1    H3 3370   1.525   3.982  13.347  0.0947 -0.7279  1.3214
  218MPD1     N 3371   1.711   3.848  12.953  0.2080 -0.6616  0.4037
  218MPD1    H5 3372   1.768   3.772  12.917 -1.3547 -2.3101  1.4571
  218MPD1    N1 3373   1.759   3.613  13.371  1.2702 -0.2631 -0.0576
  218MPD1    H6 3374   1.774   3.529  13.315  0.5471  0.7075 -1.7141
  218MPD1    H7 3375   1.710   3.587  13.456 -1.6711 -0.6205 -1.8811
  219MPD1     C 3376   1.612   4.491  12.064  0.0812  0.1451 -0.7068
  219MPD1    C1 3377   1.645   4.526  12.193 -0.3940 -0.7799 -0.5961
  219MPD1    C2 3378   1.676   4.427  12.288 -0.2708 -0.1244  0.0520
  219MPD1    C3 3379   1.694   4.295  12.254  0.1088 -0.3192 -0.2520
  219MPD1    C4 3380   1.671   4.267  12.122 -0.0894  0.4400  0.3571
  219MPD1    C5 3381   1.623   4.356  12.028 -0.3178 -1.1633  0.2726
  219MPD1     H 3382   1.703   4.460  12.388 -2.1967 -1.4243  1.0124
  219MPD1    H1 3383   1.685   4.167  12.083 -2.7689  0.4902 -0.7046
  219MPD1    H2 3384   1.584   4.557  11.982  1.4344 -1.2805 -2.3028
  219MPD1    H3 3385   1.610   4.330  11.924  0.8122  0.0295 -0.1642
  219MPD1     N 3386   1.728   4.194  12.348 -0.2185  0.5383  0.3757
  219MPD1    H5 3387   1.767   4.106  12.317  3.7591  1.9892  1.3219
  219MPD1    N1 3388   1.675   4.660  12.222 -0.0672 -0.3926 -0.5349
  219MPD1    H6 3389   1.623   4.727  12.166  0.5654  1.1572  0.7220
  219MPD1    H7 3390   1.646   4.683  12.317  0.0889 -1.7818 -0.1563
  220MPD1     C 3391   0.825   0.358   9.540  0.2491 -0.2069  0.1354
  220MPD1    C1 3392   0.911   0.415   9.632 -0.9156 -0.0276 -0.6100
  220MPD1    C2 3393   0.903   0.380   9.763  0.0670  0.5459 -0.2041
  220MPD1    C3 3394   0.828   0.272   9.805 -0.2441 -0.5415  0.6585
  220MPD1    C4 3395   0.764   0.196   9.713  0.1560  0.3653 -0.0504
  220MPD1    C5 3396   0.756   0.247   9.584  0.4595 -0.5841  0.6048
  220MPD1     H 3397   0.962   0.428   9.840  0.8944 -1.2755  0.3006
  220MPD1    H1 3398   0.709   0.104   9.734 -0.5739  1.0184  0.8748
  220MPD1    H2 3399   0.804   0.388   9.438  1.4584 -1.8475 -0.5999
  220MPD1    H3 3400   0.694   0.191   9.516 -0.7998  0.0054  1.2770
  220MPD1     N 3401   0.834   0.235   9.947 -0.2987 -0.0414  0.4721
  220MPD1    H5 3402   0.899   0.296   9.996 -0.3788  1.4292 -1.2337
  220MPD1    N1 3403   0.993   0.523   9.594 -0.1740 -1.0719  0.2712
  220MPD1    H6 3404   1.078   0.535   9.649  0.7547 -1.0169 -1.1738
  220MPD1    H7 3405   1.014   0.541   9.496 -0.7842  0.6192  0.4507
  221MPD1     C 3406   4.023   2.738  17.366  0.2734 -0.5424 -0.0735
  221MPD1    C1 3407   4.150   2.736  17.314 -0.1985  0.1534 -0.5054
  221MPD1    C2 3408   4.158   2.738  17.178 -0.3711 -0.5700 -0.1615
  221MPD1    C3 3409   4.048   2.724  17.091  0.9036 -0.1576  0.2206
  221MPD1    C4 3410   3.930   2.714  17.156 -1.0069 -0.7461  0.3546
  221MPD1    C5 3411   3.915   2.738  17.289 -0.5058 -0.7229 -0.0367
  221MPD1     H 3412   4.255   2.740  17.131  0.0344  0.5637  0.7169
  221MPD1    H1 3413   3.835   2.700  17.106 -0.7672  0.7207 -0.5372
  221MPD1    H2 3414   3.996   2.738  17.471 -0.4323  0.1482 -0.2644
  221MPD1    H3 3415   3.813   2.732  17.326 -0.2157 -1.1521  0.6931
  221MPD1     N 3416   4.045   2.724  16.947  0.1710  0.1135 -0.3732
  221MPD1    H5 3417   3.956   2.704  16.903  1.1581 -0.7853 -1.9781
  221MPD1    N1 3418   4.267   2.707  17.398  0.5748 -0.1056 -0.1117
  221MPD1    H6 3419   4.261   2.730  17.497 -1.9903  1.5700 -0.6528
  221MPD1    H7 3420   4.358   2.730  17.357 -0.5313 -0.0501 -2.5929
  222MPD1     C 3421   3.974   1.665  17.143 -0.2344 -0.6306 -0.3125
  222MPD1    C1 3422   3.953   1.581  17.251 -0.3610  0.5087  0.3816
  222MPD1    C2 3423   3.943   1.631  17.378  0.1967 -0.8071 -0.8222
  222MPD1    C3 3424   3.966   1.765  17.401 -0.1428  0.2922 -0.1408
  222MPD1    C4 3425   3.992   1.849  17.294  0.0726  0.2950  0.1328
  222MPD1    C5 3426   3.996   1.797  17.171  0.0224 -0.4962  0.4261
  222MPD1     H 3427   3.917   1.558  17.454  0.6782  1.7342  1.8023
  222MPD1    H1 3428   4.031   1.949  17.308 -0.4204  1.1273 -4.2956
  222MPD1    H2 3429   3.959   1.627  17.043 -0.6645  1.0400 -0.8834
  222MPD1    H3 3430   4.008   1.861  17.084  2.0090 -0.4665  0.7288
  222MPD1     N 3431   3.965   1.822  17.533 -0.4175 -0.3227 -0.2016
  222MPD1    H5 3432   3.982   1.922  17.535 -1.2398 -0.1563 -1.0364
  222MPD1    N1 3433   3.905   1.448  17.222 -0.7721 -0.6652  0.1667
  222MPD1    H6 3434   3.925   1.408  17.131  1.6724 -0.4358  0.6039
  222MPD1    H7 3435   3.948   1.383  17.288  0.6197  0.3178  0.2309
  223MPD1     C 3436   3.711   1.424   0.734  0.5639  0.3405 -0.1373
  223MPD1    C1 3437   3.637   1.420   0.616  0.1107 -0.3207 -0.1404
  223MPD1    C2 3438   3.673   1.506   0.515 -0.2932  0.8484  0.3429
  223MPD1    C3 3439   3.783   1.593   0.524 -0.5713 -0.2856  0.4485
  223MPD1    C4 3440   3.860   1.582   0.635  0.0690 -0.0972 -0.3595
  223MPD1    C5 3441   3.823   1.500   0.741 -0.5984 -0.1685  0.1206
  223MPD1     H 3442   3.622   1.509   0.419  2.8360 -0.6649 -1.3441
  223MPD1    H1 3443   3.950   1.642   0.643  0.2580 -0.4120 -0.1364
  223MPD1    H2 3444   3.687   1.359   0.817  0.3600 -0.7814 -1.0854
  223MPD1    H3 3445   3.886   1.501   0.829  0.4082 -0.1725 -0.5997
  223MPD1     N 3446   3.818   1.677   0.412 -0.9084 -0.4439  0.4899
  223MPD1    H5 3447   3.765   1.659   0.327 -1.4252 -1.3304  0.9992
  223MPD1    N1 3448   3.521   1.337   0.610 -1.0568 -0.2534  0.1877
  223MPD1    H6 3449   3.520   1.249   0.660 -0.8309 -0.8677 -0.8778
  223MPD1    H7 3450   3.486   1.326   0.514 -0.9432 -0.3506  0.1575
  224MPD1     C 3451   4.675   0.194   9.365  0.1017  0.4217  0.3563
  224MPD1    C1 3452   0.039   0.100   9.335 -0.5107 -0.4195  0.1556
  224MPD1    C2 3453   0.068   0.004   9.432  0.0392  0.6299 -0.2981
  224MPD1    C3 3454   0.017   0.014   9.557 -0.2459 -0.4003 -0.2517
  224MPD1    C4 3455   4.654   0.108   9.589  0.0398  0.7897  0.1297
  224MPD1    C5 3456   4.620   0.198   9.492 -0.3407  0.4312  0.0653
  224MPD1     H 3457   0.128   4.652   9.404  2.0221  1.6831  0.7630
  224MPD1    H1 3458   4.613   0.111   9.689  0.6117 -2.1357  0.4719
  224MPD1    H2 3459   4.648   0.260   9.283 -0.8725 -3.1915 -2.2201
  224MPD1    H3 3460   4.536   0.262   9.515 -0.2964  0.8958 -1.0519
  224MPD1     N 3461   0.045   4.669   9.670 -0.0803  0.4120  0.2742
  224MPD1    H5 3462   4.727   4.688   9.755  3.1305  0.5647  2.1812
  224MPD1    N1 3463   0.076   0.070   9.201 -0.0987  0.2426 -0.4274
  224MPD1    H6 3464   0.172   0.037   9.202  0.5549  2.1741  0.2788
  224MPD1    H7 3465   0.074   0.145   9.133 -0.1819  1.3039  0.7359
  225MPD1     C 3466   1.540   0.597  12.526 -0.1120 -0.6274 -0.1748
  225MPD1    C1 3467   1.428   0.651  12.586  0.6234  0.2985  0.2613
  225MPD1    C2 3468   1.319   0.658  12.503 -0.1957  0.4313 -0.1807
  225MPD1    C3 3469   1.310   0.567  12.400  0.6667 -0.7194  0.0402
  225MPD1    C4 3470   1.416   0.492  12.352  0.5392  0.0167  0.5763
  225MPD1    C5 3471   1.532   0.507  12.415  0.1655 -0.1332 -0.2324
  225MPD1     H 3472   1.240   0.729  12.524 -0.7943 -0.0813 -0.6655
  225MPD1    H1 3473   1.397   0.417  12.275  0.8690  0.0290  0.4830
  225MPD1    H2 3474   1.637   0.597  12.574 -0.0750  0.2173 -0.2474
  225MPD1    H3 3475   1.610   0.441  12.379 -0.1432  0.5749 -2.2163
  225MPD1     N 3476   1.192   0.542  12.334 -0.6828 -0.6979 -0.2709
  225MPD1    H5 3477   1.198   0.484  12.251 -2.6593  0.4721 -1.2373
  225MPD1    N1 3478   1.442   0.741  12.693 -0.8462 -0.1502  0.2718
  225MPD1    H6 3479   1.515   0.722  12.761 -0.8897  0.6876  0.5546
  225MPD1    H7 3480   1.351   0.765  12.733 -1.5472 -1.5635 -0.4548
  226MPD1     C 3481   3.442   0.962   9.632  1.1102 -0.1261 -0.5023
  226MPD1    C1 3482   3.442   0.822   9.647  0.0583  0.4691 -0.3677
  226MPD1    C2 3483   3.557   0.753   9.628 -0.3449  0.0494 -0.0223
  226MPD1    C3 3484   3.677   0.824   9.619  0.9372  0.2169  0.3078
  226MPD1    C4 3485   3.668   0.960   9.599  0.0585  0.3390  0.8332
  226MPD1    C5 3486   3.548   1.029   9.596  0.3665 -0.1624 -0.1633
  226MPD1     H 3487   3.553   0.645   9.625 -4.0470  0.2087  0.2975
  226MPD1    H1 3488   3.759   1.009   9.568 -0.8569  0.4032 -1.7690
  226MPD1    H2 3489   3.349   1.018   9.635  0.5439 -1.0875 -0.3075
  226MPD1    H3 3490   3.542   1.136   9.583 -0.9473 -0.1722  0.3651
  226MPD1     N 3491   3.798   0.754   9.625  0.8811  0.2513  0.3244
  226MPD1    H5 3492   3.794   0.654   9.613 -5.1705  0.2912  1.8944
  226MPD1    N1 3493   3.315   0.757   9.652  0.2968  0.4598 -0.1910
  226MPD1    H6 3494   3.326   0.661   9.685 -0.4458  0.6244  0.5249
  226MPD1    H7 3495   3.236   0.806   9.694  1.1285 -0.2450  2.1878
  227MPD1     C 3496   4.268   4.660   9.928  0.2803  0.0061 -0.6146
  227MPD1    C1 3497   4.367   0.018   9.923 -0.0654 -0.3834 -0.3181
  227MPD1    C2 3498   4.326   0.145   9.883 -0.1192  0.1293 -0.5358
  227MPD1    C3 3499   4.199   0.190   9.863 -0.3155 -0.3029  0.5908
  227MPD1    C4 3500   4.101   0.093   9.861 -0.2048 -0.0088  0.2779
  227MPD1    C5 3501   4.136   4.699   9.901  0.0438  0.5554 -0.0512
  227MPD1     H 3502   4.402   0.221   9.867 -0.5428  0.5494 -0.5660
  227MPD1    H1 3503   3.997   0.112   9.835  0.6867  1.3958 -2.3061
  227MPD1    H2 3504   4.287   4.554   9.943  2.9380  0.7866  1.3569
  227MPD1    H3 3505   4.055   4.628   9.907 -0.0736  0.6309 -0.7379
  227MPD1     N 3506   4.186   0.317   9.810  0.0565  0.5336  0.4203
  227MPD1    H5 3507   4.269   0.375   9.818 -1.2075  2.3723  0.2261
  227MPD1    N1 3508   4.503   4.714   9.922  0.6052  0.2607 -0.3251
  227MPD1    H6 3509   4.572   0.053   9.935 -1.0782  1.5599  1.4247
  227MPD1    H7 3510   4.514   4.644   9.995  0.6170  0.0880 -0.4890
  228MPD1     C 3511   3.463   2.694  12.844  0.2277 -0.6498 -0.1195
  228MPD1    C1 3512   3.379   2.807  12.856 -0.4259  0.1375  0.0024
  228MPD1    C2 3513   3.255   2.787  12.922  0.2837 -0.8602 -0.4931
  228MPD1    C3 3514   3.220   2.674  12.985  0.6833 -0.3092  0.4798
  228MPD1    C4 3515   3.306   2.565  12.980 -0.1397 -0.7097 -0.3449
  228MPD1    C5 3516   3.427   2.577  12.914  0.7271 -0.3232  0.1110
  228MPD1     H 3517   3.188   2.870  12.903  0.5549  0.1825  3.1791
  228MPD1    H1 3518   3.276   2.470  13.023  0.6868 -0.2393  1.2524
  228MPD1    H2 3519   3.549   2.696  12.778 -1.1846 -0.6497 -1.9558
  228MPD1    H3 3520   3.492   2.490  12.916  0.3730 -0.5489  1.7709
  228MPD1     N 3521   3.084   2.659  13.036  0.5379 -0.6476 -0.0833
  228MPD1    H5 3522   3.024   2.739  13.019 -0.8128 -1.5948  0.2304
  228MPD1    N1 3523   3.391   2.909  12.762 -0.1935 -0.1511  0.7837
  228MPD1    H6 3524   3.490   2.933  12.751 -0.7890  1.1551 -1.8142
  228MPD1    H7 3525   3.343   2.988  12.804  0.1155  0.8196 -0.6786
  229MPD1     C 3526   2.117   1.716  14.788 -0.0230  0.2012 -0.0680
  229MPD1    C1 3527   2.037   1.642  14.883  0.2156 -0.2336  0.1108
  229MPD1    C2 3528   2.101   1.542  14.960 -0.5673  0.4807 -0.4779
  229MPD1    C3 3529   2.237   1.515  14.944  0.5444  0.6754 -0.9693
  229MPD1    C4 3530   2.309   1.582  14.846  0.0811 -0.0671  1.0955
  229MPD1    C5 3531   2.252   1.683  14.773  0.4530 -0.4195  0.4700
  229MPD1     H 3532   2.041   1.484  15.030 -1.0340  1.5647  0.0307
  229MPD1    H1 3533   2.415   1.563  14.833  0.1082  0.0760  1.1130
  229MPD1    H2 3534   2.082   1.799  14.728 -0.8693 -0.0337  0.1061
  229MPD1    H3 3535   2.307   1.727  14.691  1.8634 -1.2898  0.9523
  229MPD1     N 3536   2.304   1.417  15.023  0.2061  0.3324 -0.1847
  229MPD1    H5 3537   2.403   1.414  15.006  0.0953 -0.4588 -0.6703
  229MPD1    N1 3538   1.903   1.680  14.912  0.4722  0.9433  0.4826
  229MPD1    H6 3539   1.843   1.612  14.957  1.0518 -0.3795 -0.7604
  229MPD1    H7 3540   1.852   1.725  14.836  0.7609  1.2104  0.4447
  230MPD1     C 3541   2.927   1.509  15.763 -0.1765 -0.0068  0.3497
  230MPD1    C1 3542   2.911   1.373  15.771 -0.2963  0.4914  0.3657
  230MPD1    C2 3543   2.825   1.317  15.678 -0.9762 -0.1238 -0.6754
  230MPD1    C3 3544   2.760   1.390  15.582 -0.2510  0.4640 -0.0337
  230MPD1    C4 3545   2.787   1.524  15.572 -0.2710 -0.3741 -0.4228
  230MPD1    C5 3546   2.867   1.585  15.667 -0.2594  0.2589 -0.2292
  230MPD1     H 3547   2.804   1.211  15.682  1.7348 -0.6320  0.0256
  230MPD1    H1 3548   2.743   1.588  15.497  1.3219 -0.9185 -1.8197
  230MPD1    H2 3549   3.000   1.556  15.828  1.0386  0.0347 -1.0462
  230MPD1    H3 3550   2.883   1.692  15.663  1.3513  0.0975  1.5021
  230MPD1     N 3551   2.677   1.325  15.490  0.4630  0.0996  0.3273
  230MPD1    H5 3552   2.640   1.235  15.517  0.2306  1.0068  3.0227
  230MPD1    N1 3553   2.954   1.300  15.885 -0.2849  0.1242  0.0018
  230MPD1    H6 3554   2.966   1.201  15.864  0.9631  0.4630 -0.8946
  230MPD1    H7 3555   3.041   1.333  15.925 -2.0718  1.3152  2.8993
  231MPD1     C 3556   0.866   3.062  15.638  0.3464  0.2089  0.0921
  231MPD1    C1 3557   0.820   3.121  15.527 -0.2767  0.0684  0.4556
  231MPD1    C2 3558   0.907   3.159  15.424  0.1017  0.5986  0.4496
  231MPD1    C3 3559   1.042   3.150  15.429  0.2082  0.1189 -0.9595
  231MPD1    C4 3560   1.089   3.076  15.540 -0.4732 -0.4345  0.1493
  231MPD1    C5 3561   1.000   3.032  15.638 -0.1295 -0.2898 -0.0607
  231MPD1     H 3562   0.858   3.197  15.335  1.2102  0.2603 -0.3150
  231MPD1    H1 3563   1.196   3.062  15.552 -0.6192 -0.9028  0.8762
  231MPD1    H2 3564   0.805   3.014  15.714 -0.4058 -0.1807 -0.7554
  231MPD1    H3 3565   1.044   2.976  15.721  1.7279  0.6519 -0.3979
  231MPD1     N 3566   1.114   3.200  15.328  0.1360 -0.4087 -0.7334
  231MPD1    H5 3567   1.067   3.248  15.252  0.4822 -0.7447 -1.1597
  231MPD1    N1 3568   0.685   3.112  15.489 -0.1709 -0.0185  0.0010
  231MPD1    H6 3569   0.625   3.112  15.571 -1.5716 -1.1037 -1.0308
  231MPD1    H7 3570   0.658   3.185  15.423 -1.6874  0.4318  1.1303
  232MPD1     C 3571   2.417   1.104   0.772  0.6846 -0.9497  0.4386
  232MPD1    C1 3572   2.495   1.008   0.703  0.5179 -0.5656  0.0828
  232MPD1    C2 3573   2.460   0.974   0.570 -0.6538  0.1358  0.1793
  232MPD1    C3 3574   2.374   1.055   0.500  0.0391  1.0767  0.0051
  232MPD1    C4 3575   2.306   1.153   0.567 -0.2725  1.4771  0.6540
  232MPD1    C5 3576   2.326   1.179   0.699  0.4505  0.4800  0.8111
  232MPD1     H 3577   2.502   0.886   0.523 -0.4071 -0.1245  0.8853
  232MPD1    H1 3578   2.234   1.218   0.518 -1.0416 -1.1501 -1.6731
  232MPD1    H2 3579   2.431   1.124   0.878  1.2304  0.8403  0.0268
  232MPD1    H3 3580   2.266   1.249   0.755 -1.6100  0.4047 -1.3050
  232MPD1     N 3581   2.358   1.037   0.358  0.2138  0.3317 -0.1009
  232MPD1    H5 3582   2.401   0.960   0.309  0.7700 -0.0979  1.0801
  232MPD1    N1 3583   2.573   0.927   0.784  0.3051 -0.1432 -0.2560
  232MPD1    H6 3584   2.607   0.989   0.857  0.1964  0.2821 -0.5609
  232MPD1    H7 3585   2.657   0.907   0.729  0.8615  1.5093 -0.0259
  233MPD1     C 3586   4.683   4.237   1.591  0.3194 -0.7824 -0.2904
  233MPD1    C1 3587   4.563   4.183   1.559 -0.3812 -0.9034 -0.1141
  233MPD1    C2 3588   4.561   4.048   1.532  0.0021  0.3543 -0.1527
  233MPD1    C3 3589   4.676   3.973   1.526 -0.1115  0.0294 -0.0555
  233MPD1    C4 3590   0.062   4.033   1.551 -0.4186  0.0722  0.2655
  233MPD1    C5 3591   0.067   4.164   1.585 -0.1509  0.1938  0.0943
  233MPD1     H 3592   4.467   3.995   1.532  0.5275 -0.5627  3.0512
  233MPD1    H1 3593   0.158   3.983   1.556 -0.6368  0.0184  4.4201
  233MPD1    H2 3594   4.684   4.339   1.627  0.1276 -1.2926  1.1792
  233MPD1    H3 3595   0.160   4.212   1.613  0.2155 -0.1930 -0.4751
  233MPD1     N 3596   4.676   3.832   1.515  0.3035  0.1941 -0.3929
  233MPD1    H5 3597   0.030   3.781   1.517 -0.0471 -0.4137 -0.2766
  233MPD1    N1 3598   4.445   4.252   1.583 -0.0532  0.2212  0.0513
  233MPD1    H6 3599   4.443   4.353   1.568 -0.3456  0.3507  0.9677
  233MPD1    H7 3600   4.363   4.223   1.531  0.7361 -0.3837 -0.8567
  234MPD1     C 3601   0.106   2.695   9.408 -0.4028 -0.5471  1.2649
  234MPD1    C1 3602   4.710   2.734   9.423  0.4620 -0.2938  0.1064
  234MPD1    C2 3603   4.701   2.867   9.461 -0.4210 -0.2426  0.6106
  234MPD1    C3 3604   0.079   2.952   9.483 -0.1852 -0.3670  0.6009
  234MPD1    C4 3605   0.206   2.897   9.468  0.2238  0.1720  0.1951
  234MPD1    C5 3606   0.216   2.770   9.431 -0.1131  0.0756  0.4091
  234MPD1     H 3607   4.602   2.904   9.486 -0.1592  1.0564 -0.3033
  234MPD1    H1 3608   0.295   2.959   9.475  0.5114 -0.1518 -0.5108
  234MPD1    H2 3609   0.120   2.594   9.371 -0.1851  0.4759 -1.4478
  234MPD1    H3 3610   0.308   2.714   9.418  1.0229  1.6840  1.5071
  234MPD1     N 3611   0.060   3.082   9.539 -0.2319  0.5200  0.0734
  234MPD1    H5 3612   4.696   3.106   9.553  0.2528  0.5406  3.6456
  234MPD1    N1 3613   4.605   2.656   9.385  0.1282 -0.3127 -0.2182
  234MPD1    H6 3614   4.521   2.674   9.440  1.1279 -0.2483  1.3060
  234MPD1    H7 3615   4.627   2.557   9.401  1.3245 -0.0541 -0.2677
  235MPD1     C 3616   1.438   0.295  10.139  0.4040  0.3052  0.1577
  235MPD1    C1 3617   1.440   0.342  10.014  0.0285  0.1758 -0.3906
  235MPD1    C2 3618   1.512   0.457   9.985  0.1711 -0.0965 -0.0435
  235MPD1    C3 3619   1.590   0.517  10.085  0.3772  0.1069 -0.0067
  235MPD1    C4 3620   1.591   0.461  10.210 -0.1137  0.4191  0.3040
  235MPD1    C5 3621   1.508   0.360  10.239  0.6455 -0.5315  0.6090
  235MPD1     H 3622   1.509   0.494   9.883 -1.9569  0.7945  0.3311
  235MPD1    H1 3623   1.662   0.488  10.288 -1.7438  2.0461  1.2178
  235MPD1    H2 3624   1.377   0.214  10.176  0.3153 -0.4926 -1.7834
  235MPD1    H3 3625   1.517   0.313  10.337 -0.9771  1.3924  1.6784
  235MPD1     N 3626   1.680   0.623  10.046  0.2250  1.3433 -0.1064
  235MPD1    H5 3627   1.659   0.657   9.953  0.3958 -1.1108 -1.0335
  235MPD1    N1 3628   1.349   0.283   9.926 -0.1909 -0.2302 -0.7525
  235MPD1    H6 3629   1.384   0.299   9.832 -0.3519 -0.0762 -0.7860
  235MPD1    H7 3630   1.350   0.182   9.940  1.6994  0.3766  3.3976
  236MPD1     C 3631   1.067   1.855   8.965  0.1341 -0.4541 -0.8005
  236MPD1    C1 3632   1.018   1.730   9.004  0.5220  0.6907 -0.3908
  236MPD1    C2 3633   1.005   1.698   9.139  0.0520  0.1669  1.2854
  236MPD1    C3 3634   1.048   1.788   9.235 -0.1006 -0.2853  0.2650
  236MPD1    C4 3635   1.109   1.904   9.193  0.2964  0.4318 -0.3973
  236MPD1    C5 3636   1.114   1.938   9.064 -0.1229 -0.0352  0.0410
  236MPD1     H 3637   0.956   1.604   9.162 -0.3487 -0.5881 -2.6444
  236MPD1    H1 3638   1.162   1.969   9.261  0.5140 -0.5587  0.3817
  236MPD1    H2 3639   1.067   1.895   8.864  0.8143 -0.6187 -0.8626
  236MPD1    H3 3640   1.168   2.031   9.048 -0.3365 -0.1363 -1.3280
  236MPD1     N 3641   1.041   1.769   9.373 -0.2010  0.0702  0.1168
  236MPD1    H5 3642   1.077   1.845   9.429  3.3511 -0.9218 -0.8442
  236MPD1    N1 3643   0.947   1.659   8.904  0.0041 -0.0859 -0.1712
  236MPD1    H6 3644   0.921   1.562   8.923 -1.2098  0.5428  1.3479
  236MPD1    H7 3645   0.978   1.670   8.808 -1.2858 -1.2377 -0.7170
  237MPD1     C 3646   1.597   4.303  14.866  0.7345  0.5645 -0.0044
  237MPD1    C1 3647   1.578   4.241  14.989  0.1304  0.3025  0.1045
  237MPD1    C2 3648   1.468   4.268  15.070  1.1287 -0.1193  0.2036
  237MPD1    C3 3649   1.371   4.359  15.033  0.8349  0.3743  0.0886
  237MPD1    C4 3650   1.389   4.422  14.907 -0.6545  0.3538  0.1582
  237MPD1    C5 3651   1.500   4.389  14.826 -0.2595  0.1169 -0.1341
  237MPD1     H 3652   1.459   4.212  15.162 -1.0222 -2.1083 -1.2156
  237MPD1    H1 3653   1.325   4.508  14.889 -2.3629 -1.4106 -2.2839
  237MPD1    H2 3654   1.677   4.279  14.797 -0.4696 -0.6158 -0.9875
  237MPD1    H3 3655   1.518   4.434  14.729  0.0192  1.7424  0.6851
  237MPD1     N 3656   1.265   4.390  15.110  0.0050  0.1353 -0.1401
  237MPD1    H5 3657   1.202   4.454  15.063  0.8683  0.4741 -0.8422
  237MPD1    N1 3658   1.685   4.168  15.040  0.7270 -0.5763 -0.4457
  237MPD1    H6 3659   1.744   4.126  14.968 -2.2199 -1.9205 -2.1124
  237MPD1    H7 3660   1.648   4.094  15.099  0.7598 -0.3293 -0.1220
  238MPD1     C 3661   3.461   2.995  15.323  0.0559 -0.0827 -0.1119
  238MPD1    C1 3662   3.388   2.883  15.351 -0.7019  0.2579  0.0909
  238MPD1    C2 3663   3.269   2.863  15.284  0.1408  0.3098  0.4390
  238MPD1    C3 3664   3.202   2.965  15.224 -0.4960 -0.6428 -0.5465
  238MPD1    C4 3665   3.270   3.081  15.199  0.6684  0.2677  0.2556
  238MPD1    C5 3666   3.408   3.092  15.239  0.6019 -0.1233  0.0560
  238MPD1     H 3667   3.213   2.781  15.327  1.4939 -1.6391 -1.5636
  238MPD1    H1 3668   3.231   3.165  15.142 -2.2650 -1.3265 -0.0921
  238MPD1    H2 3669   3.558   3.004  15.371 -1.2154  1.0716  2.2592
  238MPD1    H3 3670   3.463   3.185  15.231 -0.6934  0.8039  1.7702
  238MPD1     N 3671   3.060   2.960  15.200  0.7901  0.0050  0.7231
  238MPD1    H5 3672   3.018   3.052  15.191  0.6610 -0.1569 -0.2736
  238MPD1    N1 3673   3.442   2.779  15.424 -0.2298 -0.5796  0.3058
  238MPD1    H6 3674   3.369   2.719  15.460 -0.2207 -0.5228  0.4206
  238MPD1    H7 3675   3.495   2.816  15.504 -0.2178 -0.9135  0.4517
  239MPD1     C 3676   3.195   3.369  14.659  0.5171  0.3333 -0.4363
  239MPD1    C1 3677   3.246   3.349  14.536 -0.3020  0.3876  0.4455
  239MPD1    C2 3678   3.204   3.432  14.431 -0.3155  0.9874 -0.4193
  239MPD1    C3 3679   3.121   3.536  14.452  0.3848  0.6818  0.0317
  239MPD1    C4 3680   3.074   3.550  14.577  0.2378  0.1664 -0.6241
  239MPD1    C5 3681   3.097   3.461  14.674  0.0786  0.3492 -0.4360
  239MPD1     H 3682   3.238   3.416  14.330 -1.0108 -1.5401 -0.2411
  239MPD1    H1 3683   3.003   3.630  14.597  1.2382  1.3519 -1.8270
  239MPD1    H2 3684   3.214   3.306  14.745  0.1852  2.0255  0.8874
  239MPD1    H3 3685   3.045   3.465  14.769 -1.7725 -2.0023 -1.3334
  239MPD1     N 3686   3.081   3.629  14.352 -0.0985  0.2000  0.4124
  239MPD1    H5 3687   2.987   3.662  14.366  0.0283  0.5078  0.5243
  239MPD1    N1 3688   3.309   3.230  14.506 -0.3098 -0.0142 -0.0209
  239MPD1    H6 3689   3.363   3.254  14.423  0.3096  0.4536  0.5295
  239MPD1    H7 3690   3.368   3.214  14.587 -0.6409 -0.4725  0.1331
  240MPD1     C 3691   2.890   3.417  13.913  0.3636 -0.0815 -0.1887
  240MPD1    C1 3692   2.753   3.424  13.889  0.4348  0.3840  0.8737
  240MPD1    C2 3693   2.665   3.457  13.993 -0.4407 -0.1027 -0.4184
  240MPD1    C3 3694   2.710   3.489  14.119 -0.0522 -0.6836  0.6845
  240MPD1    C4 3695   2.850   3.487  14.133 -0.9677  0.2622 -0.3556
  240MPD1    C5 3696   2.937   3.438  14.040 -0.4121 -0.5335  0.0901
  240MPD1     H 3697   2.558   3.443  13.982 -0.3369 -0.5659 -0.8507
  240MPD1    H1 3698   2.888   3.516  14.231 -1.1303  3.3784 -1.2297
  240MPD1    H2 3699   2.965   3.407  13.835  1.4415 -1.8442  1.0992
  240MPD1    H3 3700   3.045   3.437  14.055 -0.4515  0.6744  0.4080
  240MPD1     N 3701   2.625   3.527  14.227 -0.6199  0.2298  0.4559
  240MPD1    H5 3702   2.525   3.512  14.214 -0.2391 -1.4814 -0.4650
  240MPD1    N1 3703   2.713   3.381  13.762 -0.5250 -0.3124  0.2319
  240MPD1    H6 3704   2.615   3.399  13.742  0.1101  3.1033  0.2887
  240MPD1    H7 3705   2.783   3.389  13.689 -0.3590 -2.0343  0.1926
  241MPD1     C 3706   2.719   3.314  15.304 -0.3257 -0.0747  0.4001
  241MPD1    C1 3707   2.819   3.330  15.204  0.0333 -0.1572  0.4481
  241MPD1    C2 3708   2.778   3.371  15.083  0.5548 -0.0644  0.0588
  241MPD1    C3 3709   2.649   3.363  15.038 -0.3088  0.9908  0.2142
  241MPD1    C4 3710   2.555   3.324  15.133 -0.4635  0.8446  0.0016
  241MPD1    C5 3711   2.590   3.308  15.262 -0.6182 -0.1207 -0.1532
  241MPD1     H 3712   2.855   3.401  15.013 -2.9337  1.3806 -3.1552
  241MPD1    H1 3713   2.453   3.304  15.102 -1.3901  0.2275  3.4717
  241MPD1    H2 3714   2.743   3.302  15.409 -0.2198 -1.1118  0.2625
  241MPD1    H3 3715   2.510   3.287  15.333  1.1823 -1.0770  1.5749
  241MPD1     N 3716   2.608   3.392  14.904 -0.0493  0.4110  0.2474
  241MPD1    H5 3717   2.510   3.381  14.880 -0.2391  0.5944  0.9239
  241MPD1    N1 3718   2.956   3.340  15.249 -0.2943 -0.5316  0.3885
  241MPD1    H6 3719   3.023   3.310  15.179 -0.3003  3.1446 -1.2029
  241MPD1    H7 3720   2.972   3.281  15.331  0.0045  2.1749  2.3071
  242MPD1     C 3721   2.185   1.480  16.187  0.5907  0.0557 -0.3445
  242MPD1    C1 3722   2.063   1.551  16.158 -0.7594  0.4330 -0.1876
  242MPD1    C2 3723   2.032   1.543  16.020 -0.2392 -0.1512 -0.1817
  242MPD1    C3 3724   2.096   1.470  15.927  0.3713  0.2945 -0.0799
  242MPD1    C4 3725   2.199   1.386  15.969  0.1391 -0.0012 -0.3815
  242MPD1    C5 3726   2.240   1.394  16.098  0.2196  0.0666 -0.4935
  242MPD1     H 3727   1.954   1.605  15.978  2.2651  3.5424  0.6430
  242MPD1    H1 3728   2.263   1.329  15.902  2.1075  2.2566 -0.4388
  242MPD1    H2 3729   2.215   1.489  16.291 -1.4476 -0.8778  0.3313
  242MPD1    H3 3730   2.333   1.345  16.126 -0.1488  0.0956  0.8012
  242MPD1     N 3731   2.065   1.468  15.790  0.2169 -0.1220 -0.4792
  242MPD1    H5 3732   2.127   1.428  15.720  0.6726  0.4102 -0.3851
  242MPD1    N1 3733   2.003   1.636  16.249 -0.1107  0.1119 -0.5191
  242MPD1    H6 3734   1.904   1.651  16.233 -0.1830  0.7813  0.5637
  242MPD1    H7 3735   2.010   1.597  16.342  1.7186 -2.0033 -1.5247
  243MPD1     C 3736   3.808   1.242  17.613 -0.3564  0.0715 -0.1547
  243MPD1    C1 3737   3.889   1.189  17.511 -0.0616  0.1354  0.9578
  243MPD1    C2 3738   3.843   1.076  17.451 -0.4282  0.9663  0.3908
  243MPD1    C3 3739   3.739   1.000  17.503 -0.6820  0.0553 -0.3599
  243MPD1    C4 3740   3.658   1.053  17.604  0.2771 -0.4751  0.6996
  243MPD1    C5 3741   3.694   1.174  17.662 -0.3350  0.1812  0.6848
  243MPD1     H 3742   3.901   1.034  17.369  0.1020  2.3239  0.0664
  243MPD1    H1 3743   3.573   1.002  17.647  1.1264 -0.0350  2.8926
  243MPD1    H2 3744   3.842   1.333  17.662 -0.3972  0.2265 -0.4122
  243MPD1    H3 3745   3.634   1.209   0.010 -1.9105 -0.4412 -0.1947
  243MPD1     N 3746   3.705   0.882  17.444 -0.5395 -0.2979 -0.3746
  243MPD1    H5 3747   3.756   0.864  17.358 -0.2352 -1.7440  0.1052
  243MPD1    N1 3748   3.980   1.267  17.447  0.4907 -0.1181  0.7963
  243MPD1    H6 3749   4.045   1.213  17.390  2.1347  1.4425  1.2045
  243MPD1    H7 3750   4.027   1.337  17.505 -0.6586 -0.1280  1.7235
  244MPD1     C 3751   2.849   0.375  17.524  0.0055 -0.1063  0.3616
  244MPD1    C1 3752   2.950   0.353  17.616 -0.9541  0.2806  0.0488
  244MPD1    C2 3753   3.082   0.365  17.574 -0.0986 -0.0696  0.3877
  244MPD1    C3 3754   3.115   0.414  17.454 -0.5544 -0.2597 -0.1508
  244MPD1    C4 3755   3.012   0.427  17.369  0.4207  0.2256  0.3363
  244MPD1    C5 3756   2.884   0.412  17.396  0.8020  0.5227 -0.0357
  244MPD1     H 3757   3.166   0.334  17.636 -0.4393  1.7603  1.7811
  244MPD1    H1 3758   3.034   0.460  17.268  2.7460  1.4541  1.2595
  244MPD1    H2 3759   2.743   0.363  17.545 -0.2843  0.8561 -0.5332
  244MPD1    H3 3760   2.808   0.433  17.322 -0.9750 -0.5047  1.4955
  244MPD1     N 3761   3.249   0.445  17.427  0.1263 -0.2280  0.1988
  244MPD1    H5 3762   3.320   0.450  17.501 -0.3481 -0.1729  0.6484
  244MPD1    N1 3763   2.924   0.294   0.001  0.9310  0.5881 -0.3349
  244MPD1    H6 3764   2.978   0.326   0.081 -2.7321  0.4508  2.1355
  244MPD1    H7 3765   2.825   0.295   0.024  0.9171  0.2373 -0.3696
  245MPD1     C 3766   1.743   0.674  14.533  0.0550  0.4113  0.3467
  245MPD1    C1 3767   1.729   0.632  14.408  0.1801 -0.1868 -0.1543
  245MPD1    C2 3768   1.633   0.677  14.326  0.0428 -0.6501 -0.0354
  245MPD1    C3 3769   1.542   0.770  14.376  0.8068  0.2308  0.0721
  245MPD1    C4 3770   1.557   0.814  14.505  1.0442 -0.3581  0.1237
  245MPD1    C5 3771   1.661   0.769  14.587  0.0633  0.3273 -0.5391
  245MPD1     H 3772   1.630   0.661  14.218 -2.4719 -0.2212 -0.0441
  245MPD1    H1 3773   1.485   0.880  14.550  1.5341  0.7990 -0.7763
  245MPD1    H2 3774   1.818   0.635  14.602  0.2484  1.6756  0.8533
  245MPD1    H3 3775   1.671   0.788  14.693 -0.9930  1.7932 -0.7107
  245MPD1     N 3776   1.435   0.823  14.295 -0.6455 -0.0849 -0.0124
  245MPD1    H5 3777   1.412   0.773  14.210 -0.7938  0.4478 -0.2858
  245MPD1    N1 3778   1.809   0.534  14.356  0.5191  0.1445  0.5797
  245MPD1    H6 3779   1.907   0.534  14.385  0.6494 -1.5757  0.1925
  245MPD1    H7 3780   1.808   0.526  14.254  0.1429  1.7685  0.4550
  246MPD1     C 3781   0.750   3.832   9.397 -0.5962  0.2661 -0.3449
  246MPD1    C1 3782   0.840   3.896   9.463 -0.5373  0.1918  0.0732
  246MPD1    C2 3783   0.954   3.831   9.504  0.0229  0.4009 -0.4096
  246MPD1    C3 3784   0.969   3.693   9.484  0.3400 -0.8870  1.1099
  246MPD1    C4 3785   0.859   3.623   9.426  0.3073  0.3687  0.3085
  246MPD1    C5 3786   0.760   3.700   9.374  0.7203 -0.1468 -1.5130
  246MPD1     H 3787   1.041   3.881   9.545 -1.4470  0.9209  2.0819
  246MPD1    H1 3788   0.864   3.518   9.400  1.7916 -0.1114  2.5328
  246MPD1    H2 3789   0.658   3.874   9.358 -0.6959  0.7105  0.3592
  246MPD1    H3 3790   0.678   3.640   9.336  0.3335 -0.7801  0.3100
  246MPD1     N 3791   1.088   3.640   9.527 -0.0300 -0.3699 -0.6783
  246MPD1    H5 3792   1.167   3.699   9.550 -1.2238  1.2105 -0.6704
  246MPD1    N1 3793   0.848   4.042   9.463 -0.1259 -0.5624 -0.7931
  246MPD1    H6 3794   0.904   4.074   9.541 -0.6507  2.6438 -1.7297
  246MPD1    H7 3795   0.756   4.080   9.485  0.2458  0.4153 -0.9723
  247MPD1     C 3796   0.387   0.770  17.043  0.2314  0.5307  0.5888
  247MPD1    C1 3797   0.388   0.649  16.975 -0.1983 -0.2763 -0.0258
  247MPD1    C2 3798   0.357   0.644  16.842 -0.2742  0.6144 -0.2973
  247MPD1    C3 3799   0.327   0.765  16.775  0.0725  0.0086 -0.5677
  247MPD1    C4 3800   0.327   0.888  16.838  0.6528 -0.3721 -0.4913
  247MPD1    C5 3801   0.362   0.890  16.972 -0.0480 -0.1477  0.3010
  247MPD1     H 3802   0.342   0.550  16.791  1.3005  0.5047 -0.5518
  247MPD1    H1 3803   0.312   0.980  16.785  0.4954  1.7324  3.1940
  247MPD1    H2 3804   0.411   0.789  17.147  1.3834  2.1666  0.0393
  247MPD1    H3 3805   0.373   0.987  17.020 -0.7664  0.1591 -0.1584
  247MPD1     N 3806   0.306   0.772  16.635 -0.0947  0.0682  0.6108
  247MPD1    H5 3807   0.297   0.866  16.599 -1.8241 -0.5762 -0.6855
  247MPD1    N1 3808   0.393   0.528  17.048  0.3177  0.0691 -0.2165
  247MPD1    H6 3809   0.449   0.536  17.133  1.9567  1.9495 -1.4613
  247MPD1    H7 3810   0.428   0.444  17.002  1.5828  0.5796 -0.1950
  248MPD1     C 3811   1.056   0.163   0.502 -0.1149 -0.2176  0.5414
  248MPD1    C1 3812   0.991   0.274   0.538  0.5873  0.2687 -0.0614
  248MPD1    C2 3813   0.863   0.296   0.489 -0.0195  0.6825 -0.3599
  248MPD1    C3 3814   0.805   0.206   0.402 -0.1962 -0.7900  0.5778
  248MPD1    C4 3815   0.874   0.095   0.364 -0.5823 -0.7730  0.0814
  248MPD1    C5 3816   1.003   0.075   0.409 -0.1875 -0.6946 -0.0431
  248MPD1     H 3817   0.814   0.392   0.500 -0.9006  0.0938  0.9132
  248MPD1    H1 3818   0.823   0.024   0.300  0.6871 -0.9153 -0.7815
  248MPD1    H2 3819   1.155   0.141   0.539  0.0825 -3.1337 -1.6872
  248MPD1    H3 3820   1.064   4.725   0.375  0.4034  0.5746 -2.0579
  248MPD1     N 3821   0.674   0.235   0.364 -0.4934 -0.3428  0.2668
  248MPD1    H5 3822   0.642   0.319   0.411  0.4910  0.1952 -0.0112
  248MPD1    N1 3823   1.043   0.346   0.639 -0.2346 -0.7958  0.1174
  248MPD1    H6 3824   1.000   0.438   0.644  2.1653  0.4533 -2.0398
  248MPD1    H7 3825   1.143   0.336   0.655  0.2890  2.3889 -1.2618
  249MPD1     C 3826   3.222   1.274   9.358  0.6677 -0.2165 -0.1498
  249MPD1    C1 3827   3.212   1.144   9.373  0.1263  0.2969 -0.2601
  249MPD1    C2 3828   3.135   1.091   9.469 -0.1629  0.3705  0.3200
  249MPD1    C3 3829   3.057   1.162   9.549 -0.1375 -0.2458  0.1518
  249MPD1    C4 3830   3.059   1.302   9.528  0.1799 -0.1338 -0.5210
  249MPD1    C5 3831   3.145   1.355   9.436  0.6884  0.0722 -0.0659
  249MPD1     H 3832   3.121   0.983   9.468 -0.9079  0.4853 -0.9008
  249MPD1    H1 3833   3.004   1.377   9.584 -0.7021  0.3447 -2.0361
  249MPD1    H2 3834   3.279   1.312   9.274 -1.1634  3.6300  0.3514
  249MPD1    H3 3835   3.149   1.464   9.434  0.8413  0.1084  3.3025
  249MPD1     N 3836   2.967   1.105   9.646 -0.2869 -0.1680  0.1165
  249MPD1    H5 3837   2.963   1.004   9.655 -2.0108 -0.1784 -0.6579
  249MPD1    N1 3838   3.283   1.062   9.282  0.2535  0.2976 -0.4074
  249MPD1    H6 3839   3.275   0.964   9.311 -0.8012  0.1059 -1.3543
  249MPD1    H7 3840   3.380   1.088   9.269  0.7178 -0.5514  1.3101
  250MPD2     C 3841   4.504   4.597  13.027  1.2133 -0.0981  0.6242
  250MPD2    C1 3842   4.435   4.549  13.134 -0.5567  0.4539 -0.4681
  250MPD2    C2 3843   4.358   4.438  13.113 -0.7390  0.5863  0.1426
  250MPD2    C3 3844   4.358   4.375  12.992  0.7383 -0.3211  0.1026
  250MPD2    C4 3845   4.429   4.426  12.882  0.1997 -0.2265  0.1454
  250MPD2    C5 3846   4.504   4.534  12.901  0.7210 -0.1040 -0.2903
  250MPD2     H 3847   4.315   4.382  13.196  0.0906 -1.1692 -0.6052
  250MPD2    H1 3848   4.440   4.383  12.784 -0.3231 -1.7265  0.7427
  250MPD2    H2 3849   4.568   4.684  13.037  1.3666  0.0170 -1.4059
  250MPD2    H3 3850   4.560   4.582  12.822  1.9133 -0.9694  0.0400
  250MPD2     N 3851   4.299   4.247  12.976 -0.3961 -0.5422  0.3918
  250MPD2    H5 3852   4.320   4.201  12.888  0.0361 -1.1417  0.8023
  250MPD2    N1 3853   4.447   4.614  13.263 -0.2358  0.3270 -1.0452
  250MPD2    H7 3854   4.512   4.692  13.269  0.6993 -0.6694  1.8680
  251TMC3    C1 3855   4.436   4.643  13.486  0.1504  1.0012 -0.0694
  251TMC3    C2 3856   4.360   0.015  13.522  0.6871 -0.1647  0.0829
  251TMC3    C3 3857   4.416   0.121  13.583 -0.3470  0.2403 -0.1794
  251TMC3    C4 3858   4.570   4.636  13.515 -0.0691 -0.3539 -0.6071
  251TMC3    C5 3859   4.626   0.017  13.567  0.0181  0.1920  0.1744
  251TMC3    C6 3860   4.550   0.121  13.605 -0.2602 -0.3057  0.3416
  251TMC3     C 3861   4.393   4.557  13.381  0.7388  0.5925 -0.0757
  251TMC3     O 3862   4.280   4.509  13.397 -0.1007  0.0741  0.0675
  251TMC3     H 3863   4.256   0.016  13.494  0.9060 -0.3223 -0.7472
  251TMC3    H1 3864   4.627   4.547  13.494  1.4432  0.7101 -0.9565
  251TMC3    H2 3865   4.586   0.214  13.646 -2.3390  0.0061  1.4654
  251TMC3    C7 3866   0.032   0.019  13.544  0.0392 -0.1501  0.2693
  251TMC3    C8 3867   4.363   0.244  13.531 -0.3320 -0.2488 -0.1511
  251TMC3    O1 3868   0.088   4.641  13.543  0.3583  0.5052 -0.1452
  251TMC3    O2 3869   4.248   0.282  13.557  0.4987 -0.3441  0.2010
  252TMC3    C1 3870   3.224   1.896   9.567 -0.4391  0.7634 -0.8237
  252TMC3    C2 3871   3.352   1.912   9.528 -0.7382  0.0287  0.1639
  252TMC3    C3 3872   3.442   1.812   9.553 -0.2782 -0.1751  0.7706
  252TMC3    C4 3873   3.185   1.772   9.626  0.2516  0.1384 -0.3941
  252TMC3    C5 3874   3.285   1.672   9.647  0.1782  0.6011  0.6768
  252TMC3    C6 3875   3.415   1.693   9.614  0.5135 -0.0020  0.5352
  252TMC3     C 3876   3.135   2.008   9.585  0.5365  0.0812  0.0054
  252TMC3     O 3877   3.020   1.992   9.625 -0.4373 -0.4203 -0.2877
  252TMC3     H 3878   3.397   2.007   9.501  0.1367 -0.6523 -0.7995
  252TMC3    H1 3879   3.080   1.751   9.644  0.2235  0.1964 -0.4892
  252TMC3    H2 3880   3.498   1.627   9.633  0.9088  0.5183  0.5916
  252TMC3    C7 3881   3.248   1.554   9.714 -0.0949  0.2747 -0.5974
  252TMC3    C8 3882   3.577   1.864   9.536 -0.3052  0.8559  0.7120
  252TMC3    O1 3883   3.133   1.545   9.750  0.3036 -0.2312  0.0961
  252TMC3    O2 3884   3.599   1.938   9.441  0.2212 -0.0460 -0.2801
  253MPD2     C 3885   0.733   4.579  15.598 -0.2683 -0.2702 -0.0422
  253MPD2    C1 3886   0.609   4.534  15.567  0.5232  0.0270 -0.4041
  253MPD2    C2 3887   0.533   4.456  15.658 -0.1668  0.7521  0.6137
  253MPD2    C3 3888   0.584   4.415  15.777  0.0431  0.0994 -0.4973
  253MPD2    C4 3889   0.713   4.462  15.809  0.1669  0.5385  0.8030
  253MPD2    C5 3890   0.789   4.529  15.715  0.2157 -0.4903 -0.4039
  253MPD2     H 3891   0.436   4.417  15.629 -1.1675  2.9370  1.0511
  253MPD2    H1 3892   0.763   4.421  15.896 -1.0805  0.8207  1.6525
  253MPD2    H2 3893   0.790   4.635  15.525 -0.3992 -0.7700 -0.5319
  253MPD2    H3 3894   0.897   4.537  15.724 -0.0654  0.1428  2.4480
  253MPD2     N 3895   0.503   4.353  15.875  0.1305 -0.5483  0.5263
  253MPD2    H5 3896   0.549   4.315  15.957 -0.4692  1.4160  1.7900
  253MPD2    N1 3897   0.541   4.564  15.447 -0.0133 -0.1540 -0.6355
  253MPD2    H7 3898   0.453   4.517  15.429  0.2240  0.5001 -3.6125
  254TMC3    C1 3899   0.323   4.264  15.991  0.5336 -0.0065  0.1766
  254TMC3    C2 3900   0.196   4.286  16.022  0.6748 -0.2522  0.1608
  254TMC3    C3 3901   0.129   4.204  16.109 -0.4138  0.5265  0.1306
  254TMC3    C4 3902   0.395   4.164  16.054  0.3368  0.1940 -0.2094
  254TMC3    C5 3903   0.327   4.088  16.154  0.4329  0.1018  0.4174
  254TMC3    C6 3904   0.190   4.110  16.182  0.2751  0.0601 -0.2919
  254TMC3     C 3905   0.364   4.329  15.869  0.1113 -0.7406 -0.8589
  254TMC3     O 3906   0.275   4.383  15.805 -0.0686 -0.5296 -0.5277
  254TMC3     H 3907   0.147   4.379  15.997  2.1509  0.2877 -0.7463
  254TMC3    H1 3908   0.494   4.143  16.018  0.5888  1.6797 -0.3764
  254TMC3    H2 3909   0.135   4.044  16.247 -1.1745  1.3955 -0.1573
  254TMC3    C7 3910   0.397   4.033  16.268  0.1382 -0.2997  0.5598
  254TMC3    C8 3911   0.022   4.266  16.183 -0.7066 -0.8481 -0.3421
  254TMC3    O1 3912   0.340   3.966  16.355  0.0928  0.3099 -0.4523
  254TMC3    O2 3913   0.016   4.232  16.298 -0.1338 -0.1010  0.3536
  255MPD2     C 3914   2.961   2.277  10.484  0.4628  0.6409  0.0812
  255MPD2    C1 3915   3.015   2.390  10.548 -0.3371  0.2837  0.7010
  255MPD2    C2 3916   3.153   2.422  10.531  0.5259  0.4200 -0.6284
  255MPD2    C3 3917   3.238   2.339  10.452 -0.5702 -0.0347 -0.3221
  255MPD2    C4 3918   3.181   2.233  10.389  1.2894 -0.8971 -0.0445
  255MPD2    C5 3919   3.053   2.193  10.419  0.0966 -1.3904  0.1990
  255MPD2     H 3920   3.190   2.519  10.563  0.0156  0.3055  0.3017
  255MPD2    H1 3921   3.242   2.180  10.318  0.4666 -2.1243  0.1675
  255MPD2    H2 3922   2.857   2.252  10.499  1.3332 -2.9914  0.0865
  255MPD2    H3 3923   3.021   2.105  10.365  1.7653 -1.5358 -0.5638
  255MPD2     N 3924   3.375   2.374  10.425  0.2295  0.4458  0.2496
  255MPD2    H5 3925   3.411   2.338  10.337  0.1346 -0.8399  0.7317
  255MPD2    N1 3926   2.919   2.460  10.619 -0.7601  0.3779  0.5172
  255MPD2    H7 3927   2.824   2.440  10.591 -0.0739  1.2549 -2.3998
  256TMC3    C1 3928   2.829   2.652  10.721 -0.5569 -0.5228 -0.6657
  256TMC3    C2 3929   2.837   2.757  10.808 -0.0505 -0.3885  0.3485
  256TMC3    C3 3930   2.740   2.856  10.807  1.0479 -1.0225 -0.1044
  256TMC3    C4 3931   2.723   2.647  10.640  0.4093 -0.3646  0.3209
  256TMC3    C5 3932   2.634   2.755  10.625  0.8712  0.2030  0.3679
  256TMC3    C6 3933   2.644   2.860  10.709  0.4795  0.0291 -0.1354
  256TMC3     C 3934   2.948   2.571  10.691  0.5931  0.3183  0.3237
  256TMC3     O 3935   3.044   2.594  10.762  0.1651 -0.2793 -0.3918
  256TMC3     H 3936   2.929   2.771  10.863  0.2852 -0.5544 -0.1699
  256TMC3    H1 3937   2.725   2.577  10.558 -1.6394 -0.2488  0.1877
  256TMC3    H2 3938   2.572   2.940  10.698 -1.0436 -1.3848 -0.4427
  256TMC3    C7 3939   2.624   2.789  10.482  0.4157 -0.4682  0.7256
  256TMC3    C8 3940   2.770   2.988  10.861 -0.7341  0.6421  1.5434
  256TMC3    O1 3941   2.612   2.697  10.404  0.2355  0.1841  0.6930
  256TMC3    O2 3942   2.682   3.075  10.852 -0.2970  0.1104  0.0387
  257MPD2     C 3943   2.384   4.264  12.904 -0.3086 -0.3583  0.0885
  257MPD2    C1 3944   2.521   4.271  12.893  0.4111  0.1404  0.0850
  257MPD2    C2 3945   2.601   4.163  12.929  0.0197  0.4353  0.1068
  257MPD2    C3 3946   2.546   4.046  12.969  0.1880  0.6122 -0.8243
  257MPD2    C4 3947   2.405   4.039  12.976 -0.5804 -0.1268  0.4027
  257MPD2    C5 3948   2.327   4.148  12.947  0.1317  0.0092  0.4674
  257MPD2     H 3949   2.708   4.168  12.910 -0.3041  1.5569 -1.4479
  257MPD2    H1 3950   2.353   3.949  13.008 -1.3477  0.2575  0.2416
  257MPD2    H2 3951   2.315   4.338  12.867 -0.8882 -1.3274 -0.7590
  257MPD2    H3 3952   2.220   4.132  12.938  0.3250 -1.7363  1.1340
  257MPD2     N 3953   2.640   3.946  13.007 -0.5624  0.4703 -0.4470
  257MPD2    H5 3954   2.739   3.961  12.992 -0.2966 -0.5787  0.2095
  257MPD2    N1 3955   2.567   4.395  12.848  0.0790  0.6206  0.4813
  257MPD2    H7 3956   2.500   4.457  12.804 -1.1622 -0.5999  0.6383
  258TMC3    C1 3957   2.716   3.731  13.078  0.4799  0.4034  0.4416
  258TMC3    C2 3958   2.814   3.728  12.978  0.3126 -1.0375  0.1684
  258TMC3    C3 3959   2.894   3.614  12.964 -0.3570  0.0817  0.4731
  258TMC3    C4 3960   2.701   3.622  13.156 -0.1396  0.2968  0.1725
  258TMC3    C5 3961   2.777   3.512  13.139  0.3971 -0.3448  0.2520
  258TMC3    C6 3962   2.879   3.506  13.044 -0.5722 -0.0873 -0.0069
  258TMC3     C 3963   2.612   3.830  13.082  0.1280  0.0925  0.5051
  258TMC3     O 3964   2.507   3.793  13.136 -0.3631  0.1238 -0.4770
  258TMC3     H 3965   2.842   3.820  12.927 -1.6692 -0.5110  0.0377
  258TMC3    H1 3966   2.629   3.620  13.237  0.6359  0.5977  0.8553
  258TMC3    H2 3967   2.924   3.408  13.031  0.4549  0.2167  1.3020
  258TMC3    C7 3968   2.788   3.433  13.255 -0.0003 -0.8367  0.4479
  258TMC3    C8 3969   2.989   3.619  12.861  0.1893 -0.8595 -0.1294
  258TMC3    O1 3970   2.688   3.434  13.323  0.4418  0.0486  0.1616
  258TMC3    O2 3971   2.978   3.713  12.782 -0.1942  0.1377  0.5386
  259MPD2     C 3972   1.809   1.009   0.809  0.2741  0.2636 -0.0358
  259MPD2    C1 3973   1.751   0.899   0.758 -0.1770 -0.4612 -0.3125
  259MPD2    C2 3974   1.665   0.898   0.649 -0.5078 -0.4676  0.2976
  259MPD2    C3 3975   1.650   1.019   0.573 -0.0941  0.5718 -0.3179
  259MPD2    C4 3976   1.710   1.131   0.632  0.1245 -0.0233  0.1579
  259MPD2    C5 3977   1.782   1.133   0.751 -0.0250  0.1307  0.2405
  259MPD2     H 3978   1.631   0.803   0.609  0.7426  0.2629 -2.4880
  259MPD2    H1 3979   1.706   1.225   0.578  0.4988 -0.1914 -0.1666
  259MPD2    H2 3980   1.865   1.017   0.902  0.2741 -0.2954  0.0149
  259MPD2    H3 3981   1.837   1.218   0.791  0.2633  0.3420 -0.6103
  259MPD2     N 3982   1.575   1.015   0.451  0.0855 -0.7537  0.7334
  259MPD2    H5 3983   1.533   0.927   0.425 -1.3079  0.3571 -0.7999
  259MPD2    N1 3984   1.795   0.781   0.823  0.4888  0.1968  0.2762
  259MPD2    H7 3985   1.860   0.793   0.900 -1.3975  1.0176  1.7329
  260TMC3    C1 3986   1.482   1.093   0.254 -0.1822 -0.0750  0.3151
  260TMC3    C2 3987   1.462   1.206   0.177 -0.1170  0.4359  0.5708
  260TMC3    C3 3988   1.468   1.204   0.043  0.1560 -0.2155 -0.2136
  260TMC3    C4 3989   1.521   0.982   0.189 -0.4528  0.0679  0.5308
  260TMC3    C5 3990   1.528   0.988   0.053 -0.1434 -0.3123  0.3986
  260TMC3    C6 3991   1.506   1.096  17.709  0.5791 -0.1399  0.4697
  260TMC3     C 3992   1.539   1.126   0.383 -0.3628 -0.0522  0.3485
  260TMC3     O 3993   1.552   1.245   0.400 -0.2217  1.0741 -0.8420
  260TMC3     H 3994   1.434   1.302   0.220 -0.8428  0.9267 -1.0072
  260TMC3    H1 3995   1.572   0.903   0.243  0.8318  0.0253 -0.7252
  260TMC3    H2 3996   1.505   1.090  17.601  1.2437  0.4663  0.4361
  260TMC3    C7 3997   1.565   0.868  17.719  1.0630  0.3749  0.0592
  260TMC3    C8 3998   1.517   1.330  17.720 -0.3871  0.3027 -0.2610
  260TMC3    O1 3999   1.631   0.895  17.618 -0.7389 -0.1323  0.7674
  260TMC3    O2 4000   1.474   1.436   0.032  0.2894  0.2201 -0.2624
  261MPD2     C 4001   3.589   3.934  12.766 -0.2929 -0.5090  0.6345
  261MPD2    C1 4002   3.670   4.041  12.780 -0.8919  0.0894  0.4695
  261MPD2    C2 4003   3.636   4.158  12.730  0.2292  0.7570  0.4642
  261MPD2    C3 4004   3.511   4.180  12.668  0.2112  0.4225  0.4547
  261MPD2    C4 4005   3.426   4.072  12.656 -0.0639  0.3768  0.8703
  261MPD2    C5 4006   3.465   3.952  12.698 -0.2857  0.0499  0.5168
  261MPD2     H 4007   3.709   4.239  12.730  0.5159  0.4984  1.9601
  261MPD2    H1 4008   3.323   4.082  12.625  0.1460  3.3998  1.1781
  261MPD2    H2 4009   3.618   3.833  12.792  0.0544 -0.1120  1.7822
  261MPD2    H3 4010   3.389   3.875  12.695  2.1421 -2.3528 -0.0061
  261MPD2     N 4011   3.505   4.296  12.596 -0.4988 -0.2284  0.1406
  261MPD2    H5 4012   3.574   4.366  12.619 -0.6333  0.5869 -1.9650
  261MPD2    N1 4013   3.807   4.030  12.819  0.6530 -0.6942 -0.5114
  261MPD2    H7 4014   3.862   4.115  12.826  1.5258 -1.1999 -1.2281
  262TMC3    C1 4015   3.445   4.468  12.450  0.2401  0.1480  0.6666
  262TMC3    C2 4016   3.341   4.537  12.408 -0.5884  0.5849 -0.0876
  262TMC3    C3 4017   3.380   4.655  12.341  0.5594  0.2048 -0.5841
  262TMC3    C4 4018   3.579   4.494  12.440 -0.3678  0.3248  0.0963
  262TMC3    C5 4019   3.617   4.610  12.384  0.5232  0.2137  0.1343
  262TMC3    C6 4020   3.516   4.698  12.345  0.1869 -0.1931  0.4575
  262TMC3     C 4021   3.413   4.331  12.495 -0.4448 -0.1726  0.0884
  262TMC3     O 4022   3.318   4.266  12.444 -0.1162  0.7542  0.1190
  262TMC3     H 4023   3.238   4.504  12.412  0.2413 -2.4264 -2.9970
  262TMC3    H1 4024   3.655   4.417  12.450 -2.0484 -1.4281 -0.5899
  262TMC3    H2 4025   3.545   0.057  12.298 -1.3593 -1.0936 -2.2608
  262TMC3    C7 4026   3.743   4.666  12.420  0.3464 -0.0214  0.2495
  262TMC3    C8 4027   3.285   0.018  12.300  0.2885 -0.2779  0.5161
  262TMC3    O1 4028   3.807   4.601  12.503 -0.2337 -0.3026 -0.0188
  262TMC3    O2 4029   3.322   0.132  12.315  0.6218 -0.0409  0.4243
  263MPD2     C 4030   4.540   4.271  11.944  0.0311  0.4351  0.4590
  263MPD2    C1 4031   4.562   4.225  11.811 -0.1219  0.5052 -0.2153
  263MPD2    C2 4032   4.524   4.311  11.712  0.3537  0.6105 -0.6145
  263MPD2    C3 4033   4.457   4.433  11.736  0.2036 -0.1127  0.0794
  263MPD2    C4 4034   4.432   4.465  11.864 -0.4863  0.2292 -0.1084
  263MPD2    C5 4035   4.475   4.387  11.969  0.5662 -0.0944 -0.7532
  263MPD2     H 4036   4.554   4.291  11.610  0.5580 -0.6164 -0.3092
  263MPD2    H1 4037   4.376   4.554  11.889 -0.0931  0.9305 -1.7234
  263MPD2    H2 4038   4.582   4.209  12.023  0.3823 -1.1693 -1.0128
  263MPD2    H3 4039   4.453   4.418  12.070  0.8136  1.9281 -1.3022
  263MPD2     N 4040   4.438   4.525  11.628 -0.1254 -0.0322 -0.4008
  263MPD2    H5 4041   4.451   4.484  11.537  1.7672 -0.7464  0.2095
  263MPD2    N1 4042   4.643   4.110  11.788  0.3195 -0.4072  0.0346
  263MPD2    H7 4043   4.685   4.053  11.861  0.1777  1.1660  1.3316
  264TMC3    C1 4044   4.417   4.715  11.501 -0.0120 -0.4662  0.0093
  264TMC3    C2 4045   4.431   0.114  11.485 -0.1228 -0.0525 -0.6756
  264TMC3    C3 4046   4.494   0.166  11.374  0.1456  0.5506 -0.2993
  264TMC3    C4 4047   4.448   4.630  11.394  0.4200  0.0187  0.3927
  264TMC3    C5 4048   4.506   4.683  11.284  0.0916 -0.7041  0.3382
  264TMC3    C6 4049   4.528   0.084  11.271  0.4686 -0.1048  0.0130
  264TMC3     C 4050   4.405   4.660  11.632  0.6213 -0.0522  0.5003
  264TMC3     O 4051   4.398   0.007  11.721  0.7976  0.7901  0.3108
  264TMC3     H 4052   4.406   0.178  11.569 -3.5502 -1.1135 -0.8592
  264TMC3    H1 4053   4.405   4.531  11.380  0.8215 -0.3303  1.6578
  264TMC3    H2 4054   4.575   0.126  11.183 -2.0783  1.7983 -0.4321
  264TMC3    C7 4055   4.533   4.606  11.164  0.8685 -0.5198  0.4568
  264TMC3    C8 4056   4.592   0.282  11.375 -0.1490 -0.4715  0.5731
  264TMC3    O1 4057   4.605   4.656  11.080 -0.1468  0.7570 -0.2456
  264TMC3    O2 4058   4.694   0.266  11.305  0.1699  0.2571  0.1804
  265MPD2     C 4059   1.897   3.960  15.494  0.2674  0.3297  0.7594
  265MPD2    C1 4060   1.853   4.026  15.380  0.6281  0.2273 -0.5966
  265MPD2    C2 4061   1.913   3.994  15.251 -0.1349 -0.2164 -0.0463
  265MPD2    C3 4062   2.017   3.904  15.248 -0.3150  0.6451  0.9135
  265MPD2    C4 4063   2.062   3.850  15.361  0.1388 -0.4865  0.2967
  265MPD2    C5 4064   2.002   3.875  15.479  0.1636 -0.2298 -0.7639
  265MPD2     H 4065   1.873   4.041  15.162  2.2824 -1.1998 -1.6286
  265MPD2    H1 4066   2.146   3.782  15.355  0.2379 -0.0818 -2.6959
  265MPD2    H2 4067   1.844   3.966  15.588 -0.3817 -1.5533  0.5097
  265MPD2    H3 4068   2.037   3.834  15.573  1.7567  1.2793 -0.6813
  265MPD2     N 4069   2.073   3.845  15.132  0.2034  0.1027 -0.5697
  265MPD2    H5 4070   2.137   3.767  15.145 -0.7605 -0.5184  0.3695
  265MPD2    N1 4071   1.743   4.118  15.382 -0.3459 -0.2869 -0.3924
  265MPD2    H7 4072   1.732   4.161  15.291  2.7047  1.5255  0.1021
  266TMC3    C1 4073   1.568   4.258  15.473 -1.1759 -0.0073  0.3492
  266TMC3    C2 4074   1.492   4.288  15.583 -0.8616 -0.7801 -0.2529
  266TMC3    C3 4075   1.431   4.414  15.580 -0.1669 -0.4333 -1.1611
  266TMC3    C4 4076   1.592   4.343  15.371 -0.7954  0.0681 -0.4124
  266TMC3    C5 4077   1.534   4.470  15.380  0.3642 -0.3194  0.0075
  266TMC3    C6 4078   1.442   4.498  15.478 -0.2970  0.7308 -0.2942
  266TMC3     C 4079   1.649   4.136  15.482  0.4997  0.2513 -0.1390
  266TMC3     O 4080   1.633   4.060  15.575 -0.0897  0.0356  0.2457
  266TMC3     H 4081   1.484   4.232  15.675 -1.2223 -2.3708 -1.2644
  266TMC3    H1 4082   1.666   4.336  15.292  1.1523 -0.4565  1.4604
  266TMC3    H2 4083   1.379   4.586  15.472  0.1539  1.2336  2.1666
  266TMC3    C7 4084   1.567   4.571  15.282 -0.1028  0.8926  0.1058
  266TMC3    C8 4085   1.380   4.468  15.706 -0.0094  0.2802 -0.2985
  266TMC3    O1 4086   1.667   4.551  15.216 -0.0901 -0.7794 -0.7016
  266TMC3    O2 4087   1.322   4.389  15.782 -0.1495 -0.3915 -0.7926
  267MPD2     C 4088   3.654   1.043   0.761  0.0133 -0.5391  0.3660
  267MPD2    C1 4089   3.705   1.066   0.637 -0.5843 -0.0196 -0.1709
  267MPD2    C2 4090   3.626   1.059   0.525 -0.3351  0.1951  0.2517
  267MPD2    C3 4091   3.493   1.029   0.540 -0.2149  0.0031  0.0390
  267MPD2    C4 4092   3.444   1.005   0.669  0.0289  0.8071  0.0962
  267MPD2    C5 4093   3.527   1.016   0.779  1.1033 -0.2529  0.5887
  267MPD2     H 4094   3.665   1.086   0.428 -0.5797 -1.8263 -0.4077
  267MPD2    H1 4095   3.340   0.998   0.697 -0.3007 -1.6260 -1.7668
  267MPD2    H2 4096   3.719   1.063   0.846 -0.2837  1.4189  0.1273
  267MPD2    H3 4097   3.486   1.011   0.880 -0.1361  2.1379  0.2075
  267MPD2     N 4098   3.399   1.028   0.432 -0.0280  0.5541  0.5583
  267MPD2    H5 4099   3.300   1.016   0.453 -0.6519  1.0408 -2.1450
  267MPD2    N1 4100   3.836   1.110   0.644  0.4930 -0.1190  0.5247
  267MPD2    H7 4101   3.876   1.119   0.737 -1.0419  2.1154  0.9751
  268TMC3    C1 4102   4.047   1.178   0.574  0.1818  0.4557  0.9600
  268TMC3    C2 4103   4.103   1.285   0.509 -0.3177 -0.4736  0.2120
  268TMC3    C3 4104   4.209   1.340   0.570  0.4930  0.0707  0.2851
  268TMC3    C4 4105   4.097   1.130   0.691 -0.2129 -0.0561  0.3169
  268TMC3    C5 4106   4.212   1.189   0.742 -0.7550 -0.3934 -0.7575
  268TMC3    C6 4107   4.276   1.291   0.678 -0.0053 -0.2268 -0.6154
  268TMC3     C 4108   3.913   1.135   0.537 -0.1339  0.0261 -0.4317
  268TMC3     O 4109   3.887   1.145   0.418  0.0837  0.2816  0.0202
  268TMC3     H 4110   4.039   1.332   0.435 -0.6612 -0.1173  0.7373
  268TMC3    H1 4111   4.047   1.059   0.756 -1.6502  0.9203  0.2777
  268TMC3    H2 4112   4.374   1.331   0.701 -0.2919 -0.6463  1.3503
  268TMC3    C7 4113   4.262   1.143   0.874  0.3425  0.4095  0.2407
  268TMC3    C8 4114   4.264   1.468   0.527  0.5882 -0.2889  0.2575
  268TMC3    O1 4115   4.212   1.043   0.924  0.3870  0.7206  0.2233
  268TMC3    O2 4116   4.343   1.533   0.599 -0.4363 -0.0353  0.1343
  269MPD2     C 4117   4.424   4.705  15.302 -0.3924 -0.3804 -0.8224
  269MPD2    C1 4118   4.297   4.704  15.357  0.6784 -0.1291 -0.2953
  269MPD2    C2 4119   4.230   0.090  15.380 -0.0535 -0.3043  0.0357
  269MPD2    C3 4120   4.288   0.209  15.329 -0.2297 -0.5416 -0.3146
  269MPD2    C4 4121   4.408   0.205  15.267 -1.0541 -0.4932  0.0254
  269MPD2    C5 4122   4.472   0.088  15.252 -0.4423 -0.3668  0.7593
  269MPD2     H 4123   4.145   0.103  15.446  1.1074  0.6210  1.3538
  269MPD2    H1 4124   4.450   0.294  15.222  0.9414 -0.3470  2.2045
  269MPD2    H2 4125   4.481   4.613  15.294  0.2636 -0.1130  0.8562
  269MPD2    H3 4126   4.567   0.088  15.199  0.5841 -1.4458  2.6343
  269MPD2     N 4127   4.218   0.330  15.342  0.5345 -0.4523 -0.4622
  269MPD2    H5 4128   4.133   0.327  15.398 -0.9409 -1.5317 -2.7568
  269MPD2    N1 4129   4.250   4.576  15.380  1.0765  0.3703 -0.0869
  269MPD2    H7 4130   4.306   4.492  15.381 -1.1133 -1.0839  0.0743
  270TMC3    C1 4131   4.077   4.412  15.411 -0.4078 -0.2444 -0.3003
  270TMC3    C2 4132   3.964   4.362  15.359 -0.9187 -0.0467  0.4495
  270TMC3    C3 4133   3.926   4.230  15.361 -0.2892 -0.3268 -0.5435
  270TMC3    C4 4134   4.164   4.330  15.477 -0.2901  0.1324  0.0115
  270TMC3    C5 4135   4.130   4.202  15.481  0.2965 -0.3526  0.2317
  270TMC3    C6 4136   4.016   4.144  15.421  0.8230 -0.0582  0.0205
  270TMC3     C 4137   4.111   4.554  15.395  0.3013  0.5837  0.0150
  270TMC3     O 4138   4.017   4.630  15.403  0.3717  0.0329 -0.3226
  270TMC3     H 4139   3.903   4.430  15.301 -0.4228 -0.1591 -0.1987
  270TMC3    H1 4140   4.249   4.369  15.532 -0.7035 -0.2757  0.9475
  270TMC3    H2 4141   3.989   4.039  15.420 -0.9515  0.3655  4.4171
  270TMC3    C7 4142   4.241   4.116  15.486  0.5037  0.3549  0.0445
  270TMC3    C8 4143   3.867   4.171  15.246 -0.3268  0.3190 -0.3128
  270TMC3    O1 4144   4.330   4.146  15.566  0.1347 -0.4452 -0.3938
  270TMC3    O2 4145   3.950   4.095  15.192  0.2012 -0.6128 -0.1919
  271MPD2     C 4146   3.342   3.982  13.647  0.4787 -0.3792 -0.0298
  271MPD2    C1 4147   3.294   4.061  13.751 -0.3962  0.9861  0.1202
  271MPD2    C2 4148   3.246   4.190  13.726 -0.1394  0.7101 -0.0581
  271MPD2    C3 4149   3.222   4.234  13.595  0.1280  0.0179 -0.2740
  271MPD2    C4 4150   3.267   4.152  13.499  0.4559 -0.8012  0.2858
  271MPD2    C5 4151   3.326   4.029  13.522  0.3813  0.7056  0.2896
  271MPD2     H 4152   3.227   4.252  13.813 -0.9018  0.2786  0.0837
  271MPD2    H1 4153   3.261   4.192  13.398 -1.2878 -2.7430 -0.3855
  271MPD2    H2 4154   3.382   3.883  13.662 -0.3060 -0.7361 -0.3171
  271MPD2    H3 4155   3.371   3.978  13.438 -1.6272 -0.6455  0.0539
  271MPD2     N 4156   3.188   4.367  13.562 -0.5350 -0.3712 -0.3542
  271MPD2    H5 4157   3.195   4.404  13.468 -0.6303 -0.9865 -0.6032
  271MPD2    N1 4158   3.317   4.024  13.889 -0.9103 -0.4549  0.1278
  271MPD2    H7 4159   3.283   4.089  13.959 -1.6116  0.2480 -0.8598
  272TMC3    C1 4160   3.429   3.908  14.059  0.6442  0.2970 -0.4270
  272TMC3    C2 4161   3.541   3.834  14.075  0.0819 -0.9836 -0.2655
  272TMC3    C3 4162   3.615   3.844  14.189  0.0885 -0.1858  0.9460
  272TMC3    C4 4163   3.391   4.001  14.146 -0.7335 -0.3833  0.8083
  272TMC3    C5 4164   3.461   4.020  14.256  0.0856 -0.1962 -0.1106
  272TMC3    C6 4165   3.575   3.941  14.281  0.7865  0.3497  0.4212
  272TMC3     C 4166   3.367   3.898  13.921 -1.2000  0.4356  0.1015
  272TMC3     O 4167   3.388   3.797  13.859  0.4646  0.3498 -0.7926
  272TMC3     H 4168   3.560   3.765  13.994 -1.1007 -1.3621 -0.2133
  272TMC3    H1 4169   3.303   4.064  14.131  0.3618  1.1062  0.6037
  272TMC3    H2 4170   3.627   3.949  14.375 -0.2342  0.5417  0.9755
  272TMC3    C7 4171   3.415   4.103  14.358 -0.5380 -0.3103 -0.4957
  272TMC3    C8 4172   3.752   3.804  14.164 -0.6099  0.0453  0.2428
  272TMC3    O1 4173   3.296   4.108  14.370 -0.2220  0.9162  0.4407
  272TMC3    O2 4174   3.792   3.791  14.052  0.5342 -0.1722  0.1488
  273MPD2     C 4175   4.733   2.805  11.762 -0.3402 -0.3599 -0.1133
  273MPD2    C1 4176   0.119   2.842  11.702 -0.3326 -0.0391  0.2623
  273MPD2    C2 4177   0.111   2.910  11.581  0.3637 -0.2261 -1.0148
  273MPD2    C3 4178   4.718   2.948  11.530 -0.4322  0.1910  0.3942
  273MPD2    C4 4179   4.606   2.913  11.601  0.2920 -0.7356  0.2985
  273MPD2    C5 4180   4.610   2.841  11.716 -0.9200 -0.2164 -0.1928
  273MPD2     H 4181   0.197   2.932  11.519 -0.8525  1.1077 -2.2471
  273MPD2    H1 4182   4.507   2.941  11.566  0.3109  0.5119  1.2423
  273MPD2    H2 4183   0.008   2.752  11.856 -0.9046 -0.5107 -0.1493
  273MPD2    H3 4184   4.519   2.807  11.765 -0.7749 -2.0701 -1.2000
  273MPD2     N 4185   4.697   3.021  11.414 -0.1741  0.1436 -0.5543
  273MPD2    H5 4186   4.599   3.042  11.397 -0.8800 -0.5503  2.6403
  273MPD2    N1 4187   0.242   2.814  11.770 -0.4884  0.1901 -1.1611
  273MPD2    H7 4188   0.232   2.742  11.841  1.7879  0.2762 -0.7409
  274TMC3    C1 4189   0.001   3.153  11.225  0.4245  0.1154  0.0790
  274TMC3    C2 4190   4.603   3.144  11.196  0.4933  0.0239  0.1035
  274TMC3    C3 4191   4.564   3.232  11.099 -0.9980  0.8967 -0.0629
  274TMC3    C4 4192   0.087   3.232  11.165 -0.4717 -0.2021  0.1950
  274TMC3    C5 4193   0.045   3.322  11.073  0.7567 -0.7796  0.5416
  274TMC3    C6 4194   4.650   3.323  11.043  0.5297 -0.1492  0.0814
  274TMC3     C 4195   0.060   3.084  11.344 -0.2249  0.3203 -0.3597
  274TMC3     O 4196   0.178   3.089  11.358  0.6652 -0.0013 -0.6468
  274TMC3     H 4197   4.537   3.069  11.237  2.2134  0.0294  2.8726
  274TMC3    H1 4198   0.190   3.239  11.195  0.3676  0.9151 -2.9196
  274TMC3    H2 4199   4.612   3.393  10.970 -0.8379  1.5598  2.4127
  274TMC3    C7 4200   0.117   3.450  11.083  0.1360 -0.4319 -0.0307
  274TMC3    C8 4201   4.426   3.234  11.069 -0.9238 -0.0162  0.2158
  274TMC3    O1 4202   0.054   3.543  11.125 -0.2333 -0.6184 -0.0639
  274TMC3    O2 4203   4.386   3.339  11.026 -0.2978  0.5476  0.2951
  275MPD2     C 4204   4.522   0.822  14.595  0.3491 -0.6068  0.0393
  275MPD2    C1 4205   4.475   0.785  14.720 -0.6391  0.1252  1.0268
  275MPD2    C2 4206   4.365   0.703  14.735 -0.0294 -0.0362 -0.2089
  275MPD2    C3 4207   4.293   0.663  14.629  0.3521  0.3384 -0.6635
  275MPD2    C4 4208   4.334   0.695  14.500 -0.0293  0.8296 -0.2897
  275MPD2    C5 4209   4.446   0.775  14.484 -0.7129 -0.6587  0.1107
  275MPD2     H 4210   4.329   0.675  14.834  0.0717  2.1023  0.4233
  275MPD2    H1 4211   4.283   0.668  14.409 -0.1099  0.3775 -0.1122
  275MPD2    H2 4212   4.603   0.890  14.574 -0.8752  0.8731  0.1594
  275MPD2    H3 4213   4.484   0.789  14.383  0.4956  0.5721  0.7337
  275MPD2     N 4214   4.182   0.581  14.658 -0.2134 -0.9601 -0.0045
  275MPD2    H5 4215   4.171   0.556  14.755 -1.1384 -0.5421 -0.0011
  275MPD2    N1 4216   4.523   0.832  14.843  0.5732  0.1570  0.4106
  275MPD2    H7 4217   4.491   0.773  14.919  2.6381 -0.1573  1.0392
  276TMC3    C1 4218   4.637   0.967  14.993  0.2258  0.7413  0.8785
  276TMC3    C2 4219   4.584   0.885  15.085  0.2180 -0.3045  0.3660
  276TMC3    C3 4220   4.657   0.849  15.195  0.2116  0.5175 -0.2536
  276TMC3    C4 4221   0.023   1.029  15.026  0.1036 -0.2762 -0.1560
  276TMC3    C5 4222   0.092   0.984  15.139  0.1823 -0.1530  0.4997
  276TMC3    C6 4223   0.053   0.886  15.221  0.3833  0.7393 -0.1230
  276TMC3     C 4224   4.612   0.939  14.857 -0.8722 -0.2800 -0.2666
  276TMC3     O 4225   4.661   1.012  14.776 -0.4045  0.0700 -0.5251
  276TMC3     H 4226   4.479   0.860  15.090 -0.1485  0.8211 -2.1249
  276TMC3    H1 4227   0.068   1.097  14.954 -1.0569 -1.7282 -2.2707
  276TMC3    H2 4228   0.101   0.862  15.315 -0.0010  0.1575 -0.0748
  276TMC3    C7 4229   0.206   1.057  15.183 -0.0505  0.4017  0.2856
  276TMC3    C8 4230   4.590   0.765  15.293  0.1430  0.0311 -0.3611
  276TMC3    O1 4231   0.272   0.997  15.270 -0.4113 -0.0820  0.0172
  276TMC3    O2 4232   4.473   0.772  15.322  0.4941 -0.3626 -0.0454
  277MPD2     C 4233   2.202   4.481  13.120 -1.3281 -0.0429  0.2154
  277MPD2    C1 4234   2.067   4.505  13.147  0.4311 -0.1578 -0.2774
  277MPD2    C2 4235   2.018   4.470  13.276 -0.5194 -0.5304 -0.2185
  277MPD2    C3 4236   2.098   4.413  13.373 -0.0955  1.0974 -0.7233
  277MPD2    C4 4237   2.230   4.395  13.347 -0.0573  0.2334 -1.0556
  277MPD2    C5 4238   2.279   4.425  13.223 -0.2074  0.2968  0.6584
  277MPD2     H 4239   1.913   4.488  13.295  0.1429  0.5415  2.4722
  277MPD2    H1 4240   2.299   4.350  13.417 -0.6362 -0.1137 -0.7134
  277MPD2    H2 4241   2.251   4.510  13.028  1.6954 -2.0047  1.2251
  277MPD2    H3 4242   2.384   4.413  13.199 -0.2395 -2.2810  1.8866
  277MPD2     N 4243   2.039   4.396  13.505  0.8753 -0.1353 -0.4342
  277MPD2    H5 4244   1.938   4.409  13.511  0.9552 -0.9163  2.4848
  277MPD2    N1 4245   1.988   4.582  13.050 -0.0214  0.2396 -0.1712
  277MPD2    H7 4246   2.031   4.627  12.970  2.8097  0.0220  1.2232
  278TMC3    C1 4247   2.017   4.358  13.741 -0.2489 -0.3341  0.2956
  278TMC3    C2 4248   2.032   4.241  13.801 -0.3696 -0.5177 -0.4520
  278TMC3    C3 4249   1.909   4.173  13.818  0.4129 -0.2157  0.2358
  278TMC3    C4 4250   1.899   4.422  13.723  0.1423  1.4765  0.7173
  278TMC3    C5 4251   1.781   4.365  13.763  0.0811  0.3508 -0.4049
  278TMC3    C6 4252   1.787   4.233  13.802  0.0818  0.1676  0.6124
  278TMC3     C 4253   2.105   4.365  13.628  0.5235 -0.1487 -0.1530
  278TMC3     O 4254   2.222   4.327  13.638  0.3667 -0.1668  0.5341
  278TMC3     H 4255   2.121   4.180  13.808  0.2580  0.4513  0.0372
  278TMC3    H1 4256   1.906   4.520  13.676 -3.3416  2.5639  2.4700
  278TMC3    H2 4257   1.700   4.168  13.804  0.7120 -0.7136 -0.4003
  278TMC3    C7 4258   1.674   4.388  13.669 -0.4429 -0.3472  0.4707
  278TMC3    C8 4259   1.928   4.034  13.844 -0.8211 -0.1270  0.0633
  278TMC3    O1 4260   1.711   4.413  13.555  0.6346  0.3336  0.1511
  278TMC3    O2 4261   2.032   3.985  13.886 -0.3711  0.4863 -0.1164
  279MPD2     C 4262   0.842   4.504   0.115 -0.2541 -0.0278  0.2218
  279MPD2    C1 4263   0.899   4.574   0.015 -0.2863 -0.1161 -0.5426
  279MPD2    C2 4264   0.975   4.512  17.651  0.4287  0.5369 -0.0837
  279MPD2    C3 4265   0.992   4.372  17.654  0.3003  1.1699 -0.4413
  279MPD2    C4 4266   0.935   4.305   0.028 -0.2277  0.2609  0.2013
  279MPD2    C5 4267   0.855   4.369   0.116  0.3468  0.7134 -0.5186
  279MPD2     H 4268   1.016   4.571  17.570 -1.0343  0.4054 -0.9056
  279MPD2    H1 4269   0.942   4.197   0.038 -1.7640  0.0573 -0.9437
  279MPD2    H2 4270   0.785   4.557   0.191 -2.7437 -0.0190 -1.6516
  279MPD2    H3 4271   0.811   4.309   0.195  0.2277  0.6480 -0.6342
  279MPD2     N 4272   1.055   4.295  17.548  0.5436  0.4869 -0.6248
  279MPD2    H5 4273   1.062   4.195  17.564 -1.3217  0.2658 -1.1143
  279MPD2    N1 4274   0.897   4.712   0.024  0.0683  0.4634  0.6309
  279MPD2    H7 4275   0.826   0.021   0.082  0.9031  1.7814  0.6957
  280TMC3    C1 4276   0.959   0.189  17.729  0.2731 -0.8958 -0.3395
  280TMC3    C2 4277   1.057   0.259   0.056 -0.0480 -1.2588 -0.1463
  280TMC3    C3 4278   1.022   0.372   0.119  0.7413  0.8793  0.0920
  280TMC3    C4 4279   0.829   0.230  17.723 -0.3917 -0.6393 -0.1753
  280TMC3    C5 4280   0.804   0.350   0.048  0.4625  0.0535 -0.3078
  280TMC3    C6 4281   0.897   0.427   0.115  0.3488 -0.3486 -0.4383
  280TMC3     C 4282   0.989   0.054  17.704 -0.1631 -0.1589  0.0607
  280TMC3     O 4283   1.096   0.029  17.650 -0.2107  0.1246 -0.3495
  280TMC3     H 4284   1.161   0.227   0.050  1.2412  2.4486  2.2949
  280TMC3    H1 4285   0.756   0.174  17.666  0.8415 -0.8703 -1.5337
  280TMC3    H2 4286   0.869   0.514   0.174 -2.4682 -0.9475 -0.8807
  280TMC3    C7 4287   0.680   0.417   0.013  0.3820  0.2634 -0.3713
  280TMC3    C8 4288   1.110   0.423   0.217  0.0375 -0.1434  0.3003
  280TMC3    O1 4289   0.654   0.524   0.071 -0.5678  0.2905 -0.0612
  280TMC3    O2 4290   1.075   0.531   0.265  0.0669 -0.4015  0.0835
  281TMC3    C1 4291   0.367   4.509  13.689  0.0616 -0.1978  0.4093
  281TMC3    C2 4292   0.450   4.584  13.619  0.1409  0.2827 -0.5885
  281TMC3    C3 4293   0.455   4.560  13.483  0.0801 -0.3181  0.0051
  281TMC3    C4 4294   0.277   4.422  13.634 -0.1055 -0.8222  0.4110
  281TMC3    C5 4295   0.294   4.390  13.505  0.7358 -0.0783 -0.1929
  281TMC3    C6 4296   0.390   4.452  13.434 -0.4856  0.0843 -0.0163
  281TMC3     C 4297   0.324   4.551  13.821 -0.1569  0.3445  1.2386
  281TMC3     O 4298   0.290   4.460  13.895 -0.4418 -0.0635 -0.1329
  281TMC3     H 4299   0.512   4.662  13.662 -2.4769  1.0898  1.7179
  281TMC3    H1 4300   0.213   4.355  13.691 -1.8994 -0.2113 -0.8857
  281TMC3    H2 4301   0.410   4.423  13.332  0.3591 -0.5514  0.3196
  281TMC3    C7 4302   0.195   4.324  13.433 -0.1822 -0.1084 -0.3789
  281TMC3    C8 4303   0.561   4.623  13.405  0.0387  0.2082 -0.7256
  281TMC3    O1 4304   0.216   4.311  13.313  0.0671  0.5476  0.2546
  281TMC3    O2 4305   0.654   4.558  13.368  0.0660  0.0034  0.9479
  282MPD2     C 4306   1.899   1.201  15.556  0.9706 -0.7382 -0.6570
  282MPD2    C1 4307   1.772   1.235  15.579  0.0720  0.1740  0.3097
  282MPD2    C2 4308   1.692   1.238  15.469 -0.0021 -0.1414 -0.0308
  282MPD2    C3 4309   1.736   1.216  15.337  0.2029 -0.4551  0.3058
  282MPD2    C4 4310   1.867   1.177  15.325  0.3951 -0.0802  0.1967
  282MPD2    C5 4311   1.950   1.168  15.435  0.2366 -0.1188  0.6945
  282MPD2     H 4312   1.588   1.265  15.478  0.4251  1.7259 -0.8259
  282MPD2    H1 4313   1.913   1.146  15.233 -0.3588 -0.1961 -0.1431
  282MPD2    H2 4314   1.963   1.195  15.644  0.0190 -1.0072  0.0201
  282MPD2    H3 4315   2.055   1.143  15.420 -0.0405 -0.1728 -1.1554
  282MPD2     N 4316   1.632   1.205  15.240  0.2603  0.3300 -0.2484
  282MPD2    H5 4317   1.546   1.253  15.263 -1.0798 -2.3189  0.2415
  282MPD2    N1 4318   1.714   1.261  15.706 -0.4523 -0.0368 -0.2779
  282MPD2    H7 4319   1.615   1.284  15.707 -0.6178 -0.7432 -0.1350
  283TMC3    C1 4320   1.678   1.246  15.941  0.4761  0.7227  0.3359
  283TMC3    C2 4321   1.715   1.337  16.041 -0.7858 -0.2451 -0.7590
  283TMC3    C3 4322   1.614   1.389  16.119 -0.4769  0.2869 -0.0448
  283TMC3    C4 4323   1.553   1.204  15.922  0.2012  0.1633  0.3854
  283TMC3    C5 4324   1.466   1.251  16.010  0.1413 -0.4570 -0.6297
  283TMC3    C6 4325   1.488   1.334  16.116  0.2146  0.7576  0.7475
  283TMC3     C 4326   1.772   1.230  15.833  0.4532  0.1062  0.5028
  283TMC3     O 4327   1.891   1.214  15.853  0.0879  0.7543 -0.2123
  283TMC3     H 4328   1.817   1.374  16.040 -0.3437 -1.4976 -1.4174
  283TMC3    H1 4329   1.533   1.119  15.858  2.0315  0.4290 -0.5560
  283TMC3    H2 4330   1.411   1.380  16.178  1.3657  1.1585  1.8825
  283TMC3    C7 4331   1.326   1.214  15.996 -0.7161 -0.7108 -1.0153
  283TMC3    C8 4332   1.630   1.522  16.166 -0.3713  0.7073  0.4563
  283TMC3    O1 4333   1.254   1.245  16.089 -0.0262 -0.0467  0.2486
  283TMC3    O2 4334   1.555   1.554  16.261  0.3365  0.1737  0.0936
  284MPD2     C 4335   4.612   1.276  12.135 -0.0687  0.5667  0.4883
  284MPD2    C1 4336   4.720   1.246  12.054  0.7951  0.3863 -0.1083
  284MPD2    C2 4337   0.043   1.118  12.054 -0.0998 -0.1963 -0.1076
  284MPD2    C3 4338   4.711   1.023  12.138 -0.5809  0.7226  0.0234
  284MPD2    C4 4339   4.605   1.057  12.219  0.0978 -0.1491  0.2009
  284MPD2    C5 4340   4.552   1.182  12.210  0.0432 -0.6498 -0.0423
  284MPD2     H 4341   0.118   1.090  11.981  1.6644  0.1790  1.5739
  284MPD2    H1 4342   4.561   0.985  12.287  1.8978 -0.8061  0.6827
  284MPD2    H2 4343   4.557   1.370  12.137  0.8176  1.1347 -1.7456
  284MPD2    H3 4344   4.464   1.203  12.270 -0.5879  0.1622 -1.2636
  284MPD2     N 4345   0.018   0.887  12.120  0.5923 -0.4262 -0.7432
  284MPD2    H5 4346   0.083   0.878  12.043 -0.4502 -1.9610 -1.4611
  284MPD2    N1 4347   0.040   1.327  11.947 -0.0988 -0.0779 -0.1783
  284MPD2    H7 4348   0.111   1.295  11.882  2.2535  1.3301  1.7028
  285TMC3    C1 4349   0.051   1.508  11.787 -0.7309  0.1798  0.2059
  285TMC3    C2 4350   0.112   1.419  11.708 -0.2164  0.6900 -1.6153
  285TMC3    C3 4351   0.157   1.465  11.587 -0.0037 -0.2236 -0.0833
  285TMC3    C4 4352   0.038   1.640  11.750 -0.2118 -0.2644  0.1221
  285TMC3    C5 4353   0.094   1.680  11.636  0.3870 -0.4046  0.2652
  285TMC3    C6 4354   0.157   1.599  11.551  0.4794  0.4791 -0.0397
  285TMC3     C 4355   0.000   1.459  11.914  0.0850 -1.4679 -0.1957
  285TMC3     O 4356   4.651   1.533  11.963 -0.0559 -0.4516 -0.6548
  285TMC3     H 4357   0.135   1.317  11.737 -1.9022  0.2708 -1.7387
  285TMC3    H1 4358   4.722   1.712  11.814  0.6478 -0.1934  0.7029
  285TMC3    H2 4359   0.207   1.638  11.463 -0.5272  1.0796 -0.3509
  285TMC3    C7 4360   0.090   1.822  11.598  0.4515  0.8853 -0.5877
  285TMC3    C8 4361   0.239   1.379  11.508  0.5584 -0.1163  0.4222
  285TMC3    O1 4362   0.163   1.850  11.506  0.0193  0.4211 -0.0500
  285TMC3    O2 4363   0.303   1.295  11.578  0.0930 -0.3876  0.1853
  286MPD2     C 4364   0.300   4.098   1.268 -0.6408  0.4557  0.4167
  286MPD2    C1 4365   0.171   4.052   1.229  0.2112 -0.0019 -0.8117
  286MPD2    C2 4366   0.148   3.921   1.225  0.3989  0.4322 -0.2942
  286MPD2    C3 4367   0.251   3.836   1.257  0.2783  0.6003  0.1647
  286MPD2    C4 4368   0.375   3.885   1.296 -0.1657  0.6535 -0.0778
  286MPD2    C5 4369   0.404   4.019   1.307 -0.2384  0.1911  0.2215
  286MPD2     H 4370   0.047   3.888   1.208  0.6752 -1.4369  1.7264
  286MPD2    H1 4371   0.459   3.819   1.318 -2.1207 -1.9983 -0.5689
  286MPD2    H2 4372   0.316   4.205   1.269 -1.2540  0.5357  2.1630
  286MPD2    H3 4373   0.496   4.064   1.342  0.3607 -0.4013 -0.5897
  286MPD2     N 4374   0.254   3.699   1.243 -0.4451 -0.2336 -0.2240
  286MPD2    H5 4375   0.341   3.649   1.261  0.3780  1.3366  0.1504
  286MPD2    N1 4376   0.060   4.134   1.213  0.5474 -0.0264 -0.1380
  286MPD2    H7 4377   4.699   4.097   1.218  0.2556  0.3649 -2.6610
  287TMC3    C1 4378   0.183   3.483   1.180  0.3314  0.7233 -0.7112
  287TMC3    C2 4379   0.098   3.406   1.110 -0.1098  0.7042  0.1145
  287TMC3    C3 4380   0.136   3.274   1.087 -0.0314 -0.4230 -0.2311
  287TMC3    C4 4381   0.302   3.437   1.223  0.2787  0.2736  0.0453
  287TMC3    C5 4382   0.336   3.303   1.210  0.1907 -0.1266  0.1263
  287TMC3    C6 4383   0.254   3.224   1.135  0.2785 -0.0743 -0.6752
  287TMC3     C 4384   0.145   3.623   1.196  0.5187  0.5593  0.3513
  287TMC3     O 4385   0.041   3.669   1.153 -0.0434 -0.3675  0.1667
  287TMC3     H 4386   0.008   3.445   1.064 -1.5653 -1.8631  0.8394
  287TMC3    H1 4387   0.367   3.502   1.281  2.2818 -0.5706 -1.2684
  287TMC3    H2 4388   0.281   3.121   1.115  1.7727  0.2590 -0.4054
  287TMC3    C7 4389   0.458   3.256   1.273 -0.2639 -0.4207  0.1564
  287TMC3    C8 4390   0.084   3.195   0.975 -1.4920 -0.4573 -0.1565
  287TMC3    O1 4391   0.536   3.339   1.320 -0.2286 -0.3158  0.0594
  287TMC3    O2 4392   0.143   3.093   0.948  0.0500 -0.0950  0.2856
  288TMC3    C1 4393   2.213   3.744  14.251  0.8109  0.7145 -0.7745
  288TMC3    C2 4394   2.156   3.630  14.302  0.6343  0.0921 -0.7276
  288TMC3    C3 4395   2.079   3.632  14.414  0.4505  0.2045  0.5490
  288TMC3    C4 4396   2.191   3.868  14.316  0.2608  0.1767 -0.6462
  288TMC3    C5 4397   2.114   3.866  14.424 -0.5082 -0.1533 -0.0143
  288TMC3    C6 4398   2.060   3.751  14.478 -0.0197  0.1449 -0.3747
  288TMC3     C 4399   2.321   3.725  14.146  0.3188 -0.3759  0.0771
  288TMC3     O 4400   2.358   3.614  14.126  0.5842 -0.3009 -0.3382
  288TMC3     H 4401   2.170   3.538  14.247 -1.3029 -0.3285 -0.5083
  288TMC3    H1 4402   2.236   3.962  14.286  0.2371 -0.3456 -2.2917
  288TMC3    H2 4403   1.978   3.758  14.548  0.0556 -1.5156 -0.1290
  288TMC3    C7 4404   2.059   3.997  14.460 -0.1174  0.1157  0.1972
  288TMC3    C8 4405   2.016   3.506  14.456  0.3580  0.1209 -0.1631
  288TMC3    O1 4406   2.043   4.032  14.575  0.2904  0.0691  0.6484
  288TMC3    O2 4407   2.012   3.415  14.373  0.3719  0.5542 -0.3036
  289MPD2     C 4408   2.251   2.938  14.665 -0.1439 -0.0015 -0.5844
  289MPD2    C1 4409   2.229   3.048  14.585  0.0725 -0.0130  0.3824
  289MPD2    C2 4410   2.139   3.036  14.481  0.5022  0.2935 -0.1073
  289MPD2    C3 4411   2.054   2.924  14.473  0.0142  0.0074  0.2463
  289MPD2    C4 4412   2.086   2.816  14.543 -0.1259  0.3790  0.5715
  289MPD2    C5 4413   2.180   2.824  14.649  0.0311 -0.2233 -0.0179
  289MPD2     H 4414   2.118   3.123  14.419 -0.6273  0.8912  1.1141
  289MPD2    H1 4415   2.041   2.718  14.531 -0.2386  0.3538  1.1926
  289MPD2    H2 4416   2.328   2.938  14.741 -1.2750  0.0973  0.5481
  289MPD2    H3 4417   2.198   2.736  14.709 -3.2164 -0.6555  0.2838
  289MPD2     N 4418   1.949   2.915  14.377  0.2171 -0.2220  0.4156
  289MPD2    H5 4419   1.893   2.830  14.378 -0.7862  0.4803  2.5032
  289MPD2    N1 4420   2.320   3.158  14.605  0.3958 -0.1944 -0.1623
  289MPD2    H7 4421   2.378   3.149  14.687 -0.8647 -1.0871  0.6290
  290TMC3    C1 4422   1.774   2.971  14.232  0.3286  0.3516  0.1335
  290TMC3    C2 4423   1.720   3.066  14.145  0.6807  0.8421  0.1499
  290TMC3    C3 4424   1.599   3.037  14.093 -0.7627 -0.3063  0.5429
  290TMC3    C4 4425   1.699   2.873  14.282  0.6203  0.5293 -0.9321
  290TMC3    C5 4426   1.575   2.850  14.233 -0.3286  0.0108  0.4642
  290TMC3    C6 4427   1.524   2.931  14.135  0.1977 -0.4518  0.3979
  290TMC3     C 4428   1.902   3.012  14.296 -0.0226  0.0264  0.3005
  290TMC3     O 4429   1.951   3.122  14.263  0.2554  0.5941 -0.0135
  290TMC3     H 4430   1.784   3.141  14.102 -0.9313  2.4175  0.4886
  290TMC3    H1 4431   1.732   2.818  14.369 -3.3717  0.4557  0.5052
  290TMC3    H2 4432   1.418   2.923  14.113  0.0101 -0.9315  1.4698
  290TMC3    C7 4433   1.473   2.801  14.323 -0.2121 -0.0903 -0.0602
  290TMC3    C8 4434   1.520   3.146  14.028 -0.1668 -0.3659 -0.3273
  290TMC3    O1 4435   1.386   2.879  14.354  0.5826  0.3063 -0.6126
  290TMC3    O2 4436   1.424   3.108  13.964 -0.0375  0.5607  0.0146
  291MPD2     C 4437   1.550   2.784   0.603  0.0790 -0.7202 -0.3293
  291MPD2    C1 4438   1.547   2.682   0.513 -0.2536  0.7138  0.5640
  291MPD2    C2 4439   1.554   2.710   0.377 -0.2317 -0.0688 -0.0292
  291MPD2    C3 4440   1.546   2.839   0.328  0.0355 -0.6129  0.1277
  291MPD2    C4 4441   1.555   2.940   0.421  0.4217  0.6314  0.0745
  291MPD2    C5 4442   1.555   2.915   0.557 -0.4447  0.6093  0.1901
  291MPD2     H 4443   1.566   2.630   0.305 -0.0562 -0.2191  0.1635
  291MPD2    H1 4444   1.563   3.037   0.375  0.8101  0.0177 -1.1620
  291MPD2    H2 4445   1.555   2.773   0.711 -0.4831  1.9795 -0.0102
  291MPD2    H3 4446   1.556   2.997   0.628  0.6877  0.7161  0.0465
  291MPD2     N 4447   1.540   2.871   0.193  0.1002 -0.2829 -0.7553
  291MPD2    H5 4448   1.521   2.968   0.170  2.2213  0.9868  2.8708
  291MPD2    N1 4449   1.554   2.546   0.552  0.0113 -0.4886 -0.0861
  291MPD2    H7 4450   1.514   2.479   0.486  1.5347  1.3175 -2.8540
  292TMC3    C1 4451   1.546   2.361   0.691  0.0575 -0.0315 -0.5078
  292TMC3    C2 4452   1.583   2.306   0.810 -0.2983 -0.6008 -0.0726
  292TMC3    C3 4453   1.533   2.179   0.835  0.6197 -0.1128  0.4935
  292TMC3    C4 4454   1.479   2.296   0.594  0.1658 -0.0776  0.1733
  292TMC3    C5 4455   1.438   2.170   0.622 -0.7066  0.0307 -0.3063
  292TMC3    C6 4456   1.464   2.103   0.736  0.1465 -0.2163  0.1835
  292TMC3     C 4457   1.576   2.499   0.680  0.0003 -0.6799 -0.6889
  292TMC3     O 4458   1.638   2.561   0.761  0.5767  0.8979 -0.4479
  292TMC3     H 4459   1.641   2.359   0.885 -0.0109  3.0388 -2.8687
  292TMC3    H1 4460   1.449   2.331   0.496  2.3700 -3.0783 -1.5769
  292TMC3    H2 4461   1.432   1.999   0.741 -2.3850  0.5412 -0.1075
  292TMC3    C7 4462   1.357   2.101   0.525 -0.4822  0.1699 -0.2208
  292TMC3    C8 4463   1.554   2.111   0.964 -0.7449  0.0948 -0.1926
  292TMC3    O1 4464   1.374   1.980   0.513  0.2810  0.0903 -0.5157
  292TMC3    O2 4465   1.639   2.153   1.041 -0.5868  0.8829  0.3460
  293MPD2     C 4466   2.834   4.463  12.341  0.3737 -0.2938 -1.0621
  293MPD2    C1 4467   2.792   4.341  12.385 -0.2249 -0.1956  0.1038
  293MPD2    C2 4468   2.850   4.288  12.495  0.1809  0.4716  0.1415
  293MPD2    C3 4469   2.959   4.351  12.557  0.6355 -0.0462  0.5287
  293MPD2    C4 4470   3.001   4.470  12.517  0.5905 -0.5919 -0.1708
  293MPD2    C5 4471   2.933   4.525  12.410  0.1256  0.1991  0.2039
  293MPD2     H 4472   2.806   4.198  12.535 -0.6433  1.3553  1.2230
  293MPD2    H1 4473   3.081   4.526  12.563  1.1952 -0.3318 -1.5769
  293MPD2    H2 4474   2.800   4.517  12.254  0.5048 -1.0778 -1.6036
  293MPD2    H3 4475   2.952   4.627  12.379  0.5380 -0.3580 -1.3494
  293MPD2     N 4476   3.012   4.289  12.666 -0.4405  0.2330  0.2487
  293MPD2    H5 4477   2.984   4.195  12.693  2.2550 -0.9475 -0.9893
  293MPD2    N1 4478   2.695   4.278  12.317 -0.4343 -0.0455 -0.2908
  293MPD2    H7 4479   2.667   4.338  12.241 -4.0781 -0.8443  0.4354
  294TMC3    C1 4480   2.527   4.135  12.235  0.0891 -0.2727  0.4268
  294TMC3    C2 4481   2.481   4.008  12.220 -0.6247  0.1667 -0.0551
  294TMC3    C3 4482   2.373   3.990  12.141 -0.2037  0.4970  0.5510
  294TMC3    C4 4483   2.463   4.236  12.182  0.2489 -0.0284 -0.0087
  294TMC3    C5 4484   2.356   4.217  12.101  0.0404 -1.1049  0.3292
  294TMC3    C6 4485   2.304   4.091  12.081 -0.4418 -0.0213 -0.3984
  294TMC3     C 4486   2.632   4.160  12.341 -0.0619 -0.3404 -0.3315
  294TMC3     O 4487   2.652   4.073  12.425  0.2474 -0.1756  0.3025
  294TMC3     H 4488   2.525   3.922  12.268 -0.8195  1.5326  2.5857
  294TMC3    H1 4489   2.481   4.338  12.212 -0.7090  0.1764 -0.1251
  294TMC3    H2 4490   2.225   4.082  12.007 -1.0090  0.1124  0.1949
  294TMC3    C7 4491   2.290   4.329  12.038 -0.0252  0.5935 -0.5141
  294TMC3    C8 4492   2.365   3.871  12.055  0.1870  0.1397  0.0473
  294TMC3    O1 4493   2.172   4.322  12.016  0.3070  0.3330  0.5620
  294TMC3    O2 4494   2.300   3.878  11.951 -0.5154  0.0657 -0.2928
  295MPD2     C 4495   2.998   2.479   0.691  0.0664  0.0295  0.3203
  295MPD2    C1 4496   2.991   2.617   0.671  0.2149 -0.4713  0.1259
  295MPD2    C2 4497   2.903   2.693   0.745  0.8749  0.8159  0.7428
  295MPD2    C3 4498   2.842   2.635   0.857  0.2409  0.0570 -0.2476
  295MPD2    C4 4499   2.875   2.501   0.891 -0.0711  0.3757  0.3859
  295MPD2    C5 4500   2.945   2.430   0.804  0.0415  0.8234  0.2740
  295MPD2     H 4501   2.888   2.798   0.722 -1.4030  0.1487 -0.8511
  295MPD2    H1 4502   2.841   2.447   0.979 -2.1649  2.0875  0.6317
  295MPD2    H2 4503   3.056   2.419   0.622 -1.1408 -0.0788 -0.5791
  295MPD2    H3 4504   2.960   2.328   0.837 -1.3062  0.3277 -0.6638
  295MPD2     N 4505   2.732   2.695   0.923  0.8769  0.2944 -0.1550
  295MPD2    H5 4506   2.703   2.654   1.011 -0.4811 -0.7542 -1.1111
  295MPD2    N1 4507   3.070   2.675   0.561  0.0651  0.4012 -0.1747
  295MPD2    H7 4508   3.082   2.776   0.558  1.1701  0.2342 -1.2996
  296TMC3    C1 4509   2.577   2.850   1.002 -0.7680 -0.3630 -0.4867
  296TMC3    C2 4510   2.542   2.985   1.013  0.1950  0.2351  0.0479
  296TMC3    C3 4511   2.461   3.021   1.123  0.1664 -0.4107 -0.2222
  296TMC3    C4 4512   2.547   2.756   1.096  0.1286 -0.4638 -0.4649
  296TMC3    C5 4513   2.470   2.810   1.204 -0.2545 -0.0221  0.3020
  296TMC3    C6 4514   2.431   2.937   1.224  0.2513  0.1763  0.1528
  296TMC3     C 4515   2.677   2.814   0.898  0.6499  0.4078 -0.0080
  296TMC3     O 4516   2.696   2.897   0.810  0.5645  0.4308  0.3611
  296TMC3     H 4517   2.568   3.059   0.938  0.5565  1.3497  1.2776
  296TMC3    H1 4518   2.569   2.651   1.086  0.4398 -0.1800 -2.6874
  296TMC3    H2 4519   2.401   2.966   1.325  2.1668  0.7270  0.5695
  296TMC3    C7 4520   2.438   2.720   1.314  0.7465 -0.9065  0.0381
  296TMC3    C8 4521   2.433   3.163   1.147 -0.2424  0.9839 -0.6807
  296TMC3    O1 4522   2.346   2.759   1.384 -0.7268 -0.1137 -0.3363
  296TMC3    O2 4523   2.360   3.189   1.242  0.0799 -0.3738 -0.1214
  297MPD2     C 4524   0.360   0.212  15.674  0.2740 -0.0117 -0.3808
  297MPD2    C1 4525   0.375   0.341  15.717 -0.4891 -0.9948  0.1966
  297MPD2    C2 4526   0.503   0.390  15.735 -0.0009 -0.3861 -0.2528
  297MPD2    C3 4527   0.615   0.308  15.734 -0.6061 -0.5818  0.8385
  297MPD2    C4 4528   0.594   0.181  15.696  0.6531  0.1279 -0.1441
  297MPD2    C5 4529   0.469   0.129  15.658 -0.4679  0.0901 -0.0578
  297MPD2     H 4530   0.526   0.486  15.778 -0.2356  0.2196 -1.4890
  297MPD2    H1 4531   0.671   0.105  15.691  0.5690  0.0723 -0.5677
  297MPD2    H2 4532   0.260   0.182  15.646  0.6546 -0.0892 -1.6502
  297MPD2    H3 4533   0.464   0.033  15.609 -1.6712  0.8150 -1.3584
  297MPD2     N 4534   0.742   0.348  15.786  0.1271  0.1067  0.6121
  297MPD2    H5 4535   0.752   0.438  15.833  0.2045  0.9352 -0.9807
  297MPD2    N1 4536   0.264   0.432  15.713  0.4951  0.0683 -0.7863
  297MPD2    H7 4537   0.294   0.529  15.712 -0.4832  0.4014  0.9520
  298TMC3    C1 4538   0.045   0.522  15.732  0.0665 -0.0532  0.4725
  298TMC3    C2 4539   0.083   0.635  15.673  0.5447 -0.0329 -0.1668
  298TMC3    C3 4540   0.006   0.745  15.695 -0.1991 -0.0655 -0.5690
  298TMC3    C4 4541   4.660   0.511  15.802 -0.3768  0.2123 -0.4627
  298TMC3    C5 4542   4.585   0.625  15.819  0.2950 -0.8137 -0.3889
  298TMC3    C6 4543   4.611   0.743  15.753 -0.2760  0.5613  0.0204
  298TMC3     C 4544   0.131   0.410  15.734 -0.7093  0.1628  0.0844
  298TMC3     O 4545   0.082   0.299  15.755 -0.5067 -0.2518 -0.2331
  298TMC3     H 4546   0.161   0.645  15.598  1.2535 -0.7296  0.4900
  298TMC3    H1 4547   4.629   0.419  15.851  1.4937 -1.1652 -1.8646
  298TMC3    H2 4548   4.559   0.835  15.775  0.0367  0.7243  0.0669
  298TMC3    C7 4549   4.487   0.628  15.925  0.1905  0.0467  0.2361
  298TMC3    C8 4550   0.050   0.869  15.635  0.9067  0.5767  0.0712
  298TMC3    O1 4551   4.501   0.558  16.024  0.1849 -0.2362  0.2524
  298TMC3    O2 4552   0.170   0.894  15.631 -0.6454 -0.1860  0.0678
  299MPD2     C 4553   0.735   4.705  10.912 -0.0770 -0.2625 -0.1512
  299MPD2    C1 4554   0.781   0.022  10.790  0.2575  0.5155  0.4905
  299MPD2    C2 4555   0.686   0.063  10.696  0.0663  0.4995 -0.3164
  299MPD2    C3 4556   0.555   0.044  10.726  0.0615 -0.2076  0.1394
  299MPD2    C4 4557   0.511   4.726  10.846  0.2146 -0.5953 -0.1225
  299MPD2    C5 4558   0.604   4.686  10.939 -0.1620 -0.6530 -0.5869
  299MPD2     H 4559   0.721   0.095  10.598 -0.2712 -0.7835 -0.8590
  299MPD2    H1 4560   0.409   4.692  10.852  0.9310 -1.9442  4.1706
  299MPD2    H2 4561   0.804   4.681  10.992  1.1924  4.0064  0.0424
  299MPD2    H3 4562   0.587   4.634  11.033  0.3699 -0.2709 -0.2809
  299MPD2     N 4563   0.454   0.075  10.629  0.3588  0.2920  0.3493
  299MPD2    H5 4564   0.358   0.047  10.648  0.5373 -0.0533  0.7548
  299MPD2    N1 4565   0.919   0.051  10.784  1.0013 -0.1893 -0.1068
  299MPD2    H7 4566   0.982   0.016  10.856 -0.3286 -1.8650  0.2299
  300TMC3    C1 4567   0.339   0.156  10.435 -0.2041  0.5046 -0.1643
  300TMC3    C2 4568   0.357   0.168  10.296 -0.3769 -0.2743  0.6780
  300TMC3    C3 4569   0.260   0.236  10.223  0.2997  0.7799  0.4343
  300TMC3    C4 4570   0.233   0.217  10.501 -0.6060  0.1366  0.0472
  300TMC3    C5 4571   0.148   0.299  10.422  0.5879  0.1528 -0.7620
  300TMC3    C6 4572   0.148   0.286  10.283  0.2727 -0.4857  0.2604
  300TMC3     C 4573   0.468   0.132  10.502  0.2320 -0.2531 -0.7686
  300TMC3     O 4574   0.567   0.174  10.445  0.0168 -0.1998  0.0994
  300TMC3     H 4575   0.435   0.114  10.245 -0.8955  0.7337 -1.2018
  300TMC3    H1 4576   0.233   0.217  10.609  1.0328  0.5381  0.0473
  300TMC3    H2 4577   0.078   0.346  10.226 -1.1859  0.0898  2.6750
  300TMC3    C7 4578   0.132   0.439  10.466 -0.0144 -0.1828  0.0740
  300TMC3    C8 4579   0.300   0.310  10.102  0.1931  0.5691  0.2361
  300TMC3    O1 4580   0.053   0.510  10.410  0.3212  0.0958 -0.2592
  300TMC3    O2 4581   0.227   0.362  10.021  0.2194 -0.0967  0.4614
  301MPD2     C 4582   3.375   0.883   1.344  0.6114  0.1837 -0.4106
  301MPD2    C1 4583   3.250   0.861   1.286  0.4807  0.2811  0.9472
  301MPD2    C2 4584   3.224   0.742   1.219 -0.0166 -0.1146  0.0957
  301MPD2    C3 4585   3.320   0.651   1.193 -0.5683  0.8212  0.2965
  301MPD2    C4 4586   3.448   0.680   1.242 -0.4720  0.3192 -0.1800
  301MPD2    C5 4587   3.474   0.794   1.312 -0.1635 -0.1662  0.2999
  301MPD2     H 4588   3.121   0.716   1.200 -0.2719 -0.0131  1.3521
  301MPD2    H1 4589   3.522   0.601   1.234 -0.1043  0.3773  2.3843
  301MPD2    H2 4590   3.401   0.971   1.402  0.0505 -0.0214  0.1468
  301MPD2    H3 4591   3.573   0.815   1.350 -0.8412  2.9649  0.3631
  301MPD2     N 4592   3.297   0.523   1.139  0.2980  0.1491  0.0773
  301MPD2    H5 4593   3.373   0.459   1.121 -1.0026 -1.5510  0.6671
  301MPD2    N1 4594   3.139   0.947   1.305  0.4155 -0.6246  0.1777
  301MPD2    H7 4595   3.052   0.907   1.273  0.3427 -0.0023 -0.4245
  302TMC3    C1 4596   3.179   0.345   1.037  0.0078  0.4300 -0.5075
  302TMC3    C2 4597   3.242   0.247   1.108  1.0970 -0.1709  0.6068
  302TMC3    C3 4598   3.218   0.117   1.081 -0.2511  0.3007  0.9373
  302TMC3    C4 4599   3.079   0.304   0.952 -0.4022 -0.1114  0.0384
  302TMC3    C5 4600   3.056   0.175   0.920 -0.6069 -0.0624 -0.2572
  302TMC3    C6 4601   3.135   0.080   0.975 -0.2860  0.9895 -0.4967
  302TMC3     C 4602   3.176   0.477   1.096 -0.5007  0.4372  0.4308
  302TMC3     O 4603   3.073   0.532   1.078  0.2898  0.3803 -0.1103
  302TMC3     H 4604   3.320   0.275   1.178  1.1650  3.1374 -0.8074
  302TMC3    H1 4605   3.015   0.383   0.915 -1.3951 -0.3388  1.2549
  302TMC3    H2 4606   3.122   4.714   0.936  1.3675  1.1644 -1.4932
  302TMC3    C7 4607   2.969   0.150   0.809 -0.2353 -0.3222  0.1339
  302TMC3    C8 4608   3.330   0.030   1.118 -0.4653  0.0327 -0.0821
  302TMC3    O1 4609   3.008   0.078   0.718  0.0853 -0.5423  0.1369
  302TMC3    O2 4610   3.437   0.076   1.149 -0.6390  0.6465 -0.2664
  303MPD2     C 4611   3.638   0.337  11.690  0.3027  0.2003 -0.3313
  303MPD2    C1 4612   3.585   0.230  11.617  0.2474  0.3727  0.1619
  303MPD2    C2 4613   3.630   0.216  11.484 -0.5862  0.0208  0.1136
  303MPD2    C3 4614   3.722   0.305  11.433  0.1142  0.1237  0.2383
  303MPD2    C4 4615   3.753   0.417  11.506 -0.5171  0.1214  0.4775
  303MPD2    C5 4616   3.709   0.437  11.630  0.0569  0.2233 -0.8876
  303MPD2     H 4617   3.602   0.122  11.437  0.4357  0.2955 -1.0350
  303MPD2    H1 4618   3.812   0.486  11.448  1.6264 -0.8560  1.5022
  303MPD2    H2 4619   3.612   0.332  11.795  0.1614  1.0975 -0.3212
  303MPD2    H3 4620   3.739   0.523  11.689 -1.2968  0.2059 -0.1566
  303MPD2     N 4621   3.780   0.298  11.307 -0.2647  0.5101  0.5125
  303MPD2    H5 4622   3.841   0.375  11.281  0.3436 -0.4134 -0.7777
  303MPD2    N1 4623   3.498   0.147  11.685  0.9047 -0.3555 -0.2427
  303MPD2    H7 4624   3.454   0.180  11.770  0.7950 -0.6867 -0.1719
  304TMC3    C1 4625   3.359   4.699  11.706  0.5402 -0.3548  0.1946
  304TMC3    C2 4626   3.241   0.021  11.657 -0.4571  0.4278  0.1280
  304TMC3    C3 4627   3.120   4.694  11.689 -0.3221 -0.5703 -0.8604
  304TMC3    C4 4628   3.363   4.563  11.741 -0.0742  0.4232  0.4865
  304TMC3    C5 4629   3.241   4.500  11.759 -0.2404  0.6329 -0.0052
  304TMC3    C6 4630   3.118   4.565  11.742 -0.3649 -0.0620 -0.1095
  304TMC3     C 4631   3.483   0.018  11.661  0.7662  0.7278 -0.9742
  304TMC3     O 4632   3.548   4.675  11.592 -0.3997 -0.4115  0.0327
  304TMC3     H 4633   3.245   0.121  11.616 -0.3390  1.2242  2.1214
  304TMC3    H1 4634   3.455   4.507  11.752 -0.1923 -0.5561 -3.5149
  304TMC3    H2 4635   3.023   4.516  11.761 -0.2671 -1.1061 -2.2870
  304TMC3    C7 4636   3.236   4.359  11.725 -0.1680  0.4457 -0.2252
  304TMC3    C8 4637   3.027   4.692  11.582 -0.1651  0.2173 -0.0943
  304TMC3    O1 4638   3.329   4.293  11.762  0.1344 -0.1624  0.0263
  304TMC3    O2 4639   2.985   4.584  11.543 -0.1090 -0.2295 -0.5600
  305MPD2     C 4640   1.345   1.316  14.027 -1.5842  0.8463  0.7625
  305MPD2    C1 4641   1.470   1.254  14.019 -0.3675 -0.0329  0.4806
  305MPD2    C2 4642   1.522   1.241  13.895 -0.3558 -0.0479  0.3095
  305MPD2    C3 4643   1.456   1.293  13.786  0.3842  0.6465  0.0928
  305MPD2    C4 4644   1.332   1.349  13.796  0.1224  0.0194 -0.3721
  305MPD2    C5 4645   1.279   1.364  13.919  0.3165  0.5210 -0.2979
  305MPD2     H 4646   1.616   1.189  13.881 -1.3579 -1.2550 -1.8740
  305MPD2    H1 4647   1.280   1.400  13.716  0.3763 -1.4862 -1.4968
  305MPD2    H2 4648   1.291   1.325  14.121 -2.1519 -2.2610  0.7444
  305MPD2    H3 4649   1.191   1.426  13.929  0.9555  1.7298 -2.2376
  305MPD2     N 4650   1.513   1.287  13.653 -0.2209  0.3493 -0.1797
  305MPD2    H5 4651   1.464   1.334  13.577 -0.5787 -0.0006 -0.1629
  305MPD2    N1 4652   1.536   1.226  14.139  0.1224  0.2050 -0.0013
  305MPD2    H7 4653   1.477   1.255  14.217  0.5806 -0.5421  0.6156
  306TMC3    C1 4654   1.710   1.170  14.288 -0.2284  0.2663  0.3251
  306TMC3    C2 4655   1.831   1.099  14.309 -0.6481  0.1613  0.1676
  306TMC3    C3 4656   1.873   1.082  14.441  0.4921  0.1628  0.1743
  306TMC3    C4 4657   1.655   1.241  14.388  0.2342  0.1895 -0.1345
  306TMC3    C5 4658   1.715   1.238  14.513  0.7504 -0.1195  0.1486
  306TMC3    C6 4659   1.822   1.155  14.544 -0.0044  0.0884  0.2285
  306TMC3     C 4660   1.665   1.178  14.153  0.4887 -0.2822 -0.5772
  306TMC3     O 4661   1.746   1.153  14.062 -0.5034  0.5046  0.1114
  306TMC3     H 4662   1.859   1.032  14.228 -3.8295 -1.0549  0.0568
  306TMC3    H1 4663   1.584   1.322  14.371  0.2507 -0.0501 -1.3699
  306TMC3    H2 4664   1.873   1.151  14.640 -0.9386  0.4231  0.7453
  306TMC3    C7 4665   1.632   1.295  14.621 -0.1411  0.1170 -0.8939
  306TMC3    C8 4666   1.984   0.984  14.458  0.2257  0.0668  0.1504
  306TMC3    O1 4667   1.519   1.329  14.589 -0.2335  0.0530 -0.2127
  306TMC3    O2 4668   2.056   0.963  14.359  0.3940 -0.1340 -0.0375
  307MPD2     C 4669   4.293   3.775   0.587 -0.6822 -0.1672 -0.0942
  307MPD2    C1 4670   4.197   3.849   0.522 -0.4086  0.0334 -0.4582
  307MPD2    C2 4671   4.106   3.921   0.593 -0.4496 -0.2577 -0.4731
  307MPD2    C3 4672   4.105   3.925   0.725 -0.5369  1.3149  0.3457
  307MPD2    C4 4673   4.197   3.843   0.789  0.1886 -0.4854  0.2673
  307MPD2    C5 4674   4.299   3.784   0.723 -0.5205  0.1272 -0.4380
  307MPD2     H 4675   4.026   3.972   0.541 -0.0659 -1.1451 -1.9428
  307MPD2    H1 4676   4.204   3.839   0.897 -0.3805  1.7294  0.3844
  307MPD2    H2 4677   4.354   3.705   0.532 -1.5215 -1.8075  1.0685
  307MPD2    H3 4678   4.373   3.726   0.778 -1.3115 -1.0431 -0.5970
  307MPD2     N 4679   4.005   3.992   0.788  0.4087 -0.1501 -0.6398
  307MPD2    H5 4680   3.915   4.001   0.742 -0.3796 -0.5613  0.8263
  307MPD2    N1 4681   4.185   3.866   0.384  0.5389 -0.5593  0.3417
  307MPD2    H7 4682   4.118   3.934   0.350  0.7511  0.3822  1.7813
  308TMC3    C1 4683   3.678   4.166   0.917 -0.1477 -0.3288 -0.0992
  308TMC3    C2 4684   3.686   4.298   0.956  0.1037  0.4697 -0.0395
  308TMC3    C3 4685   3.807   4.348   0.994  0.4104 -0.9579 -0.3263
  308TMC3    C4 4686   3.792   4.084   0.908 -0.0096  0.8708 -0.3984
  308TMC3    C5 4687   3.909   4.138   0.948  0.0115  0.4832 -0.1392
  308TMC3    C6 4688   3.916   4.268   0.996 -0.0480 -0.2604 -0.4600
  308TMC3     C 4689   3.546   4.102   0.911  0.3418  0.0109  0.1404
  308TMC3     O 4690   3.539   3.980   0.921 -0.6941  0.4312  0.3393
  308TMC3     H 4691   3.601   4.365   0.961 -0.6609 -0.5069  0.1900
  308TMC3    H1 4692   3.774   3.982   0.873 -0.2468  0.7942 -0.0485
  308TMC3    H2 4693   4.018   4.302   1.011 -0.2799 -0.0110  0.5261
  308TMC3    C7 4694   4.025   4.069   0.899 -0.1664  0.2751 -0.4832
  308TMC3    C8 4695   3.823   4.489   1.025 -0.0080  0.6095 -0.5941
  308TMC3    O1 4696   4.128   4.095   0.952 -0.0098 -0.3709 -0.2084
  308TMC3    O2 4697   3.909   4.524   1.106  0.3716  0.4558  0.2618
  309MPD2     C 4698   3.340   4.372  17.292 -0.2497 -0.5068  1.1219
  309MPD2    C1 4699   3.333   4.484  17.213  0.0138 -0.0760  0.7245
  309MPD2    C2 4700   3.224   4.570  17.231 -0.0729  0.1915 -0.1904
  309MPD2    C3 4701   3.135   4.555  17.333 -0.1941  0.1658 -0.1795
  309MPD2    C4 4702   3.151   4.439  17.409 -0.1622  0.1605  0.1527
  309MPD2    C5 4703   3.249   4.349  17.389  0.6847  0.6116 -0.4251
  309MPD2     H 4704   3.209   4.658  17.169  1.6490  0.5611 -0.1011
  309MPD2    H1 4705   3.086   4.413  17.492  0.0428  0.6048  0.4570
  309MPD2    H2 4706   3.413   4.298  17.262 -0.7528 -0.9336  0.9321
  309MPD2    H3 4707   3.253   4.257  17.445 -1.5138  0.3558 -0.6738
  309MPD2     N 4708   3.021   4.638  17.350  0.7165  0.1012  0.1677
  309MPD2    H5 4709   2.943   4.594  17.399  0.2677 -0.3841 -0.9834
  309MPD2    N1 4710   3.421   4.508  17.102 -0.1698 -1.1488 -0.5183
  309MPD2    H7 4711   3.397   4.582  17.037  2.9416  1.2977  1.1441
  310TMC3    C1 4712   3.576   4.486  16.928 -0.2988  0.3718 -0.3390
  310TMC3    C2 4713   3.490   4.565  16.854 -0.9603  0.0775 -0.0628
  310TMC3    C3 4714   3.549   4.623  16.738 -0.6143  0.3368 -0.8367
  310TMC3    C4 4715   3.699   4.458  16.887  0.6122 -0.1416  0.7033
  310TMC3    C5 4716   3.752   4.526  16.781  0.1079  0.1573 -0.4697
  310TMC3    C6 4717   3.682   4.605  16.699  0.3718 -0.1446 -0.3395
  310TMC3     C 4718   3.532   4.440  17.060  0.0679 -0.5877 -0.5120
  310TMC3     O 4719   3.595   4.345  17.114 -0.0933 -0.1741  0.5018
  310TMC3     H 4720   3.384   4.573  16.874 -0.7465  0.9781  0.7511
  310TMC3    H1 4721   3.753   4.396  16.957 -1.7449 -0.4745  2.2203
  310TMC3    H2 4722   3.724   4.658  16.615 -0.4725 -0.2074 -0.8002
  310TMC3    C7 4723   3.860   4.469  16.717  0.5244 -0.4092  0.2817
  310TMC3    C8 4724   3.471   4.709  16.652  0.4367  0.1801 -0.3409
  310TMC3    O1 4725   3.887   4.509  16.603  0.5677 -0.3835 -0.0623
  310TMC3    O2 4726   3.520   0.014  16.546 -0.7974 -0.1664 -0.0760
  311MPD2     C 4727   0.692   1.247  12.497  0.0699  0.2202 -0.0288
  311MPD2    C1 4728   0.737   1.340  12.590 -0.2388 -0.1057  0.0852
  311MPD2    C2 4729   0.715   1.312  12.724 -0.7128 -0.0071 -0.4254
  311MPD2    C3 4730   0.654   1.192  12.764 -0.7526 -0.4646  0.0828
  311MPD2    C4 4731   0.611   1.099  12.672  0.1061 -0.5850 -0.7288
  311MPD2    C5 4732   0.628   1.128  12.537  0.1701  0.1406 -0.3533
  311MPD2     H 4733   0.762   1.383  12.792  1.1744 -2.4666  0.8062
  311MPD2    H1 4734   0.553   1.012  12.701 -0.8508 -0.3074 -1.8164
  311MPD2    H2 4735   0.704   1.266  12.391 -0.5975 -0.5545 -0.2435
  311MPD2    H3 4736   0.590   1.062  12.460  0.3845 -1.1540  0.6614
  311MPD2     N 4737   0.640   1.169  12.899  0.0386 -0.6949 -0.0306
  311MPD2    H5 4738   0.687   1.233  12.962  0.8374  0.2142 -1.5742
  311MPD2    N1 4739   0.806   1.458  12.550  0.1479  0.1960  0.0297
  311MPD2    H7 4740   0.831   1.514  12.631  2.4660 -0.2278 -0.3786
  312TMC3    C1 4741   0.538   1.073  13.102  0.1153  0.9368  0.3956
  312TMC3    C2 4742   0.419   1.011  13.122  0.4440  0.0135  0.6580
  312TMC3    C3 4743   0.368   1.010  13.246  0.3039  0.0861  0.8039
  312TMC3    C4 4744   0.598   1.154  13.192 -0.2020  0.6154 -0.5386
  312TMC3    C5 4745   0.549   1.149  13.320  0.3253 -0.3730  0.4336
  312TMC3    C6 4746   0.434   1.070  13.351  0.2117  0.2952  0.3977
  312TMC3     C 4747   0.583   1.054  12.964  0.1648  0.2689 -0.2542
  312TMC3     O 4748   0.546   0.950  12.912  0.0118 -0.4256  0.5463
  312TMC3     H 4749   0.365   0.961  13.042  0.0511  2.3758 -0.5661
  312TMC3    H1 4750   0.678   1.220  13.159  1.0321 -0.3970  0.4294
  312TMC3    H2 4751   0.391   1.084  13.449  0.3351  0.7685  0.3810
  312TMC3    C7 4752   0.630   1.209  13.420  0.4935  0.4420  0.5994
  312TMC3    C8 4753   0.221   1.020  13.252 -0.2821 -0.4759 -0.4778
  312TMC3    O1 4754   0.701   1.294  13.378 -0.1994  0.0910 -0.0336
  312TMC3    O2 4755   0.154   0.944  13.321 -0.0866 -0.1303  0.0706
  313MPD2     C 4756   4.457   1.534  11.669 -0.5654 -0.0516 -0.2290
  313MPD2    C1 4757   4.498   1.538  11.539 -0.3481  0.0163  0.3054
  313MPD2    C2 4758   4.540   1.421  11.481 -0.0221  0.4626 -0.4109
  313MPD2    C3 4759   4.559   1.308  11.553 -0.1491 -0.2866  0.2023
  313MPD2    C4 4760   4.518   1.309  11.682  0.1718 -0.8997  0.1368
  313MPD2    C5 4761   4.457   1.416  11.738 -0.4881  0.3521 -0.4621
  313MPD2     H 4762   4.550   1.426  11.374  0.2294  0.3742 -0.3923
  313MPD2    H1 4763   4.543   1.227  11.748  1.9802  1.3882  2.2838
  313MPD2    H2 4764   4.429   1.621  11.728  0.5228  0.3418 -0.2948
  313MPD2    H3 4765   4.433   1.425  11.843  0.4449 -1.7771 -0.0800
  313MPD2     N 4766   4.620   1.195  11.505  0.2475  0.3199  0.1556
  313MPD2    H5 4767   4.624   1.110  11.561  1.0722  0.2739  0.0270
  313MPD2    N1 4768   4.506   1.651  11.457 -0.3124  0.5738  0.5794
  313MPD2    H7 4769   4.559   1.638  11.371  1.2896 -1.2869  1.8450
  314TMC3    C1 4770   4.441   1.853  11.362 -0.3360  0.6846 -0.3442
  314TMC3    C2 4771   4.565   1.866  11.297 -0.4628  0.2858 -0.7923
  314TMC3    C3 4772   4.567   1.917  11.170 -0.4045 -0.2743 -0.0416
  314TMC3    C4 4773   4.325   1.884  11.304  0.7618  0.0736 -0.4063
  314TMC3    C5 4774   4.334   1.929  11.176  0.2289 -0.0444  0.0306
  314TMC3    C6 4775   4.452   1.945  11.107  0.2318  0.3949 -0.5923
  314TMC3     C 4776   4.432   1.759  11.477  0.1236 -0.5695  0.4512
  314TMC3     O 4777   4.344   1.778  11.557  0.2127 -0.0463 -0.0331
  314TMC3     H 4778   4.659   1.865  11.351 -0.0413  0.0757 -1.5290
  314TMC3    H1 4779   4.230   1.867  11.354  1.1276  0.9496  0.5709
  314TMC3    H2 4780   4.454   1.996  11.012 -1.8157  1.8697  0.1620
  314TMC3    C7 4781   4.213   1.932  11.094 -0.4230  0.7353  0.1491
  314TMC3    C8 4782   4.689   1.965  11.112  0.0967  0.9028  0.1425
  314TMC3    O1 4783   4.108   1.951  11.155 -0.0065  0.2268 -0.6827
  314TMC3    O2 4784   4.684   2.053  11.023  0.2661  0.0549 -0.1411
  315MPD2     C 4785   4.273   4.676   0.177  0.3495  0.7098 -0.4651
  315MPD2    C1 4786   4.410   4.670   0.192 -0.3206  0.0237  0.8952
  315MPD2    C2 4787   4.495   4.702   0.088  0.4428 -0.0714  0.3659
  315MPD2    C3 4788   4.438   0.022  17.710  0.6086 -0.3397 -0.7236
  315MPD2    C4 4789   4.304   0.034  17.694 -0.4607  0.4307  0.2778
  315MPD2    C5 4790   4.219   4.721   0.062  0.5857 -0.2080  0.3998
  315MPD2     H 4791   4.603   4.690   0.095  0.7268  1.5674 -1.3649
  315MPD2    H1 4792   4.249   0.081  17.614  1.7835  2.1347 -0.2775
  315MPD2    H2 4793   4.209   4.660   0.262  1.1428 -1.3739 -0.2550
  315MPD2    H3 4794   4.114   4.731   0.037  0.3694  0.5555  1.5907
  315MPD2     N 4795   4.529   0.041  17.605  0.9907 -0.1003 -0.5536
  315MPD2    H5 4796   4.626   0.014  17.613  1.0933  0.1664 -0.9200
  315MPD2    N1 4797   4.477   4.625   0.310 -0.2336 -0.2315 -0.3014
  315MPD2    H7 4798   4.579   4.621   0.311 -0.1784  1.4175 -0.1631
  316TMC3    C1 4799   4.598   0.065  17.390 -0.5083 -0.2052 -0.3006
  316TMC3    C2 4800   4.724   0.060  17.431  0.0945  0.2266 -0.1915
  316TMC3    C3 4801   0.091   0.035  17.350 -0.6294  0.6806  0.2100
  316TMC3    C4 4802   4.565   0.063  17.258 -0.1255  0.4258 -0.0319
  316TMC3    C5 4803   4.672   0.041  17.173 -0.3765 -0.4512  0.2703
  316TMC3    C6 4804   0.069   0.024  17.212  0.7261  0.5006  0.1591
  316TMC3     C 4805   4.490   0.077  17.479 -1.1242 -0.9045  0.2521
  316TMC3     O 4806   4.381   0.099  17.432 -0.8148  0.2110  0.4315
  316TMC3     H 4807   0.022   0.083  17.533 -1.9433  3.2479 -0.2124
  316TMC3    H1 4808   4.463   0.062  17.219  0.2618  1.5425 -1.0508
  316TMC3    H2 4809   0.147   0.032  17.137  2.3488  0.7364  1.9005
  316TMC3    C7 4810   4.654   0.049  17.031  0.2870 -0.7160  0.9905
  316TMC3    C8 4811   0.216   0.106  17.394 -0.1181 -0.2430  0.3246
  316TMC3    O1 4812   4.720   4.705  16.963 -0.8365  0.4223  0.1839
  316TMC3    O2 4813   0.316   0.039  17.399 -0.6460  0.0170  0.0707
  317MPD2     C 4814   1.973   3.210  13.488  0.0329  0.0784  0.4349
  317MPD2    C1 4815   2.032   3.153  13.379  0.0854 -0.2186  0.1532
  317MPD2    C2 4816   2.116   3.037  13.404 -0.2570  0.4537 -0.1135
  317MPD2    C3 4817   2.143   2.991  13.531 -0.3258 -1.0014 -0.2355
  317MPD2    C4 4818   2.093   3.068  13.632  0.2476 -0.5225 -0.3630
  317MPD2    C5 4819   2.022   3.183  13.612 -0.6216 -0.1214  0.0156
  317MPD2     H 4820   2.172   2.985  13.327 -1.2538  1.6752 -1.6579
  317MPD2    H1 4821   2.119   3.048  13.735  0.8768 -1.1808 -0.6489
  317MPD2    H2 4822   1.910   3.299  13.489 -1.2115 -0.8023 -0.3614
  317MPD2    H3 4823   1.987   3.242  13.696  2.2191  0.1597  0.9855
  317MPD2     N 4824   2.227   2.881  13.548 -0.0867  0.0454  0.3454
  317MPD2    H5 4825   2.245   2.822  13.468 -1.0783  0.1650  0.0315
  317MPD2    N1 4826   2.007   3.178  13.249 -0.1281 -0.2133  0.0913
  317MPD2    H7 4827   2.046   3.111  13.183 -1.5595 -1.3903  0.4452
  318TMC3    C1 4828   2.367   2.735  13.661  0.0041 -0.0750 -0.2843
  318TMC3    C2 4829   2.316   2.629  13.590 -0.1077 -0.1266  0.3665
  318TMC3    C3 4830   2.380   2.513  13.597  0.1302 -0.6001 -0.8826
  318TMC3    C4 4831   2.471   2.725  13.750 -0.8577 -0.0544  0.2330
  318TMC3    C5 4832   2.538   2.606  13.753  0.9055  1.1733  1.0047
  318TMC3    C6 4833   2.492   2.499  13.683  0.5811  0.3362  0.5082
  318TMC3     C 4834   2.294   2.863  13.663 -0.3953 -0.7800 -0.0213
  318TMC3     O 4835   2.323   2.932  13.761 -0.2036  0.4769 -0.5864
  318TMC3     H 4836   2.216   2.639  13.550 -0.2985  0.8790  1.1007
  318TMC3    H1 4837   2.511   2.804  13.813 -1.9672  0.6362  0.0776
  318TMC3    H2 4838   2.550   2.408  13.684  2.1128  1.2858 -1.3338
  318TMC3    C7 4839   2.615   2.577  13.873  0.3912 -0.4686 -0.6065
  318TMC3    C8 4840   2.316   2.391  13.563 -0.3376 -0.0771 -0.2025
  318TMC3    O1 4841   2.587   2.653  13.962 -0.1458  0.4063  0.1743
  318TMC3    O2 4842   2.350   2.296  13.631  0.1133  0.7251 -0.1197
  319MPD2     C 4843   2.777   4.579  16.837  0.2547 -0.3633  0.1246
  319MPD2    C1 4844   2.762   4.438  16.850 -0.0589 -0.0465  0.5890
  319MPD2    C2 4845   2.753   4.358  16.741 -0.0817 -0.0311 -0.0004
  319MPD2    C3 4846   2.756   4.412  16.616 -0.4475  0.0062 -0.5549
  319MPD2    C4 4847   2.782   4.550  16.599 -0.6084  0.2756  0.3475
  319MPD2    C5 4848   2.786   4.629  16.710 -0.1987  0.6629  0.4343
  319MPD2     H 4849   2.744   4.252  16.759  0.8663 -0.0350  0.4371
  319MPD2    H1 4850   2.783   4.593  16.499  1.2013 -0.3466  0.1022
  319MPD2    H2 4851   2.784   4.651  16.918 -0.2985 -0.7906  0.5525
  319MPD2    H3 4852   2.791   0.003  16.700  0.3921  0.7363  1.5510
  319MPD2     N 4853   2.726   4.337  16.504 -0.0665  0.0209 -0.2057
  319MPD2    H5 4854   2.693   4.389  16.424  2.5012  1.8971 -0.0345
  319MPD2    N1 4855   2.762   4.368  16.974 -0.2338  0.5492  0.3609
  319MPD2    H7 4856   2.730   4.272  16.973 -0.0656  0.4780  2.2057
  320TMC3    C1 4857   2.667   4.148  16.371  1.0029  0.2265 -0.1403
  320TMC3    C2 4858   2.558   4.207  16.318  0.1339  0.0965  0.2930
  320TMC3    C3 4859   2.483   4.147  16.226 -0.1730  0.3521 -0.3158
  320TMC3    C4 4860   2.691   4.020  16.343 -0.3045 -0.3151 -0.1256
  320TMC3    C5 4861   2.612   3.954  16.253 -0.5029 -0.2114  0.3173
  320TMC3    C6 4862   2.504   4.013  16.198  0.1614 -0.0096 -0.7539
  320TMC3     C 4863   2.726   4.201  16.493  0.2193 -0.3446  0.5950
  320TMC3     O 4864   2.758   4.121  16.580  0.5256 -0.4860  0.6377
  320TMC3     H 4865   2.520   4.305  16.344 -0.8881  0.9811 -4.4866
  320TMC3    H1 4866   2.782   3.976  16.383 -0.5803  0.3661  1.2234
  320TMC3    H2 4867   2.457   3.963  16.114 -0.5609 -0.3873 -0.1277
  320TMC3    C7 4868   2.638   3.814  16.218 -0.0892 -0.6701 -0.3292
  320TMC3    C8 4869   2.360   4.204  16.172  0.0829  0.3319 -0.3355
  320TMC3    O1 4870   2.605   3.784  16.102 -0.0192  0.0018  0.1392
  320TMC3    O2 4871   2.341   4.322  16.193 -0.4136  0.1388 -0.2565
  321TMC3    C1 4872   2.772   4.338  17.203 -1.2217 -0.0896 -0.8492
  321TMC3    C2 4873   2.774   4.201  17.192 -0.1416  0.1359  0.2403
  321TMC3    C3 4874   2.761   4.124  17.307  0.1895  0.3221 -0.0724
  321TMC3    C4 4875   2.748   4.401  17.321 -0.5187  0.0006  0.1683
  321TMC3    C5 4876   2.728   4.322  17.433  0.6500  0.4133 -0.3927
  321TMC3    C6 4877   2.724   4.181  17.429  0.1094  0.1563 -0.6105
  321TMC3     C 4878   2.790   4.429  17.096 -0.6465 -0.0745 -0.4748
  321TMC3     O 4879   2.819   4.541  17.126 -0.3070 -0.1824 -0.3551
  321TMC3     H 4880   2.787   4.148  17.098  1.0433 -0.7947  0.9205
  321TMC3    H1 4881   2.740   4.509  17.323  1.4962  0.1595 -1.0359
  321TMC3    H2 4882   2.709   4.128  17.522 -1.1150  1.2096 -0.1921
  321TMC3    C7 4883   2.801   4.371  17.542  0.2587  0.2823  0.4428
  321TMC3    C8 4884   2.867   4.027  17.339 -0.5841 -0.3125 -0.0562
  321TMC3    O1 4885   2.812   4.494  17.547  0.6326  0.5660 -0.1234
  321TMC3    O2 4886   2.874   4.004  17.453 -0.2520 -0.1689 -0.3035
  322MPD2     C 4887   1.743   0.873  13.460 -0.0097  0.2592 -0.3838
  322MPD2    C1 4888   1.772   0.779  13.561  0.1518  0.4847  0.3206
  322MPD2    C2 4889   1.808   0.648  13.527 -0.0335  0.0706  0.3241
  322MPD2    C3 4890   1.799   0.605  13.394  0.4041 -0.5633  0.0149
  322MPD2    C4 4891   1.755   0.691  13.297 -0.2989 -0.5523  0.3227
  322MPD2    C5 4892   1.725   0.822  13.333 -0.2425 -0.1578  0.0031
  322MPD2     H 4893   1.834   0.579  13.607  1.9057 -2.2221 -2.2824
  322MPD2    H1 4894   1.730   0.664  13.195 -2.8226  0.0520  0.7765
  322MPD2    H2 4895   1.727   0.977  13.484 -0.1890  0.3059 -0.7079
  322MPD2    H3 4896   1.686   0.892  13.260 -0.9635 -1.4420 -0.8337
  322MPD2     N 4897   1.827   0.466  13.362  0.3818 -0.4242 -0.1439
  322MPD2    H5 4898   1.848   0.416  13.448  0.8159 -0.0079 -0.0056
  322MPD2    N1 4899   1.803   0.829  13.687 -0.1535 -0.2210 -0.0346
  322MPD2    H7 4900   1.807   0.929  13.703  0.1914 -0.5504  1.9120
  323TMC3    C1 4901   1.935   0.830  13.882  0.1473 -0.1734  0.7886
  323TMC3    C2 4902   2.021   0.916  13.820 -0.3699  0.3012  0.2852
  323TMC3    C3 4903   2.140   0.944  13.887 -0.3660  0.0457  0.8879
  323TMC3    C4 4904   1.958   0.775  14.011  0.2842 -0.4225 -0.4266
  323TMC3    C5 4905   2.082   0.806  14.069  0.0759 -0.0586  0.3097
  323TMC3    C6 4906   2.172   0.891  14.010  0.3243 -0.3083 -0.3597
  323TMC3     C 4907   1.846   0.757  13.801  0.4345  0.1644 -0.1411
  323TMC3     O 4908   1.802   0.653  13.850 -0.2347 -0.2021 -0.2405
  323TMC3     H 4909   2.019   0.915  13.711  0.9455 -1.2405  0.2641
  323TMC3    H1 4910   1.886   0.708  14.057 -0.3710  0.2233 -0.5125
  323TMC3    H2 4911   2.268   0.912  14.055 -0.0864 -0.5369  0.6232
  323TMC3    C7 4912   2.128   0.720  14.170  0.5379 -0.4480 -0.3976
  323TMC3    C8 4913   2.253   0.977  13.802  0.1432  0.2872  0.1926
  323TMC3    O1 4914   2.050   0.638  14.219  0.0401 -0.0054 -0.4159
  323TMC3    O2 4915   2.365   0.951  13.836 -0.1651  0.3080  0.5617
  324MPD2     C 4916   3.250   1.407  14.231 -0.1257 -0.3771  0.6973
  324MPD2    C1 4917   3.314   1.528  14.260 -0.8017 -0.7729 -0.1006
  324MPD2    C2 4918   3.237   1.625  14.328 -0.1479 -0.5062  0.2209
  324MPD2    C3 4919   3.099   1.608  14.333 -0.5178  0.0787 -0.0907
  324MPD2    C4 4920   3.036   1.492  14.286 -0.1671 -0.0181  0.4098
  324MPD2    C5 4921   3.118   1.388  14.247  0.3595 -0.5630  0.4152
  324MPD2     H 4922   3.281   1.723  14.343  0.6991 -1.0409  1.2394
  324MPD2    H1 4923   2.932   1.461  14.282  0.1127 -0.7207 -1.9024
  324MPD2    H2 4924   3.294   1.322  14.179  1.9537  1.4979 -0.6324
  324MPD2    H3 4925   3.073   1.293  14.223  0.4423 -0.4270 -0.2858
  324MPD2     N 4926   3.006   1.706  14.372 -0.5334 -0.1252 -0.3104
  324MPD2    H5 4927   2.906   1.690  14.362 -0.3175 -2.2833  0.9682
  324MPD2    N1 4928   3.448   1.559  14.227 -0.1001  0.2642 -0.0909
  324MPD2    H7 4929   3.496   1.630  14.280 -1.6705  1.3157 -0.0592
  325TMC3    C1 4930   2.923   1.906  14.472 -0.1158 -0.3117 -0.2842
  325TMC3    C2 4931   2.817   1.876  14.389  0.0928 -1.0316  0.4202
  325TMC3    C3 4932   2.729   1.981  14.380 -0.5705 -0.7725  0.0483
  325TMC3    C4 4933   2.949   2.024  14.541  0.1012  0.1081  0.1350
  325TMC3    C5 4934   2.852   2.126  14.524 -0.1468 -0.0528  0.5821
  325TMC3    C6 4935   2.744   2.102  14.437  0.3913  0.8340  0.2619
  325TMC3     C 4936   3.038   1.819  14.443  0.5446  0.0524 -0.0906
  325TMC3     O 4937   3.143   1.871  14.472  0.3679 -0.7911  0.7191
  325TMC3     H 4938   2.778   1.778  14.366  0.9424 -1.2394 -0.1162
  325TMC3    H1 4939   3.034   2.035  14.607  2.0658 -2.6747 -1.9357
  325TMC3    H2 4940   2.679   2.184  14.411  1.5490  1.2832 -1.2168
  325TMC3    C7 4941   2.821   2.198  14.648 -0.2231 -0.3036  0.8045
  325TMC3    C8 4942   2.588   1.936  14.389  0.3669 -0.1542 -0.7821
  325TMC3    O1 4943   2.911   2.200  14.730 -0.2381 -0.1179  0.1203
  325TMC3    O2 4944   2.509   2.006  14.458 -0.3471 -0.2885  0.3252
  326MPD2     C 4945   4.326   3.657  11.673  0.0825 -0.4152  0.4660
  326MPD2    C1 4946   4.266   3.687  11.557  0.1872  0.0955 -0.1275
  326MPD2    C2 4947   4.342   3.713  11.447 -0.1749 -0.0803 -0.6446
  326MPD2    C3 4948   4.475   3.704  11.443  0.1420  0.7258  1.0180
  326MPD2    C4 4949   4.541   3.686  11.566 -0.5510  0.0610 -0.4873
  326MPD2    C5 4950   4.470   3.647  11.672  0.0419  0.3440  0.1479
  326MPD2     H 4951   4.290   3.747  11.359 -0.5745  2.0191  0.4028
  326MPD2    H1 4952   4.647   3.701  11.578 -0.4359 -2.0812  1.2593
  326MPD2    H2 4953   4.274   3.645  11.767  1.4223  0.7667  1.3391
  326MPD2    H3 4954   4.511   3.632  11.772  2.6750 -2.3883 -1.3456
  326MPD2     N 4955   4.552   3.724  11.327 -0.4855  0.0776 -0.6857
  326MPD2    H5 4956   4.648   3.756  11.326 -0.0721 -1.1120 -0.0369
  326MPD2    N1 4957   4.127   3.697  11.551  0.2316  1.0339  0.5293
  326MPD2    H7 4958   4.093   3.724  11.459 -0.9443 -1.3315  0.2609
  327TMC3    C1 4959   3.899   3.673  11.571  0.0245  0.3449  0.3174
  327TMC3    C2 4960   3.895   3.773  11.472 -0.6411  0.9389  0.1672
  327TMC3    C3 4961   3.868   3.745  11.338  0.7303  0.1822  0.1297
  327TMC3    C4 4962   3.874   3.543  11.536  0.3658 -0.4331  0.3330
  327TMC3    C5 4963   3.850   3.517  11.410 -0.0425  0.0027 -0.6719
  327TMC3    C6 4964   3.840   3.613  11.304 -0.6244 -0.2546 -0.0529
  327TMC3     C 4965   4.025   3.673  11.647  0.1559 -0.3114 -0.5174
  327TMC3     O 4966   4.031   3.607  11.752  0.1302  0.4966 -0.6104
  327TMC3     H 4967   3.914   3.877  11.493 -1.0125  1.2501 -1.0809
  327TMC3    H1 4968   3.890   3.459  11.603 -1.3738 -0.8228  0.2800
  327TMC3    H2 4969   3.825   3.584  11.201 -1.3104  0.1912 -0.0831
  327TMC3    C7 4970   3.872   3.378  11.370  0.3328  0.3786 -0.5126
  327TMC3    C8 4971   3.871   3.856  11.247  0.3861  0.6410 -0.6376
  327TMC3    O1 4972   3.845   3.291  11.451 -0.0913  0.5580  0.1009
  327TMC3    O2 4973   3.917   3.961  11.286 -0.0673  0.2560 -0.2902
  328MPD2     C 4974   2.571   2.693  17.468 -0.5537  0.2342  0.4839
  328MPD2    C1 4975   2.504   2.653  17.353 -0.0434 -0.1726 -0.8115
  328MPD2    C2 4976   2.445   2.757  17.279  0.7606  0.3601 -0.3231
  328MPD2    C3 4977   2.470   2.890  17.309 -0.5626 -0.2908  0.1962
  328MPD2    C4 4978   2.558   2.927  17.407 -0.0090 -0.5030 -0.1535
  328MPD2    C5 4979   2.603   2.826  17.486  0.5090  0.1810 -0.6780
  328MPD2     H 4980   2.370   2.738  17.203  0.7484  1.7514 -0.6600
  328MPD2    H1 4981   2.563   3.031  17.439 -0.4263 -0.8540  1.0459
  328MPD2    H2 4982   2.604   2.622  17.543 -0.0742  1.1240  1.1283
  328MPD2    H3 4983   2.658   2.855  17.575 -0.5705 -0.6909  0.2691
  328MPD2     N 4984   2.398   2.994  17.243  0.0660 -0.6690  0.0256
  328MPD2    H5 4985   2.416   3.090  17.272 -5.8937  0.3261  0.4733
  328MPD2    N1 4986   2.441   2.524  17.347  0.6060  0.3182  0.2548
  328MPD2    H7 4987   2.440   2.466  17.429 -1.6925 -1.7753 -1.2541
  329TMC3    C1 4988   2.292   2.355  17.259  0.3041  0.2350  0.2621
  329TMC3    C2 4989   2.190   2.327  17.169 -0.5214 -0.0730 -0.4001
  329TMC3    C3 4990   2.077   2.261  17.220  0.0393  0.1962  0.6375
  329TMC3    C4 4991   2.299   2.288  17.380 -0.4643  0.0750  0.1421
  329TMC3    C5 4992   2.193   2.212  17.420 -1.1195 -0.2974  0.0360
  329TMC3    C6 4993   2.078   2.197  17.338 -0.2376  0.2236  0.7904
  329TMC3     C 4994   2.367   2.484  17.239 -0.1773 -0.6635 -0.2580
  329TMC3     O 4995   2.375   2.526  17.129 -0.1610 -0.4963 -0.1271
  329TMC3     H 4996   2.181   2.389  17.081 -0.7788 -0.1706 -0.4442
  329TMC3    H1 4997   2.380   2.301  17.451  1.7418 -1.0939 -2.1612
  329TMC3    H2 4998   1.993   2.133  17.358 -0.4712  0.4336  0.4613
  329TMC3    C7 4999   2.197   2.154  17.556 -0.8263  0.5251 -0.6074
  329TMC3    C8 5000   1.954   2.280  17.152 -0.0937 -0.2142  0.1631
  329TMC3    O1 5001   2.306   2.124  17.604 -0.1228 -0.5925 -0.7670
  329TMC3    O2 5002   1.961   2.307  17.031  0.1150 -0.4576 -0.0794
  330TMC3    C1 5003   4.368   3.052   9.342  0.1431 -0.4663  1.2410
  330TMC3    C2 5004   4.276   2.954   9.318  0.8955  0.7868 -0.0665
  330TMC3    C3 5005   4.277   2.896   9.196  0.7248 -0.5959  0.3001
  330TMC3    C4 5006   4.453   3.097   9.250 -0.1040  0.3363  1.0222
  330TMC3    C5 5007   4.444   3.040   9.132  0.5753 -0.0261 -0.4925
  330TMC3    C6 5008   4.350   2.949   9.102  0.0600 -0.5295 -0.6481
  330TMC3     C 5009   4.401   3.087   9.476 -0.2775 -0.4798 -0.6161
  330TMC3     O 5010   4.516   3.120   9.498 -0.2833 -0.3567  0.7134
  330TMC3     H 5011   4.200   2.927   9.391  1.0609 -2.8232 -1.2338
  330TMC3    H1 5012   4.525   3.178   9.258  0.2063  0.1907 -0.3972
  330TMC3    H2 5013   4.358   2.904   9.004  0.1965 -3.5188  0.7540
  330TMC3    C7 5014   4.483   3.129   9.023 -0.5983  0.4508 -0.2619
  330TMC3    C8 5015   4.165   2.811   9.162 -0.0901 -0.1610  0.2453
  330TMC3    O1 5016   4.399   3.198   8.973 -0.1787 -0.0985  0.1535
  330TMC3    O2 5017   4.128   2.813   9.042 -0.0471  0.0622 -0.4479
  331MPD2     C 5018   3.272   1.879  12.651 -0.3353  0.1458 -0.0251
  331MPD2    C1 5019   3.171   1.806  12.589  1.0088 -0.2585 -0.0597
  331MPD2    C2 5020   3.179   1.672  12.585  0.3626 -0.3023  0.0841
  331MPD2    C3 5021   3.290   1.598  12.637 -0.3271  0.2349  0.2811
  331MPD2    C4 5022   3.388   1.669  12.704 -0.0146  0.5271 -0.8699
  331MPD2    C5 5023   3.377   1.808  12.709  0.2670 -0.4704  0.3303
  331MPD2     H 5024   3.101   1.610  12.541 -0.2771  0.0431  0.7435
  331MPD2    H1 5025   3.472   1.619  12.752 -1.3429  0.4276  1.3097
  331MPD2    H2 5026   3.263   1.987  12.661 -2.9681 -0.2932  2.3849
  331MPD2    H3 5027   3.457   1.865  12.756  0.9016 -1.1660  0.0768
  331MPD2     N 5028   3.282   1.460  12.616 -0.3464 -0.4826 -0.5927
  331MPD2    H5 5029   3.201   1.433  12.562 -0.3166  0.7426 -1.2514
  331MPD2    N1 5030   3.055   1.870  12.530 -0.6185  0.0806  0.0676
  331MPD2    H7 5031   3.056   1.971  12.520 -0.2971  0.0270 -0.4418
  332TMC3    C1 5032   3.340   1.240  12.596  0.3700  0.9468  0.0195
  332TMC3    C2 5033   3.233   1.226  12.508 -0.0170 -0.2615  0.3325
  332TMC3    C3 5034   3.173   1.102  12.494 -0.8295 -0.3040 -0.5530
  332TMC3    C4 5035   3.382   1.134  12.667 -0.0378  0.4133 -0.4527
  332TMC3    C5 5036   3.322   1.007  12.652 -0.3338 -0.5336 -0.2351
  332TMC3    C6 5037   3.222   0.993  12.563  0.8345 -0.0842  0.1821
  332TMC3     C 5038   3.383   1.375  12.628  0.8629 -0.2883 -0.1201
  332TMC3     O 5039   3.498   1.393  12.668  0.4891  0.1791 -0.2017
  332TMC3     H 5040   3.197   1.308  12.447  0.9901  0.9504  1.3681
  332TMC3    H1 5041   3.458   1.145  12.743 -0.3148 -2.9108  0.3448
  332TMC3    H2 5042   3.183   0.893  12.547  1.9693 -0.5766  0.4464
  332TMC3    C7 5043   3.346   0.899  12.739  0.2382 -0.4099  0.6662
  332TMC3    C8 5044   3.071   1.088  12.397 -0.2774 -0.0068  0.0438
  332TMC3    O1 5045   3.254   0.816  12.742 -0.3236 -0.9044 -0.0470
  332TMC3    O2 5046   3.052   1.177  12.320  1.1281  0.1149  0.7644
  333MPD2     C 5047   2.429   1.835  10.903  0.5575 -0.1667  0.5887
  333MPD2    C1 5048   2.560   1.789  10.898 -0.0359  0.2246  0.1650
  333MPD2    C2 5049   2.592   1.654  10.906 -0.4717 -0.6602  0.0690
  333MPD2    C3 5050   2.490   1.563  10.921 -0.3433 -0.3022  0.2909
  333MPD2    C4 5051   2.362   1.607  10.901  0.1102 -0.9588 -0.5483
  333MPD2    C5 5052   2.331   1.744  10.892 -0.5204  0.9267 -0.1545
  333MPD2     H 5053   2.692   1.611  10.904 -0.2610 -0.1425 -0.5693
  333MPD2    H1 5054   2.282   1.537  10.880 -1.6653  0.3431  1.9267
  333MPD2    H2 5055   2.399   1.939  10.909  0.8321  0.0057 -1.0339
  333MPD2    H3 5056   2.230   1.776  10.869 -0.2534  0.9948 -1.2426
  333MPD2     N 5057   2.522   1.421  10.925 -0.4382  0.1212 -0.0119
  333MPD2    H5 5058   2.622   1.405  10.930  0.2217  3.2744 -2.4252
  333MPD2    N1 5059   2.661   1.889  10.885 -0.1915  0.0138 -0.1798
  333MPD2    H7 5060   2.618   1.978  10.861  0.2116  0.5296  1.0239
  334TMC3    C1 5061   2.878   1.992  10.878  0.9487  0.3041 -0.5131
  334TMC3    C2 5062   2.993   1.979  10.807 -0.7699  0.0432  0.1774
  334TMC3    C3 5063   3.063   2.095  10.794 -0.0109  0.3907  0.5702
  334TMC3    C4 5064   2.828   2.109  10.933 -0.4213  0.1423 -0.0767
  334TMC3    C5 5065   2.908   2.218  10.924  0.1530 -0.2980  0.2002
  334TMC3    C6 5066   3.032   2.209  10.871  1.0126 -0.3864  0.7790
  334TMC3     C 5067   2.796   1.871  10.876 -0.2118 -1.0426  0.1622
  334TMC3     O 5068   2.859   1.767  10.873 -0.1106  0.1521 -0.7529
  334TMC3     H 5069   3.020   1.884  10.763 -0.3789 -1.0114  2.7354
  334TMC3    H1 5070   2.737   2.123  10.991 -0.3349  0.8382 -0.0998
  334TMC3    H2 5071   3.080   2.304  10.852 -0.5367  0.2813  0.1473
  334TMC3    C7 5072   2.859   2.343  10.978  0.5013  0.0243 -0.4803
  334TMC3    C8 5073   3.190   2.093  10.733  0.1394 -0.6230 -0.5494
  334TMC3    O1 5074   2.937   2.422  11.027  0.4373 -0.2423 -0.0282
  334TMC3    O2 5075   3.263   2.165  10.797 -0.4647 -0.0954  0.7988
  335TMC3    C1 5076   3.070   2.906  17.636 -0.0310 -0.5550  0.1028
  335TMC3    C2 5077   3.016   2.799  17.565  0.6711  0.1337  0.6017
  335TMC3    C3 5078   3.056   2.797  17.433  0.7448  0.0457 -0.0782
  335TMC3    C4 5079   3.163   2.996  17.584 -0.0380 -0.0096 -0.2187
  335TMC3    C5 5080   3.206   2.980  17.455 -0.5348  0.3655 -0.0530
  335TMC3    C6 5081   3.151   2.879  17.381 -0.6338 -0.3329  1.5031
  335TMC3     C 5082   3.015   2.942   0.026  0.2841  0.5116 -0.1946
  335TMC3     O 5083   3.004   3.060   0.054  0.1583  0.2816 -0.3507
  335TMC3     H 5084   2.926   2.748  17.598  0.1460  0.8687  0.2962
  335TMC3    H1 5085   3.200   3.070  17.654  0.7237  1.4901 -2.2276
  335TMC3    H2 5086   3.168   2.889  17.275  1.0157 -2.8359  1.5216
  335TMC3    C7 5087   3.347   3.021  17.426  0.0856  0.3872 -0.2785
  335TMC3    C8 5088   2.979   2.724  17.333  0.2448  0.3151 -0.4469
  335TMC3    O1 5089   3.405   2.961  17.336 -0.4622 -0.7926 -0.5583
  335TMC3    O2 5090   3.011   2.741  17.215 -0.2529 -0.5140 -0.2122
  336MPD2     C 5091   2.583   0.715  16.503  0.3851  0.4791  0.2120
  336MPD2    C1 5092   2.513   0.733  16.384  0.3573  0.3102  0.4496
  336MPD2    C2 5093   2.483   0.626  16.305  0.1948 -0.1907  0.3213
  336MPD2    C3 5094   2.525   0.501  16.346  0.8012 -0.4187 -0.6933
  336MPD2    C4 5095   2.598   0.488  16.458 -0.1284  0.7731  0.0858
  336MPD2    C5 5096   2.631   0.594  16.535  0.4990 -0.5756  0.6343
  336MPD2     H 5097   2.416   0.625  16.221  0.9180  0.7771 -0.2647
  336MPD2    H1 5098   2.644   0.392  16.478 -0.1424  0.7748  0.1254
  336MPD2    H2 5099   2.603   0.796  16.572 -1.7513 -1.5072  3.1142
  336MPD2    H3 5100   2.693   0.585  16.623  1.7408 -2.5677 -0.4609
  336MPD2     N 5101   2.499   0.381  16.282 -0.4221  0.4559  0.3019
  336MPD2    H5 5102   2.550   0.303  16.322  1.1823  1.0512 -0.5956
  336MPD2    N1 5103   2.437   0.846  16.349 -0.2023 -0.4802  0.7292
  336MPD2    H7 5104   2.386   0.839  16.261  0.1889  2.0014  0.2901
  337TMC3    C1 5105   2.321   1.042  16.389  0.1624  0.5529 -0.8388
  337TMC3    C2 5106   2.220   0.986  16.314 -0.5753  1.0279 -0.1112
  337TMC3    C3 5107   2.112   1.068  16.292  1.5776 -0.6229  0.0353
  337TMC3    C4 5108   2.308   1.169  16.448  0.0469  0.4589  0.2416
  337TMC3    C5 5109   2.190   1.240  16.431 -0.4489 -0.1773 -0.4735
  337TMC3    C6 5110   2.088   1.187  16.358 -0.8320  0.4982  0.0826
  337TMC3     C 5111   2.432   0.959  16.429  0.2597 -0.3115 -0.5225
  337TMC3     O 5112   2.490   0.992  16.531  0.5409  0.5443  0.0491
  337TMC3     H 5113   2.220   0.885  16.273  2.7113  1.6215 -1.5221
  337TMC3    H1 5114   2.390   1.205  16.509  0.5975 -0.1219 -0.1540
  337TMC3    H2 5115   1.999   1.248  16.348 -0.5693  0.7506 -0.7146
  337TMC3    C7 5116   2.170   1.366  16.508 -0.3097  0.9060  0.5903
  337TMC3    C8 5117   2.023   1.012  16.187 -0.3534  0.1487  0.6029
  337TMC3    O1 5118   2.054   1.397  16.516 -0.3751  0.2992 -0.4125
  337TMC3    O2 5119   2.079   0.966  16.091  0.0611  0.2955 -0.3715
  338MPD2     C 5120   2.476   0.120   0.976  0.8400 -1.1012  0.4124
  338MPD2    C1 5121   2.450   0.082   0.849  1.3171  0.4582 -0.1329
  338MPD2    C2 5122   2.327   0.113   0.791  0.2149  0.3655  1.3413
  338MPD2    C3 5123   2.239   0.191   0.856  0.6664 -0.3629 -0.4886
  338MPD2    C4 5124   2.267   0.232   0.986 -0.3771 -0.1003  0.4794
  338MPD2    C5 5125   2.385   0.199   1.041  0.0145 -0.0803  0.3020
  338MPD2     H 5126   2.308   0.082   0.689  1.2504 -1.7370  1.8055
  338MPD2    H1 5127   2.196   0.290   1.043 -0.3846 -2.1626  2.5947
  338MPD2    H2 5128   2.564   0.092   1.033  1.3035  0.6075  0.5445
  338MPD2    H3 5129   2.408   0.239   1.139 -0.3462  1.1383 -0.1125
  338MPD2     N 5130   2.123   0.232   0.783 -0.3541  0.4025 -0.1675
  338MPD2    H5 5131   2.102   0.176   0.701 -0.0893 -0.8339  0.6243
  338MPD2    N1 5132   2.540   4.728   0.780  0.8691  0.4225 -0.0728
  338MPD2    H7 5133   2.512   4.710   0.685  1.2909  1.3991 -0.3781
  339TMC3    C1 5134   1.918   0.314   0.741  0.4203  0.4525 -0.6418
  339TMC3    C2 5135   1.882   0.182   0.722  0.3746 -0.2545  0.2122
  339TMC3    C3 5136   1.811   0.156   0.605  0.0009  0.2180 -0.6851
  339TMC3    C4 5137   1.895   0.417   0.653 -0.3321 -0.3178 -0.5189
  339TMC3    C5 5138   1.836   0.388   0.536 -0.1750 -0.5644  0.3102
  339TMC3    C6 5139   1.781   0.256   0.515 -0.5787 -0.5473 -0.5143
  339TMC3     C 5140   2.040   0.330   0.814 -0.2991  0.1856 -1.0235
  339TMC3     O 5141   2.055   0.432   0.878  0.3595  0.0967 -0.3800
  339TMC3     H 5142   1.919   0.102   0.786  0.1173  0.7216  1.5691
  339TMC3    H1 5143   1.946   0.512   0.647  2.0725 -1.6314 -0.8279
  339TMC3    H2 5144   1.720   0.242   0.427  1.0197 -0.6429 -1.6195
  339TMC3    C7 5145   1.847   0.482   0.423  0.4724  0.5920  0.1517
  339TMC3    C8 5146   1.758   0.021   0.578 -0.2362  0.0281  0.4408
  339TMC3    O1 5147   1.885   0.597   0.438  0.3667  0.2348  0.1782
  339TMC3    O2 5148   1.716   0.000   0.464  0.1168  0.1485  0.1672
  340MPD2     C 5149   2.661   3.137  10.090  0.1744  0.2004 -0.6057
  340MPD2    C1 5150   2.652   2.998  10.089 -0.1345  0.0975  0.3223
  340MPD2    C2 5151   2.656   2.930  10.215  0.4317  0.7410 -0.5617
  340MPD2    C3 5152   2.651   2.995  10.334  0.5166  0.1693  0.1950
  340MPD2    C4 5153   2.664   3.135  10.332  0.2563 -0.6507 -0.4224
  340MPD2    C5 5154   2.663   3.204  10.210  0.9060 -0.2577 -0.2500
  340MPD2     H 5155   2.650   2.821  10.215  0.1620  0.7591  0.8898
  340MPD2    H1 5156   2.663   3.194  10.423 -0.5320 -0.2775 -0.6703
  340MPD2    H2 5157   2.662   3.189   9.995  0.6874 -0.4663 -0.9569
  340MPD2    H3 5158   2.649   3.311  10.207 -0.6732 -0.4456  0.5893
  340MPD2     N 5159   2.633   2.926  10.457  0.4023 -0.5066  0.2149
  340MPD2    H5 5160   2.646   2.980  10.543 -1.9570 -0.6981  0.6940
  340MPD2    N1 5161   2.657   2.941   9.962 -0.2834  0.3155 -0.3735
  340MPD2    H7 5162   2.654   3.007   9.885  1.6734  2.9936  1.8198
  341TMC3    C1 5163   2.682   2.770   9.806 -0.0265  0.4250  0.2110
  341TMC3    C2 5164   2.639   2.643   9.775  0.5952  0.0205 -0.7288
  341TMC3    C3 5165   2.653   2.603   9.644 -0.6051 -0.5913 -0.2981
  341TMC3    C4 5166   2.744   2.852   9.718 -0.3142  0.0249 -0.2883
  341TMC3    C5 5167   2.759   2.809   9.588  0.7864 -0.6815 -0.0344
  341TMC3    C6 5168   2.705   2.686   9.549 -0.2966  0.3273 -0.1459
  341TMC3     C 5169   2.657   2.805   9.939 -0.7732 -0.3786  0.1486
  341TMC3     O 5170   2.645   2.717  10.024 -0.2871 -0.0532 -0.2252
  341TMC3     H 5171   2.573   2.584   9.839  1.7727  1.2875  1.6698
  341TMC3    H1 5172   2.794   2.940   9.757 -1.2315  0.0655  0.7912
  341TMC3    H2 5173   2.729   2.641   9.454  0.8778  2.5903 -0.9237
  341TMC3    C7 5174   2.876   2.867   9.520 -0.5940  0.5344  0.2711
  341TMC3    C8 5175   2.656   2.456   9.621 -0.0572 -0.3454  0.5261
  341TMC3    O1 5176   2.924   2.964   9.577 -0.1788  0.8743 -0.3260
  341TMC3    O2 5177   2.624   2.425   9.505 -0.2844  0.2346  0.2202
  342MPD2     C 5178   0.652   1.059  17.605  0.3078 -0.0998  0.3343
  342MPD2    C1 5179   0.762   1.059  17.519 -0.4049  0.2446  0.4429
  342MPD2    C2 5180   0.833   1.179  17.508 -0.6492  0.1776  0.2428
  342MPD2    C3 5181   0.800   1.292  17.579  0.1558 -0.2826  0.1428
  342MPD2    C4 5182   0.685   1.291  17.662 -0.1768  0.1524 -0.5895
  342MPD2    C5 5183   0.613   1.178  17.673  0.1444  0.0934 -0.4458
  342MPD2     H 5184   0.915   1.175  17.438 -1.1603  0.0181 -0.3407
  342MPD2    H1 5185   0.668   1.380  17.720 -2.0367 -0.0147 -0.8743
  342MPD2    H2 5186   0.581   0.976  17.607 -1.3560  1.3020 -0.6750
  342MPD2    H3 5187   0.519   1.178  17.728 -0.1942 -0.5943 -1.0294
  342MPD2     N 5188   0.882   1.406  17.592  0.1337  0.3408  0.6099
  342MPD2    H5 5189   0.847   1.477  17.656 -0.7193 -1.0478  1.6945
  342MPD2    N1 5190   0.814   0.947  17.459  0.0424  0.1075  1.1706
  342MPD2    H7 5191   0.881   0.961  17.384  0.5224 -0.5804  1.4753
  343TMC3    C1 5192   0.845   0.722  17.417  0.5999  0.4184 -0.4895
  343TMC3    C2 5193   0.953   0.760  17.341  0.1574  0.1576 -0.4004
  343TMC3    C3 5194   1.026   0.660  17.277 -0.0627  0.5549  0.4078
  343TMC3    C4 5195   0.819   0.585  17.437  0.0209 -0.5178 -0.2019
  343TMC3    C5 5196   0.893   0.493  17.373  0.3922 -0.3014  0.8201
  343TMC3    C6 5197   0.979   0.537  17.276 -0.8607 -0.4057 -0.1001
  343TMC3     C 5198   0.770   0.820  17.491  1.4560 -0.0432  0.6258
  343TMC3     O 5199   0.691   0.785  17.575  0.3535 -0.5886 -0.0409
  343TMC3     H 5200   1.005   0.853  17.359  1.1358 -0.5433  0.4007
  343TMC3    H1 5201   0.741   0.554  17.506 -1.4055  1.8893 -0.7309
  343TMC3    H2 5202   1.019   0.478  17.193 -1.4713 -0.4944 -0.3362
  343TMC3    C7 5203   0.840   0.355  17.360  0.0012 -0.3962 -0.4370
  343TMC3    C8 5204   1.115   0.713  17.172 -0.7312  0.6747 -0.1419
  343TMC3    O1 5205   0.730   0.334  17.413 -0.6659  0.6136  0.2009
  343TMC3    O2 5206   1.111   0.832  17.155  0.3567  0.5103 -0.1631
  344MPD2     C 5207   1.449   0.687  10.779  0.3675  0.1367 -0.0463
  344MPD2    C1 5208   1.396   0.639  10.660 -0.1029 -0.3118 -0.6144
  344MPD2    C2 5209   1.400   0.717  10.545  0.0999 -0.1984 -0.3644
  344MPD2    C3 5210   1.452   0.839  10.546 -0.0153 -0.3851 -1.0510
  344MPD2    C4 5211   1.500   0.888  10.665  0.1158 -0.8976 -1.0180
  344MPD2    C5 5212   1.506   0.812  10.781 -0.4864 -1.1256  0.1156
  344MPD2     H 5213   1.372   0.674  10.450  0.8873 -1.0482 -0.2082
  344MPD2    H1 5214   1.543   0.986  10.681 -1.8637  0.1544 -2.1469
  344MPD2    H2 5215   1.434   0.642  10.877 -2.2129 -1.7755 -1.3294
  344MPD2    H3 5216   1.539   0.843  10.880  0.0549  1.1570 -0.7775
  344MPD2     N 5217   1.472   0.925  10.443 -0.1925 -0.4599 -0.1148
  344MPD2    H5 5218   1.513   1.013  10.472 -1.1579  0.2386 -0.8817
  344MPD2    N1 5219   1.343   0.503  10.645 -0.1658  0.1707  0.1809
  344MPD2    H7 5220   1.310   0.474  10.554  0.7986 -0.0744 -0.0853
  345TMC3    C1 5221   1.510   1.008  10.232 -0.1526  0.4639  0.8058
  345TMC3    C2 5222   1.611   1.082  10.284  0.2969  0.0929 -0.9055
  345TMC3    C3 5223   1.669   1.178  10.201  0.2112  0.5215 -0.4672
  345TMC3    C4 5224   1.466   1.026  10.103  0.2305 -0.5502 -0.4104
  345TMC3    C5 5225   1.530   1.118  10.023  0.3201  0.1952 -0.0878
  345TMC3    C6 5226   1.630   1.194  10.073  0.4081 -1.0567 -0.8128
  345TMC3     C 5227   1.451   0.899  10.310  0.2606 -0.0947 -0.3551
  345TMC3     O 5228   1.383   0.811  10.260 -0.3911 -0.5206 -0.0788
  345TMC3     H 5229   1.645   1.059  10.384 -2.1064  0.0472 -0.1006
  345TMC3    H1 5230   1.388   0.957  10.073  0.0515 -0.5269  0.0034
  345TMC3    H2 5231   1.687   1.263  10.012  1.7182 -1.4961 -0.1032
  345TMC3    C7 5232   1.455   1.166   9.908  0.1733 -0.0847 -0.4406
  345TMC3    C8 5233   1.750   1.285  10.257 -0.6871 -1.1475  1.1113
  345TMC3    O1 5234   1.389   1.088   9.842  0.2283 -0.4724  0.3436
  345TMC3    O2 5235   1.810   1.352  10.176  0.0713 -0.0984 -0.4753
  346MPD2     C 5236   1.855   1.820  14.199  0.1999 -0.0409 -0.0014
  346MPD2    C1 5237   1.976   1.891  14.204 -0.4183 -0.0072  0.0791
  346MPD2    C2 5238   1.990   1.991  14.299  0.5990 -0.0769  0.2927
  346MPD2    C3 5239   1.879   2.042  14.372 -0.3944  0.0134  0.2412
  346MPD2    C4 5240   1.759   1.970  14.367 -0.1983 -0.5559  0.0456
  346MPD2    C5 5241   1.752   1.862  14.285  0.2708  0.2150 -0.5845
  346MPD2     H 5242   2.088   2.035  14.308 -0.4897  2.3846 -0.0366
  346MPD2    H1 5243   1.678   1.995  14.435 -0.4764 -0.3921 -0.3526
  346MPD2    H2 5244   1.837   1.734  14.136  0.7718  1.1598 -1.8033
  346MPD2    H3 5245   1.661   1.803  14.281 -0.9161  2.0958 -1.4396
  346MPD2     N 5246   1.898   2.158  14.445  0.3146  0.1089  0.1264
  346MPD2    H5 5247   1.994   2.190  14.455  0.3084  1.1491 -3.1101
  346MPD2    N1 5248   2.081   1.866  14.112 -0.3293 -0.3545  1.3090
  346MPD2    H7 5249   2.160   1.929  14.107 -0.5852 -0.1649 -0.4173
  347TMC3    C1 5250   1.867   2.343  14.587  0.2913 -0.0970 -0.8765
  347TMC3    C2 5251   1.998   2.371  14.584  0.1588  0.4843 -0.1532
  347TMC3    C3 5252   2.060   2.420  14.695  0.4230 -1.4627 -0.0759
  347TMC3    C4 5253   1.793   2.375  14.700 -0.0826 -0.1196 -0.3771
  347TMC3    C5 5254   1.858   2.426  14.813 -0.0903 -0.0967  0.4561
  347TMC3    C6 5255   1.994   2.445  14.817  0.4561  0.4351 -0.1571
  347TMC3     C 5256   1.808   2.240  14.508  0.3896  0.5465  0.1236
  347TMC3     O 5257   1.687   2.230  14.513 -0.0891 -0.5787  0.6601
  347TMC3     H 5258   2.064   2.372  14.498  0.9598 -1.5079  0.4215
  347TMC3    H1 5259   1.685   2.367  14.695 -0.0215  0.5973 -2.8977
  347TMC3    H2 5260   2.050   2.470  14.906  1.0721 -0.7849 -0.1976
  347TMC3    C7 5261   1.775   2.435  14.933 -0.0360 -0.3171  0.2235
  347TMC3    C8 5262   2.207   2.372  14.702  0.3868  0.5088 -0.1792
  347TMC3    O1 5263   1.656   2.422  14.908 -0.5981 -0.7951  0.1221
  347TMC3    O2 5264   2.234   2.279  14.627  0.3653  0.0705 -0.0049
  348MPD2     C 5265   0.356   2.038  11.894  0.7781  0.1611  0.7193
  348MPD2    C1 5266   0.464   2.085  11.827  0.4447  0.3982  0.3387
  348MPD2    C2 5267   0.445   2.191  11.740 -0.3497 -0.1228 -0.1274
  348MPD2    C3 5268   0.319   2.251  11.728 -0.2152  0.6523 -0.3245
  348MPD2    C4 5269   0.210   2.204  11.789  0.1385  0.1314  0.3525
  348MPD2    C5 5270   0.227   2.095  11.878  0.7098 -0.2832  0.3809
  348MPD2     H 5271   0.523   2.232  11.676  0.9310  0.1539  1.6156
  348MPD2    H1 5272   0.109   2.245  11.786 -0.5420 -1.6085 -0.4681
  348MPD2    H2 5273   0.360   1.951  11.959  0.2650 -1.0257 -0.8536
  348MPD2    H3 5274   0.149   2.060  11.945 -0.3406 -1.2905 -1.3704
  348MPD2     N 5275   0.317   2.363  11.645  0.4565  0.5382 -0.3036
  348MPD2    H5 5276   0.406   2.390  11.605 -0.6222 -0.9532 -3.7126
  348MPD2    N1 5277   0.589   2.018  11.836 -0.0971 -0.5787  0.3330
  348MPD2    H7 5278   0.590   1.929  11.883  1.2864 -0.4657  0.5285
  349TMC3    C1 5279   0.793   1.939  11.737  0.3888 -0.6880  0.2619
  349TMC3    C2 5280   0.776   1.823  11.808  1.1133 -0.4582 -0.7643
  349TMC3    C3 5281   0.815   1.712  11.742 -0.0514  0.0117  0.0745
  349TMC3    C4 5282   0.838   1.943  11.613 -0.4572 -0.3676 -0.3117
  349TMC3    C5 5283   0.859   1.828  11.550 -0.3339 -0.1117 -0.5651
  349TMC3    C6 5284   0.852   1.707  11.609 -0.1004 -0.9676 -0.9201
  349TMC3     C 5285   0.701   2.052  11.767  0.2612 -1.1012 -0.0388
  349TMC3     O 5286   0.727   2.164  11.725  0.1343 -0.4467  0.3203
  349TMC3     H 5287   0.745   1.811  11.911 -0.8183  1.1153 -1.1603
  349TMC3    H1 5288   0.842   2.040  11.565 -1.0707 -0.6084 -0.8687
  349TMC3    H2 5289   0.871   1.616  11.553  1.4905 -1.0531 -0.2432
  349TMC3    C7 5290   0.798   1.838  11.416 -0.9018  1.2329 -0.5200
  349TMC3    C8 5291   0.798   1.590  11.822 -0.0075 -0.3309  0.1439
  349TMC3    O1 5292   0.676   1.832  11.411  0.2627  0.1578  0.2019
  349TMC3    O2 5293   0.731   1.587  11.925  0.3136  0.2478 -0.3450
  350MPD2     C 5294   4.612   0.784  10.613  0.2495  0.3704  0.1715
  350MPD2    C1 5295   4.637   0.672  10.689  0.5247  0.8550 -0.6511
  350MPD2    C2 5296   4.709   0.686  10.809  0.2256  0.1263 -0.2935
  350MPD2    C3 5297   4.730   0.808  10.862  0.1677 -0.5584 -0.3008
  350MPD2    C4 5298   4.690   0.916  10.789  0.0947 -0.0992  0.2064
  350MPD2    C5 5299   4.647   0.898  10.661  0.3098  0.0779 -0.3594
  350MPD2     H 5300   0.008   0.596  10.860 -1.5420 -1.0952 -1.3289
  350MPD2    H1 5301   4.699   1.016  10.831 -0.9286  0.9169 -2.0217
  350MPD2    H2 5302   4.567   0.782  10.514  0.5638  1.2890  0.0106
  350MPD2    H3 5303   4.626   0.984  10.598 -1.2534 -0.2448 -0.2990
  350MPD2     N 5304   0.049   0.816  10.991 -0.1772 -0.3157 -0.4308
  350MPD2    H5 5305   0.068   0.726  11.035 -0.4885 -1.1011 -1.8994
  350MPD2    N1 5306   4.592   0.544  10.652 -0.1073 -0.3742  0.0720
  350MPD2    H7 5307   4.618   0.463  10.706  0.2865 -0.8757 -0.8682
  351TMC3    C1 5308   4.433   0.382  10.570  0.0017 -0.0120  0.1835
  351TMC3    C2 5309   4.503   0.267  10.576  0.7777  0.4127  0.1889
  351TMC3    C3 5310   4.433   0.148  10.550  0.5542  0.4668  0.1072
  351TMC3    C4 5311   4.300   0.388  10.543  0.4803 -0.0356 -0.2598
  351TMC3    C5 5312   4.235   0.268  10.526 -0.5470  0.0680  0.3898
  351TMC3    C6 5313   4.298   0.145  10.523  0.3919 -0.1485 -0.1518
  351TMC3     C 5314   4.495   0.514  10.556  0.8252  0.8044 -0.2278
  351TMC3     O 5315   4.433   0.591  10.482 -0.6841  0.0081 -0.4583
  351TMC3     H 5316   4.611   0.266  10.586  0.7672  1.3892  0.3772
  351TMC3    H1 5317   4.239   0.478  10.532 -0.6584 -0.4338  2.8898
  351TMC3    H2 5318   4.260   0.045  10.507 -0.9694  0.4552 -0.6765
  351TMC3    C7 5319   4.096   0.269  10.481  1.4453  0.2228 -0.1405
  351TMC3    C8 5320   4.509   0.034  10.511  0.0878 -0.2372 -0.1178
  351TMC3    O1 5321   4.022   0.351  10.525  0.2455 -0.2643 -0.0530
  351TMC3    O2 5322   4.473   4.692  10.425 -0.3669 -0.7456  0.3467
  352MPD2     C 5323   3.072   1.978   1.298 -1.2926  0.1045 -0.2278
  352MPD2    C1 5324   2.949   1.926   1.331  0.6706 -0.0706  0.1893
  352MPD2    C2 5325   2.926   1.793   1.336  0.5419  0.2657 -0.4562
  352MPD2    C3 5326   3.029   1.706   1.312 -0.3303  0.2445  0.2265
  352MPD2    C4 5327   3.159   1.761   1.289 -0.1663 -0.0775 -0.2887
  352MPD2    C5 5328   3.179   1.897   1.278 -0.0581 -0.1377  0.1913
  352MPD2     H 5329   2.826   1.759   1.364 -0.0104  2.3128  0.1010
  352MPD2    H1 5330   3.246   1.697   1.284 -0.6096 -0.7389  0.3898
  352MPD2    H2 5331   3.080   2.084   1.279  2.6578 -0.1581  0.0325
  352MPD2    H3 5332   3.264   1.948   1.234 -0.3156  2.8867  3.1836
  352MPD2     N 5333   3.016   1.565   1.317  0.8623 -0.1995  0.1440
  352MPD2    H5 5334   3.106   1.521   1.305  1.4581  1.3363 -1.0138
  352MPD2    N1 5335   2.840   2.023   1.348  0.0510 -0.0287  0.0445
  352MPD2    H7 5336   2.860   2.120   1.328  2.1196 -0.0669  1.9458
  353TMC3    C1 5337   2.909   1.361   1.298  0.7058  0.2061  0.1772
  353TMC3    C2 5338   3.021   1.280   1.344  0.5946 -0.0341 -0.0206
  353TMC3    C3 5339   3.018   1.144   1.320 -0.0285  0.0417  0.1346
  353TMC3    C4 5340   2.806   1.302   1.242 -0.2593  0.3383 -0.4112
  353TMC3    C5 5341   2.812   1.170   1.212 -0.2112 -0.4250 -0.1170
  353TMC3    C6 5342   2.920   1.091   1.244  0.0285 -0.3938 -0.4826
  353TMC3     C 5343   2.898   1.500   1.315  0.0293  0.1912  0.7612
  353TMC3     O 5344   2.787   1.546   1.299  0.0124  0.6621  0.0703
  353TMC3     H 5345   3.094   1.325   1.410 -0.6038  0.2946  1.0737
  353TMC3    H1 5346   2.718   1.356   1.207 -0.4546  0.0636 -0.3463
  353TMC3    H2 5347   2.930   0.999   1.187  1.8182 -0.7925  0.4965
  353TMC3    C7 5348   2.697   1.100   1.158 -0.0678 -0.7028 -1.0548
  353TMC3    C8 5349   3.146   1.076   1.343 -0.0894 -0.0148  0.1902
  353TMC3    O1 5350   2.721   1.036   1.053  0.2042 -0.3004 -0.0333
  353TMC3    O2 5351   3.240   1.149   1.364  0.5911 -0.2500 -0.2992
  354TMC3    C1 5352   0.176   3.234  13.468 -0.0643 -0.2034 -0.3121
  354TMC3    C2 5353   0.135   3.350  13.402 -0.1738  0.3230 -0.5112
  354TMC3    C3 5354   0.152   3.351  13.265  0.3361  0.0809  0.2644
  354TMC3    C4 5355   0.260   3.141  13.408  0.1394  0.7771  0.2457
  354TMC3    C5 5356   0.274   3.154  13.275 -0.4783 -0.7540  0.2014
  354TMC3    C6 5357   0.219   3.252  13.197 -0.4818 -0.3848  0.2742
  354TMC3     C 5358   0.101   3.187  13.582 -0.4722 -0.5008  0.2905
  354TMC3     O 5359   0.150   3.113  13.668 -0.0582 -0.1697 -0.1822
  354TMC3     H 5360   0.093   3.434  13.456  0.1619 -0.4736  1.0045
  354TMC3    H1 5361   0.281   3.050  13.463 -2.4714  0.1735  0.2134
  354TMC3    H2 5362   0.226   3.250  13.089 -0.1900 -1.3376  0.3057
  354TMC3    C7 5363   0.391   3.091  13.229 -0.1898 -0.4672 -0.6345
  354TMC3    C8 5364   0.209   3.475  13.216 -0.0926  0.2306 -0.1158
  354TMC3    O1 5365   0.431   2.992  13.286  0.3279 -0.8042  0.4540
  354TMC3    O2 5366   0.276   3.464  13.112  0.3398  0.6930  0.4780
  355MPD2     C 5367   0.025   4.622  12.077  0.2041  0.6237 -0.1382
  355MPD2    C1 5368   0.058   4.560  11.959 -0.1320  0.1531  0.2653
  355MPD2    C2 5369   0.149   4.447  11.961  0.3389 -0.0996 -0.4337
  355MPD2    C3 5370   0.188   4.393  12.077 -0.4842  0.0051  0.7455
  355MPD2    C4 5371   0.152   4.449  12.195 -0.4230  0.8006 -0.0880
  355MPD2    C5 5372   0.063   4.561  12.193  0.5293 -0.0910  0.0204
  355MPD2     H 5373   0.183   4.409  11.865 -1.8921 -4.1871  0.4134
  355MPD2    H1 5374   0.185   4.413  12.292 -1.4592 -0.7021 -0.2892
  355MPD2    H2 5375   4.690   4.705  12.085  0.6263  1.0040 -0.4497
  355MPD2    H3 5376   0.051   4.621  12.283 -1.1375 -1.5639  0.7854
  355MPD2     N 5377   0.266   4.273  12.081 -0.1260  0.2712  0.1293
  355MPD2    H5 5378   0.314   4.252  12.168  1.3818 -0.1910 -0.8306
  355MPD2    N1 5379   0.024   4.639  11.846 -0.3384 -0.3018  0.0151
  355MPD2    H7 5380   4.712   4.727  11.866 -2.5003 -1.4596  0.1268
  356TMC3    C1 5381   0.423   4.128  11.975 -1.2761  1.0013 -0.2358
  356TMC3    C2 5382   0.462   4.119  11.843 -0.2299  0.4860  0.6712
  356TMC3    C3 5383   0.578   4.182  11.799 -0.1986 -0.2261 -0.0440
  356TMC3    C4 5384   0.507   4.187  12.066 -0.7227  0.2120  0.2544
  356TMC3    C5 5385   0.624   4.241  12.021  0.1861  0.1274  0.3721
  356TMC3    C6 5386   0.658   4.250  11.890  0.1042  0.1804 -0.2384
  356TMC3     C 5387   0.283   4.179  11.976  0.3816 -0.2250 -0.2178
  356TMC3     O 5388   0.227   4.172  11.867 -0.0279 -0.0597 -1.0981
  356TMC3     H 5389   0.407   4.067  11.764 -1.3771  1.7010  0.6707
  356TMC3    H1 5390   0.481   4.177  12.171  1.0673  0.0465  0.6963
  356TMC3    H2 5391   0.752   4.299  11.868  0.5768 -0.0254  1.3485
  356TMC3    C7 5392   0.693   4.298  12.131  0.3617 -0.3890 -0.7898
  356TMC3    C8 5393   0.586   4.227  11.659  0.1467  0.5876 -1.3593
  356TMC3    O1 5394   0.685   4.237  12.237 -0.1083 -0.3242 -0.0221
  356TMC3    O2 5395   0.547   4.153  11.572 -0.3070  0.1412 -0.2130
  357MPD2     C 5396   4.232   3.306   0.772  0.0888 -0.5713 -0.9468
  357MPD2    C1 5397   4.273   3.198   0.851  0.6126  0.0485 -0.7836
  357MPD2    C2 5398   4.337   3.234   0.969 -0.3817 -0.1143 -0.3449
  357MPD2    C3 5399   4.367   3.368   0.994 -0.3846  0.5672  0.4771
  357MPD2    C4 5400   4.346   3.468   0.900  0.1994  0.1007  0.6527
  357MPD2    C5 5401   4.280   3.436   0.790 -0.0078  0.1922 -0.1871
  357MPD2     H 5402   4.361   3.155   1.039  0.0125 -1.3645 -1.8894
  357MPD2    H1 5403   4.377   3.571   0.912 -0.3712  0.5466 -1.8031
  357MPD2    H2 5404   4.179   3.284   0.679 -0.9438 -0.7239 -0.3261
  357MPD2    H3 5405   4.259   3.501   0.705  0.9482 -1.1914 -1.4747
  357MPD2     N 5406   4.447   3.411   1.103 -0.4666 -0.3306  0.1370
  357MPD2    H5 5407   4.456   3.513   1.105 -2.1889 -0.1579 -1.1833
  357MPD2    N1 5408   4.239   3.058   0.829  0.1578 -0.3710 -0.1490
  357MPD2    H7 5409   4.268   2.998   0.905  0.4580  1.0351  0.8463
  358TMC3    C1 5410   4.148   2.855   0.743  0.4686  0.3643 -0.3974
  358TMC3    C2 5411   4.143   2.790   0.630 -0.4519  0.7868  0.1584
  358TMC3    C3 5412   4.132   2.653   0.639  0.3797  0.0806 -0.8777
  358TMC3    C4 5413   4.136   2.799   0.867 -0.7896 -0.2673  0.2861
  358TMC3    C5 5414   4.139   2.665   0.872 -0.6404  0.4389 -0.7012
  358TMC3    C6 5415   4.129   2.587   0.756  0.2820 -0.0635 -0.3569
  358TMC3     C 5416   4.183   2.997   0.721  1.0855 -0.3920 -0.7553
  358TMC3     O 5417   4.138   3.047   0.617 -0.4116  0.0527 -0.1384
  358TMC3     H 5418   4.145   2.850   0.539 -0.4904  2.5677  1.3465
  358TMC3    H1 5419   4.146   2.861   0.955 -0.0557  0.3930 -0.2635
  358TMC3    H2 5420   4.153   2.483   0.772 -0.9768 -0.6490 -2.2938
  358TMC3    C7 5421   4.157   2.612   1.000 -0.2581 -0.0750 -0.3479
  358TMC3    C8 5422   4.123   2.590   0.513 -0.1274 -0.0297  0.1305
  358TMC3    O1 5423   4.139   2.690   1.094  0.0816  0.4205  0.3725
  358TMC3    O2 5424   4.134   2.669   0.421 -0.0278 -0.0795 -0.2496
  359MPD2     C 5425   0.352   2.768  12.469  0.8290 -0.2004 -0.3828
  359MPD2    C1 5426   0.306   2.726  12.345 -0.0356 -0.5950  0.4420
  359MPD2    C2 5427   0.184   2.661  12.343  0.5999  0.4534  0.1762
  359MPD2    C3 5428   0.113   2.638  12.462  0.3795 -0.0943 -0.2924
  359MPD2    C4 5429   0.168   2.679  12.581 -0.5561 -0.5870  0.4725
  359MPD2    C5 5430   0.290   2.743  12.582 -0.6796 -0.2347 -0.4526
  359MPD2     H 5431   0.138   2.643  12.247 -0.3350  1.8548  0.3635
  359MPD2    H1 5432   0.113   2.681  12.674 -0.3419  0.5080  0.5692
  359MPD2    H2 5433   0.444   2.825  12.474  1.4232 -1.1781 -0.1639
  359MPD2    H3 5434   0.335   2.780  12.674  1.5871 -0.3117 -1.5225
  359MPD2     N 5435   4.713   2.600  12.470  0.2103  0.4540 -0.4403
  359MPD2    H5 5436   4.673   2.599  12.563 -1.7748  2.0194 -1.2824
  359MPD2    N1 5437   0.374   2.740  12.225 -0.3079  0.1772  0.5515
  359MPD2    H7 5438   0.327   2.709  12.141  0.6894 -2.4731  1.0016
  360TMC3    C1 5439   0.517   2.821  12.072 -0.1633  0.2799 -0.3782
  360TMC3    C2 5440   0.640   2.860  12.042  0.1610  0.5758 -0.0574
  360TMC3    C3 5441   0.677   2.896  11.922  0.1175  0.7059  0.4515
  360TMC3    C4 5442   0.417   2.834  11.980  0.0018  0.9073  0.3566
  360TMC3    C5 5443   0.460   2.859  11.852  0.3981 -0.0871  0.0678
  360TMC3    C6 5444   0.587   2.895  11.821  0.3524  0.4089 -0.0465
  360TMC3     C 5445   0.490   2.807  12.210  0.3112 -0.2444  1.3190
  360TMC3     O 5446   0.569   2.850  12.291 -0.0603 -0.2624  0.1436
  360TMC3     H 5447   0.717   2.833  12.113  0.5168 -1.9772 -1.4386
  360TMC3    H1 5448   0.316   2.801  11.999  0.1940  0.4866  0.6534
  360TMC3    H2 5449   0.609   2.934  11.722  0.3167  0.0485 -0.1968
  360TMC3    C7 5450   0.359   2.884  11.753  0.2058  0.2658  0.7811
  360TMC3    C8 5451   0.798   2.972  11.906  0.3564  0.4687  0.9752
  360TMC3    O1 5452   0.391   2.959  11.661  0.0704  0.7720 -0.0842
  360TMC3    O2 5453   0.839   3.031  12.003 -0.3603 -0.2066 -0.6050
  361MPD2     C 5454   2.092   1.833  17.403 -0.1561  0.2957 -0.3950
  361MPD2    C1 5455   2.048   1.774  17.285 -0.1374 -0.3793  0.0021
  361MPD2    C2 5456   2.126   1.668  17.231 -0.1634  0.4207 -0.1318
  361MPD2    C3 5457   2.215   1.608  17.315 -0.0091  0.5906 -0.3404
  361MPD2    C4 5458   2.255   1.673  17.431  0.0823  0.3423  0.2097
  361MPD2    C5 5459   2.191   1.786  17.477  0.1848 -0.3587 -0.0980
  361MPD2     H 5460   2.110   1.639  17.128  0.9984 -0.3499 -0.1001
  361MPD2    H1 5461   2.334   1.625  17.486  0.1590  0.7624  0.4705
  361MPD2    H2 5462   2.035   1.916  17.443  0.6532 -0.4568  2.2869
  361MPD2    H3 5463   2.208   1.809  17.581  1.9633  0.0709 -0.4713
  361MPD2     N 5464   2.281   1.482  17.292 -0.2609 -0.1579 -0.2303
  361MPD2    H5 5465   2.354   1.465  17.360  0.2725 -0.9566 -1.0058
  361MPD2    N1 5466   1.940   1.824  17.204  0.0435  0.6776 -0.0689
  361MPD2    H7 5467   1.937   1.787  17.109  0.2575 -0.1707  0.2592
  362TMC3    C1 5468   1.759   1.946  17.137  0.3792  0.1594  0.2582
  362TMC3    C2 5469   1.641   1.996  17.170  0.1197 -0.2743  0.1390
  362TMC3    C3 5470   1.559   2.044  17.066  0.2440  0.0013 -0.5738
  362TMC3    C4 5471   1.800   1.939  17.007  0.2300 -0.7605 -0.0033
  362TMC3    C5 5472   1.716   1.986  16.906 -0.5749 -0.2662  0.2284
  362TMC3    C6 5473   1.599   2.052  16.935  0.1199 -0.5710 -0.2941
  362TMC3     C 5474   1.847   1.919  17.243 -0.7312  0.1044 -0.6225
  362TMC3     O 5475   1.822   1.961  17.352 -0.2030  0.0640  0.1266
  362TMC3     H 5476   1.603   1.997  17.271  0.4285 -0.4231  0.2558
  362TMC3    H1 5477   1.893   1.892  16.978  1.3039 -0.0717  2.3222
  362TMC3    H2 5478   1.535   2.080  16.852 -0.2708  1.0367  0.5366
  362TMC3    C7 5479   1.791   2.068  16.807 -0.6664  0.7720  0.2812
  362TMC3    C8 5480   1.420   2.040  17.079 -0.0702 -0.0761  0.0577
  362TMC3    O1 5481   1.737   2.176  16.790 -0.2478  0.4436  0.4091
  362TMC3    O2 5482   1.359   1.989  16.987  0.2129 -0.6537 -0.0298
  363TMC3    C1 5483   0.410   0.098   9.504  0.1179  0.2071  0.3173
  363TMC3    C2 5484   0.462   0.040   9.615  0.1378  0.1671  0.0286
  363TMC3    C3 5485   0.407   0.084   9.734  0.4492  1.1296 -0.2570
  363TMC3    C4 5486   0.320   0.208   9.503  0.0123  0.5588  0.1291
  363TMC3    C5 5487   0.266   0.236   9.623 -0.1913  0.5071 -0.0959
  363TMC3    C6 5488   0.306   0.178   9.743  0.1229 -0.3002  0.6594
  363TMC3     C 5489   0.447   0.034   9.376 -0.1882  0.5160 -0.0965
  363TMC3     O 5490   0.487   4.652   9.385  0.7885 -0.0505  0.3334
  363TMC3     H 5491   0.552   4.714   9.609 -0.0263  0.0028 -0.7338
  363TMC3    H1 5492   0.270   0.232   9.410  0.7259  1.7243  0.0501
  363TMC3    H2 5493   0.264   0.214   9.836  1.8031 -1.6895  1.9598
  363TMC3    C7 5494   0.170   0.342   9.630  0.3959  0.2617 -0.6357
  363TMC3    C8 5495   0.421   4.722   9.847  0.0704 -0.0668 -0.2837
  363TMC3    O1 5496   0.111   0.363   9.735  0.5232 -0.2437 -0.1532
  363TMC3    O2 5497   0.376   0.022   9.953  0.0211 -0.1550 -0.4959
  364MPD2     C 5498   3.733   4.039  10.795 -0.1929  0.2429  0.3890
  364MPD2    C1 5499   3.816   4.084  10.892  0.2543  0.3464 -0.1402
  364MPD2    C2 5500   3.841   4.026  11.013  0.0001 -0.9656  0.3213
  364MPD2    C3 5501   3.770   3.908  11.033 -0.2921 -0.0538 -0.5259
  364MPD2    C4 5502   3.675   3.869  10.944  0.5128 -0.4213 -0.4544
  364MPD2    C5 5503   3.655   3.929  10.826  0.1629 -0.1647 -0.5404
  364MPD2     H 5504   3.905   4.066  11.091 -0.7592  0.1009  0.4003
  364MPD2    H1 5505   3.609   3.788  10.972  1.6049 -0.8816  0.8114
  364MPD2    H2 5506   3.720   4.092  10.701  0.4387  2.0221  1.2908
  364MPD2    H3 5507   3.572   3.903  10.761 -1.3024  0.3130  1.1062
  364MPD2     N 5508   3.787   3.830  11.145  0.6231 -0.4773  0.5740
  364MPD2    H5 5509   3.724   3.750  11.141 -1.4926  1.1239  1.7621
  364MPD2    N1 5510   3.880   4.203  10.850 -0.6758  0.6685 -0.4756
  364MPD2    H7 5511   3.860   4.232  10.755 -0.2665 -0.7616 -0.9956
  365TMC3    C1 5512   4.050   4.363  10.848  0.4347 -0.5993 -0.9033
  365TMC3    C2 5513   4.108   4.323  10.734  0.1995 -0.1024  0.0988
  365TMC3    C3 5514   4.184   4.422  10.680 -0.0890 -0.2294 -0.9117
  365TMC3    C4 5515   4.082   4.476  10.918 -0.1960  0.2647  0.2862
  365TMC3    C5 5516   4.181   4.556  10.866 -0.1127  0.0547 -0.4930
  365TMC3    C6 5517   4.228   4.527  10.741 -0.2827 -1.0316 -0.1955
  365TMC3     C 5518   3.975   4.268  10.925  0.2587 -0.1279  0.2703
  365TMC3     O 5519   3.998   4.274  11.045  0.3906 -0.4598  0.4141
  365TMC3     H 5520   4.072   4.235  10.681  1.0627  0.3357 -1.2038
  365TMC3    H1 5521   4.038   4.488  11.016 -0.1390  0.6930  0.2607
  365TMC3    H2 5522   4.302   4.595  10.700 -2.1706  1.6665  0.8078
  365TMC3    C7 5523   4.220   4.679  10.929 -0.2071 -0.1260 -0.0407
  365TMC3    C8 5524   4.238   4.393  10.556 -0.5255  0.5513  0.4992
  365TMC3    O1 5525   4.313   0.012  10.874 -0.2178 -0.0127  0.0217
  365TMC3    O2 5526   4.282   4.483  10.488  0.0676 -0.1445  0.6264
  366MPD2     C 5527   2.146   4.441  15.164 -0.0034  0.5464  0.2886
  366MPD2    C1 5528   2.278   4.488  15.173  0.4788 -0.6200 -0.2918
  366MPD2    C2 5529   2.374   4.394  15.213  0.7561  0.1114  0.2200
  366MPD2    C3 5530   2.342   4.260  15.234 -0.0761 -0.2522 -0.1792
  366MPD2    C4 5531   2.216   4.213  15.218 -0.8050 -0.9839  0.3662
  366MPD2    C5 5532   2.122   4.303  15.181 -0.4703 -0.0436  0.0459
  366MPD2     H 5533   2.469   4.431  15.248 -0.3337  1.9359  1.2440
  366MPD2    H1 5534   2.176   4.117  15.250  1.2688 -2.1445 -0.5655
  366MPD2    H2 5535   2.061   4.508  15.162  0.5222  1.2836  2.1096
  366MPD2    H3 5536   2.020   4.266  15.188 -1.1168  1.0463 -3.6905
  366MPD2     N 5537   2.448   4.183  15.274 -0.2851 -0.2542 -0.5668
  366MPD2    H5 5538   2.539   4.229  15.273  0.6298 -2.0251  1.0100
  366MPD2    N1 5539   2.318   4.621  15.162  0.1051  0.3283 -0.1250
  366MPD2    H7 5540   2.413   4.648  15.187 -0.2059  0.7876  0.5675
  367TMC3    C1 5541   2.287   0.118  15.144  0.4012 -1.0123 -0.9943
  367TMC3    C2 5542   2.402   0.141  15.222 -0.2146  0.2942  0.0909
  367TMC3    C3 5543   2.446   0.269  15.240 -0.0021 -0.0268 -0.1139
  367TMC3    C4 5544   2.205   0.227  15.114 -0.1794  0.2219  0.4844
  367TMC3    C5 5545   2.260   0.349  15.117  0.0068  0.1174  0.3902
  367TMC3    C6 5546   2.382   0.377  15.177  0.0819 -0.8580  0.0038
  367TMC3     C 5547   2.231   4.723  15.129 -0.0178  0.1132  0.3519
  367TMC3     O 5548   2.113   4.720  15.085 -0.0113 -0.2275  0.1129
  367TMC3     H 5549   2.440   0.063  15.287 -1.9592 -1.1774 -0.6570
  367TMC3    H1 5550   2.107   0.213  15.070 -0.0995 -2.3817  1.1114
  367TMC3    H2 5551   2.406   0.478  15.211  0.0295  0.2095 -3.1260
  367TMC3    C7 5552   2.167   0.456  15.128 -0.6403  0.6443 -0.0878
  367TMC3    C8 5553   2.533   0.286  15.355  0.4248  0.5510  0.4639
  367TMC3    O1 5554   2.050   0.432  15.142  0.4302  0.0280  0.3647
  367TMC3    O2 5555   2.598   0.186  15.383 -0.0914  0.7530  0.1558
  368MPD2     C 5556   3.280   1.399  13.092 -0.2385 -0.1208  0.2372
  368MPD2    C1 5557   3.304   1.521  13.146 -0.2983  0.3192 -0.2469
  368MPD2    C2 5558   3.422   1.582  13.112  0.3187 -0.1600  0.6759
  368MPD2    C3 5559   3.514   1.521  13.024  0.1236 -0.6416 -0.5675
  368MPD2    C4 5560   3.486   1.393  12.976 -0.1958 -0.2710 -0.5427
  368MPD2    C5 5561   3.361   1.338  13.010  0.5565  0.5045  0.2919
  368MPD2     H 5562   3.432   1.684  13.146 -0.8724  0.0534  0.4061
  368MPD2    H1 5563   3.546   1.339  12.904  0.4115  0.9219 -0.9398
  368MPD2    H2 5564   3.178   1.362  13.103 -1.1041  1.7815 -1.3187
  368MPD2    H3 5565   3.325   1.243  12.972  0.1155  0.1337  1.6367
  368MPD2     N 5566   3.636   1.590  12.985 -0.4233 -0.0595  0.6982
  368MPD2    H5 5567   3.685   1.551  12.905 -0.0203  1.6816  0.1184
  368MPD2    N1 5568   3.203   1.580  13.223 -0.2456  0.4984 -0.2097
  368MPD2    H7 5569   3.114   1.533  13.213  0.3933 -0.3793 -1.7649
  369TMC3    C1 5570   3.090   1.736  13.353 -0.1621  0.2786  0.0155
  369TMC3    C2 5571   3.095   1.873  13.332 -1.0542  0.3984  0.0017
  369TMC3    C3 5572   3.012   1.920  13.233 -0.3382  0.4879 -0.9047
  369TMC3    C4 5573   2.978   1.664  13.313  0.1367 -0.4020 -0.0232
  369TMC3    C5 5574   2.873   1.726  13.248  0.7819  0.3796  0.0059
  369TMC3    C6 5575   2.896   1.848  13.194 -0.2506 -0.4799 -0.2085
  369TMC3     C 5576   3.221   1.681  13.311  1.5301  0.4008  0.2171
  369TMC3     O 5577   3.316   1.745  13.347 -0.2709 -0.5006 -0.3557
  369TMC3     H 5578   3.171   1.937  13.375  0.4203  0.1995 -2.2680
  369TMC3    H1 5579   2.967   1.560  13.341 -1.5547  0.3078  1.9094
  369TMC3    H2 5580   2.823   1.897  13.131 -1.3026  0.4343  1.7321
  369TMC3    C7 5581   2.744   1.682  13.291 -0.7070  0.1493  0.0338
  369TMC3    C8 5582   3.070   1.991  13.115 -0.4997 -0.3352 -0.2050
  369TMC3    O1 5583   2.740   1.578  13.359 -0.0753  0.1728 -0.1090
  369TMC3    O2 5584   3.005   1.995  13.008 -0.3020 -0.1287  0.0731
  370TMC3    C1 5585   3.141   2.310  16.529  1.0927 -0.4904  0.0395
  370TMC3    C2 5586   3.114   2.221  16.626  0.2198 -0.0193  0.7850
  370TMC3    C3 5587   3.055   2.099  16.590  0.4347  0.2840 -0.3522
  370TMC3    C4 5588   3.124   2.278  16.399  0.4451  0.2334 -0.8647
  370TMC3    C5 5589   3.082   2.156  16.359  0.2544 -0.0204  0.0139
  370TMC3    C6 5590   3.053   2.062  16.454  0.3439 -0.1319 -0.4249
  370TMC3     C 5591   3.216   2.425  16.569 -0.4745 -0.1223  0.5545
  370TMC3     O 5592   3.246   2.423  16.687 -0.0847 -0.4580 -0.0991
  370TMC3     H 5593   3.137   2.240  16.730  0.0128 -0.0213  0.8312
  370TMC3    H1 5594   3.135   2.355  16.323  0.5244 -0.0013 -1.0929
  370TMC3    H2 5595   3.024   1.960  16.431 -2.3684  0.6889 -0.7114
  370TMC3    C7 5596   3.126   2.116  16.236 -0.1784  0.7327  0.2253
  370TMC3    C8 5597   3.021   2.000  16.694 -0.0559 -0.1362  0.0217
  370TMC3    O1 5598   3.114   2.191  16.144 -0.0607  0.2616 -0.2953
  370TMC3    O2 5599   2.998   1.890  16.646  0.5162 -0.4354 -0.1959
  371TMC3    C1 5600   4.193   0.568  15.330 -0.1265  0.2938 -1.1706
  371TMC3    C2 5601   4.139   0.566  15.450  0.3054 -0.9266  0.4349
  371TMC3    C3 5602   4.092   0.685  15.495 -0.4527 -0.5548  0.1904
  371TMC3    C4 5603   4.206   0.677  15.254 -0.1481 -0.0074  0.1683
  371TMC3    C5 5604   4.153   0.794  15.293 -0.1136 -0.5872 -0.5501
  371TMC3    C6 5605   4.094   0.804  15.421 -0.3771  0.0431  0.4769
  371TMC3     C 5606   4.250   0.446  15.278  0.2407 -0.3212 -0.2309
  371TMC3     O 5607   4.313   0.454  15.173 -0.1505  0.4398 -0.7133
  371TMC3     H 5608   4.132   0.477  15.512 -1.3354 -0.6746  0.6135
  371TMC3    H1 5609   4.259   0.670  15.160 -1.4393  0.7819 -0.6115
  371TMC3    H2 5610   4.038   0.894  15.443 -2.3829 -1.0296 -0.1624
  371TMC3    C7 5611   4.183   0.920  15.221 -0.2707  0.4146  0.0010
  371TMC3    C8 5612   4.053   0.695  15.633  0.1346  0.3952 -0.1385
  371TMC3    O1 5613   4.183   1.024  15.277  0.6365 -0.5851 -0.0834
  371TMC3    O2 5614   4.064   0.595  15.701  0.0996  0.3476 -0.6126
  372MPD2     C 5615   3.690   1.544  13.451 -0.0592  1.0178  0.1040
  372MPD2    C1 5616   3.794   1.506  13.531  0.2389  0.1308  0.5936
  372MPD2    C2 5617   3.782   1.410  13.638  0.2283  0.8869  0.5762
  372MPD2    C3 5618   3.666   1.339  13.644 -0.2154 -0.6614 -0.2766
  372MPD2    C4 5619   3.563   1.370  13.554  0.2164  0.1783  0.8433
  372MPD2    C5 5620   3.573   1.472  13.460 -0.1883  0.5233 -0.5263
  372MPD2     H 5621   3.858   1.393  13.714 -0.9578 -0.2888  1.5013
  372MPD2    H1 5622   3.476   1.305  13.558  0.0463  0.3205 -0.5697
  372MPD2    H2 5623   3.701   1.613  13.368  0.4261  1.1462  0.2728
  372MPD2    H3 5624   3.495   1.495  13.388 -0.4839  1.0138 -0.0422
  372MPD2     N 5625   3.663   1.229  13.736  0.4700 -0.2162  0.0708
  372MPD2    H5 5626   3.745   1.198  13.786  0.6691 -0.6943 -0.5464
  372MPD2    N1 5627   3.923   1.560  13.518  0.8327 -0.3242  0.3427
  372MPD2    H7 5628   3.982   1.551  13.600  1.8766  1.6532 -0.1928
  373TMC3    C1 5629   3.575   1.054  13.863  0.0999 -0.2857  0.7675
  373TMC3    C2 5630   3.461   1.001  13.921 -0.3058  0.0286  0.0504
  373TMC3    C3 5631   3.472   0.876  13.970 -0.4999  1.1576 -0.4908
  373TMC3    C4 5632   3.685   0.979  13.837  0.1035  0.9452  0.0578
  373TMC3    C5 5633   3.688   0.855  13.887 -0.0063 -0.1313 -0.3908
  373TMC3    C6 5634   3.592   0.801  13.959 -0.6124 -0.4428  0.4089
  373TMC3     C 5635   3.548   1.160  13.767 -0.2764  0.7100 -0.6038
  373TMC3     O 5636   3.433   1.163  13.724 -0.0676  0.2669  0.1170
  373TMC3     H 5637   3.370   1.059  13.926 -0.1636  0.2562  0.0339
  373TMC3    H1 5638   3.763   1.015  13.770 -1.0216 -0.5327 -2.0486
  373TMC3    H2 5639   3.597   0.707  14.012 -0.9136 -1.2252 -0.9896
  373TMC3    C7 5640   3.809   0.773  13.860  0.7756 -0.4276  0.1211
  373TMC3    C8 5641   3.373   0.796  14.041 -0.0128 -0.2220  0.1274
  373TMC3    O1 5642   3.913   0.836  13.833  0.7407  0.5591  0.3084
  373TMC3    O2 5643   3.347   0.697  13.977 -0.1537 -0.0734  0.3540
  374TMC3    C1 5644   3.771   2.611   9.740 -0.1648  0.2296 -0.2356
  374TMC3    C2 5645   3.906   2.647   9.755 -0.2938  0.2448 -0.0188
  374TMC3    C3 5646   3.973   2.718   9.659 -0.4621 -0.8034  0.4798
  374TMC3    C4 5647   3.706   2.644   9.623  0.0667 -0.1989 -0.1650
  374TMC3    C5 5648   3.779   2.702   9.523 -0.4606 -0.1506  0.1934
  374TMC3    C6 5649   3.909   2.749   9.542 -0.2624  0.0845  0.4917
  374TMC3     C 5650   3.723   2.534   9.855  0.5963  0.1346  0.9008
  374TMC3     O 5651   3.804   2.458   9.908 -0.1408  0.8636 -0.1754
  374TMC3     H 5652   3.960   2.631   9.848 -1.2478  1.2110  0.6933
  374TMC3    H1 5653   3.599   2.624   9.619 -0.1090  0.5103  1.0548
  374TMC3    H2 5654   3.952   2.799   9.457 -0.5808  0.5501  0.6019
  374TMC3    C7 5655   3.726   2.719   9.386 -0.6241 -0.0590  0.1293
  374TMC3    C8 5656   4.113   2.751   9.668 -0.1352  0.9951 -1.2112
  374TMC3    O1 5657   3.776   2.804   9.313  0.3908  0.1307  0.0982
  374TMC3    O2 5658   4.171   2.764   9.559 -0.2903  0.4926  0.3382
  375MPD2     C 5659   4.652   2.813  17.160  0.3818 -0.9366 -0.1709
  375MPD2    C1 5660   4.565   2.826  17.056  1.1257  0.8808 -0.2010
  375MPD2    C2 5661   4.595   2.768  16.937  0.3233 -0.5874 -0.4878
  375MPD2    C3 5662   4.712   2.688  16.926 -0.8257  0.0453  0.0031
  375MPD2    C4 5663   0.056   2.667  17.036 -0.3754  0.8180  0.1956
  375MPD2    C5 5664   0.029   2.732  17.148  0.1286  0.5607 -0.8483
  375MPD2     H 5665   4.515   2.767  16.864  0.4225 -1.0382 -0.5910
  375MPD2    H1 5666   0.148   2.612  17.019 -0.5250  0.5033  0.4021
  375MPD2    H2 5667   4.640   2.866  17.254  0.5992  0.2117 -0.8032
  375MPD2    H3 5668   0.100   2.723  17.229  1.3045  2.2834 -1.6698
  375MPD2     N 5669   4.732   2.616  16.811  0.0613 -0.3519 -0.0794
  375MPD2    H5 5670   0.076   2.551  16.819 -0.0205 -0.6500 -1.5855
  375MPD2    N1 5671   4.447   2.897  17.064  0.2281 -0.2257 -0.5392
  375MPD2    H7 5672   4.380   2.880  16.989  0.0951  1.1596 -0.7334
  376TMC3    C1 5673   4.699   2.532  16.585 -0.0123  0.3363 -0.0116
  376TMC3    C2 5674   0.092   2.497  16.569  0.7683  0.2497 -0.1421
  376TMC3    C3 5675   0.131   2.463  16.441  0.3336 -0.1032 -0.4866
  376TMC3    C4 5676   4.608   2.525  16.484  0.2875  0.0565 -0.1503
  376TMC3    C5 5677   4.642   2.478  16.370  0.1184 -0.0890  0.6277
  376TMC3    C6 5678   0.038   2.453  16.337 -0.5059  0.1054  0.0210
  376TMC3     C 5679   4.659   2.618  16.697 -0.0289  0.4542  0.9788
  376TMC3     O 5680   4.564   2.693  16.667  0.7514 -0.5238 -0.6727
  376TMC3     H 5681   0.169   2.533  16.636  1.4502 -0.6332 -0.4416
  376TMC3    H1 5682   4.503   2.535  16.509  0.4539 -0.1490  0.6297
  376TMC3    H2 5683   0.073   2.429  16.237 -2.9740  0.7363 -0.9887
  376TMC3    C7 5684   4.548   2.479  16.260 -0.4234  0.0654  0.7852
  376TMC3    C8 5685   0.272   2.444  16.417  0.4306  0.0422 -0.1146
  376TMC3    O1 5686   4.449   2.553  16.276  0.3653 -0.1441 -0.0544
  376TMC3    O2 5687   0.310   2.469  16.301 -0.1615  0.2737  0.1456
  377MPD2     C 5688   2.849   2.266  12.954 -0.1105  0.0829  0.3415
  377MPD2    C1 5689   2.773   2.333  12.857 -0.3046  0.1310  0.8907
  377MPD2    C2 5690   2.643   2.359  12.886  0.3118 -0.6629  0.8550
  377MPD2    C3 5691   2.587   2.298  13.000  0.4184 -0.8989  0.2931
  377MPD2    C4 5692   2.661   2.227  13.093  0.1224 -0.4601 -0.1993
  377MPD2    C5 5693   2.795   2.232  13.070  0.4821 -0.2533 -0.2880
  377MPD2     H 5694   2.589   2.421  12.816  1.6376 -1.6933 -1.0533
  377MPD2    H1 5695   2.627   2.193  13.190  0.8275  0.4304  0.3750
  377MPD2    H2 5696   2.955   2.245  12.940 -0.8373 -1.7080 -2.5083
  377MPD2    H3 5697   2.858   2.198  13.151 -1.1216 -2.9368 -0.1679
  377MPD2     N 5698   2.448   2.296  13.010  0.3260 -0.0006 -0.0676
  377MPD2    H5 5699   2.409   2.250  13.092 -0.8817 -0.4472 -0.9006
  377MPD2    N1 5700   2.844   2.375  12.741  1.1223  0.2126 -0.1129
  377MPD2    H7 5701   2.939   2.340  12.737  0.6474 -1.0168 -0.6122
  378TMC3    C1 5702   2.893   2.514  12.289  0.6149 -0.9788  0.2587
  378TMC3    C2 5703   2.847   2.537  12.413 -0.6579 -0.1534 -0.0067
  378TMC3    C3 5704   2.874   2.448  12.512 -0.1829  0.4252  0.5634
  378TMC3    C4 5705   2.971   2.404  12.255  0.3087 -0.4039 -0.1991
  378TMC3    C5 5706   3.002   2.320  12.360 -0.1582 -0.9893  0.7716
  378TMC3    C6 5707   2.951   2.337  12.490  0.1520 -0.5264 -0.4046
  378TMC3     C 5708   2.863   2.617  12.190  0.8748  0.3211 -0.2840
  378TMC3     O 5709   2.841   2.731  12.228  0.3622 -0.4183  0.2673
  378TMC3     H 5710   2.778   2.619  12.430  0.8970  1.4500 -1.3386
  378TMC3    H1 5711   3.007   2.382  12.155  1.4005 -0.1936  0.1362
  378TMC3    H2 5712   2.988   2.270  12.567  1.7825  1.4291  0.5130
  378TMC3    C7 5713   3.070   2.187  12.327 -0.2090 -0.1216  0.0299
  378TMC3    C8 5714   2.792   2.448  12.635  0.2501 -0.3521 -0.2934
  378TMC3    O1 5715   3.117   2.130  12.428 -0.1586 -0.8038  0.0347
  378TMC3    O2 5716   2.682   2.496  12.620  0.1461  0.3667  0.6727
  379MPD2     C 5717   3.022   0.210  16.558 -0.5603  0.0360 -0.3088
  379MPD2    C1 5718   3.125   0.172  16.464  0.0072  0.3110 -0.2347
  379MPD2    C2 5719   3.235   0.107  16.514 -0.1272  0.3153 -0.0788
  379MPD2    C3 5720   3.244   0.077  16.651 -0.2404 -0.3267 -0.0630
  379MPD2    C4 5721   3.152   0.120  16.736  0.0071 -0.2711  0.9770
  379MPD2    C5 5722   3.040   0.185  16.689  1.1098 -0.4257  0.0017
  379MPD2     H 5723   3.321   0.088  16.451 -0.3381 -1.8083  0.2747
  379MPD2    H1 5724   3.171   0.109  16.842  1.0323 -2.1073  0.6043
  379MPD2    H2 5725   2.936   0.268  16.527 -0.3147  1.5510  1.7786
  379MPD2    H3 5726   2.959   0.204  16.758 -0.4027 -0.5319 -1.7700
  379MPD2     N 5727   3.350   0.009  16.715 -0.0246 -0.4201 -0.4533
  379MPD2    H5 5728   3.350   4.728  16.815 -0.5939 -0.6213 -0.4837
  379MPD2    N1 5729   3.112   0.208  16.329  0.4536  0.6665 -0.3418
  379MPD2    H7 5730   3.034   0.268  16.304 -1.2272 -0.1893  2.9398
  380TMC3    C1 5731   3.155   0.218  16.094 -0.0542 -0.6900 -0.0413
  380TMC3    C2 5732   3.255   0.241  16.003  0.4676  0.7745  0.3573
  380TMC3    C3 5733   3.217   0.259  15.875 -0.3256  0.1050 -0.0924
  380TMC3    C4 5734   3.025   0.215  16.066 -0.0961 -0.0506  0.9797
  380TMC3    C5 5735   2.984   0.245  15.943 -0.6619  0.2562  0.0533
  380TMC3    C6 5736   3.084   0.263  15.842  0.9198  0.0324  0.3369
  380TMC3     C 5737   3.203   0.186  16.226  0.3259 -1.0671  0.0043
  380TMC3     O 5738   3.315   0.146  16.239 -0.0711 -0.0002  0.0191
  380TMC3     H 5739   3.358   0.247  16.034  1.2865  1.6899 -2.5486
  380TMC3    H1 5740   2.952   0.198  16.144 -0.4228 -0.9104  0.4766
  380TMC3    H2 5741   3.051   0.305  15.747 -0.6363 -1.8346  0.0403
  380TMC3    C7 5742   2.846   0.297  15.929  0.4985 -0.1525 -1.1049
  380TMC3    C8 5743   3.302   0.329  15.773  0.4452  0.4853 -0.3426
  380TMC3    O1 5744   2.807   0.361  16.027  0.4624  0.2777  0.1466
  380TMC3    O2 5745   3.247   0.377  15.673 -0.3974 -0.1993 -0.0788
  381TMC3    C1 5746   3.094   1.426  16.389 -0.3299  0.5892 -0.0629
  381TMC3    C2 5747   3.148   1.552  16.401 -1.7120  0.3447  0.7766
  381TMC3    C3 5748   3.142   1.612  16.524  0.6266  0.0238 -0.2842
  381TMC3    C4 5749   3.032   1.359  16.487  0.1995 -0.1693 -0.4357
  381TMC3    C5 5750   3.020   1.427  16.605  0.2769  0.6216 -0.0554
  381TMC3    C6 5751   3.076   1.553  16.624 -0.1116  0.5369 -0.1971
  381TMC3     C 5752   3.136   1.341  16.274  0.2915  0.3088  0.0639
  381TMC3     O 5753   3.146   1.220  16.295 -0.3754 -0.7695 -0.2154
  381TMC3     H 5754   3.211   1.601  16.328 -1.0606 -1.9803 -0.2203
  381TMC3    H1 5755   2.996   1.257  16.491 -3.3109  1.1053  0.4865
  381TMC3    H2 5756   3.056   1.615  16.711 -0.2018  0.4053 -0.1243
  381TMC3    C7 5757   2.947   1.357  16.710  0.2575 -1.2361 -0.0126
  381TMC3    C8 5758   3.222   1.739  16.537 -0.2899 -0.4190 -0.8453
  381TMC3    O1 5759   2.983   1.243  16.740  0.1070  0.2507  0.1136
  381TMC3    O2 5760   3.244   1.809  16.442  0.3173  0.1965  0.5744
  382MPD2     C 5761   2.508   3.716  17.278 -0.3058 -0.0550  0.1720
  382MPD2    C1 5762   2.392   3.748  17.342 -0.0034 -0.3208 -0.2588
  382MPD2    C2 5763   2.315   3.650  17.395  0.2192  0.3389  0.9977
  382MPD2    C3 5764   2.342   3.516  17.376  0.5134 -0.5937  0.0848
  382MPD2    C4 5765   2.450   3.484  17.301 -0.2219 -0.6328  0.5146
  382MPD2    C5 5766   2.549   3.589  17.259  0.0454  0.6263 -0.2908
  382MPD2     H 5767   2.239   3.677  17.467 -2.5916 -1.3200 -1.3233
  382MPD2    H1 5768   2.480   3.383  17.274 -1.5831 -0.8980 -0.0040
  382MPD2    H2 5769   2.587   3.786  17.251  1.2908 -1.8453  0.1973
  382MPD2    H3 5770   2.636   3.558  17.203  0.3858  0.9061  0.0937
  382MPD2     N 5771   2.271   3.415  17.444  0.2166  0.1750  0.3540
  382MPD2    H5 5772   2.180   3.438  17.482  0.8053 -0.2033  1.9813
  382MPD2    N1 5773   2.369   3.890  17.359 -0.3743  0.5482 -1.0442
  382MPD2    H7 5774   2.420   3.955  17.300  1.3023  0.8802  0.8098
  383TMC3    C1 5775   2.215   3.213  17.528 -0.9753  0.0822 -0.2403
  383TMC3    C2 5776   2.164   3.105  17.471 -0.5689  0.0049  0.4425
  383TMC3    C3 5777   2.044   3.067  17.524 -0.0652 -0.4908  0.6280
  383TMC3    C4 5778   2.165   3.275  17.637 -0.1251 -0.0879 -0.4447
  383TMC3    C5 5779   2.044   3.241  17.689  0.1171 -0.6172 -0.0748
  383TMC3    C6 5780   1.974   3.137  17.622  0.1321 -0.3767  0.1212
  383TMC3     C 5781   2.311   3.278  17.460 -0.0210 -0.9571  0.9504
  383TMC3     O 5782   2.412   3.216  17.426  0.1247  0.2633  0.0166
  383TMC3     H 5783   2.195   3.087  17.368 -3.0251  0.0924 -0.3174
  383TMC3    H1 5784   2.230   3.348  17.684  1.1966 -1.2307 -0.5063
  383TMC3    H2 5785   1.881   3.093  17.657  0.6681 -1.0515  0.7018
  383TMC3    C7 5786   1.982   3.339   0.048  0.0142  0.0408 -0.5331
  383TMC3    C8 5787   1.959   2.974  17.449 -0.3035  1.1358 -0.4848
  383TMC3    O1 5788   2.026   3.452   0.052 -0.0524  0.1151  0.7403
  383TMC3    O2 5789   1.841   2.972  17.463 -0.0810  0.3550 -0.4700
  384MPD2     C 5790   3.876   0.705  12.753 -0.0848 -0.1869 -0.5208
  384MPD2    C1 5791   3.949   0.599  12.802  1.0933  0.1389 -0.2356
  384MPD2    C2 5792   4.085   0.593  12.783 -0.5825 -0.0037 -0.7391
  384MPD2    C3 5793   4.147   0.702  12.719  0.6463  0.3482 -0.6918
  384MPD2    C4 5794   4.073   0.812  12.682  0.1942 -0.2343 -0.1081
  384MPD2    C5 5795   3.936   0.813  12.697 -0.2937 -0.0845  0.7811
  384MPD2     H 5796   4.153   0.513  12.809 -1.8610 -1.1271 -0.8454
  384MPD2    H1 5797   4.123   0.894  12.631 -0.4851 -0.2207 -0.7517
  384MPD2    H2 5798   3.769   0.709  12.769 -0.0195 -0.0343 -0.1340
  384MPD2    H3 5799   3.870   0.898  12.682 -1.0522 -0.5945  1.2459
  384MPD2     N 5800   4.284   0.700  12.679  0.0348 -0.2128 -0.0667
  384MPD2    H5 5801   4.303   0.756  12.596  0.3812  0.0225  0.1752
  384MPD2    N1 5802   3.879   0.495  12.882 -0.3045  0.4201 -0.2961
  384MPD2    H7 5803   3.781   0.510  12.902 -0.3610 -0.7564  0.3164
  385TMC3    C1 5804   4.486   0.578  12.654 -0.1190 -0.0132 -0.3277
  385TMC3    C2 5805   4.468   0.590  12.518 -0.2838  0.3042  0.5941
  385TMC3    C3 5806   4.482   0.476  12.440 -0.1032  0.5944  0.3004
  385TMC3    C4 5807   4.534   0.454  12.702  0.6197 -0.1370 -0.6505
  385TMC3    C5 5808   4.533   0.338  12.623  0.6496 -0.7316 -0.3835
  385TMC3    C6 5809   4.513   0.352  12.489 -0.9059 -0.0426  0.2434
  385TMC3     C 5810   4.376   0.618  12.737 -0.5383  0.3643  0.0957
  385TMC3     O 5811   4.365   0.573  12.852  0.0822  0.3676  0.1418
  385TMC3     H 5812   4.428   0.681  12.474 -2.1846 -1.2170 -0.7459
  385TMC3    H1 5813   4.545   0.445  12.809  1.9873  0.1787 -0.7751
  385TMC3    H2 5814   4.520   0.271  12.417 -0.0838  2.5495 -2.5789
  385TMC3    C7 5815   4.480   0.217  12.699  0.2757 -0.4457  0.6215
  385TMC3    C8 5816   4.406   0.468  12.321  0.5990  0.4344 -0.2860
  385TMC3    O1 5817   4.472   0.222  12.822 -0.0925  0.5999 -0.2426
  385TMC3    O2 5818   4.349   0.361  12.302  0.2747 -0.3198  0.4003
  386TMC3    C1 5819   3.859   2.617  11.547 -0.0105  0.0458  0.1519
  386TMC3    C2 5820   3.766   2.710  11.505 -0.8836  0.3265 -0.2808
  386TMC3    C3 5821   3.631   2.680  11.522 -0.2471  0.2629  0.4898
  386TMC3    C4 5822   3.826   2.499  11.601 -0.5831 -0.2143 -0.4554
  386TMC3    C5 5823   3.693   2.471  11.612  0.2760  0.0049 -0.6214
  386TMC3    C6 5824   3.593   2.565  11.583  0.1699  0.2438 -0.7020
  386TMC3     C 5825   3.987   2.624  11.484 -0.0272 -0.0035 -0.3982
  386TMC3     O 5826   3.988   2.679  11.373  0.1760  0.3626 -0.1505
  386TMC3     H 5827   3.800   2.803  11.462 -2.6054  1.0062 -0.1882
  386TMC3    H1 5828   3.901   2.427  11.633  0.2326  1.2129  0.8442
  386TMC3    H2 5829   3.487   2.551  11.596  0.8398 -0.9331  3.5003
  386TMC3    C7 5830   3.663   2.367  11.715 -0.0626 -0.3841 -0.9373
  386TMC3    C8 5831   3.536   2.781  11.495 -0.2827  0.4909 -0.0138
  386TMC3    O1 5832   3.737   2.267  11.715 -0.2377 -0.0108  0.0809
  386TMC3    O2 5833   3.417   2.749  11.479 -0.7021  0.0963  0.0514
  387MPD2     C 5834   1.486   2.802   9.741  1.2834  0.1884 -0.1251
  387MPD2    C1 5835   1.544   2.714   9.832  0.1305  0.6166  0.3951
  387MPD2    C2 5836   1.543   2.578   9.816  0.5232 -0.3994  0.5340
  387MPD2    C3 5837   1.486   2.526   9.704 -0.0611 -0.7133 -0.2077
  387MPD2    C4 5838   1.415   2.609   9.620 -0.4697  0.2843 -1.0611
  387MPD2    C5 5839   1.412   2.748   9.641 -0.2620  0.0713 -0.0690
  387MPD2     H 5840   1.590   2.510   9.886 -0.8723 -3.6479 -1.6804
  387MPD2    H1 5841   1.372   2.583   9.524 -1.2832 -1.3088 -0.2557
  387MPD2    H2 5842   1.496   2.908   9.759 -0.3880 -0.0616  2.2288
  387MPD2    H3 5843   1.370   2.811   9.564 -3.6427  0.1077  1.7978
  387MPD2     N 5844   1.499   2.382   9.682 -0.1610  0.3086 -0.8740
  387MPD2    H5 5845   1.551   2.325   9.748 -0.5631  1.2008  0.2209
  387MPD2    N1 5846   1.632   2.768   9.930  0.0890  0.0483  0.3037
  387MPD2    H7 5847   1.679   2.700   9.989  0.4445  0.0688  0.0482
  388TMC3    C1 5848   1.799   2.901  10.008 -0.0277 -0.1922  0.0245
  388TMC3    C2 5849   1.828   3.002  10.095  0.3344  0.2873 -0.2141
  388TMC3    C3 5850   1.905   2.978  10.206  0.2090 -0.2945 -0.6016
  388TMC3    C4 5851   1.867   2.779  10.014 -0.7374  0.1440 -0.3997
  388TMC3    C5 5852   1.954   2.766  10.122 -0.2914  0.4096 -0.1030
  388TMC3    C6 5853   1.957   2.859  10.227  0.2858 -0.4631  0.1645
  388TMC3     C 5854   1.675   2.905   9.937 -0.2451 -0.9891 -0.1952
  388TMC3     O 5855   1.619   3.010   9.899 -0.5012 -0.0857  0.2361
  388TMC3     H 5856   1.775   3.094  10.077 -0.5549 -0.0639  0.6378
  388TMC3    H1 5857   1.865   2.706   9.933 -0.7477 -0.0117 -0.2592
  388TMC3    H2 5858   2.008   2.831  10.318  0.4408 -2.1247 -0.4374
  388TMC3    C7 5859   2.027   2.640  10.140 -0.2560  0.0463  0.1018
  388TMC3    C8 5860   1.908   3.083  10.305 -0.5985  0.5393  0.6472
  388TMC3    O1 5861   2.066   2.617  10.255  0.1998  0.4071  0.4455
  388TMC3    O2 5862   1.927   3.046  10.419 -0.0114  0.3582 -0.6126
  389MPD2     C 5863   0.825   1.192  10.758 -0.1519 -0.2184 -0.7779
  389MPD2    C1 5864   0.866   1.063  10.752  0.3260  0.0860 -0.4725
  389MPD2    C2 5865   0.891   0.995  10.866  0.1495 -0.1831 -0.4605
  389MPD2    C3 5866   0.866   1.055  10.994 -0.4550 -0.8656  0.0113
  389MPD2    C4 5867   0.820   1.182  10.994 -0.4774  0.2930  0.7572
  389MPD2    C5 5868   0.798   1.255  10.876 -0.1289 -0.4618  0.6779
  389MPD2     H 5869   0.912   0.888  10.863 -1.4421 -0.5312  0.9413
  389MPD2    H1 5870   0.809   1.230  11.091  1.7641  0.1425  1.0754
  389MPD2    H2 5871   0.796   1.250  10.670  0.2395 -0.5295 -1.1096
  389MPD2    H3 5872   0.749   1.352  10.879  4.4466  1.8184  1.9412
  389MPD2     N 5873   0.863   0.983  11.120  0.3029 -0.1353  0.2583
  389MPD2    H5 5874   0.833   1.030  11.205 -0.0648 -0.9703  0.5842
  389MPD2    N1 5875   0.887   1.016  10.624  0.1556  0.0974 -0.5314
  389MPD2    H7 5876   0.850   1.070  10.546  0.0721  0.7913 -0.0096
  390TMC3    C1 5877   0.921   0.786  11.251 -0.1536  0.7320 -0.5012
  390TMC3    C2 5878   0.874   0.662  11.281 -0.1324 -0.2926 -0.6666
  390TMC3    C3 5879   0.897   0.614  11.409  0.0101  0.2763 -0.5511
  390TMC3    C4 5880   0.970   0.865  11.349  0.5656  0.6273  0.3275
  390TMC3    C5 5881   0.969   0.818  11.476  0.2999 -0.1739 -0.2250
  390TMC3    C6 5882   0.953   0.691  11.508  0.7675  0.6181  0.6492
  390TMC3     C 5883   0.874   0.842  11.127  0.0903 -0.1193 -0.0793
  390TMC3     O 5884   0.837   0.761  11.042 -0.3078 -0.4382 -0.7722
  390TMC3     H 5885   0.836   0.594  11.204  0.7479 -1.2216 -0.2791
  390TMC3    H1 5886   0.996   0.966  11.322 -0.7189  0.8869  0.0355
  390TMC3    H2 5887   0.974   0.656  11.609  0.1887 -2.9157 -0.4616
  390TMC3    C7 5888   0.889   0.911  11.557 -0.0871  0.1885 -0.2438
  390TMC3    C8 5889   0.825   0.495  11.448  0.2944 -0.1267  0.3046
  390TMC3    O1 5890   0.901   1.036  11.548  0.4847 -0.2509 -0.3329
  390TMC3    O2 5891   0.752   0.451  11.359 -0.2989  0.0214  0.5289
  391MPD2     C 5892   4.499   2.437  11.174 -0.7369 -0.4835 -0.0950
  391MPD2    C1 5893   4.607   2.513  11.138 -0.3627  0.3702 -1.2969
  391MPD2    C2 5894   4.634   2.533  11.005 -0.6398  0.0156 -0.5626
  391MPD2    C3 5895   4.551   2.482  10.907  0.3603  0.0676  1.1253
  391MPD2    C4 5896   4.440   2.405  10.940 -0.0960 -0.6859  0.4665
  391MPD2    C5 5897   4.417   2.385  11.075 -0.2102  0.5220  0.4126
  391MPD2     H 5898   4.715   2.600  10.978 -0.1695  1.0130  3.3456
  391MPD2    H1 5899   4.368   2.371  10.867 -1.0376  0.6823  0.7660
  391MPD2    H2 5900   4.469   2.429  11.278 -2.0374 -0.9685 -0.5094
  391MPD2    H3 5901   4.323   2.337  11.101  0.3304 -0.1797  1.0771
  391MPD2     N 5902   4.579   2.519  10.772 -0.1565  0.5608 -0.4857
  391MPD2    H5 5903   4.655   2.585  10.758 -0.8985  1.3732 -0.6040
  391MPD2    N1 5904   4.686   2.572  11.239  0.2212  0.0740 -0.1249
  391MPD2    H7 5905   4.658   2.566  11.336 -0.8099  0.6763 -0.3900
  392TMC3    C1 5906   4.576   2.513  10.538 -0.0514 -0.4660  0.1722
  392TMC3    C2 5907   4.483   2.516  10.436 -0.1347 -0.1892 -0.1095
  392TMC3    C3 5908   4.509   2.611  10.340  0.7059 -0.0527  0.3411
  392TMC3    C4 5909   4.699   2.575  10.538  0.4625 -0.9887  0.0323
  392TMC3    C5 5910   4.722   2.667  10.440  0.6281  0.1397  0.4805
  392TMC3    C6 5911   4.626   2.692  10.348 -0.0168  0.0173 -0.2422
  392TMC3     C 5912   4.528   2.459  10.663 -0.5058 -0.5923 -0.1743
  392TMC3     O 5913   4.431   2.379  10.654  0.1761  0.2176  0.1142
  392TMC3     H 5914   4.401   2.446  10.425 -0.2351  0.1698 -1.5873
  392TMC3    H1 5915   0.036   2.557  10.618 -0.1782 -2.6406  0.2105
  392TMC3    H2 5916   4.632   2.779  10.284  1.4775 -0.7514 -1.1532
  392TMC3    C7 5917   0.115   2.730  10.431  0.2954  0.8859 -0.1726
  392TMC3    C8 5918   4.433   2.608  10.215 -0.0006 -0.4387  0.6555
  392TMC3    O1 5919   0.164   2.752  10.541  0.1944  0.2804 -0.2004
  392TMC3    O2 5920   4.315   2.577  10.219  0.2496 -0.1327 -0.5134
  393TMC3    C1 5921   3.761   0.793  10.745  0.2025 -0.2273  0.3503
  393TMC3    C2 5922   3.683   0.773  10.860 -0.7559  0.3910  0.4227
  393TMC3    C3 5923   3.754   0.764  10.980 -0.1997 -0.2175  0.4017
  393TMC3    C4 5924   3.900   0.790  10.750  0.4817 -0.2856 -0.3819
  393TMC3    C5 5925   3.964   0.764  10.870  0.2103  0.6226  0.0054
  393TMC3    C6 5926   3.891   0.750  10.986  0.4288  0.1971 -0.0930
  393TMC3     C 5927   3.701   0.884  10.635  0.5520 -0.6084 -0.0300
  393TMC3     O 5928   3.578   0.904  10.647  0.3022  0.1155  0.1086
  393TMC3     H 5929   3.575   0.780  10.857 -0.7806 -0.6160 -1.4509
  393TMC3    H1 5930   3.956   0.779  10.658  0.6038  0.6284 -0.4217
  393TMC3    H2 5931   3.944   0.745  11.080  0.7881  0.1424 -0.2974
  393TMC3    C7 5932   4.087   0.699  10.858 -0.4271  0.0356  0.5670
  393TMC3    C8 5933   3.683   0.736  11.098  0.6285 -0.4291  0.0570
  393TMC3    O1 5934   4.101   0.639  10.752  0.0507  0.3431  0.2803
  393TMC3    O2 5935   3.738   0.792  11.192 -0.0527  0.2966  0.0511
  394TMC3    C1 5936   0.932   0.862  10.454  0.1153 -0.4951  0.3252
  394TMC3    C2 5937   0.904   0.741  10.405  0.2783 -0.2543 -0.2286
  394TMC3    C3 5938   0.918   0.723  10.269 -0.0145 -0.2087 -0.2282
  394TMC3    C4 5939   1.002   0.959  10.382 -0.1806  0.3304  0.3928
  394TMC3    C5 5940   1.017   0.930  10.248 -0.0247  0.5541 -0.3008
  394TMC3    C6 5941   0.965   0.817  10.189  0.2466  0.2432 -0.6672
  394TMC3     C 5942   0.913   0.884  10.594  0.0684  0.0529  0.1221
  394TMC3     O 5943   0.937   0.788  10.662 -0.5034 -0.0238  0.5492
  394TMC3     H 5944   0.854   0.668  10.467  0.9100 -0.4384  0.0554
  394TMC3    H1 5945   1.040   1.052  10.423 -2.0424  1.3069 -0.1066
  394TMC3    H2 5946   0.970   0.808  10.081 -0.8450 -0.4714 -0.6518
  394TMC3    C7 5947   1.072   1.024  10.165  0.3044  0.3780  0.3445
  394TMC3    C8 5948   0.844   0.611  10.213 -0.1041  0.3792  0.7152
  394TMC3    O1 5949   1.037   1.030  10.048  0.1917  0.2774 -0.0771
  394TMC3    O2 5950   0.798   0.541  10.300 -0.5453 -0.1051  0.2902
  395TMC3    C1 5951   0.193   3.299  14.977  0.4093 -0.1387 -0.2947
  395TMC3    C2 5952   0.134   3.277  14.859  0.6860 -0.6059  0.9828
  395TMC3    C3 5953   0.209   3.268  14.743  0.0587 -0.1624  0.0158
  395TMC3    C4 5954   0.329   3.316  14.979  0.0433 -0.1618  0.2539
  395TMC3    C5 5955   0.405   3.296  14.865  0.2857  0.0623 -0.1351
  395TMC3    C6 5956   0.340   3.274  14.749 -0.1271  0.0889 -0.0306
  395TMC3     C 5957   0.134   3.248  15.097 -0.7441  0.7160 -1.3894
  395TMC3     O 5958   0.181   3.297  15.204 -0.3173  0.1954 -0.2239
  395TMC3     H 5959   0.027   3.266  14.850  0.7849 -1.3418  0.7342
  395TMC3    H1 5960   0.374   3.324  15.077  1.1567 -2.0475 -0.1151
  395TMC3    H2 5961   0.401   3.255  14.661 -0.4523  2.8585 -0.8545
  395TMC3    C7 5962   0.544   3.336  14.879 -0.1350  0.6170  0.4660
  395TMC3    C8 5963   0.129   3.265  14.617  0.2791  0.2187 -0.1605
  395TMC3    O1 5964   0.592   3.324  14.990 -0.1121  0.0876  0.1869
  395TMC3    O2 5965   0.015   3.309  14.620 -0.4823  0.3076  0.6402
  396MPD2     C 5966   0.155   3.054  17.247  1.2110 -0.1185  0.0792
  396MPD2    C1 5967   0.259   3.109  17.326  0.1205  0.6737 -0.5864
  396MPD2    C2 5968   0.328   3.213  17.272 -0.0787  0.3285  0.6133
  396MPD2    C3 5969   0.312   3.249  17.138 -0.0035 -0.2764 -0.4243
  396MPD2    C4 5970   0.229   3.177  17.058 -0.1824 -0.5362 -0.2159
  396MPD2    C5 5971   0.142   3.087  17.117 -0.6138  0.5741  0.4703
  396MPD2     H 5972   0.394   3.269  17.338  0.3857  1.3637 -0.7336
  396MPD2    H1 5973   0.206   3.197  16.954 -1.2192 -1.0531 -0.0885
  396MPD2    H2 5974   0.084   2.983  17.289  0.3946  1.2543  1.0213
  396MPD2    H3 5975   0.055   3.047  17.066  1.8948 -1.7560 -1.9716
  396MPD2     N 5976   0.395   3.351  17.080 -1.1383 -0.5000  0.5462
  396MPD2    H5 5977   0.463   3.401  17.136 -1.0982 -2.7452  2.5162
  396MPD2    N1 5978   0.265   3.070  17.458  0.2810 -0.0977 -0.1355
  396MPD2    H7 5979   0.211   2.990  17.489  3.0290 -0.4416  3.8359
  397TMC3    C1 5980   0.368   3.035  17.660 -0.5584  0.2325  1.4823
  397TMC3    C2 5981   0.504   3.028  17.663 -0.2760 -0.2616 -0.4732
  397TMC3    C3 5982   0.578   2.922  17.619  0.0802  0.4786  0.4692
  397TMC3    C4 5983   0.311   2.910  17.653 -0.0558  0.1657 -0.0646
  397TMC3    C5 5984   0.385   2.799  17.608 -0.5226  0.6077 -0.4550
  397TMC3    C6 5985   0.517   2.810  17.577  0.4152  0.0508  0.5247
  397TMC3     C 5986   0.338   3.133  17.553  0.7041 -0.2556  0.2959
  397TMC3     O 5987   0.397   3.241  17.548 -0.4698  0.2183  0.1664
  397TMC3     H 5988   0.553   3.122  17.644  0.9770 -0.4373  1.9171
  397TMC3    H1 5989   0.203   2.905  17.664  0.0351 -3.5204 -0.9226
  397TMC3    H2 5990   0.583   2.731  17.543  0.9843  0.8666 -0.2924
  397TMC3    C7 5991   0.326   2.667  17.624  0.2630  0.3541 -0.3262
  397TMC3    C8 5992   0.691   2.966  17.535  0.2224 -0.7689 -0.0093
  397TMC3    O1 5993   0.392   2.574  17.577 -0.7111  0.3401  0.4158
  397TMC3    O2 5994   0.769   3.039  17.599 -0.5850 -0.4226 -0.0299
  398MPD2     C 5995   3.465   4.715   0.724  0.7720 -0.2145  0.2651
  398MPD2    C1 5996   3.481   4.683   0.589  0.7520 -0.7611 -0.6499
  398MPD2    C2 5997   3.479   0.055   0.502  0.6054  0.8735  0.1472
  398MPD2    C3 5998   3.474   0.187   0.546 -0.6088 -0.0364 -0.6785
  398MPD2    C4 5999   3.458   0.209   0.676 -0.5096  0.5057  0.2563
  398MPD2    C5 6000   3.449   0.112   0.767  0.1893  0.0011  1.2939
  398MPD2     H 6001   3.478   0.026   0.397  1.2300 -0.6497  0.5664
  398MPD2    H1 6002   3.458   0.311   0.710 -0.7291  0.6738 -0.2396
  398MPD2    H2 6003   3.456   4.632   0.793  0.7689 -1.1457 -0.8396
  398MPD2    H3 6004   3.450   0.140   0.872  0.5605  1.4738  0.8870
  398MPD2     N 6005   3.471   0.300   0.459 -0.0273 -0.0231 -0.4552
  398MPD2    H5 6006   3.443   0.386   0.505  0.8056  0.2924 -0.5481
  398MPD2    N1 6007   3.477   4.553   0.532 -0.8228 -0.5412 -0.3993
  398MPD2    H7 6008   3.469   4.546   0.431  1.8352  0.1447 -0.6552
  399TMC3    C1 6009   3.531   4.319   0.512  0.5654  0.7128 -0.0843
  399TMC3    C2 6010   3.616   4.222   0.564  0.2441 -0.6856 -0.4584
  399TMC3    C3 6011   3.572   4.089   0.570  0.4737  0.6131 -0.1785
  399TMC3    C4 6012   3.402   4.285   0.477  0.6425 -0.3688  0.0073
  399TMC3    C5 6013   3.361   4.154   0.513  0.4916 -0.5609 -0.5347
  399TMC3    C6 6014   3.447   4.056   0.555 -0.4240 -0.0470 -1.0072
  399TMC3     C 6015   3.525   4.435   0.595  0.2600 -0.3425  0.6853
  399TMC3     O 6016   3.565   4.420   0.709  0.5188 -0.1574 -0.9051
  399TMC3     H 6017   3.720   4.246   0.584  0.0588 -1.8083  1.8532
  399TMC3    H1 6018   3.339   4.357   0.426 -0.8954 -2.8749 -1.6215
  399TMC3    H2 6019   3.407   3.962   0.590 -0.2322  0.8809  1.6838
  399TMC3    C7 6020   3.237   4.111   0.460 -0.4166 -0.2242  0.1996
  399TMC3    C8 6021   3.673   3.985   0.593  0.1344 -0.0758  0.3271
  399TMC3    O1 6022   3.217   3.990   0.453  0.0248 -0.5757 -0.2059
  399TMC3    O2 6023   3.790   4.023   0.598  0.1866 -0.0415  0.4660
  400TMC3    C1 6024   2.260   3.115  17.089  0.1484 -0.1119 -0.3434
  400TMC3    C2 6025   2.132   3.107  17.056  0.0777  0.4851  0.2083
  400TMC3    C3 6026   2.071   3.218  17.009 -0.0878  0.0110 -0.0369
  400TMC3    C4 6027   2.332   3.228  17.080 -0.0315  0.0764  0.9878
  400TMC3    C5 6028   2.268   3.341  17.051 -0.5429  0.7594  0.0025
  400TMC3    C6 6029   2.139   3.339  17.012  0.0231 -0.0142  0.5213
  400TMC3     C 6030   2.326   2.990  17.126  0.2107  0.1269  0.1756
  400TMC3     O 6031   2.287   2.893  17.061 -0.2660  0.3789  0.0220
  400TMC3     H 6032   2.078   3.015  17.073 -1.9229  1.1268 -2.5612
  400TMC3    H1 6033   2.438   3.225  17.102  0.8357 -0.5504 -3.2161
  400TMC3    H2 6034   2.081   3.426  16.983  5.5523  2.3855 -3.5579
  400TMC3    C7 6035   2.344   3.441  16.980 -0.0933  0.7611 -0.5822
  400TMC3    C8 6036   1.941   3.214  16.957  0.4252  0.6826 -0.2995
  400TMC3    O1 6037   2.452   3.404  16.938 -0.0690  0.4691 -0.6146
  400TMC3    O2 6038   1.876   3.318  16.948 -0.0968 -0.1165  0.6311
  401MPD2     C 6039   0.307   1.763   1.177  0.0291 -0.1851 -0.4070
  401MPD2    C1 6040   0.375   1.644   1.166 -0.5053 -0.2406  0.5324
  401MPD2    C2 6041   0.316   1.536   1.108 -0.0487  0.0658 -0.6253
  401MPD2    C3 6042   0.194   1.541   1.058 -0.1486 -0.2801  0.2841
  401MPD2    C4 6043   0.121   1.661   1.064 -1.3617  0.1789  0.0896
  401MPD2    C5 6044   0.179   1.765   1.128  0.4941  0.6724  0.3822
  401MPD2     H 6045   0.381   1.449   1.104 -0.1966 -0.0320 -0.9148
  401MPD2    H1 6046   0.015   1.668   1.043 -1.3243  0.7371  0.0907
  401MPD2    H2 6047   0.337   1.851   1.232 -0.0239 -0.0060 -0.6657
  401MPD2    H3 6048   0.121   1.856   1.143  0.8692  0.3376  3.8475
  401MPD2     N 6049   0.138   1.419   1.011 -0.4710 -0.7825  0.6765
  401MPD2    H5 6050   0.187   1.331   1.022 -0.2851 -0.7823 -0.1561
  401MPD2    N1 6051   0.511   1.632   1.202 -0.4632  0.2137  0.2610
  401MPD2    H7 6052   0.552   1.540   1.195  0.4006  0.6310 -0.1449
  402TMC3    C1 6053   0.002   1.276   0.882 -0.1866 -0.1578 -0.2794
  402TMC3    C2 6054   0.041   1.183   0.974 -0.3106 -0.9342 -0.1025
  402TMC3    C3 6055   0.081   1.057   0.931 -0.2283  0.5578  0.7509
  402TMC3    C4 6056   4.728   1.253   0.747  0.0708 -0.5320  0.5214
  402TMC3    C5 6057   0.038   1.127   0.702  0.4833 -0.2288  0.3201
  402TMC3    C6 6058   0.091   1.030   0.794  0.2916  0.4762 -0.1230
  402TMC3     C 6059   0.027   1.411   0.929 -0.1548 -0.3509  0.0094
  402TMC3     O 6060   4.685   1.496   0.878 -0.1843  0.0816 -0.1172
  402TMC3     H 6061   0.036   1.203   1.080 -1.8188 -1.5041 -0.0731
  402TMC3    H1 6062   4.711   1.338   0.682  1.1521  0.3410  1.3926
  402TMC3    H2 6063   0.149   0.942   0.767  2.7920  1.6402  1.5408
  402TMC3    C7 6064   0.013   1.099   0.566 -0.9203 -0.6214 -0.2868
  402TMC3    C8 6065   0.120   0.948   1.024  0.1793  0.3335  0.6689
  402TMC3    O1 6066   4.674   1.176   0.502 -0.1340  0.4860 -0.0472
  402TMC3    O2 6067   0.134   0.834   0.982 -0.0813 -0.4689  0.2737
  403MPD2     C 6068   3.662   4.339  13.123  0.9448  0.1185 -0.7687
  403MPD2    C1 6069   3.554   4.399  13.177  0.0976  0.4779  0.0573
  403MPD2    C2 6070   3.555   4.458  13.297  0.3170  0.3584 -0.0290
  403MPD2    C3 6071   3.668   4.448  13.375 -0.0712  0.1522 -0.3371
  403MPD2    C4 6072   3.775   4.382  13.323  0.9234 -0.8464 -0.3791
  403MPD2    C5 6073   3.778   4.332  13.197  0.6746  0.2134  0.0009
  403MPD2     H 6074   3.470   4.512  13.336 -0.4036 -1.1138  0.4166
  403MPD2    H1 6075   3.865   4.374  13.382 -0.3034  0.0368  1.6011
  403MPD2    H2 6076   3.656   4.284  13.030  1.7848 -0.8052 -0.2848
  403MPD2    H3 6077   3.869   4.287  13.160  0.9742  0.5333  0.3518
  403MPD2     N 6078   3.656   4.494  13.511  0.2038 -0.6719  0.4453
  403MPD2    H5 6079   3.592   4.571  13.527 -0.2281 -0.2893 -3.1117
  403MPD2    N1 6080   3.424   4.372  13.115 -0.4116 -0.4482  0.1295
  403MPD2    H7 6081   3.423   4.315  13.031  3.2301  0.1447 -0.3107
  404TMC3    C1 6082   3.197   4.355  13.090 -0.0797 -1.4312 -0.2078
  404TMC3    C2 6083   3.097   4.293  13.155 -0.6288  0.0009 -0.2348
  404TMC3    C3 6084   3.018   4.214  13.075 -0.4482  0.1444  0.4758
  404TMC3    C4 6085   3.228   4.336  12.953  0.4207 -0.3063  0.6008
  404TMC3    C5 6086   3.139   4.269  12.876  0.1535 -0.2310 -0.1361
  404TMC3    C6 6087   3.035   4.216  12.936  0.0749 -0.2182 -0.1304
  404TMC3     C 6088   3.301   4.400  13.174  0.3188  0.1911  0.2780
  404TMC3     O 6089   3.270   4.444  13.286 -0.0893  0.0874 -0.1895
  404TMC3     H 6090   3.096   4.292  13.263  2.7983 -2.6365 -0.2029
  404TMC3    H1 6091   3.307   4.391  12.902  1.2152 -1.6688  0.3667
  404TMC3    H2 6092   2.957   4.168  12.878 -1.6133  2.7428 -0.3274
  404TMC3    C7 6093   3.110   4.343  12.748 -0.2932  0.4537  0.0683
  404TMC3    C8 6094   2.967   4.088  13.127  0.0536  0.0896  0.0899
  404TMC3    O1 6095   3.186   4.441  12.725 -0.4271  0.0374  0.1738
  404TMC3    O2 6096   2.916   4.012  13.049  0.7767  0.1327 -0.1721
  405MPD2     C 6097   3.560   1.280  14.834  0.2430 -1.1918  0.0188
  405MPD2    C1 6098   3.434   1.220  14.838 -0.2240  0.1658 -0.3249
  405MPD2    C2 6099   3.331   1.293  14.894 -0.2761  0.2243 -0.7334
  405MPD2    C3 6100   3.339   1.426  14.919  1.0512 -0.1824 -0.1446
  405MPD2    C4 6101   3.464   1.489  14.896 -0.7710  0.5973 -0.2872
  405MPD2    C5 6102   3.575   1.416  14.865 -0.4572  0.0571  0.1196
  405MPD2     H 6103   3.237   1.240  14.899  0.7501 -1.7365 -2.3687
  405MPD2    H1 6104   3.470   1.595  14.919 -0.1226  0.3172  0.8808
  405MPD2    H2 6105   3.648   1.223  14.806  0.8026 -0.7882  0.9657
  405MPD2    H3 6106   3.669   1.460  14.833 -1.3124  0.5885 -1.6804
  405MPD2     N 6107   3.237   1.502  14.977 -0.1575  0.4812  0.0411
  405MPD2    H5 6108   3.248   1.602  14.965 -1.7515  0.6462 -0.1202
  405MPD2    N1 6109   3.411   1.093  14.776  0.2161  0.1263  1.1776
  405MPD2    H7 6110   3.492   1.039  14.749 -0.9455 -0.2127 -1.5977
  406TMC3    C1 6111   2.853   1.632  14.835 -0.3780  0.0227  0.5590
  406TMC3    C2 6112   2.744   1.584  14.899 -0.1017 -0.7555 -0.4944
  406TMC3    C3 6113   2.760   1.499  15.003  0.5450  0.2264  0.7500
  406TMC3    C4 6114   2.984   1.599  14.865  0.1542  0.4287  0.1988
  406TMC3    C5 6115   2.991   1.524  14.982  0.0137  0.0912  0.4906
  406TMC3    C6 6116   2.886   1.473  15.058 -0.3019 -0.0130  0.7325
  406TMC3     C 6117   2.822   1.631  14.695  0.2542  0.3012 -0.0144
  406TMC3     O 6118   2.743   1.720  14.664 -0.0339 -0.3447  0.4653
  406TMC3     H 6119   2.645   1.603  14.858 -0.5759  2.6848  2.2379
  406TMC3    H1 6120   3.064   1.612  14.793  0.3330  0.6308  0.4364
  406TMC3    H2 6121   2.903   1.411  15.145 -0.8470  0.2288  1.0077
  406TMC3    C7 6122   3.117   1.446  15.011  0.3648  0.4127 -0.2615
  406TMC3    C8 6123   2.678   1.381  14.972  0.0574 -0.2027 -0.2646
  406TMC3    O1 6124   3.100   1.342  15.076 -0.5467  0.1733 -0.2680
  406TMC3    O2 6125   2.559   1.395  14.944  0.2633  0.4034 -0.1379
  407MPD2     C 6126   0.971   2.400   9.560  0.5100  0.1373  0.7912
  407MPD2    C1 6127   1.051   2.506   9.520 -0.5114 -0.4931 -0.4027
  407MPD2    C2 6128   1.083   2.596   9.614 -0.1154  0.7784 -0.4183
  407MPD2    C3 6129   1.056   2.588   9.751  0.0189  0.2495  0.6573
  407MPD2    C4 6130   0.983   2.485   9.792 -0.2692 -0.6617 -0.2753
  407MPD2    C5 6131   0.934   2.391   9.693 -0.2160 -0.6917 -0.3546
  407MPD2     H 6132   1.149   2.673   9.574  1.5019  0.5858  1.8573
  407MPD2    H1 6133   0.954   2.473   9.896 -1.9822 -0.8268 -0.7676
  407MPD2    H2 6134   0.923   2.328   9.495 -0.8475  0.7609  1.0889
  407MPD2    H3 6135   0.869   2.313   9.730  1.4533 -1.0000  1.9293
  407MPD2     N 6136   1.096   2.696   9.834  0.0468 -0.2869 -0.0259
  407MPD2    H5 6137   1.128   2.778   9.783  1.1112 -0.0894  0.9783
  407MPD2    N1 6138   1.116   2.501   9.389 -0.4103  0.6809 -0.2367
  407MPD2    H7 6139   1.180   2.577   9.367  1.5941 -0.7654  0.5723
  408TMC3    C1 6140   1.240   2.426   9.208  0.3159 -0.2006  0.0042
  408TMC3    C2 6141   1.329   2.320   9.199  0.4983  0.1086 -0.3625
  408TMC3    C3 6142   1.463   2.354   9.184 -0.3441 -0.0188  0.1566
  408TMC3    C4 6143   1.280   2.557   9.207  0.0943  1.1140  0.3677
  408TMC3    C5 6144   1.409   2.578   9.187  0.7776  0.1130 -0.5937
  408TMC3    C6 6145   1.509   2.480   9.166  0.2597  0.0890 -0.4640
  408TMC3     C 6146   1.135   2.394   9.307  0.8438  0.4864  0.2151
  408TMC3     O 6147   1.077   2.285   9.292  0.6458 -0.2439 -0.4296
  408TMC3     H 6148   1.303   2.217   9.223 -1.2117  0.2670 -1.5498
  408TMC3    H1 6149   1.215   2.642   9.189 -0.4030  0.4562 -0.9283
  408TMC3    H2 6150   1.612   2.504   9.141  0.1663 -0.2666 -1.1916
  408TMC3    C7 6151   1.449   2.702   9.244  0.6440  0.2122  0.2500
  408TMC3    C8 6152   1.557   2.244   9.198 -0.3410 -0.3021  0.1836
  408TMC3    O1 6153   1.361   2.751   9.315 -0.3841  0.3739  0.0623
  408TMC3    O2 6154   1.508   2.136   9.170 -0.3671  0.4077 -0.2791
  409MPD2     C 6155   0.690   2.708  17.179  0.3123  0.1835  0.1350
  409MPD2    C1 6156   0.818   2.692  17.228  0.0761  0.3917 -0.0973
  409MPD2    C2 6157   0.921   2.736  17.151  0.5762 -0.0818 -0.2324
  409MPD2    C3 6158   0.902   2.777  17.020 -0.1646  0.0688  0.1378
  409MPD2    C4 6159   0.774   2.795  16.972 -0.3937 -0.3798  0.0567
  409MPD2    C5 6160   0.668   2.756  17.051 -0.1621  0.2358  0.7541
  409MPD2     H 6161   1.022   2.744  17.188  1.3766 -1.7107 -2.1128
  409MPD2    H1 6162   0.762   2.826  16.869  0.0020 -0.9506 -0.1609
  409MPD2    H2 6163   0.605   2.682  17.241  0.6568 -1.8812 -0.2631
  409MPD2    H3 6164   0.572   2.762  17.002  0.0753  0.8763  0.3579
  409MPD2     N 6165   1.014   2.831  16.950  0.5988 -0.8618 -0.3446
  409MPD2    H5 6166   0.998   2.886  16.866  0.1604 -2.1358 -1.0881
  409MPD2    N1 6167   0.860   2.631  17.350  0.2335  1.0440 -0.0455
  409MPD2    H7 6168   0.959   2.639  17.370  0.5637  1.9908 -2.0350
  410TMC3    C1 6169   1.246   2.900  16.940  0.1291  0.2505  0.4798
  410TMC3    C2 6170   1.369   2.882  16.993 -0.4368 -0.2459 -0.4486
  410TMC3    C3 6171   1.459   2.984  17.008  0.0387 -0.2654  0.0830
  410TMC3    C4 6172   1.202   3.030  16.899 -0.7629  0.4510  0.7524
  410TMC3    C5 6173   1.293   3.126  16.917  0.1667  0.0323  0.0987
  410TMC3    C6 6174   1.416   3.111  16.979 -0.0992 -0.0180  0.5012
  410TMC3     C 6175   1.149   2.801  16.982  0.3000 -0.0634  0.6094
  410TMC3     O 6176   1.187   2.701  17.046 -0.4803  0.0483 -0.0197
  410TMC3     H 6177   1.400   2.782  17.020  0.3930  0.1923  0.2363
  410TMC3    H1 6178   1.097   3.046  16.881 -0.4865 -0.8254 -2.0293
  410TMC3    H2 6179   1.484   3.193  16.996  0.8854 -0.7807  0.2776
  410TMC3    C7 6180   1.305   3.211  16.794 -0.8590 -0.7966  1.0095
  410TMC3    C8 6181   1.579   2.960  17.091  0.1621 -0.0360  0.4347
  410TMC3    O1 6182   1.343   3.326  16.795 -0.9270  0.4046 -0.0905
  410TMC3    O2 6183   1.607   3.057  17.162  0.3941 -0.2360  0.3693
  411MPD2     C 6184   1.461   3.683  14.634  0.1421 -0.0668  0.2306
  411MPD2    C1 6185   1.353   3.730  14.565  1.1256  0.1359  0.3664
  411MPD2    C2 6186   1.290   3.645  14.480  0.9281 -0.2203  0.4001
  411MPD2    C3 6187   1.339   3.515  14.461 -0.5722 -0.2627 -0.3195
  411MPD2    C4 6188   1.447   3.470  14.527  0.1068  0.3778 -0.1563
  411MPD2    C5 6189   1.503   3.551  14.617  0.3671  0.2845 -0.3764
  411MPD2     H 6190   1.207   3.682  14.421  0.9189 -0.3786  0.3141
  411MPD2    H1 6191   1.473   3.365  14.528 -1.0434  0.1389  4.1153
  411MPD2    H2 6192   1.495   3.730  14.726  1.8156  0.5437 -0.7218
  411MPD2    H3 6193   1.574   3.513  14.691  0.2882 -2.3111 -1.6268
  411MPD2     N 6194   1.266   3.414  14.392  0.3687 -0.3645  0.3385
  411MPD2    H5 6195   1.301   3.319  14.394 -1.7591 -1.1674 -0.7823
  411MPD2    N1 6196   1.299   3.855  14.592 -0.3184 -0.0027 -0.1351
  411MPD2    H7 6197   1.205   3.870  14.558 -0.1702 -0.2283 -0.6479
  412TMC3    C1 6198   1.109   3.303  14.260  0.3531  0.1807 -0.1590
  412TMC3    C2 6199   0.974   3.287  14.281 -0.1427 -0.0246 -0.2134
  412TMC3    C3 6200   0.904   3.207  14.195 -0.0824  0.4574  0.7165
  412TMC3    C4 6201   1.169   3.261  14.144  0.3025 -0.2303  0.8010
  412TMC3    C5 6202   1.099   3.187  14.057  0.6691 -0.2215 -0.0587
  412TMC3    C6 6203   0.969   3.157  14.084 -0.6571  0.8864  0.0642
  412TMC3     C 6204   1.150   3.430  14.318  0.8705  0.8635  0.0142
  412TMC3     O 6205   1.084   3.526  14.294 -0.3479  0.0836  0.2367
  412TMC3     H 6206   0.930   3.310  14.377  1.9298 -2.0257  1.2346
  412TMC3    H1 6207   1.268   3.295  14.114 -0.2922 -0.0681 -0.9736
  412TMC3    H2 6208   0.917   3.122  13.996 -0.8075  0.6493  0.2467
  412TMC3    C7 6209   1.121   3.218  13.916 -0.2005 -0.5014  0.1778
  412TMC3    C8 6210   0.767   3.229  14.189 -0.0370  0.1461  0.7071
  412TMC3    O1 6211   1.150   3.125  13.843 -0.6194  0.3520  0.5568
  412TMC3    O2 6212   0.704   3.302  14.264 -0.2288  0.3855  0.0067
  413MPD2     C 6213   2.321   1.835  15.042 -0.4424  0.2825  0.1792
  413MPD2    C1 6214   2.348   1.756  15.158  0.0929  0.0632 -0.3978
  413MPD2    C2 6215   2.472   1.737  15.203  0.5527 -0.3413  0.0501
  413MPD2    C3 6216   2.579   1.798  15.133  0.7237 -0.1365 -0.5446
  413MPD2    C4 6217   2.556   1.868  15.016  0.2185  0.1342  0.7951
  413MPD2    C5 6218   2.425   1.899  14.976  0.0889 -0.0141 -0.6209
  413MPD2     H 6219   2.496   1.678  15.291  0.4417  1.3173  1.2073
  413MPD2    H1 6220   2.636   1.912  14.958  0.4163 -1.2019  0.0589
  413MPD2    H2 6221   2.226   1.864  14.999 -0.1683  0.1171 -0.5464
  413MPD2    H3 6222   2.406   1.963  14.891 -0.3011  1.8048  0.8345
  413MPD2     N 6223   2.706   1.800  15.198 -0.2639 -0.4852  0.2989
  413MPD2    H5 6224   2.710   1.741  15.281  1.3834  0.9266  1.2378
  413MPD2    N1 6225   2.234   1.705  15.232 -0.5943  0.3802  0.0311
  413MPD2    H7 6226   2.142   1.729  15.196 -1.2257 -3.7383 -1.1882
  414TMC3    C1 6227   2.929   1.840  15.246  0.2146 -0.2348 -0.3668
  414TMC3    C2 6228   2.944   1.720  15.309  0.0480 -0.6236 -0.4764
  414TMC3    C3 6229   3.037   1.709  15.411  0.2583 -0.6811  0.6315
  414TMC3    C4 6230   3.017   1.939  15.279 -0.1746 -0.6270 -0.1646
  414TMC3    C5 6231   3.099   1.926  15.381  0.4732 -0.1894 -0.4405
  414TMC3    C6 6232   3.110   1.815  15.453  0.3817 -0.1514 -0.5175
  414TMC3     C 6233   2.814   1.877  15.168  0.1202 -0.8122  0.9983
  414TMC3     O 6234   2.820   1.972  15.092  0.2614 -0.3749 -0.4839
  414TMC3     H 6235   2.882   1.632  15.301 -3.5221  1.8201  0.4435
  414TMC3    H1 6236   3.012   2.025  15.214 -0.0875  0.4770  1.2990
  414TMC3    H2 6237   3.169   1.819  15.544  0.1962  1.2635 -0.4573
  414TMC3    C7 6238   3.233   1.962  15.349  1.1408  0.7196  0.6057
  414TMC3    C8 6239   3.118   1.586  15.416  0.2107 -0.9456 -0.3909
  414TMC3    O1 6240   3.318   1.892  15.398 -0.0076 -0.0479 -0.1437
  414TMC3    O2 6241   3.063   1.473  15.411 -0.2860  0.5877  0.1243
  415TMC3    C1 6242   3.836   0.203  11.094 -0.0045 -0.2066  0.1762
  415TMC3    C2 6243   3.846   0.325  11.030 -0.1043 -0.1611  0.1348
  415TMC3    C3 6244   3.868   0.331  10.897 -0.4154  1.0109 -0.0683
  415TMC3    C4 6245   3.847   0.089  11.025 -0.7098  0.1939  0.3302
  415TMC3    C5 6246   3.884   0.094  10.894 -0.4646 -0.1075  0.8021
  415TMC3    C6 6247   3.884   0.212  10.823  1.1067 -0.8932  0.2257
  415TMC3     C 6248   3.764   0.193  11.222 -0.4188  0.0892 -0.0525
  415TMC3     O 6249   3.713   0.083  11.251  0.1959 -0.4630 -0.8261
  415TMC3     H 6250   3.827   0.421  11.078 -1.6992 -0.1932 -0.4435
  415TMC3    H1 6251   3.840   4.731  11.081 -0.6460  0.2118  0.3679
  415TMC3    H2 6252   3.893   0.211  10.715 -1.8342  1.1668 -0.0711
  415TMC3    C7 6253   3.846   4.716  10.813 -0.5224 -0.6929  0.2763
  415TMC3    C8 6254   3.781   0.423  10.831 -0.2816 -0.5291 -0.0827
  415TMC3    O1 6255   3.917   4.686  10.714  0.1018  0.2214 -0.2575
  415TMC3    O2 6256   3.691   0.466  10.901  0.8866 -0.1707 -0.1681
  416MPD2     C 6257   0.537   3.637  11.307  0.3304  1.7996 -0.4625
  416MPD2    C1 6258   0.406   3.677  11.322 -0.3481  0.0227  0.1803
  416MPD2    C2 6259   0.307   3.613  11.244 -0.3234 -0.7587 -0.5609
  416MPD2    C3 6260   0.341   3.512  11.153 -0.0469  0.4105 -0.3736
  416MPD2    C4 6261   0.479   3.480  11.138  0.4690  0.5279 -0.4464
  416MPD2    C5 6262   0.576   3.545  11.211 -0.2639  0.1275 -0.3782
  416MPD2     H 6263   0.200   3.630  11.251  0.0800  2.2454 -1.6956
  416MPD2    H1 6264   0.507   3.414  11.057  0.4841 -0.2787  0.2158
  416MPD2    H2 6265   0.606   3.679  11.379  2.4807  1.1341 -2.1130
  416MPD2    H3 6266   0.682   3.524  11.200  0.1241  0.6489  2.3457
  416MPD2     N 6267   0.249   3.438  11.072 -0.1371  0.5182  0.1957
  416MPD2    H5 6268   0.283   3.357  11.021  1.4838  0.2654  1.6739
  416MPD2    N1 6269   0.366   3.773  11.414 -0.4316  0.7974 -0.3235
  416MPD2    H7 6270   0.434   3.805  11.483  0.5712 -0.8356 -0.5494
  417TMC3    C1 6271   0.208   3.888  11.552  0.4624 -0.7908  0.2301
  417TMC3    C2 6272   0.268   3.830  11.664  0.3571  0.2635 -0.3436
  417TMC3    C3 6273   0.186   3.826  11.779 -0.2444  0.0602 -0.9343
  417TMC3    C4 6274   0.082   3.937  11.539  0.8273 -0.4473 -0.5671
  417TMC3    C5 6275   0.018   3.945  11.660  0.4584  0.3948 -0.2084
  417TMC3    C6 6276   0.063   3.893  11.773 -0.9009 -0.4980 -0.0641
  417TMC3     C 6277   0.239   3.820  11.426 -0.2341  0.4141 -0.0469
  417TMC3     O 6278   0.136   3.804  11.361 -0.3871  0.0762  0.1166
  417TMC3     H 6279   0.372   3.802  11.654 -0.1328 -1.7233  0.1791
  417TMC3    H1 6280   0.030   3.979  11.453  0.1151 -1.8578 -0.8272
  417TMC3    H2 6281   4.731   3.890  11.859 -1.7489 -0.3702 -0.7149
  417TMC3    C7 6282   4.650   4.045  11.666  0.5808  0.3968 -0.4924
  417TMC3    C8 6283   0.246   3.824  11.907  0.2625  0.1915  0.0277
  417TMC3    O1 6284   4.581   4.067  11.567 -0.1182  0.4336  0.4276
  417TMC3    O2 6285   0.186   3.887  11.992 -0.0319  0.3383 -0.2907
  418TMC3    C1 6286   3.737   0.081   0.149  1.0822  0.0623 -0.3430
  418TMC3    C2 6287   3.636   0.166   0.166  1.1532  0.3254 -0.7383
  418TMC3    C3 6288   3.622   0.228   0.288 -0.4691  0.6998 -0.1622
  418TMC3    C4 6289   3.823   0.049   0.251  0.2862  0.1399  0.1885
  418TMC3    C5 6290   3.810   0.126   0.361  0.0087  0.7701 -0.2386
  418TMC3    C6 6291   3.718   0.218   0.378  0.6881 -0.0541  0.0008
  418TMC3     C 6292   3.760   0.030   0.019 -0.2547 -0.3661 -0.3323
  418TMC3     O 6293   3.738   0.097  17.654  0.1328  0.1871  0.0040
  418TMC3     H 6294   3.580   0.186   0.075 -0.8091  1.7761  0.8019
  418TMC3    H1 6295   3.889   4.696   0.254 -1.9488 -1.5615 -0.0032
  418TMC3    H2 6296   3.723   0.291   0.459 -1.5017  1.0972 -0.8899
  418TMC3    C7 6297   3.857   0.070   0.488  0.1612  0.3255 -0.0554
  418TMC3    C8 6298   3.498   0.294   0.321  0.6751  0.0693 -0.4229
  418TMC3    O1 6299   3.863   4.682   0.489 -0.4489 -0.1024 -0.0844
  418TMC3    O2 6300   3.475   0.374   0.230  0.3035 -0.6048  0.5023
  419MPD2     C 6301   3.117   3.167  12.751 -0.7145  1.1768 -0.3590
  419MPD2    C1 6302   3.008   3.194  12.673 -0.5033  0.2946  0.0588
  419MPD2    C2 6303   2.891   3.201  12.735 -0.4481 -0.5449 -0.0159
  419MPD2    C3 6304   2.875   3.181  12.872 -0.2455  0.3296  0.1182
  419MPD2    C4 6305   2.980   3.148  12.949 -0.1184 -0.2313  0.1207
  419MPD2    C5 6306   3.095   3.144  12.884 -0.2763  0.0156 -0.1924
  419MPD2     H 6307   2.804   3.232  12.678  0.2181 -0.3897 -0.9472
  419MPD2    H1 6308   2.980   3.125  13.055 -1.7023 -0.5620  0.0536
  419MPD2    H2 6309   3.219   3.179  12.716 -0.3418  0.2818  0.4028
  419MPD2    H3 6310   3.174   3.125  12.955 -0.5952  3.1676  1.0130
  419MPD2     N 6311   2.744   3.196  12.917 -0.9413 -0.1146  0.2254
  419MPD2    H5 6312   2.681   3.238  12.849 -0.0900 -0.7587 -0.9742
  419MPD2    N1 6313   3.012   3.251  12.547  0.0124 -0.0594  0.0886
  419MPD2    H7 6314   2.920   3.281  12.516  0.2008 -0.7334 -1.1278
  420TMC3    C1 6315   2.570   3.191  13.073  0.0074 -0.0377  0.0353
  420TMC3    C2 6316   2.505   3.287  12.999  0.4331 -0.3020 -0.1143
  420TMC3    C3 6317   2.412   3.358  13.061  0.0802 -0.1572 -0.2252
  420TMC3    C4 6318   2.527   3.158  13.200  0.0374  0.7809  0.2126
  420TMC3    C5 6319   2.415   3.218  13.252  0.3436  0.2498  0.5395
  420TMC3    C6 6320   2.367   3.331  13.188 -0.2188  0.8677  0.8910
  420TMC3     C 6321   2.702   3.152  13.037 -0.0886 -0.3010  0.3047
  420TMC3     O 6322   2.760   3.079  13.118 -0.4521  0.0491 -0.3652
  420TMC3     H 6323   2.510   3.299  12.892  1.3547 -2.0273 -0.2613
  420TMC3    H1 6324   2.584   3.081  13.251 -0.3472  1.7337  2.0495
  420TMC3    H2 6325   2.276   3.382  13.218 -0.7328  0.1078  0.6292
  420TMC3    C7 6326   2.408   3.221  13.398  0.3428  0.0054  0.9600
  420TMC3    C8 6327   2.356   3.467  12.989  0.1882  0.0816 -0.3721
  420TMC3    O1 6328   2.468   3.139  13.457 -0.6225  0.1925 -0.1611
  420TMC3    O2 6329   2.252   3.511  13.040 -0.0023  0.3479  0.5184
  421TMC3    C1 6330   3.732   4.516  13.745  0.2440 -0.4075  0.2184
  421TMC3    C2 6331   3.644   4.623  13.766 -0.5076 -0.3361 -0.3768
  421TMC3    C3 6332   3.682   4.706  13.869 -0.1679  0.4807 -0.2085
  421TMC3    C4 6333   3.834   4.492  13.833 -0.5606 -0.8716 -0.7151
  421TMC3    C5 6334   3.869   4.583  13.919  0.7124  0.4670 -0.5327
  421TMC3    C6 6335   3.801   4.703  13.931 -0.3750 -0.1722 -0.5433
  421TMC3     C 6336   3.749   4.456  13.610 -0.6580 -0.2054 -0.2570
  421TMC3     O 6337   3.811   4.353  13.611  0.4271 -0.2796 -0.2792
  421TMC3     H 6338   3.559   4.640  13.701  0.4551  2.4019 -0.9087
  421TMC3    H1 6339   3.895   4.404  13.813  0.0369 -0.4412 -0.7748
  421TMC3    H2 6340   3.834   0.049  13.996  0.8560 -0.9023 -0.2667
  421TMC3    C7 6341   3.988   4.576  13.999  0.0361 -0.2124 -0.5046
  421TMC3    C8 6342   3.579   0.074  13.915  0.2006 -0.2075 -0.1388
  421TMC3    O1 6343   4.041   4.679  14.033 -0.4683 -0.5014  0.0410
  421TMC3    O2 6344   3.463   0.050  13.894  0.4090 -0.1715  0.0998
  422TMC3    C1 6345   1.029   1.763  12.271  0.1328  0.0276 -0.0042
  422TMC3    C2 6346   1.077   1.836  12.375  0.2088 -0.2423 -0.1439
  422TMC3    C3 6347   1.044   1.788  12.499 -0.1581 -0.2069  0.5435
  422TMC3    C4 6348   0.949   1.658  12.283  0.4086  0.5198 -0.0042
  422TMC3    C5 6349   0.925   1.612  12.412 -0.7296  0.0688  0.8114
  422TMC3    C6 6350   0.973   1.673  12.521 -0.5028  0.1059 -0.1135
  422TMC3     C 6351   1.048   1.820  12.142 -0.4333 -0.3585  0.2082
  422TMC3     O 6352   1.056   1.943  12.135 -0.4894  0.2362  0.1913
  422TMC3     H 6353   1.138   1.923  12.356 -0.4786  0.1667 -0.5042
  422TMC3    H1 6354   0.881   1.614  12.211 -0.0092  0.1406  0.6200
  422TMC3    H2 6355   0.961   1.634  12.622  0.8572  1.7834  0.7044
  422TMC3    C7 6356   0.849   1.493  12.420  0.0644  0.6621 -1.2367
  422TMC3    C8 6357   1.091   1.870  12.605 -0.4174 -0.3754 -0.4752
  422TMC3    O1 6358   0.824   1.432  12.310  0.5388 -0.5776 -0.0787
  422TMC3    O2 6359   1.194   1.935  12.583  0.3585 -0.4297 -0.2058
  423MPD2     C 6360   2.584   2.379   0.827 -0.1062  0.2263  0.2093
  423MPD2    C1 6361   2.594   2.253   0.870  0.0579  0.8893 -0.0809
  423MPD2    C2 6362   2.629   2.155   0.775 -0.1911  0.7184  0.5224
  423MPD2    C3 6363   2.658   2.185   0.639 -0.0403  0.3123  0.3050
  423MPD2    C4 6364   2.642   2.311   0.597  0.4954  0.6824  0.5770
  423MPD2    C5 6365   2.611   2.403   0.694  0.6669 -0.3198 -0.1781
  423MPD2     H 6366   2.622   2.052   0.810 -2.9194 -0.5169 -3.6376
  423MPD2    H1 6367   2.645   2.350   0.496  1.0343 -0.4720  0.1414
  423MPD2    H2 6368   2.553   2.460   0.891  0.5998  0.8387 -0.2294
  423MPD2    H3 6369   2.609   2.505   0.659 -1.6655 -0.0941  0.6334
  423MPD2     N 6370   2.713   2.098   0.545 -0.0034  0.2126 -0.0154
  423MPD2    H5 6371   2.736   2.138   0.454 -1.8464 -0.3121 -0.7145
  423MPD2    N1 6372   2.573   2.224   1.004  0.1890 -0.1714 -0.4148
  423MPD2    H7 6373   2.605   2.133   1.036  0.2680 -0.0383 -0.1141
  424TMC3    C1 6374   2.520   2.252   1.227  0.0838 -0.7312 -0.2468
  424TMC3    C2 6375   2.633   2.181   1.265 -0.1412  0.3148  0.0215
  424TMC3    C3 6376   2.620   2.095   1.369 -0.0051  0.2227 -0.5023
  424TMC3    C4 6377   2.414   2.260   1.308  0.3609 -0.5294  0.6313
  424TMC3    C5 6378   2.404   2.170   1.409 -0.3157 -1.0042 -0.6322
  424TMC3    C6 6379   2.507   2.088   1.442  0.6964 -0.5145 -0.8939
  424TMC3     C 6380   2.517   2.312   1.097 -0.3892 -0.5006 -0.2321
  424TMC3     O 6381   2.444   2.410   1.088 -0.0438  0.5653 -0.3797
  424TMC3     H 6382   2.715   2.172   1.195 -2.1407 -0.3675 -2.2566
  424TMC3    H1 6383   2.329   2.324   1.287  0.2522 -1.1866 -0.8748
  424TMC3    H2 6384   2.488   2.016   1.522 -1.0931 -0.6576 -1.4460
  424TMC3    C7 6385   2.290   2.164   1.499 -0.0431 -0.2665 -0.1277
  424TMC3    C8 6386   2.711   1.993   1.399 -0.2750 -0.1307 -0.0800
  424TMC3    O1 6387   2.296   2.108   1.608  0.1978  0.5334 -0.6487
  424TMC3    O2 6388   2.676   1.889   1.452 -0.6147  0.2059  0.0766
  425MPD2     C 6389   1.788   1.453  17.250 -0.7052 -0.3247  0.0281
  425MPD2    C1 6390   1.667   1.402  17.205  0.5203 -0.2282 -0.4765
  425MPD2    C2 6391   1.553   1.457  17.268  0.0616 -0.0095 -0.0878
  425MPD2    C3 6392   1.558   1.555  17.368  0.3886  0.6970 -0.5585
  425MPD2    C4 6393   1.681   1.608  17.405 -0.7527  0.4296  0.1395
  425MPD2    C5 6394   1.787   1.558  17.342  0.1069 -0.3702  0.1486
  425MPD2     H 6395   1.452   1.422  17.248 -0.2854  1.0408 -0.1786
  425MPD2    H1 6396   1.696   1.674  17.489 -0.9574  0.2159  0.3440
  425MPD2    H2 6397   1.881   1.412  17.212 -0.7328  1.3953 -1.9116
  425MPD2    H3 6398   1.880   1.582  17.392  0.6879  0.7211 -1.4360
  425MPD2     N 6399   1.430   1.589  17.420  0.2912  0.0595 -0.9274
  425MPD2    H5 6400   1.348   1.535  17.392  0.3556 -0.6712  0.3056
  425MPD2    N1 6401   1.665   1.301  17.100 -0.2042 -0.6519  0.3383
  425MPD2    H7 6402   1.755   1.271  17.065  0.1287  1.6647 -0.7707
  426TMC3    C1 6403   1.594   1.099  16.987  0.2103 -0.4219  0.0225
  426TMC3    C2 6404   1.695   1.099  16.894 -0.4981  0.2809  0.3738
  426TMC3    C3 6405   1.770   0.992  16.886 -0.4246  0.8904 -0.2253
  426TMC3    C4 6406   1.553   0.993  17.058 -0.5151  0.5178 -0.5394
  426TMC3    C5 6407   1.624   0.879  17.035 -0.8991  0.3897 -0.0202
  426TMC3    C6 6408   1.737   0.880  16.956  0.7881  0.5478 -0.1865
  426TMC3     C 6409   1.556   1.222  17.062  0.2089  0.0000  0.3276
  426TMC3     O 6410   1.442   1.232  17.106  0.5968 -0.0731 -0.1726
  426TMC3     H 6411   1.733   1.195  16.860 -0.4878  0.2225  0.2215
  426TMC3    H1 6412   1.457   0.999  17.106 -0.1268  0.6758  0.2223
  426TMC3    H2 6413   1.803   0.795  16.951  0.2932  0.2819 -2.3242
  426TMC3    C7 6414   1.597   0.762  17.113 -0.4261 -0.6652  0.3494
  426TMC3    C8 6415   1.816   0.966  16.755 -0.0570  0.0565 -0.2516
  426TMC3    O1 6416   1.631   0.653  17.073  0.1776 -0.2604  0.4367
  426TMC3    O2 6417   1.732   0.964  16.665  0.1609  0.5490 -0.5358
  427MPD2     C 6418   0.332   3.677  14.720  0.3711  0.5521  0.7727
  427MPD2    C1 6419   0.286   3.645  14.844  0.9431  0.2848 -0.4017
  427MPD2    C2 6420   0.147   3.622  14.860  0.1278  0.0113  0.1882
  427MPD2    C3 6421   0.059   3.619  14.754  0.8054 -0.3974  0.4311
  427MPD2    C4 6422   0.109   3.653  14.630 -0.1369  0.2407 -0.2038
  427MPD2    C5 6423   0.244   3.678  14.616 -0.1784  0.4323  0.2155
  427MPD2     H 6424   0.108   3.597  14.958 -0.6946 -0.4275 -0.2476
  427MPD2    H1 6425   0.047   3.666  14.541 -0.4257 -0.5098 -0.1130
  427MPD2    H2 6426   0.433   3.704  14.690 -0.3271  0.8213 -1.3525
  427MPD2    H3 6427   0.286   3.695  14.518  0.6003 -0.3221  0.4175
  427MPD2     N 6428   4.651   3.599  14.768 -0.4659  0.4569 -0.3367
  427MPD2    H5 6429   4.588   3.629  14.694  0.3612  0.7404 -0.9338
  427MPD2    N1 6430   0.360   3.660  14.970 -0.4230 -0.2866  0.2763
  427MPD2    H7 6431   0.311   3.637  15.055 -1.5172  0.5156 -0.1345
  428TMC3    C1 6432   0.563   3.629  15.099 -0.3405 -0.3347 -0.2066
  428TMC3    C2 6433   0.497   3.628  15.223  0.2284 -0.1445  0.2107
  428TMC3    C3 6434   0.564   3.579  15.331 -0.3729 -0.6719 -0.0610
  428TMC3    C4 6435   0.697   3.597  15.089  0.5241 -0.2454  0.1231
  428TMC3    C5 6436   0.750   3.539  15.198 -0.4125 -0.1231 -0.2047
  428TMC3    C6 6437   0.688   3.521  15.317  0.1634  0.2669 -0.2163
  428TMC3     C 6438   0.496   3.679  14.977  0.1568  0.7151  0.1831
  428TMC3     O 6439   0.574   3.708  14.887  0.2185 -0.1921 -0.3000
  428TMC3     H 6440   0.396   3.659  15.246  0.2363 -1.1211  1.5369
  428TMC3    H1 6441   0.752   3.600  14.996  0.9663 -2.7721  0.3122
  428TMC3    H2 6442   0.742   3.472  15.397  0.7169 -0.6251 -1.1409
  428TMC3    C7 6443   0.893   3.532  15.214 -0.2414 -0.5039  0.3095
  428TMC3    C8 6444   0.484   3.548  15.442 -0.6086 -0.4337 -0.3403
  428TMC3    O1 6445   0.939   3.439  15.280  0.6611 -0.2877  0.4034
  428TMC3    O2 6446   0.367   3.510  15.423  0.4815  0.5567 -0.7982
  429MPD2     C 6447   1.475   3.996  17.499  0.0001  0.5424  0.3200
  429MPD2    C1 6448   1.500   3.925  17.383 -0.2060  0.0195  0.2401
  429MPD2    C2 6449   1.578   3.980  17.282  0.7284 -0.3790 -0.0768
  429MPD2    C3 6450   1.644   4.100  17.298 -0.5297  1.1069  0.1999
  429MPD2    C4 6451   1.618   4.173  17.410  0.0711  0.9757 -0.1455
  429MPD2    C5 6452   1.536   4.121  17.511  0.3998  0.5428 -0.1079
  429MPD2     H 6453   1.596   3.922  17.192 -1.1995 -0.2890 -0.5331
  429MPD2    H1 6454   1.655   4.269  17.445  0.5426  0.8949 -0.4163
  429MPD2    H2 6455   1.417   3.948  17.577  0.2163 -1.0592 -0.4993
  429MPD2    H3 6456   1.516   4.185  17.596  1.1299  0.4306  0.1392
  429MPD2     N 6457   1.736   4.146  17.197 -0.4546 -0.2127 -0.0486
  429MPD2    H5 6458   1.735   4.101  17.106 -0.5434  0.0244 -0.1659
  429MPD2    N1 6459   1.440   3.799  17.353  0.5838  0.0827 -0.1997
  429MPD2    H7 6460   1.449   3.764  17.258  0.0230 -2.6471  0.7514
  430TMC3    C1 6461   1.906   4.262  17.087 -0.3679  0.3760 -0.0959
  430TMC3    C2 6462   1.863   4.288  16.968 -0.4279  0.0407 -0.1685
  430TMC3    C3 6463   1.947   4.278  16.862 -0.5474  0.0198  0.0445
  430TMC3    C4 6464   2.037   4.240  17.112 -0.2208 -0.0092 -0.4800
  430TMC3    C5 6465   2.117   4.210  16.999 -0.6535 -0.4569 -0.4020
  430TMC3    C6 6466   2.075   4.238  16.868 -0.0857  0.0010  0.0483
  430TMC3     C 6467   1.820   4.249  17.210 -0.3810  0.1392 -0.4450
  430TMC3     O 6468   1.866   4.296  17.311 -0.2046  0.2084  0.5549
  430TMC3     H 6469   1.763   4.326  16.946  0.0549  0.8949 -0.8901
  430TMC3    H1 6470   2.071   4.240  17.215  0.7766  1.1697 -0.8054
  430TMC3    H2 6471   2.128   4.216  16.776 -1.9657 -0.2815 -0.9750
  430TMC3    C7 6472   2.166   4.081  17.008  0.0874 -0.2039  0.3328
  430TMC3    C8 6473   1.896   4.289  16.727  0.0911 -0.0995 -0.9016
  430TMC3    O1 6474   2.136   4.023  17.110 -0.7278  0.1589  0.2313
  430TMC3    O2 6475   1.965   4.329  16.641  0.6684  0.5754 -0.4498
  431MPD2     C 6476   2.520   3.711  11.854  0.1619  0.4325 -0.1815
  431MPD2    C1 6477   2.535   3.704  11.989  0.0499  0.0499 -0.2168
  431MPD2    C2 6478   2.621   3.606  12.042 -0.4712 -0.8109 -0.3672
  431MPD2    C3 6479   2.699   3.524  11.957 -0.4854 -0.0262 -0.0555
  431MPD2    C4 6480   2.681   3.536  11.814  1.0377 -0.2701  0.0656
  431MPD2    C5 6481   2.595   3.633  11.768  0.5133 -0.2128  0.7006
  431MPD2     H 6482   2.620   3.595  12.150 -0.1794  0.6028 -0.2259
  431MPD2    H1 6483   2.741   3.483  11.741  1.7389  1.2057 -0.4256
  431MPD2    H2 6484   2.454   3.776  11.798 -0.6884  0.3408  0.7276
  431MPD2    H3 6485   2.582   3.645  11.662 -2.3557 -1.4969  0.9035
  431MPD2     N 6486   2.809   3.440  12.001 -0.0384 -0.1248  0.7226
  431MPD2    H5 6487   2.877   3.423  11.927 -1.6591  1.8007 -1.1944
  431MPD2    N1 6488   2.457   3.778  12.088 -0.2549  0.5028  0.2733
  431MPD2    H7 6489   2.478   3.753  12.184 -2.4649  1.3290  0.9608
  432TMC3    C1 6490   2.966   3.363  12.161  0.4433 -0.0281  0.1227
  432TMC3    C2 6491   3.057   3.458  12.117  0.1562  0.3821 -0.5282
  432TMC3    C3 6492   3.165   3.492  12.194  0.1174 -0.2163 -0.3296
  432TMC3    C4 6493   2.988   3.295  12.281  0.0201  0.8232  0.1909
  432TMC3    C5 6494   3.105   3.323  12.344 -0.0596  0.2764 -0.3174
  432TMC3    C6 6495   3.193   3.418  12.304 -0.0375  0.0538 -1.1345
  432TMC3     C 6496   2.829   3.395  12.128  0.0397  0.3405 -0.3437
  432TMC3     O 6497   2.745   3.390  12.220 -0.0843 -0.1467 -0.2356
  432TMC3     H 6498   3.036   3.537  12.046 -2.1169 -0.1124 -0.4111
  432TMC3    H1 6499   2.911   3.232  12.324  0.1453  0.7229  0.2703
  432TMC3    H2 6500   3.255   3.462  12.382 -2.0838  0.8303  0.0379
  432TMC3    C7 6501   3.124   3.282  12.478 -0.7150  0.1049  0.1218
  432TMC3    C8 6502   3.187   3.637  12.221 -0.1818  0.4086  0.1982
  432TMC3    O1 6503   3.243   3.266  12.496 -0.4611  0.0688  0.0434
  432TMC3    O2 6504   3.107   3.719  12.184 -0.1946  0.6729  0.1037
  433MPD2     C 6505   1.022   2.721  10.363  0.2942  0.5993  0.2896
  433MPD2    C1 6506   1.108   2.631  10.420  0.0936  1.2380 -0.4447
  433MPD2    C2 6507   1.140   2.645  10.557  0.0406 -0.3475 -0.3571
  433MPD2    C3 6508   1.078   2.746  10.635  0.0464  0.4723 -0.4514
  433MPD2    C4 6509   0.992   2.833  10.570 -0.2058  0.5209  0.2053
  433MPD2    C5 6510   0.959   2.811  10.436  0.4437  0.1150  0.1077
  433MPD2     H 6511   1.202   2.570  10.605 -0.4943 -0.9752 -0.6451
  433MPD2    H1 6512   0.940   2.910  10.626  0.4123  0.0822  1.3689
  433MPD2    H2 6513   0.991   2.698  10.261  2.0037 -0.7340  0.0728
  433MPD2    H3 6514   0.891   2.880  10.387  1.5090  0.8634 -0.3224
  433MPD2     N 6515   1.111   2.753  10.769 -0.4114  0.1225 -0.0827
  433MPD2    H5 6516   1.193   2.698  10.794 -0.8186  0.8786  2.9004
  433MPD2    N1 6517   1.164   2.519  10.350 -0.1023 -0.5241  0.2768
  433MPD2    H7 6518   1.129   2.509  10.255  1.8917  1.6654 -0.6801
  434TMC3    C1 6519   1.231   2.286  10.320 -0.2462 -0.3680  0.7706
  434TMC3    C2 6520   1.317   2.178  10.348  0.4772  0.1691 -0.8620
  434TMC3    C3 6521   1.292   2.057  10.282 -0.2472 -0.2307 -0.3326
  434TMC3    C4 6522   1.126   2.277  10.230 -0.2630  0.2212 -0.3747
  434TMC3    C5 6523   1.110   2.157  10.166 -0.2833 -0.0136  0.1005
  434TMC3    C6 6524   1.188   2.051  10.197  0.0672  0.3088  0.2407
  434TMC3     C 6525   1.249   2.414  10.398  0.4717 -0.0090  0.3590
  434TMC3     O 6526   1.307   2.394  10.501  0.5833  0.6559  0.2249
  434TMC3     H 6527   1.406   2.200  10.406 -0.4671 -1.4014  1.1752
  434TMC3    H1 6528   1.062   2.362  10.209  0.8930  0.6009 -2.3426
  434TMC3    H2 6529   1.172   1.956  10.146 -1.2324  0.2531  0.7569
  434TMC3    C7 6530   0.993   2.149  10.086  0.0856 -0.0536  0.1332
  434TMC3    C8 6531   1.353   1.937  10.319 -0.0061  0.3069 -0.2104
  434TMC3    O1 6532   0.944   2.250  10.032 -0.2603 -0.3341  0.4270
  434TMC3    O2 6533   1.345   1.839  10.241  0.1099 -0.2477  0.0232
  435MPD2     C 6534   3.223   2.549  15.839  0.1816 -0.2703  0.2512
  435MPD2    C1 6535   3.198   2.466  15.945  0.6884 -0.7658 -0.8864
  435MPD2    C2 6536   3.291   2.438  16.034  0.4890 -0.0338 -0.1883
  435MPD2    C3 6537   3.422   2.483  16.022 -0.0769 -0.5321 -0.0668
  435MPD2    C4 6538   3.453   2.575  15.923  0.0570  0.2809  0.3079
  435MPD2    C5 6539   3.352   2.602  15.832  0.8657  0.0249  0.4229
  435MPD2     H 6540   3.264   2.361  16.105 -0.9078  1.3228  0.7648
  435MPD2    H1 6541   3.554   2.611  15.909  0.1700  0.6671  2.1517
  435MPD2    H2 6542   3.151   2.563  15.759 -1.2935  0.8827  1.7856
  435MPD2    H3 6543   3.370   2.667  15.747  2.5678 -2.3570 -1.0556
  435MPD2     N 6544   3.529   2.443  16.114  0.2341  0.3988 -0.5448
  435MPD2    H5 6545   3.622   2.470  16.085  0.7318 -1.7212 -0.8952
  435MPD2    N1 6546   3.078   2.399  15.971  0.1012 -0.3654 -0.5363
  435MPD2    H7 6547   3.075   2.337  16.051  1.2322  1.9080  1.2691
  436TMC3    C1 6548   2.760   2.226  16.141 -0.5240  0.4456 -0.0330
  436TMC3    C2 6549   2.851   2.312  16.086 -0.3566 -0.1005  0.3110
  436TMC3    C3 6550   2.857   2.320  15.954  0.1430  0.2640  0.0258
  436TMC3    C4 6551   2.681   2.143  16.067  0.4955  0.0623  0.7475
  436TMC3    C5 6552   2.681   2.163  15.926  0.3872 -0.2635 -0.2299
  436TMC3    C6 6553   2.777   2.248  15.866 -0.2972 -0.5700  0.3217
  436TMC3     C 6554   2.750   2.223  16.283  0.4023  0.6065 -0.3091
  436TMC3     O 6555   2.714   2.116  16.334  0.7339  0.1627  0.3224
  436TMC3     H 6556   2.904   2.381  16.151  0.9116 -0.1714 -0.6545
  436TMC3    H1 6557   2.597   2.089  16.110  0.7303 -1.2368 -0.4376
  436TMC3    H2 6558   2.772   2.271  15.761 -3.5187  0.5243  0.7220
  436TMC3    C7 6559   2.569   2.105  15.845  0.5109 -0.5930 -0.5895
  436TMC3    C8 6560   2.964   2.401  15.893 -0.6731  0.1917 -0.0622
  436TMC3    O1 6561   2.471   2.064  15.908  0.3983  0.1473  0.4337
  436TMC3    O2 6562   2.952   2.454  15.786  0.4674 -0.2160 -0.4566
  437TMC3    C1 6563   1.917   0.255  12.231 -0.0213 -0.0136  0.7731
  437TMC3    C2 6564   1.837   0.328  12.151  0.2014 -0.2389 -0.6256
  437TMC3    C3 6565   1.890   0.364  12.032  0.2263 -0.2395 -0.0475
  437TMC3    C4 6566   2.049   0.233  12.211 -0.3943 -0.3699 -0.0833
  437TMC3    C5 6567   2.101   0.267  12.084 -0.2023 -1.2363 -0.3291
  437TMC3    C6 6568   2.016   0.334  11.993  0.7503 -0.1632 -0.2054
  437TMC3     C 6569   1.863   0.196  12.350  0.0722 -0.6260 -0.1192
  437TMC3     O 6570   1.747   0.227  12.382 -0.1646 -0.2489 -0.0132
  437TMC3     H 6571   1.731   0.341  12.170 -0.0114 -0.7836 -1.4394
  437TMC3    H1 6572   2.117   0.217  12.293 -2.3113 -1.5584  1.2752
  437TMC3    H2 6573   2.062   0.378  11.905  2.0691 -0.3113  0.4044
  437TMC3    C7 6574   2.240   0.303  12.080  0.6246  0.8307  0.4666
  437TMC3    C8 6575   1.794   0.428  11.936  0.1520  0.5635  0.1551
  437TMC3    O1 6576   2.265   0.400  12.008 -0.4776  0.0660  0.6948
  437TMC3    O2 6577   1.689   0.479  11.982  0.4253 -0.3022  0.0346
  438MPD2     C 6578   3.862   0.066  16.995  0.6906 -0.1238  0.5587
  438MPD2    C1 6579   3.921   4.689  17.043  0.1662 -0.1960 -0.6777
  438MPD2    C2 6580   3.857   4.626  17.150 -0.5021  1.2700 -0.1291
  438MPD2    C3 6581   3.746   4.671  17.221 -0.6021 -0.5254 -0.4596
  438MPD2    C4 6582   3.700   0.061  17.177  0.5643  0.0398 -0.2546
  438MPD2    C5 6583   3.749   0.119  17.060 -0.5431 -0.5346  0.0417
  438MPD2     H 6584   3.905   4.535  17.185 -0.4105  1.0787 -0.7418
  438MPD2    H1 6585   3.620   0.111  17.228 -1.5072 -1.0255 -2.4426
  438MPD2    H2 6586   3.905   0.121  16.911 -2.0930 -1.5198 -1.7652
  438MPD2    H3 6587   3.707   0.210  17.019  1.1941 -0.2889 -1.2118
  438MPD2     N 6588   3.696   4.596  17.328 -0.0446  0.1616  0.2218
  438MPD2    H5 6589   3.744   4.510  17.352  1.2102  0.1031 -2.5780
  438MPD2    N1 6590   4.044   4.643  16.992  0.0117  0.8289 -0.3794
  438MPD2    H7 6591   4.087   4.571  17.048  0.6946  1.0161 -0.6698
  439TMC3    C1 6592   4.235   4.614  16.859  0.1483  0.6304  0.5829
  439TMC3    C2 6593   4.270   4.570  16.735 -0.7354  0.2298 -0.8667
  439TMC3    C3 6594   4.385   4.487  16.720  0.0582  0.0826  0.0480
  439TMC3    C4 6595   4.300   4.573  16.972 -0.7237 -0.2869 -0.2138
  439TMC3    C5 6596   4.416   4.499  16.943  0.3452 -0.3630  0.1238
  439TMC3    C6 6597   4.460   4.450  16.823  0.4912 -0.4644  0.4340
  439TMC3     C 6598   4.109   4.683  16.878 -0.3243 -0.5576  0.2560
  439TMC3     O 6599   4.065   0.009  16.780  0.4924  0.4176  0.3665
  439TMC3     H 6600   4.212   4.611  16.653 -0.0723  1.0529 -0.9295
  439TMC3    H1 6601   4.287   4.624  17.066 -0.3810 -0.6007  0.0024
  439TMC3    H2 6602   4.516   4.357  16.822  0.8233 -0.2541 -1.2019
  439TMC3    C7 6603   4.496   4.457  17.060  0.2959 -0.1422 -0.2294
  439TMC3    C8 6604   4.445   4.467  16.586  0.2731 -0.5160 -0.7045
  439TMC3    O1 6605   4.610   4.412  17.040  0.8469  0.0956 -0.2605
  439TMC3    O2 6606   4.557   4.421  16.584  0.5978  0.6002  0.1468
  440MPD2     C 6607   2.608   0.700  15.208  0.5679  0.1833 -0.6091
  440MPD2    C1 6608   2.662   0.823  15.221 -0.3237 -0.3222  0.5616
  440MPD2    C2 6609   2.793   0.843  15.179  0.0100 -0.1602 -0.7453
  440MPD2    C3 6610   2.872   0.730  15.148  0.2373  0.1455  0.2853
  440MPD2    C4 6611   2.812   0.607  15.143  0.4889 -0.3089 -0.4251
  440MPD2    C5 6612   2.683   0.590  15.171  0.1091  0.7880  0.0852
  440MPD2     H 6613   2.839   0.940  15.193 -1.9984  0.4919  1.4336
  440MPD2    H1 6614   2.872   0.519  15.124  0.1317 -0.6494  0.0077
  440MPD2    H2 6615   2.503   0.687  15.229  0.3583  0.2529 -1.5853
  440MPD2    H3 6616   2.634   0.493  15.169  1.3880  0.1557 -0.5584
  440MPD2     N 6617   3.015   0.741  15.135  0.4849 -0.1246 -0.2652
  440MPD2    H5 6618   3.064   0.652  15.141 -0.7784 -0.7699  0.7229
  440MPD2    N1 6619   2.589   0.938  15.264  0.7884 -0.0011 -0.1882
  440MPD2    H7 6620   2.646   1.022  15.270 -0.3813  0.7464  0.5219
  441TMC3    C1 6621   3.224   0.860  15.160  0.0264 -0.2900  0.6630
  441TMC3    C2 6622   3.302   0.963  15.127  0.3129 -0.2317  0.0127
  441TMC3    C3 6623   3.426   0.961  15.183 -0.2302  0.3907  0.5850
  441TMC3    C4 6624   3.266   0.757  15.244 -0.3748 -0.2917 -0.0049
  441TMC3    C5 6625   3.391   0.766  15.291 -0.1657 -0.6231 -0.2370
  441TMC3    C6 6626   3.473   0.868  15.263  0.2772 -0.5904  0.3481
  441TMC3     C 6627   3.081   0.863  15.128  0.4008 -0.7313  0.2530
  441TMC3     O 6628   3.037   0.972  15.092  0.2499  0.9393 -0.5634
  441TMC3     H 6629   3.262   1.045  15.069 -0.3746 -0.1672  0.5785
  441TMC3    H1 6630   3.196   0.687  15.288 -0.1296 -1.0044 -0.7461
  441TMC3    H2 6631   3.576   0.872  15.298  0.7566 -1.4966 -0.9549
  441TMC3    C7 6632   3.434   0.651  15.375  0.9905 -0.2483 -0.4196
  441TMC3    C8 6633   3.500   1.085  15.193 -0.3236 -0.1582  0.2003
  441TMC3    O1 6634   3.367   0.550  15.369  0.4657 -0.6237  0.1321
  441TMC3    O2 6635   3.619   1.080  15.213 -0.1962  0.2597 -0.0091
  442MPD2     C 6636   1.119   0.951  16.446  0.1253 -0.3589  0.3968
  442MPD2    C1 6637   1.061   0.823  16.472  0.2934  0.4480  0.3020
  442MPD2    C2 6638   1.049   0.731  16.374 -0.4412 -0.5132 -0.2954
  442MPD2    C3 6639   1.085   0.765  16.245 -0.6944  0.3973 -0.5442
  442MPD2    C4 6640   1.121   0.896  16.212 -0.0730  0.1502  0.1207
  442MPD2    C5 6641   1.143   0.988  16.313 -0.5565 -0.7733  0.1024
  442MPD2     H 6642   1.041   0.624  16.395 -0.2721 -0.4262  0.2119
  442MPD2    H1 6643   1.145   0.913  16.108  2.0342 -0.9228  0.4293
  442MPD2    H2 6644   1.137   1.029  16.519 -0.5041  1.3717 -1.3056
  442MPD2    H3 6645   1.170   1.087  16.278  0.8929 -1.2212 -0.0759
  442MPD2     N 6646   1.078   0.673  16.133  0.0908  0.1608 -0.4813
  442MPD2    H5 6647   1.120   0.704  16.046  0.3804 -1.8999 -1.0731
  442MPD2    N1 6648   1.013   0.785  16.608  0.7273 -0.0488 -0.0188
  442MPD2    H7 6649   0.976   0.691  16.622 -0.3729  0.3777 -0.1327
  443TMC3    C1 6650   0.947   0.800  16.832 -0.6203 -0.6232  0.7979
  443TMC3    C2 6651   0.896   0.876  16.931  0.3375 -0.1764  0.2377
  443TMC3    C3 6652   0.796   0.818  17.011 -0.1178 -0.1542 -0.3043
  443TMC3    C4 6653   0.922   0.662  16.827 -0.3534  0.1287 -0.7299
  443TMC3    C5 6654   0.837   0.608  16.912 -0.1415 -0.3578  0.5478
  443TMC3    C6 6655   0.767   0.685  16.998 -0.2526 -0.5706 -0.3141
  443TMC3     C 6656   1.008   0.869  16.719  0.2148 -0.4067  0.5328
  443TMC3     O 6657   1.036   0.988  16.733  0.5559  0.1778  0.2353
  443TMC3     H 6658   0.918   0.981  16.946  3.5830 -0.5600 -1.8884
  443TMC3    H1 6659   0.995   0.599  16.777 -0.3801 -0.7215  0.3199
  443TMC3    H2 6660   0.692   0.643  17.064 -0.2762  0.3527  0.2382
  443TMC3    C7 6661   0.828   0.458  16.918  0.0540  0.7159  0.8852
  443TMC3    C8 6662   0.700   0.888  17.092  0.0075  0.6171 -0.2751
  443TMC3    O1 6663   0.884   0.405  16.823 -0.0788  0.1951  0.0622
  443TMC3    O2 6664   0.662   0.832  17.195 -0.3783 -0.5056  0.2276
  444MPD2     C 6665   1.281   0.750  16.919 -0.0591  0.2650 -0.2770
  444MPD2    C1 6666   1.273   0.632  16.991  0.1227  0.3351 -0.3164
  444MPD2    C2 6667   1.332   0.517  16.943  0.1690 -0.5203 -0.0374
  444MPD2    C3 6668   1.377   0.513  16.813  0.7554 -0.0063 -0.5794
  444MPD2    C4 6669   1.372   0.627  16.737 -0.2541  0.4599  0.0404
  444MPD2    C5 6670   1.323   0.746  16.790 -0.1148  0.6399  0.4857
  444MPD2     H 6671   1.327   0.422  16.995 -1.3767  0.1555  1.0350
  444MPD2    H1 6672   1.407   0.611  16.636 -1.6508  1.1868 -0.5537
  444MPD2    H2 6673   1.247   0.844  16.960  0.0885  0.9646 -1.7525
  444MPD2    H3 6674   1.316   0.833  16.725  0.1728  1.6511  1.8089
  444MPD2     N 6675   1.423   0.382  16.766 -0.6056  0.2918  0.3092
  444MPD2    H5 6676   1.404   0.301  16.825  0.2451  0.2512  0.5317
  444MPD2    N1 6677   1.198   0.620  17.113  0.1094  0.4645 -0.1377
  444MPD2    H7 6678   1.211   0.532  17.162 -1.5267 -0.2718 -1.0372
  445TMC3    C1 6679   1.447   0.209  16.604 -0.1058  0.5318 -0.1743
  445TMC3    C2 6680   1.390   0.122  16.695  0.2525 -0.6507 -0.3519
  445TMC3    C3 6681   1.371   4.724  16.655  0.0343 -0.2078 -0.4834
  445TMC3    C4 6682   1.483   0.166  16.476  0.7022  0.1202 -0.5007
  445TMC3    C5 6683   1.474   0.038  16.454  0.1238  0.2816 -0.0037
  445TMC3    C6 6684   1.424   4.674  16.537  0.3010 -0.5126 -0.5176
  445TMC3     C 6685   1.447   0.348  16.633 -0.3573 -0.5625 -0.2317
  445TMC3     O 6686   1.454   0.416  16.530 -0.3409 -0.4341 -0.5742
  445TMC3     H 6687   1.351   0.156  16.790  1.4146  2.3733 -0.9694
  445TMC3    H1 6688   1.527   0.228  16.399 -1.0021 -0.4749 -1.9553
  445TMC3    H2 6689   1.422   4.572  16.501 -1.2233 -0.4619 -0.5807
  445TMC3    C7 6690   1.519   4.714  16.329 -0.3651  0.3570 -0.1573
  445TMC3    C8 6691   1.288   4.638  16.743  0.1292 -0.0018  0.1598
  445TMC3    O1 6692   1.450   4.631  16.274 -0.1645  0.1991  0.4798
  445TMC3    O2 6693   1.250   4.685  16.850 -0.2251  0.3903 -0.1738
  446MPD2     C 6694   0.867   1.972  10.427 -0.6477  0.1743  0.1402
  446MPD2    C1 6695   0.811   2.074  10.495  0.1687  0.2642 -0.1637
  446MPD2    C2 6696   0.886   2.138  10.603 -0.1465 -0.0784 -0.5732
  446MPD2    C3 6697   1.010   2.089  10.634 -0.5421  0.3019  0.0189
  446MPD2    C4 6698   1.055   1.975  10.570  0.0022 -0.6021  0.0669
  446MPD2    C5 6699   0.989   1.923  10.461 -0.5502  0.1425 -0.7432
  446MPD2     H 6700   0.847   2.219  10.663  1.8247  0.6510 -0.3103
  446MPD2    H1 6701   1.151   1.929  10.592  0.7609  1.0610  0.2490
  446MPD2    H2 6702   0.825   1.930  10.337 -0.8010  0.7585 -0.0560
  446MPD2    H3 6703   1.032   1.840  10.406  1.1045  1.9396 -2.1405
  446MPD2     N 6704   1.095   2.160  10.722 -0.0923  0.2303 -0.1599
  446MPD2    H5 6705   1.066   2.249  10.760  1.9173  0.6668  0.3875
  446MPD2    N1 6706   0.675   2.128  10.470  0.3596  0.4777 -0.0549
  446MPD2    H7 6707   0.644   2.208  10.524  3.7138  1.4844  0.3706
  447TMC3    C1 6708   1.304   2.190  10.848  0.2235 -0.0287  0.8446
  447TMC3    C2 6709   1.298   2.323  10.837  0.2652 -0.3212 -0.1417
  447TMC3    C3 6710   1.413   2.392  10.868  0.1426  0.3790  0.2345
  447TMC3    C4 6711   1.413   2.129  10.906 -0.0117 -0.6105  0.8737
  447TMC3    C5 6712   1.519   2.203  10.939 -0.2022 -0.4948  0.7651
  447TMC3    C6 6713   1.522   2.339  10.922  0.0478  0.0047  0.2127
  447TMC3     C 6714   1.204   2.102  10.784 -0.7518 -0.5513 -0.0965
  447TMC3     O 6715   1.226   1.982  10.798 -0.2401 -0.1192 -0.6507
  447TMC3     H 6716   1.226   2.371  10.772  0.8986 -1.0280 -1.3692
  447TMC3    H1 6717   1.416   2.021  10.905  1.7181 -0.5526  0.8504
  447TMC3    H2 6718   1.603   2.405  10.951  0.4213 -0.6722  0.7099
  447TMC3    C7 6719   1.645   2.128  10.956  0.5793 -0.0782  0.1675
  447TMC3    C8 6720   1.429   2.518  10.800  0.0981 -0.3066  0.4290
  447TMC3    O1 6721   1.649   2.009  10.930  0.2430  0.4198  0.1103
  447TMC3    O2 6722   1.333   2.588  10.781  0.5133 -0.6716  0.2836
  448TMC3    C1 6723   4.353   1.805  17.252 -0.8231 -0.3470  0.4338
  448TMC3    C2 6724   4.344   1.670  17.212 -0.0042  0.4316 -1.1467
  448TMC3    C3 6725   4.320   1.578  17.313 -0.2598  0.0120  0.0649
  448TMC3    C4 6726   4.350   1.845  17.378 -0.1691  0.4746  0.5438
  448TMC3    C5 6727   4.316   1.756  17.474  0.6979  0.7057  1.1345
  448TMC3    C6 6728   4.312   1.621  17.444 -0.0896 -0.0636  0.0421
  448TMC3     C 6729   4.387   1.905  17.144 -0.5478 -0.4617  0.5167
  448TMC3     O 6730   4.413   1.862  17.032  0.1820 -0.1519  0.8491
  448TMC3     H 6731   4.350   1.638  17.109  1.4220  0.5104 -1.0868
  448TMC3    H1 6732   4.369   1.949  17.403  0.9243  0.7966 -1.6483
  448TMC3    H2 6733   4.311   1.540  17.516 -0.3238 -0.2847 -0.2113
  448TMC3    C7 6734   4.324   1.799  17.607  0.8860  0.3595  0.4839
  448TMC3    C8 6735   4.275   1.449  17.269  0.7692 -0.3074 -0.9251
  448TMC3    O1 6736   4.389   1.905  17.620 -0.3704  0.2047  0.3621
  448TMC3    O2 6737   4.250   1.449  17.146  0.2882  0.5856  0.0795
  449MPD2     C 6738   1.067   0.057  14.184  1.7776  0.5719  0.3708
  449MPD2    C1 6739   0.963   0.075  14.092 -0.2854 -0.1423 -0.2985
  449MPD2    C2 6740   0.835   0.096  14.135  0.0853  0.1290  0.7925
  449MPD2    C3 6741   0.801   0.096  14.270  0.2309  0.7116  0.6873
  449MPD2    C4 6742   0.903   0.063  14.363  0.3115  0.3159  0.1977
  449MPD2    C5 6743   1.032   0.043  14.314  0.0616 -0.3568  0.6172
  449MPD2     H 6744   0.755   0.110  14.063  0.4241 -0.2727  0.3435
  449MPD2    H1 6745   0.887   0.061  14.470 -1.2553  0.7488 -0.0361
  449MPD2    H2 6746   1.169   0.057  14.147  2.4247 -0.8114  2.1781
  449MPD2    H3 6747   1.116   0.031  14.381 -0.4323 -0.3914  1.2361
  449MPD2     N 6748   0.663   0.109  14.304 -0.2861  0.3473 -0.1347
  449MPD2    H5 6749   0.600   0.121  14.226  1.5281  0.4613 -1.5707
  449MPD2    N1 6750   0.979   0.079  13.954 -0.0312  0.1986 -0.3967
  449MPD2    H7 6751   0.894   0.093  13.902 -1.0297  0.8753  1.3990
  450TMC3    C1 6752   1.061   0.109  13.758  0.4803 -0.2744  0.2445
  450TMC3    C2 6753   1.149   0.212  13.732 -0.0442  0.7746  0.4922
  450TMC3    C3 6754   1.084   0.321  13.677 -0.3821  0.8652 -0.2484
  450TMC3    C4 6755   0.930   0.103  13.727  0.1363  0.0341  0.0666
  450TMC3    C5 6756   0.873   0.213  13.670  0.1778  0.2839 -0.2352
  450TMC3    C6 6757   0.949   0.321  13.643 -0.4642 -0.4770 -0.1931
  450TMC3     C 6758   1.088   0.050  13.882  0.3201  0.4168 -0.0588
  450TMC3     O 6759   1.204   0.040  13.915  0.2364  0.4810 -0.1797
  450TMC3     H 6760   1.256   0.212  13.748  0.0114  0.9972  0.1242
  450TMC3    H1 6761   0.877   0.008  13.730 -0.3982  0.3389  0.1465
  450TMC3    H2 6762   0.918   0.416  13.601 -3.1081 -1.2910 -0.1155
  450TMC3    C7 6763   0.742   0.219  13.709 -0.3310  0.6190  0.4178
  450TMC3    C8 6764   1.160   0.406  13.584  0.5552  0.0199  0.2498
  450TMC3    O1 6765   0.714   0.136  13.798  0.1562 -0.0843 -0.2434
  450TMC3    O2 6766   1.124   0.524  13.580 -0.3116  0.2181 -0.4834
  451MPD2     C 6767   2.054   2.743   1.234  0.3668  0.6302  0.3342
  451MPD2    C1 6768   2.085   2.847   1.150 -0.2202  0.1289 -0.4938
  451MPD2    C2 6769   2.171   2.822   1.048 -0.1809  0.3772 -0.5940
  451MPD2    C3 6770   2.218   2.694   1.012  0.0562  0.1284  0.2406
  451MPD2    C4 6771   2.206   2.597   1.110  0.0159 -0.5070 -0.2913
  451MPD2    C5 6772   2.132   2.628   1.225  0.4092  0.1081 -0.1940
  451MPD2     H 6773   2.179   2.901   0.974  2.5550  1.4152  0.7923
  451MPD2    H1 6774   2.244   2.497   1.094 -1.1836 -0.7183 -1.7847
  451MPD2    H2 6775   1.993   2.742   1.323  0.4225  1.1945  0.3796
  451MPD2    H3 6776   2.110   2.549   1.297 -2.1476  0.4537 -0.5991
  451MPD2     N 6777   2.288   2.653   0.894  0.0916  0.2286  0.0499
  451MPD2    H5 6778   2.305   2.554   0.885 -2.9945 -0.4319  1.3119
  451MPD2    N1 6779   2.012   2.967   1.163 -0.0799 -0.7085 -0.2829
  451MPD2    H7 6780   1.940   2.978   1.233 -0.4358 -3.4967 -0.2370
  452TMC3    C1 6781   2.267   2.858   0.759 -0.6199 -0.9689  0.4578
  452TMC3    C2 6782   2.133   2.885   0.740  0.1870 -0.6351  0.2099
  452TMC3    C3 6783   2.101   3.000   0.673 -0.0725  0.6531  0.2282
  452TMC3    C4 6784   2.364   2.928   0.686 -0.3027  0.6293 -0.5010
  452TMC3    C5 6785   2.309   3.032   0.612 -0.1268 -0.1437  0.3674
  452TMC3    C6 6786   2.187   3.081   0.606 -0.7692  0.1178  0.0963
  452TMC3     C 6787   2.315   2.721   0.778 -0.2905 -0.1221  0.2089
  452TMC3     O 6788   2.356   2.674   0.671 -0.1579  0.6896  0.5058
  452TMC3     H 6789   2.057   2.825   0.787  2.4814 -2.0716  2.0830
  452TMC3    H1 6790   2.466   2.893   0.695 -1.2193 -1.5756  1.3569
  452TMC3    H2 6791   2.162   3.153   0.529 -0.0713 -0.1620 -0.3927
  452TMC3    C7 6792   2.410   3.118   0.542 -0.0732  0.6560  0.0797
  452TMC3    C8 6793   1.965   3.050   0.696  0.3093 -0.1431  0.1184
  452TMC3    O1 6794   2.479   3.060   0.464 -0.9818 -0.5244 -0.1736
  452TMC3    O2 6795   1.890   2.976   0.756 -0.3442 -0.4413 -0.2632
  453TMC3    C1 6796   3.128   0.762  12.000  0.7913 -0.2139 -0.2998
  453TMC3    C2 6797   3.088   0.630  12.031  0.2246  0.3792 -0.0885
  453TMC3    C3 6798   3.016   0.581  11.924 -0.4741 -0.1682 -0.5760
  453TMC3    C4 6799   3.109   0.826  11.884  0.7445  0.6518  0.0357
  453TMC3    C5 6800   3.049   0.765  11.783 -0.6002  0.6652  0.9083
  453TMC3    C6 6801   3.001   0.638  11.803 -0.6135 -0.1848 -0.1429
  453TMC3     C 6802   3.223   0.828  12.090 -0.9411 -0.1223  0.2500
  453TMC3     O 6803   3.258   0.942  12.061 -0.2638 -0.2323  0.3713
  453TMC3     H 6804   3.092   0.579  12.127  2.0584  0.1881 -0.2861
  453TMC3    H1 6805   3.141   0.928  11.868 -1.8098  1.3435 -0.5466
  453TMC3    H2 6806   2.949   0.582  11.726 -1.8398  2.0207 -0.9085
  453TMC3    C7 6807   3.081   0.808  11.647  0.1536  0.2246 -0.5343
  453TMC3    C8 6808   2.954   0.451  11.930 -0.1282  0.3571 -0.0760
  453TMC3    O1 6809   3.160   0.903  11.637 -0.2490  0.3966  0.3194
  453TMC3    O2 6810   2.873   0.427  11.846  0.1411 -0.2387 -0.1067
  454MPD2     C 6811   2.249   0.232  15.669 -0.5090 -0.5410 -0.0334
  454MPD2    C1 6812   2.112   0.201  15.662  0.6924 -0.7176 -1.0381
  454MPD2    C2 6813   2.022   0.279  15.723  0.1010 -0.4958  0.1041
  454MPD2    C3 6814   2.061   0.383  15.798 -0.3464 -0.3495  0.0455
  454MPD2    C4 6815   2.197   0.415  15.808 -0.3196 -0.2177 -0.0073
  454MPD2    C5 6816   2.294   0.333  15.747 -0.3523  0.6146  0.0093
  454MPD2     H 6817   1.917   0.258  15.703 -0.5269  1.0326  1.7758
  454MPD2    H1 6818   2.222   0.492  15.880 -1.7701 -2.0073  2.4028
  454MPD2    H2 6819   2.325   0.163  15.636  0.7049 -0.2617  2.2082
  454MPD2    H3 6820   2.400   0.350  15.756 -0.5145  0.7038  1.7874
  454MPD2     N 6821   1.976   0.469  15.872 -0.1101 -0.6638 -0.0604
  454MPD2    H5 6822   2.015   0.550  15.920  0.2748 -1.6635  1.2973
  454MPD2    N1 6823   2.066   0.086  15.588  0.2032 -0.2058  0.3790
  454MPD2    H7 6824   1.964   0.087  15.588  0.2259  1.4327 -0.9000
  455TMC3    C1 6825   1.757   0.536  15.959 -0.3439  0.7696  0.4365
  455TMC3    C2 6826   1.820   0.580  16.079  0.5258 -0.0594 -0.0144
  455TMC3    C3 6827   1.741   0.581  16.195 -0.4801 -0.6792  0.7122
  455TMC3    C4 6828   1.637   0.484  15.961 -0.2718 -0.2273  0.9023
  455TMC3    C5 6829   1.569   0.465  16.077  0.8623  0.2237  0.2587
  455TMC3    C6 6830   1.618   0.525  16.196 -0.5138 -0.0052  0.3283
  455TMC3     C 6831   1.843   0.439  15.893 -0.2204  0.9104 -0.0707
  455TMC3     O 6832   1.783   0.337  15.867  0.4512  0.0450 -0.0940
  455TMC3     H 6833   1.923   0.615  16.072  0.7893 -0.6036  1.1232
  455TMC3    H1 6834   1.603   0.433  15.872 -0.7370 -0.0685  0.9850
  455TMC3    H2 6835   1.560   0.510  16.286 -2.4490  0.0186 -0.9197
  455TMC3    C7 6836   1.481   0.351  16.091 -0.1310 -0.5688  0.0800
  455TMC3    C8 6837   1.783   0.653  16.308  0.7196  0.0597 -0.0002
  455TMC3    O1 6838   1.402   0.348  16.185  0.0059 -0.7698 -0.0941
  455TMC3    O2 6839   1.704   0.656  16.399 -0.0586 -0.4384 -0.1686
  456MPD2     C 6840   4.275   0.917  15.970 -0.8624  0.3340 -0.1638
  456MPD2    C1 6841   4.342   0.803  16.012  0.0395  0.0847  0.2339
  456MPD2    C2 6842   4.337   0.766  16.147  0.1183 -0.0619  0.8867
  456MPD2    C3 6843   4.277   0.851  16.244 -0.1231  0.3932  0.2787
  456MPD2    C4 6844   4.215   0.968  16.198  0.6714 -0.2941 -0.6266
  456MPD2    C5 6845   4.219   0.999  16.063  0.2532 -0.0345 -0.8921
  456MPD2     H 6846   4.392   0.678  16.179 -0.3511 -1.4397 -2.0663
  456MPD2    H1 6847   4.156   1.035  16.258  0.2871  1.7627 -3.2935
  456MPD2    H2 6848   4.279   0.957  15.870  0.1812  0.8166  0.0689
  456MPD2    H3 6849   4.165   1.085  16.026  0.1972 -0.5236 -1.9516
  456MPD2     N 6850   4.286   0.820  16.382 -0.3144 -0.8959 -0.0804
  456MPD2    H5 6851   4.337   0.734  16.402  1.3673 -0.1216 -1.0113
  456MPD2    N1 6852   4.400   0.733  15.908  0.2374 -0.1153 -0.1443
  456MPD2    H7 6853   4.402   0.781  15.818  0.7100 -0.4486 -0.3125
  457TMC3    C1 6854   4.244   0.846  16.626  0.2503  0.0551 -0.0175
  457TMC3    C2 6855   4.235   0.939  16.721 -0.3343  0.2043 -0.1066
  457TMC3    C3 6856   4.221   0.891  16.847  0.3401  0.4250  0.2164
  457TMC3    C4 6857   4.249   0.716  16.650  0.1342  0.4532 -0.8118
  457TMC3    C5 6858   4.247   0.670  16.776  0.1158  0.1733 -0.3984
  457TMC3    C6 6859   4.228   0.759  16.876 -0.2081 -0.5966  0.7861
  457TMC3     C 6860   4.230   0.895  16.484  0.7175 -0.3814 -0.0707
  457TMC3     O 6861   4.172   1.000  16.481  0.0807  0.4383 -0.2509
  457TMC3     H 6862   4.231   1.045  16.697  1.9322  0.2684 -0.2112
  457TMC3    H1 6863   4.254   0.641  16.572 -1.8205  1.7346 -2.1831
  457TMC3    H2 6864   4.205   0.722  16.975 -0.3351 -3.8048 -0.4282
  457TMC3    C7 6865   4.267   0.535  16.809 -0.1261  0.0201  0.0608
  457TMC3    C8 6866   4.235   1.000  16.947  0.3499 -0.0558 -0.6749
  457TMC3    O1 6867   4.244   0.508  16.925 -0.5213 -0.1565  0.1620
  457TMC3    O2 6868   4.235   1.114  16.915  0.5599 -0.7112 -0.0576
  458MPD2     C 6869   2.727   0.282  12.269  0.1993 -0.0205 -0.1344
  458MPD2    C1 6870   2.644   0.177  12.323 -0.4251  0.6263 -0.8001
  458MPD2    C2 6871   2.515   0.161  12.274 -0.5795 -0.4114  0.5035
  458MPD2    C3 6872   2.455   0.246  12.186  0.0380 -1.1271 -0.6371
  458MPD2    C4 6873   2.532   0.353  12.136  0.2990  0.1414 -0.3974
  458MPD2    C5 6874   2.666   0.366  12.174  0.5028  0.0770 -0.1726
  458MPD2     H 6875   2.453   0.099  12.337 -0.0794  0.9013  2.2994
  458MPD2    H1 6876   2.484   0.423  12.069  1.8235  1.6679  0.1107
  458MPD2    H2 6877   2.828   0.292  12.306  0.0722 -2.1400  0.7941
  458MPD2    H3 6878   2.729   0.444  12.132 -0.2060  0.9311  0.3617
  458MPD2     N 6879   2.319   0.220  12.154 -0.3750  0.1170 -0.1893
  458MPD2    H5 6880   2.283   0.130  12.184  1.4933 -0.9331 -1.0847
  458MPD2    N1 6881   2.699   0.104  12.425 -0.0727 -0.1455 -0.5536
  458MPD2    H7 6882   2.798   0.123  12.439 -0.1989  0.9464 -1.1808
  459TMC3    C1 6883   2.714   4.701  12.613  0.0393  0.3587 -0.1185
  459TMC3    C2 6884   2.792   0.056  12.680  0.2158  0.4895 -0.2223
  459TMC3    C3 6885   2.852   0.008  12.796  0.4794 -0.5639 -0.4650
  459TMC3    C4 6886   2.685   4.572  12.665  0.1785  0.4633 -0.2261
  459TMC3    C5 6887   2.739   4.539  12.788  0.1160 -0.1484  0.2263
  459TMC3    C6 6888   2.839   4.611  12.848 -0.9355  0.7457 -0.2647
  459TMC3     C 6889   2.638   0.003  12.499 -0.6177 -0.0423 -0.7706
  459TMC3     O 6890   2.529   4.683  12.490  0.1774 -0.2818 -0.2284
  459TMC3     H 6891   2.790   0.162  12.657  0.8824  0.9166  1.7277
  459TMC3    H1 6892   2.620   4.509  12.605 -0.7817 -0.6973  2.0278
  459TMC3    H2 6893   2.896   4.588  12.938 -0.1794  1.6468 -0.5215
  459TMC3    C7 6894   2.703   4.424  12.857 -0.2657 -0.6543  0.1553
  459TMC3    C8 6895   2.966   0.067  12.841 -0.0054 -0.0078  0.0646
  459TMC3    O1 6896   2.775   4.378  12.941 -0.3958  0.1151 -0.6788
  459TMC3    O2 6897   3.049   4.734  12.894  0.0375  0.4589  0.2706
  460MPD2     C 6898   1.726   2.672  10.637 -0.1584 -0.4219  0.2230
  460MPD2    C1 6899   1.595   2.635  10.658  0.0384 -0.0214  0.7644
  460MPD2    C2 6900   1.504   2.681  10.565  0.0211 -0.3545  0.5183
  460MPD2    C3 6901   1.540   2.767  10.469 -0.6060  0.2968 -0.7171
  460MPD2    C4 6902   1.663   2.826  10.468  0.0391  0.0893 -0.8377
  460MPD2    C5 6903   1.758   2.776  10.551  0.9669  0.0220 -0.2356
  460MPD2     H 6904   1.403   2.642  10.560  0.4091 -1.5878  2.5335
  460MPD2    H1 6905   1.688   2.905  10.397 -1.1441  0.6574 -0.6362
  460MPD2    H2 6906   1.810   2.630  10.691  2.0404  0.9066 -2.1082
  460MPD2    H3 6907   1.856   2.820  10.538  0.8726 -0.2655 -1.9796
  460MPD2     N 6908   1.438   2.801  10.377  0.1429 -0.8842 -0.4198
  460MPD2    H5 6909   1.346   2.766  10.403 -0.0291  0.1885  0.4308
  460MPD2    N1 6910   1.559   2.541  10.757  0.6578  0.1803 -0.1850
  460MPD2    H7 6911   1.628   2.486  10.808 -0.1587 -1.6379 -1.0245
  461TMC3    C1 6912   1.328   2.909  10.189 -0.0639  0.9358 -0.3590
  461TMC3    C2 6913   1.276   2.791  10.137 -0.6474 -0.0894 -0.5251
  461TMC3    C3 6914   1.195   2.800  10.021  0.4766  0.2439 -0.5267
  461TMC3    C4 6915   1.321   3.029  10.127 -0.0864  0.8394 -0.1126
  461TMC3    C5 6916   1.256   3.033   9.999 -0.3686  0.7694 -0.1665
  461TMC3    C6 6917   1.184   2.920   9.957  0.1894 -0.1677  0.6449
  461TMC3     C 6918   1.444   2.896  10.280 -0.5102 -0.0419  0.3485
  461TMC3     O 6919   1.536   2.964  10.241  0.0283 -0.3519 -0.4967
  461TMC3     H 6920   1.292   2.696  10.186 -2.3259  0.2362  0.6762
  461TMC3    H1 6921   1.355   3.118  10.180  4.1074 -1.5858  1.2900
  461TMC3    H2 6922   1.103   2.940   9.887  0.8340 -3.0319 -0.9302
  461TMC3    C7 6923   1.207   3.168   9.956  0.3170 -0.8964  0.1698
  461TMC3    C8 6924   1.127   2.680   9.972  0.6282  0.6381  0.3161
  461TMC3    O1 6925   1.104   3.163   9.891 -0.5571 -0.0422 -0.0341
  461TMC3    O2 6926   1.140   2.584  10.043  0.1074 -0.5537  0.1694
  462TMC3    C1 6927   1.546   3.041  17.567 -0.5805  0.5684  0.5892
  462TMC3    C2 6928   1.498   2.970  17.466 -0.7104  0.8460  0.4277
  462TMC3    C3 6929   1.452   2.840  17.484  0.3259  0.0440 -0.6774
  462TMC3    C4 6930   1.559   2.988  17.689 -0.4640 -0.1068 -0.6459
  462TMC3    C5 6931   1.528   2.857  17.696 -0.6047 -0.0462 -0.4575
  462TMC3    C6 6932   1.485   2.782  17.596  0.3524 -0.5436  0.0807
  462TMC3     C 6933   1.587   3.181  17.547  0.1337  0.4528 -0.0496
  462TMC3     O 6934   1.618   3.242  17.648  0.6421 -0.4895  0.0165
  462TMC3     H 6935   1.478   3.023  17.373 -0.1303 -0.6805 -0.5697
  462TMC3    H1 6936   1.605   3.046   0.034 -1.3630  2.1967 -1.8077
  462TMC3    H2 6937   1.450   2.680  17.615  0.9923 -0.8252 -0.2725
  462TMC3    C7 6938   1.547   2.784   0.088  0.3426 -0.7425 -0.0808
  462TMC3    C8 6939   1.443   2.756  17.369 -0.4105 -0.2452  0.3114
  462TMC3    O1 6940   1.567   2.664   0.085  0.0577 -0.1656  0.3882
  462TMC3    O2 6941   1.359   2.779  17.283  0.1585 -0.2846 -0.1688
  463MPD2     C 6942   3.090   1.257   1.691  0.2472  0.5393 -0.6099
  463MPD2    C1 6943   2.963   1.311   1.676 -0.7175 -0.7216 -0.0474
  463MPD2    C2 6944   2.951   1.445   1.671  0.1777 -0.4655 -0.1239
  463MPD2    C3 6945   3.069   1.528   1.669 -0.3921  0.4327  0.6635
  463MPD2    C4 6946   3.191   1.472   1.691  0.5337 -0.4034  0.5388
  463MPD2    C5 6947   3.203   1.333   1.691  0.2216  0.4392  0.6453
  463MPD2     H 6948   2.854   1.492   1.680 -0.4009 -1.1592 -2.7197
  463MPD2    H1 6949   3.280   1.533   1.696  1.0059 -0.7720 -3.0940
  463MPD2    H2 6950   3.101   1.150   1.706 -0.2560  0.5296 -0.3142
  463MPD2    H3 6951   3.300   1.288   1.701  0.5541  0.9250 -0.3831
  463MPD2     N 6952   3.072   1.672   1.677  0.3097 -0.1078  0.2036
  463MPD2    H5 6953   3.164   1.713   1.671  0.3226  0.0364  1.4330
  463MPD2    N1 6954   2.844   1.242   1.684  0.0167 -0.3265  0.9258
  463MPD2    H7 6955   2.758   1.297   1.683 -1.2598 -2.3280 -0.9948
  464TMC3    C1 6956   2.713   1.055   1.681  0.4024  0.4409  0.6649
  464TMC3    C2 6957   2.604   1.120   1.736 -0.0503  0.5512 -0.1627
  464TMC3    C3 6958   2.479   1.080   1.706  0.8609  0.2249 -0.3008
  464TMC3    C4 6959   2.692   0.941   1.603 -0.1329 -0.3787  0.4821
  464TMC3    C5 6960   2.569   0.909   1.565  0.5822  0.4447  0.0079
  464TMC3    C6 6961   2.464   0.984   1.611 -0.1971 -0.3998 -0.5077
  464TMC3     C 6962   2.844   1.109   1.664  0.0994  0.4065  0.3293
  464TMC3     O 6963   2.925   1.038   1.604  0.1117 -0.4474 -0.4971
  464TMC3     H 6964   2.606   1.211   1.795 -1.4102  1.1280 -0.9747
  464TMC3    H1 6965   2.781   0.883   1.581 -0.5415 -0.6052 -0.5925
  464TMC3    H2 6966   2.367   0.977   1.564  0.2895  0.1272 -1.5794
  464TMC3    C7 6967   2.553   0.836   1.438 -0.2040 -0.2001 -0.0806
  464TMC3    C8 6968   2.374   1.180   1.720  0.6749 -0.0467 -0.4755
  464TMC3    O1 6969   2.655   0.826   1.370 -0.4397  0.1599  0.0606
  464TMC3    O2 6970   2.291   1.193   1.632 -0.5015  0.0222  0.1305
  465MPD2     C 6971   3.861   0.461  16.854  0.2030 -0.0229 -0.0860
  465MPD2    C1 6972   3.745   0.527  16.844 -0.0163 -0.3869  0.4332
  465MPD2    C2 6973   3.701   0.570  16.720 -0.1960  0.0200 -0.4168
  465MPD2    C3 6974   3.782   0.559  16.606  0.2620 -0.4209  0.3787
  465MPD2    C4 6975   3.908   0.492  16.619  0.6439  0.0805  0.5418
  465MPD2    C5 6976   3.936   0.443  16.745 -0.3623 -0.5849  0.1303
  465MPD2     H 6977   3.608   0.625  16.712  0.0969  0.4108 -1.1662
  465MPD2    H1 6978   3.978   0.482  16.537 -0.7961 -1.5594 -0.4848
  465MPD2    H2 6979   3.898   0.427  16.950  0.5228 -0.4053 -0.3449
  465MPD2    H3 6980   4.031   0.395  16.766  0.0845  1.3936  2.6685
  465MPD2     N 6981   3.742   0.624  16.489  0.1273 -0.0100  0.0165
  465MPD2    H5 6982   3.659   0.683  16.483 -0.6490 -1.1813 -0.7962
  465MPD2    N1 6983   3.666   0.557  16.956  0.1996  0.7777 -0.3115
  465MPD2    H7 6984   3.575   0.601  16.944  0.0642  0.2999 -1.0404
  466TMC3    C1 6985   3.566   0.625  16.088 -0.0022 -0.0233  1.2593
  466TMC3    C2 6986   3.522   0.760  16.091 -1.3211 -0.2659  0.5781
  466TMC3    C3 6987   3.590   0.842  16.182 -0.0795  0.7139  0.0320
  466TMC3    C4 6988   3.668   0.584  16.165 -0.3694 -0.6205  0.4053
  466TMC3    C5 6989   3.715   0.661  16.264 -0.9909 -0.1980 -0.6163
  466TMC3    C6 6990   3.671   0.793  16.280  0.6923 -0.2045 -0.3585
  466TMC3     C 6991   3.460   0.529  16.086  0.0777  0.1940 -0.6672
  466TMC3     O 6992   3.483   0.430  16.157 -0.2661 -0.0435 -0.9288
  466TMC3     H 6993   3.437   0.799  16.036  0.4414  1.8481 -0.6090
  466TMC3    H1 6994   3.692   0.478  16.166  0.7080 -0.3680  0.6141
  466TMC3    H2 6995   3.728   0.859  16.345  1.1862  1.0144 -2.0150
  466TMC3    C7 6996   3.799   0.598  16.367  0.0401 -0.5749 -0.0695
  466TMC3    C8 6997   3.536   0.977  16.205  0.2562  0.2360  0.1316
  466TMC3    O1 6998   3.881   0.514  16.331 -0.5368  0.1793  0.5024
  466TMC3    O2 6999   3.525   1.052  16.104  0.4393 -0.1485 -0.6383
  467TMC3    C1 7000   4.527   4.074  13.859 -0.2645 -0.0097  0.4776
  467TMC3    C2 7001   4.461   4.193  13.847  0.5742  0.6813  0.3489
  467TMC3    C3 7002   4.344   4.180  13.768 -0.3244 -0.4703 -0.4902
  467TMC3    C4 7003   4.484   3.953  13.819  0.4542  1.3527  0.5692
  467TMC3    C5 7004   4.361   3.947  13.755  0.1021 -0.1603  0.0542
  467TMC3    C6 7005   4.296   4.059  13.720  1.1672  0.4044  1.0132
  467TMC3     C 7006   4.669   4.090  13.875  0.7407  0.4269  0.3372
  467TMC3     O 7007   4.705   4.160  13.971  0.8599  0.2432 -0.2338
  467TMC3     H 7008   4.501   4.281  13.895  0.1379  1.5030 -0.7934
  467TMC3    H1 7009   4.539   3.859  13.824 -2.5289 -0.3991  0.7718
  467TMC3    H2 7010   4.210   4.054  13.653  3.9316 -0.2031 -2.4971
  467TMC3    C7 7011   4.314   3.822  13.722 -0.3068  0.0912  0.2552
  467TMC3    C8 7012   4.338   4.291  13.680 -0.2351  0.3391  0.4834
  467TMC3    O1 7013   4.401   3.737  13.697 -0.8331 -0.2405  0.1692
  467TMC3    O2 7014   4.386   4.395  13.723  0.0065 -0.0687  0.0457
  468MPD2     C 7015   2.494   2.699  11.040  0.5961  0.4913 -0.5054
  468MPD2    C1 7016   2.621   2.691  11.087 -0.8329 -0.4113  0.2023
  468MPD2    C2 7017   2.698   2.581  11.062  0.2918  0.2116  0.7581
  468MPD2    C3 7018   2.653   2.477  10.984  0.0739  0.0578  0.0711
  468MPD2    C4 7019   2.524   2.485  10.940  0.9188 -0.1926  0.0664
  468MPD2    C5 7020   2.446   2.596  10.967  0.0154 -0.5266  0.3007
  468MPD2     H 7021   2.793   2.578  11.114  0.1465  0.4891  1.0379
  468MPD2    H1 7022   2.476   2.405  10.884  0.5143  0.5893 -0.7061
  468MPD2    H2 7023   2.428   2.785  11.048  0.6611  0.5729 -0.8325
  468MPD2    H3 7024   2.341   2.600  10.943  0.1846  1.3762 -0.1555
  468MPD2     N 7025   2.728   2.359  10.955  0.1525 -0.0229  0.4919
  468MPD2    H5 7026   2.679   2.291  10.898  1.8159  1.0124 -2.2294
  468MPD2    N1 7027   2.686   2.793  11.157  0.2528  0.0728  0.4158
  468MPD2    H7 7028   2.785   2.781  11.177  0.0514 -0.2685  1.2065
  469TMC3    C1 7029   2.731   3.005  11.261  0.6032  0.3247  0.3333
  469TMC3    C2 7030   2.856   2.971  11.299  0.0260  0.0732 -0.0372
  469TMC3    C3 7031   2.945   3.074  11.339  0.3709 -0.4991 -0.0536
  469TMC3    C4 7032   2.686   3.133  11.266 -0.3411 -0.2573  0.3738
  469TMC3    C5 7033   2.769   3.228  11.305  0.8516  0.1513 -0.4506
  469TMC3    C6 7034   2.899   3.204  11.336 -0.0935  0.4215  0.2701
  469TMC3     C 7035   2.630   2.907  11.207  1.2495  0.5950 -0.3484
  469TMC3     O 7036   2.511   2.942  11.192 -0.4081 -0.4233 -0.4848
  469TMC3     H 7037   2.868   2.864  11.297 -1.6078 -0.1543  2.6380
  469TMC3    H1 7038   2.586   3.172  11.245 -0.2805  0.3129  1.1262
  469TMC3    H2 7039   2.972   3.285  11.331  1.5219 -1.0072  0.5284
  469TMC3    C7 7040   2.724   3.368  11.298  0.2761  0.1930 -0.2443
  469TMC3    C8 7041   3.086   3.039  11.375  0.1352 -0.2857 -0.6508
  469TMC3    O1 7042   2.634   3.395  11.222  0.3172 -0.2715  0.2851
  469TMC3    O2 7043   3.114   2.920  11.366  0.1203  0.3905 -0.1503
  470TMC3    C1 7044   0.669   2.688   1.088 -0.1884  0.1774 -0.2588
  470TMC3    C2 7045   0.640   2.814   1.036 -0.3962  0.5213 -0.2771
  470TMC3    C3 7046   0.742   2.909   1.038 -0.3477 -0.4313  0.0216
  470TMC3    C4 7047   0.795   2.659   1.144 -0.3980  0.0311 -0.1579
  470TMC3    C5 7048   0.895   2.763   1.146  0.1989  0.2958  0.9646
  470TMC3    C6 7049   0.871   2.886   1.086  0.0667 -0.2150 -0.3521
  470TMC3     C 7050   0.574   2.580   1.086 -0.1900  0.2580 -0.6329
  470TMC3     O 7051   0.588   2.489   1.169  0.0640  0.6860 -0.2544
  470TMC3     H 7052   0.543   2.837   0.995  0.8545  2.8604 -1.9069
  470TMC3    H1 7053   0.818   2.554   1.162  1.5931 -0.1514 -3.8115
  470TMC3    H2 7054   0.945   2.964   1.097 -1.1918  0.9164  0.0893
  470TMC3    C7 7055   1.020   2.740   1.208 -0.0601 -0.0767 -0.0608
  470TMC3    C8 7056   0.708   3.050   0.995  0.3388  0.2468  0.5402
  470TMC3    O1 7057   1.108   2.829   1.199 -0.1451  0.7553 -0.2184
  470TMC3    O2 7058   0.803   3.128   0.999 -0.0061  0.1710 -0.1289
  471MPD2     C 7059   1.485   4.278  16.410  0.2542  0.0469  0.5834
  471MPD2    C1 7060   1.477   4.168  16.497 -0.3393 -0.3959 -0.8984
  471MPD2    C2 7061   1.588   4.151  16.575 -0.0209 -0.2504  0.1475
  471MPD2    C3 7062   1.691   4.237  16.593  0.7787 -0.1899  0.5691
  471MPD2    C4 7063   1.697   4.346  16.510 -0.7358 -0.1454  1.0205
  471MPD2    C5 7064   1.589   4.365  16.424 -0.4731 -1.4122 -0.2275
  471MPD2     H 7065   1.591   4.062  16.636 -2.5464 -1.0447 -0.8710
  471MPD2    H1 7066   1.768   4.427  16.504 -3.7793  2.3817 -0.6593
  471MPD2    H2 7067   1.404   4.300  16.341  0.6860 -0.1177  0.0274
  471MPD2    H3 7068   1.581   4.447  16.353  2.7816  0.0762  1.1251
  471MPD2     N 7069   1.774   4.228  16.710 -0.2507 -0.0023 -0.1685
  471MPD2    H5 7070   1.737   4.172  16.786 -0.5338  0.7919  0.2708
  471MPD2    N1 7071   1.383   4.060  16.493  0.3179  0.0025 -0.1373
  471MPD2    H7 7072   1.399   3.976  16.548  0.4809  0.9143  1.2003
  472TMC3    C1 7073   1.218   3.930  16.386  0.3469 -0.3004  1.0325
  472TMC3    C2 7074   1.100   3.926  16.324  0.0192  0.4663 -0.1105
  472TMC3    C3 7075   1.064   3.802  16.270  0.7712 -0.9008  0.8154
  472TMC3    C4 7076   1.299   3.823  16.411  0.5497  0.1436  0.2200
  472TMC3    C5 7077   1.251   3.706  16.363 -0.1511  0.3411  0.0767
  472TMC3    C6 7078   1.131   3.685  16.296  0.0656  0.7704 -0.4814
  472TMC3     C 7079   1.281   4.060  16.401 -0.8663  0.0173  0.4791
  472TMC3     O 7080   1.244   4.148  16.321 -0.3385 -0.4578 -0.3574
  472TMC3     H 7081   1.046   4.018  16.303  1.1420  0.6869 -1.9872
  472TMC3    H1 7082   1.405   3.828  16.433  0.4879  0.1513  0.5175
  472TMC3    H2 7083   1.106   3.586  16.260  3.4447  0.3581 -1.6817
  472TMC3    C7 7084   1.318   3.582  16.399  0.0749  0.6022  0.1479
  472TMC3    C8 7085   0.922   3.784  16.233 -0.2727  0.3185  0.1115
  472TMC3    O1 7086   1.375   3.595  16.510 -0.1595  0.2777 -0.3969
  472TMC3    O2 7087   0.881   3.861  16.151  0.3789 -0.5480 -0.5727
  473MPD2     C 7088   0.904   1.404  14.474 -0.3104  0.6109 -0.2805
  473MPD2    C1 7089   1.028   1.383  14.441  0.1393  0.2293 -0.0478
  473MPD2    C2 7090   1.120   1.479  14.485 -0.3528  0.1658 -0.5551
  473MPD2    C3 7091   1.089   1.588  14.564  0.5307  0.6761 -0.0299
  473MPD2    C4 7092   0.960   1.600  14.608  0.3387  0.3373 -0.4804
  473MPD2    C5 7093   0.870   1.514  14.555 -0.3896  0.2782 -0.6910
  473MPD2     H 7094   1.224   1.459  14.463 -0.4394  0.3261 -1.0971
  473MPD2    H1 7095   0.931   1.684  14.670  1.0963 -0.0678  0.4102
  473MPD2    H2 7096   0.822   1.338  14.447 -1.4617  1.5634  0.8902
  473MPD2    H3 7097   0.763   1.521  14.572 -0.6632 -1.5447 -1.6678
  473MPD2     N 7098   1.180   1.679  14.619 -0.0576 -0.1179 -0.2757
  473MPD2    H5 7099   1.149   1.760  14.672 -1.0271 -0.0028 -1.0277
  473MPD2    N1 7100   1.068   1.275  14.353 -0.1184  0.6033  0.2836
  473MPD2    H7 7101   1.168   1.257  14.344 -0.0563  1.2149 -0.2954
  474TMC3    C1 7102   1.382   1.812  14.608  0.3391  0.1718 -0.7503
  474TMC3    C2 7103   1.313   1.931  14.624  0.6198  0.6463  0.0767
  474TMC3    C3 7104   1.381   2.040  14.665 -0.1644  0.5396 -0.2023
  474TMC3    C4 7105   1.520   1.813  14.633  0.3012 -0.1344  0.3751
  474TMC3    C5 7106   1.574   1.934  14.681  0.4138 -0.0335 -0.5338
  474TMC3    C6 7107   1.505   2.049  14.708  0.0361  0.0780 -0.9195
  474TMC3     C 7108   1.314   1.689  14.576  0.3250  0.2188  0.2642
  474TMC3     O 7109   1.385   1.596  14.532 -0.0597 -0.1137 -0.3843
  474TMC3     H 7110   1.212   1.940  14.586  0.1784 -0.3048  1.0406
  474TMC3    H1 7111   1.592   1.733  14.623 -1.7588 -1.6699 -2.2314
  474TMC3    H2 7112   1.563   2.141  14.717 -0.2697 -0.1737  3.2940
  474TMC3    C7 7113   1.710   1.929  14.730 -0.4781  0.4247 -0.3744
  474TMC3    C8 7114   1.311   2.168  14.644 -0.2256  0.5272 -0.7229
  474TMC3    O1 7115   1.785   1.842  14.685  0.6284  0.4279  0.0478
  474TMC3    O2 7116   1.187   2.169  14.634 -0.3426 -0.5814  0.2212
  475MPD2     C 7117   4.520   0.492  11.031 -0.3728 -0.0225 -0.1427
  475MPD2    C1 7118   4.496   0.605  11.112 -0.6788  0.1131  0.2394
  475MPD2    C2 7119   4.368   0.664  11.093  0.8285  0.0131  0.1002
  475MPD2    C3 7120   4.282   0.623  10.994  0.2396  0.2727  0.5817
  475MPD2    C4 7121   4.305   0.505  10.928  0.3370 -0.1393  0.1346
  475MPD2    C5 7122   4.419   0.441  10.953  0.0076 -0.1199 -0.6084
  475MPD2     H 7123   4.330   0.753  11.142 -2.9853 -2.0440  0.8597
  475MPD2    H1 7124   4.235   0.467  10.855  0.1376  2.8298 -1.2349
  475MPD2    H2 7125   4.605   0.427  11.050  1.5222  2.3074 -0.5998
  475MPD2    H3 7126   4.444   0.351  10.899  1.1642  0.3789 -0.9118
  475MPD2     N 7127   4.167   0.702  10.969 -0.0375 -0.5488 -0.2552
  475MPD2    H5 7128   4.140   0.775  11.033  0.4250 -1.4973  1.0338
  475MPD2    N1 7129   4.589   0.658  11.209  0.1557 -0.1120 -0.1959
  475MPD2    H7 7130   4.685   0.627  11.203 -0.3347 -1.7045  0.0862
  476TMC3    C1 7131   4.680   0.840  11.344 -0.5894 -0.4394 -0.5154
  476TMC3    C2 7132   0.049   0.821  11.253  0.0290  0.0388 -0.3432
  476TMC3    C3 7133   0.109   0.927  11.196  0.2566  0.9411  0.4291
  476TMC3    C4 7134   4.660   0.957  11.402  1.3175 -0.4921 -0.3761
  476TMC3    C5 7135   4.729   1.059  11.348  0.3531  0.2898 -0.1090
  476TMC3    C6 7136   0.081   1.051  11.241 -0.4926 -0.3973 -0.5424
  476TMC3     C 7137   4.562   0.759  11.300 -0.2474 -0.0470 -0.0156
  476TMC3     O 7138   4.450   0.804  11.318  0.0938 -0.1309  0.9487
  476TMC3     H 7139   0.070   0.719  11.225  3.3585 -0.2732  3.3818
  476TMC3    H1 7140   4.576   0.967  11.470  3.3031 -0.3567  2.0746
  476TMC3    H2 7141   0.127   1.143  11.206 -3.4686  1.4950  0.4596
  476TMC3    C7 7142   4.691   1.194  11.387 -0.3878  0.1288  0.0561
  476TMC3    C8 7143   0.110   0.933  11.045 -0.1981  0.7261  0.0195
  476TMC3    O1 7144   4.701   1.273  11.296 -0.1193 -0.2353 -0.1406
  476TMC3    O2 7145   0.139   1.037  10.988 -0.4031 -0.0833  0.5467
  477MPD2     C 7146   1.964   1.902  11.477 -0.7259 -0.1791  0.3456
  477MPD2    C1 7147   1.937   1.764  11.474 -0.0053  0.0159  0.3560
  477MPD2    C2 7148   2.017   1.680  11.548 -0.1631 -0.0381 -0.1861
  477MPD2    C3 7149   2.124   1.738  11.615 -0.1057 -0.1595 -0.0813
  477MPD2    C4 7150   2.169   1.865  11.593  0.8499 -0.5463 -0.0918
  477MPD2    C5 7151   2.094   1.948  11.519  0.3084 -0.5322 -0.9215
  477MPD2     H 7152   1.982   1.579  11.568  0.5703 -0.2494  0.0341
  477MPD2    H1 7153   2.265   1.897  11.631  1.0869 -0.1201 -1.0508
  477MPD2    H2 7154   1.892   1.972  11.436  2.6156  2.2192 -1.3928
  477MPD2    H3 7155   2.121   2.051  11.502 -2.6518  0.3032 -0.4382
  477MPD2     N 7156   2.186   1.657  11.709 -0.0320  0.3034 -0.3208
  477MPD2    H5 7157   2.154   1.561  11.718  1.1706 -0.1588 -1.0833
  477MPD2    N1 7158   1.806   1.730  11.421 -0.2543 -0.1370  0.3944
  477MPD2    H7 7159   1.745   1.806  11.393 -0.0221  0.3085  1.0958
  478TMC3    C1 7160   1.626   1.613  11.328 -0.3725  0.5172  0.3812
  478TMC3    C2 7161   1.565   1.731  11.365 -0.2296 -0.3926  0.4486
  478TMC3    C3 7162   1.534   1.836  11.279  0.0576 -0.4322  0.0343
  478TMC3    C4 7163   1.621   1.584  11.194 -0.7195  0.4385 -0.0268
  478TMC3    C5 7164   1.574   1.678  11.109 -0.0041 -0.2936  0.0542
  478TMC3    C6 7165   1.541   1.810  11.143 -0.6268  0.3860  0.0842
  478TMC3     C 7166   1.754   1.603  11.393  0.6607  0.2060 -0.2226
  478TMC3     O 7167   1.817   1.498  11.387  0.8131 -0.2219  0.4857
  478TMC3     H 7168   1.569   1.749  11.472  1.2846 -1.8735  0.6434
  478TMC3    H1 7169   1.661   1.489  11.160  1.5361  1.0696  0.8341
  478TMC3    H2 7170   1.511   1.888  11.074 -2.2405 -0.6314 -0.3482
  478TMC3    C7 7171   1.572   1.639  10.968  0.1084  0.1188  0.2478
  478TMC3    C8 7172   1.572   1.972  11.327 -0.2035 -1.4745 -0.1238
  478TMC3    O1 7173   1.553   1.523  10.944 -0.5306  0.1094  0.5224
  478TMC3    O2 7174   1.643   1.964  11.424  0.5096 -0.4175 -0.2366
  479MPD2     C 7175   1.148   3.748  15.046 -0.0304 -0.1913  0.5349
  479MPD2    C1 7176   1.098   3.664  15.149  0.0281  0.4578 -0.2354
  479MPD2    C2 7177   1.183   3.613  15.249 -0.3167 -0.3345 -0.0314
  479MPD2    C3 7178   1.312   3.660  15.255 -0.0221 -0.7028  0.0822
  479MPD2    C4 7179   1.360   3.743  15.159  0.6707 -0.5822 -0.4450
  479MPD2    C5 7180   1.280   3.783  15.052  0.0694  0.4938 -0.0706
  479MPD2     H 7181   1.152   3.539  15.322 -0.2265 -2.5065 -2.1583
  479MPD2    H1 7182   1.467   3.760  15.161  0.4962  0.5176 -0.3295
  479MPD2    H2 7183   1.098   3.785  14.957  0.0363 -2.3946 -0.4217
  479MPD2    H3 7184   1.322   3.832  14.965  0.5306  2.0409  1.0238
  479MPD2     N 7185   1.411   3.626  15.349  0.0181  0.3825  0.2798
  479MPD2    H5 7186   1.503   3.669  15.338  0.5429  0.1267  3.5298
  479MPD2    N1 7187   0.958   3.631  15.144 -0.1778 -0.0096  0.2361
  479MPD2    H7 7188   0.906   3.676  15.069 -0.7777 -1.2531 -0.0879
  480TMC3    C1 7189   1.124   3.458  15.688  0.5402 -0.1570 -0.2151
  480TMC3    C2 7190   1.033   3.552  15.665 -0.1794 -0.3968 -0.4484
  480TMC3    C3 7191   1.062   3.661  15.585  0.1255  0.0244 -0.2900
  480TMC3    C4 7192   1.239   3.464  15.625 -0.0934 -0.3967 -0.2370
  480TMC3    C5 7193   1.276   3.572  15.549 -0.4179  0.5412  0.1031
  480TMC3    C6 7194   1.185   3.671  15.527  0.3263  1.3874  0.0827
  480TMC3     C 7195   1.109   3.360  15.794  0.4859  0.1090 -0.3662
  480TMC3     O 7196   1.203   3.281  15.819  0.3981  0.1922  0.6226
  480TMC3     H 7197   0.929   3.539  15.692 -0.1867 -1.3580 -0.9754
  480TMC3    H1 7198   1.313   3.389  15.653  0.1061  0.2375  0.9608
  480TMC3    H2 7199   1.209   3.757  15.466 -1.8600  2.1783  0.3391
  480TMC3    C7 7200   1.398   3.552  15.464  0.2869  0.0389  0.0241
  480TMC3    C8 7201   0.943   3.722  15.528 -0.5464  0.5890  0.1619
  480TMC3    O1 7202   1.488   3.487  15.520 -0.7424  0.0502  0.2599
  480TMC3    O2 7203   0.834   3.685  15.565  1.0541 -0.1679 -0.0893
  481MPD2     C 7204   2.813   3.154  14.462 -0.5770  0.6543  0.2150
  481MPD2    C1 7205   2.702   3.075  14.491 -0.0168 -0.5970  0.2163
  481MPD2    C2 7206   2.677   3.054  14.625  0.3780 -0.4455 -0.1334
  481MPD2    C3 7207   2.760   3.101  14.724  0.4273 -0.0945 -0.2978
  481MPD2    C4 7208   2.876   3.162  14.693  0.4481 -0.2163  0.1633
  481MPD2    C5 7209   2.895   3.202  14.562 -0.2302  0.2109  1.3963
  481MPD2     H 7210   2.582   3.007  14.650 -0.2122  0.5137 -0.5780
  481MPD2    H1 7211   2.938   3.206  14.770  2.1159 -1.7098 -0.3203
  481MPD2    H2 7212   2.846   3.179  14.362 -0.9069  2.0296  0.4529
  481MPD2    H3 7213   2.968   3.272  14.525 -0.6554  0.7392  1.5579
  481MPD2     N 7214   2.747   3.075  14.862 -0.2064 -0.6420 -0.0338
  481MPD2    H5 7215   2.821   3.105  14.925  1.5698  0.3900 -2.6179
  481MPD2    N1 7216   2.613   3.039  14.383 -0.4270  0.3847 -0.2470
  481MPD2    H7 7217   2.637   3.079  14.293  0.8755 -0.5919 -0.3328
  482TMC3    C1 7218   2.411   2.955  14.284  0.1589 -0.7683 -0.4671
  482TMC3    C2 7219   2.330   2.852  14.254 -0.3855 -0.4140  0.2278
  482TMC3    C3 7220   2.249   2.866  14.148  0.3484  0.4238  0.1218
  482TMC3    C4 7221   2.419   3.073  14.223 -0.0530  0.3965  0.3518
  482TMC3    C5 7222   2.332   3.084  14.118  0.5529 -0.3481 -0.2453
  482TMC3    C6 7223   2.249   2.984  14.075 -0.4426 -0.5007 -0.1990
  482TMC3     C 7224   2.513   2.940  14.387  0.4651  0.6253  0.2587
  482TMC3     O 7225   2.508   2.845  14.458  0.2284 -0.2087  0.6411
  482TMC3     H 7226   2.338   2.764  14.317 -0.7024 -1.8875 -1.7914
  482TMC3    H1 7227   2.472   3.164  14.249 -0.3197  1.0632 -1.4058
  482TMC3    H2 7228   2.174   3.010  14.001 -1.4122 -0.6314  0.7177
  482TMC3    C7 7229   2.356   3.202  14.041 -0.4111  0.6948 -0.0669
  482TMC3    C8 7230   2.209   2.743  14.094  0.3878  0.5760 -0.1883
  482TMC3    O1 7231   2.409   3.299  14.094  1.0507 -0.0573 -0.3398
  482TMC3    O2 7232   2.223   2.640  14.164  0.1582  0.2940 -0.1910
  483TMC3    C1 7233   0.721   1.675   1.313 -0.1152 -0.7041  0.0768
  483TMC3    C2 7234   0.823   1.761   1.273  0.0312 -0.3881  0.0353
  483TMC3    C3 7235   0.948   1.718   1.286  0.1292 -0.4745  0.0556
  483TMC3    C4 7236   0.733   1.556   1.371  0.4166 -0.0361  0.0111
  483TMC3    C5 7237   0.863   1.516   1.384 -0.2946 -0.0712 -0.1474
  483TMC3    C6 7238   0.969   1.599   1.343  0.1879 -0.0746 -0.4871
  483TMC3     C 7239   0.587   1.724   1.275  0.1914 -0.0849 -0.3184
  483TMC3     O 7240   0.564   1.844   1.298 -0.0021 -0.2641  0.3096
  483TMC3     H 7241   0.794   1.853   1.223  0.5695 -0.5778 -0.6360
  483TMC3    H1 7242   0.644   1.496   1.389 -0.4522  1.3408  0.3324
  483TMC3    H2 7243   1.071   1.564   1.359  0.4422  0.8880  0.0272
  483TMC3    C7 7244   0.891   1.377   1.414 -0.0109  0.4934  0.4516
  483TMC3    C8 7245   1.047   1.786   1.210 -0.3318 -0.4554 -0.1058
  483TMC3    O1 7246   1.006   1.337   1.394  0.1859 -0.9292 -0.3762
  483TMC3    O2 7247   1.016   1.873   1.129 -0.1088  0.1374  0.3950
  484MPD2     C 7248   3.079   0.396  12.754  0.6416 -0.0154  0.3433
  484MPD2    C1 7249   3.098   0.272  12.805  0.4591 -0.2254  0.3213
  484MPD2    C2 7250   3.225   0.225  12.853  0.6986 -0.0279  0.0880
  484MPD2    C3 7251   3.330   0.317  12.834 -0.2131  0.1846  0.1822
  484MPD2    C4 7252   3.304   0.436  12.764  0.1066  0.0708  0.0488
  484MPD2    C5 7253   3.183   0.478  12.729  0.1685  0.3736  0.1545
  484MPD2     H 7254   3.245   0.127  12.895 -1.8840  0.2634  1.9399
  484MPD2    H1 7255   3.384   0.504  12.734  0.6630 -1.3957 -1.8149
  484MPD2    H2 7256   2.983   0.430  12.718  0.2805 -0.0527  1.2570
  484MPD2    H3 7257   3.166   0.569  12.674  0.7233 -1.5182 -3.1541
  484MPD2     N 7258   3.464   0.279  12.859 -0.1181  0.1123 -0.0691
  484MPD2    H5 7259   3.537   0.343  12.831 -0.5384  1.3890  1.8020
  484MPD2    N1 7260   2.977   0.199  12.806  0.0900 -0.0425 -0.2420
  484MPD2    H7 7261   2.894   0.248  12.773 -2.4395 -3.2290  1.4508
  485TMC3    C1 7262   3.652   0.163  12.939 -0.7317  0.1804 -0.7326
  485TMC3    C2 7263   3.718   0.048  12.943 -0.7694  0.2899 -0.2570
  485TMC3    C3 7264   3.856   0.051  12.974 -0.4053  0.9887 -0.3190
  485TMC3    C4 7265   3.713   0.287  12.963  0.1702 -0.0294  0.5422
  485TMC3    C5 7266   3.848   0.286  12.991 -0.1444 -0.5189  0.9822
  485TMC3    C6 7267   3.916   0.172  13.004 -0.9678 -0.0625  0.2519
  485TMC3     C 7268   3.511   0.165  12.916 -0.5342 -0.6614  0.1381
  485TMC3     O 7269   3.449   0.070  12.956  0.3592 -0.1311  0.3708
  485TMC3     H 7270   3.661   4.692  12.927  1.8325 -1.4719  0.3602
  485TMC3    H1 7271   3.660   0.381  12.965  2.1507  1.0940 -0.0409
  485TMC3    H2 7272   4.008   0.170  13.062 -0.2576 -3.7575 -1.0163
  485TMC3    C7 7273   3.941   0.383  12.935  0.2484  0.1584  0.5435
  485TMC3    C8 7274   3.941   4.688  12.909  0.1199  0.3251  0.3977
  485TMC3    O1 7275   4.054   0.345  12.923 -0.0644 -0.3629 -0.1470
  485TMC3    O2 7276   3.889   4.586  12.865  0.2255 -0.4206 -0.3429
  486MPD2     C 7277   0.758   4.044  13.140 -0.2962 -0.0205 -0.3870
  486MPD2    C1 7278   0.773   4.038  13.002  0.2756  0.4568 -0.5007
  486MPD2    C2 7279   0.728   4.148  12.940 -0.1143 -0.1467  0.1539
  486MPD2    C3 7280   0.678   4.261  13.003  0.5486  0.5644  0.1456
  486MPD2    C4 7281   0.670   4.265  13.139  0.2050  0.4589  0.0983
  486MPD2    C5 7282   0.705   4.156  13.210 -0.0485  0.1976  0.3964
  486MPD2     H 7283   0.753   4.169  12.836  0.4023 -0.7959  0.1467
  486MPD2    H1 7284   0.631   4.351  13.192  1.8865  0.6835  0.9981
  486MPD2    H2 7285   0.789   3.952  13.189  1.7835  0.6892 -0.4050
  486MPD2    H3 7286   0.691   4.148  13.318 -1.2695  1.1118  0.3080
  486MPD2     N 7287   0.641   4.367  12.918 -0.0001  0.1293 -0.3418
  486MPD2    H5 7288   0.671   4.358  12.822  2.8515 -0.0779  0.5742
  486MPD2    N1 7289   0.828   3.919  12.943 -0.7169  0.1474 -0.4969
  486MPD2    H7 7290   0.865   3.846  13.003 -1.3623 -1.0207 -1.5282
  487TMC3    C1 7291   0.906   3.763  12.809 -0.5099 -0.4899 -0.1067
  487TMC3    C2 7292   0.828   3.661  12.762  0.1412  0.2800  0.1270
  487TMC3    C3 7293   0.860   3.538  12.804  0.0904  0.4345  0.3583
  487TMC3    C4 7294   0.993   3.744  12.907  0.6786 -0.4431  0.5930
  487TMC3    C5 7295   1.021   3.617  12.948 -0.1522  0.0307 -0.1544
  487TMC3    C6 7296   0.974   3.509  12.873 -0.0981  0.5888 -0.2532
  487TMC3     C 7297   0.828   3.889  12.816 -0.3957  0.0480  0.0267
  487TMC3     O 7298   0.803   3.954  12.720 -0.0151  0.4660 -0.6276
  487TMC3     H 7299   0.745   3.683  12.696  0.6459  0.4399 -0.4508
  487TMC3    H1 7300   1.042   3.832  12.947  2.8208 -1.6343  0.5829
  487TMC3    H2 7301   0.999   3.411  12.910 -2.3808 -0.5741 -1.7824
  487TMC3    C7 7302   0.981   3.612  13.086  0.6206  0.5285 -0.1214
  487TMC3    C8 7303   0.749   3.445  12.808  0.2818  0.2322 -0.0451
  487TMC3    O1 7304   0.946   3.721  13.132  0.5308  0.2916 -0.8982
  487TMC3    O2 7305   0.638   3.486  12.830  0.1889 -0.3689 -0.5232
  488MPD2     C 7306   0.595   0.291  16.091  0.1139 -0.1521  0.1369
  488MPD2    C1 7307   0.631   0.330  16.212 -0.0787  0.3894  0.4240
  488MPD2    C2 7308   0.664   0.234  16.304 -0.3193 -0.4697 -0.9554
  488MPD2    C3 7309   0.670   0.098  16.275 -0.0683  0.1941 -0.0829
  488MPD2    C4 7310   0.633   0.055  16.147 -0.0055  0.0747 -0.5134
  488MPD2    C5 7311   0.598   0.154  16.056  0.4707  0.2822 -0.5444
  488MPD2     H 7312   0.696   0.263  16.403  0.9752 -1.3270 -1.1119
  488MPD2    H1 7313   0.652   4.692  16.103 -1.8825 -0.8930  0.7874
  488MPD2    H2 7314   0.575   0.368  16.017 -1.7973  0.2100  1.0274
  488MPD2    H3 7315   0.591   0.118  15.954 -0.2237  1.4978 -0.9257
  488MPD2     N 7316   0.703   0.011  16.385 -0.1278  0.3315  0.0421
  488MPD2    H5 7317   0.744   0.055  16.466 -1.1261  0.9192  0.2313
  488MPD2    N1 7318   0.645   0.470  16.242 -0.2809 -0.1777  0.1446
  488MPD2    H7 7319   0.664   0.487  16.341 -1.5941 -1.9585  0.7075
  489TMC3    C1 7320   0.720   4.536  16.498  0.4115 -0.2141 -0.2950
  489TMC3    C2 7321   0.813   4.602  16.578  0.0125  0.4941 -0.3968
  489TMC3    C3 7322   0.814   4.559  16.713  0.0206  0.3950  0.2520
  489TMC3    C4 7323   0.642   4.434  16.542 -0.6681 -0.2242  0.6249
  489TMC3    C5 7324   0.659   4.379  16.666  0.3994  0.3004  0.1304
  489TMC3    C6 7325   0.740   4.445  16.752 -0.0165  0.5292  0.1175
  489TMC3     C 7326   0.678   4.613  16.378  0.6840  0.1413 -0.1245
  489TMC3     O 7327   0.637   4.540  16.288  0.2350 -0.0264  0.2363
  489TMC3     H 7328   0.877   4.685  16.547  2.5968 -1.4023 -0.1859
  489TMC3    H1 7329   0.579   4.386  16.468 -1.3552  0.9194  0.4721
  489TMC3    H2 7330   0.740   4.410  16.854 -0.7356  3.0929  0.9997
  489TMC3    C7 7331   0.593   4.258  16.703 -0.1336  0.2178  0.1968
  489TMC3    C8 7332   0.828   4.672  16.803 -0.5290  0.1731 -0.3445
  489TMC3    O1 7333   0.484   4.235  16.651  0.0887  0.0189  0.0479
  489TMC3    O2 7334   0.890   0.033  16.756  0.5118 -0.3071 -0.0957
  490MPD2     C 7335   1.558   4.455  16.867 -0.5726  0.3992  0.4517
  490MPD2    C1 7336   1.515   4.499  16.987  0.4361 -0.6200  0.5256
  490MPD2    C2 7337   1.553   4.624  17.033  0.1911 -0.0591 -0.6159
  490MPD2    C3 7338   1.638   4.705  16.952 -0.0145 -0.2229  0.3360
  490MPD2    C4 7339   1.666   4.660  16.829  0.0755  0.0783  0.7733
  490MPD2    C5 7340   1.624   4.544  16.787 -0.4714 -0.0909 -0.1399
  490MPD2     H 7341   1.530   4.654  17.135  0.9529  0.6285 -0.6470
  490MPD2    H1 7342   1.712   4.725  16.755 -4.4022  1.7504 -0.5844
  490MPD2    H2 7343   1.532   4.353  16.838  0.0089  0.7007 -1.1121
  490MPD2    H3 7344   1.652   4.513  16.687 -1.5190 -0.6677 -0.2543
  490MPD2     N 7345   1.708   0.083  16.987 -0.1155 -0.0185 -0.3690
  490MPD2    H5 7346   1.776   0.107  16.916  2.6046 -0.9089  1.9394
  490MPD2    N1 7347   1.431   4.427  17.076  0.0727 -0.2669 -0.6694
  490MPD2    H7 7348   1.396   4.479  17.156  0.5122 -0.5581 -0.2848
  491TMC3    C1 7349   1.317   4.245  17.159  0.2854 -0.0179 -0.2549
  491TMC3    C2 7350   1.283   4.314  17.269  0.2716 -0.5909  0.2390
  491TMC3    C3 7351   1.188   4.257  17.352 -0.0817 -0.4026  0.3795
  491TMC3    C4 7352   1.253   4.124  17.121 -0.1367  0.2179  0.8150
  491TMC3    C5 7353   1.159   4.077  17.206 -0.6544 -0.2565 -0.3759
  491TMC3    C6 7354   1.141   4.138  17.328 -0.4256 -0.2952 -0.8889
  491TMC3     C 7355   1.403   4.294  17.066  0.5849 -0.4713 -0.6299
  491TMC3     O 7356   1.462   4.206  17.001 -0.0711 -0.3786  0.2413
  491TMC3     H 7357   1.344   4.394  17.309 -0.1566 -1.2730  2.2291
  491TMC3    H1 7358   1.264   4.092  17.018  1.7300  0.6437  0.8880
  491TMC3    H2 7359   1.057   4.106  17.388  0.8133  0.1271  1.0759
  491TMC3    C7 7360   1.134   3.934  17.198  1.2381 -0.2703  0.2564
  491TMC3    C8 7361   1.132   4.348  17.450  0.2989  0.3395  0.0380
  491TMC3    O1 7362   1.151   3.871  17.092 -0.2651  0.1021 -0.0844
  491TMC3    O2 7363   1.159   4.464  17.433  0.9485 -0.5234  0.6039
  492MPD2     C 7364   1.570   0.171  11.195  0.5412 -0.3633 -0.4715
  492MPD2    C1 7365   1.451   0.106  11.182  0.4571 -0.2700 -0.3608
  492MPD2    C2 7366   1.375   0.052  11.281  0.7212 -0.1468 -0.5124
  492MPD2    C3 7367   1.421   0.064  11.409  0.3666  0.0927  0.1546
  492MPD2    C4 7368   1.550   0.124  11.429  0.0736  0.0578  0.6894
  492MPD2    C5 7369   1.624   0.163  11.320  0.1162 -0.1308 -0.2300
  492MPD2     H 7370   1.285   4.731  11.255 -1.0594  1.2611  2.5720
  492MPD2    H1 7371   1.597   0.136  11.526  1.1415  2.1814 -0.0983
  492MPD2    H2 7372   1.636   0.195  11.112 -0.7077  0.3203 -1.2571
  492MPD2    H3 7373   1.723   0.201  11.342 -0.0189 -0.2039  0.5007
  492MPD2     N 7374   1.377   0.002  11.529 -0.6072  0.2451 -0.3274
  492MPD2    H5 7375   1.429   0.028  11.612  0.6536 -0.0137 -1.0488
  492MPD2    N1 7376   1.419   0.104  11.047  0.8946  0.1963 -0.3812
  492MPD2    H7 7377   1.475   0.161  10.985  0.2705  3.0926  1.6814
  493TMC3    C1 7378   1.314   0.076  10.833 -0.5750 -0.0184 -0.4256
  493TMC3    C2 7379   1.378   0.192  10.800 -1.0334  0.6076  0.0908
  493TMC3    C3 7380   1.314   0.276  10.708  0.1150 -0.0466  0.2362
  493TMC3    C4 7381   1.187   0.040  10.780  0.4472  0.8380  0.2047
  493TMC3    C5 7382   1.118   0.129  10.702  0.4531  0.2734 -0.7585
  493TMC3    C6 7383   1.181   0.244  10.664  0.6310 -0.1199  0.3797
  493TMC3     C 7384   1.317   0.037  10.978 -0.3592 -0.2673  0.0275
  493TMC3     O 7385   1.239   4.690  11.020  0.7230 -0.3229  0.2967
  493TMC3     H 7386   1.482   0.209  10.827 -1.1153 -0.6783  1.2521
  493TMC3    H1 7387   1.147   4.673  10.791  1.1434  0.2640 -2.6487
  493TMC3    H2 7388   1.122   0.319  10.611 -0.3527  1.1569  3.2590
  493TMC3    C7 7389   0.975   0.129  10.690 -0.4569 -0.3923 -0.4814
  493TMC3    C8 7390   1.348   0.411  10.747 -0.2629  0.3870  0.0197
  493TMC3    O1 7391   0.916   0.193  10.600 -0.2858  0.1614 -0.0958
  493TMC3    O2 7392   1.379   0.422  10.867  0.1776 -0.2457  0.3213
  494TMC3    C1 7393   2.075   1.750   0.743 -0.2581 -0.0249  0.3340
  494TMC3    C2 7394   1.977   1.664   0.706  0.4713  0.0540 -0.3928
  494TMC3    C3 7395   1.963   1.627   0.573 -0.4205  0.1148  0.4484
  494TMC3    C4 7396   2.136   1.830   0.655 -0.0012 -0.2617  0.2745
  494TMC3    C5 7397   2.133   1.787   0.525  0.0865 -0.4115  0.0118
  494TMC3    C6 7398   2.046   1.681   0.484 -0.2268 -0.0525  0.3573
  494TMC3     C 7399   2.076   1.794   0.882  0.3537 -0.5967  0.4211
  494TMC3     O 7400   1.970   1.800   0.947 -0.0053  0.1859 -0.7434
  494TMC3     H 7401   1.929   1.611   0.787  2.1515 -1.9904 -0.7258
  494TMC3    H1 7402   2.199   1.916   0.674 -1.2099  0.2043  2.2170
  494TMC3    H2 7403   2.047   1.655   0.378  1.7110  1.8716 -0.0954
  494TMC3    C7 7404   2.258   1.786   0.450 -0.5144  0.4092  0.2735
  494TMC3    C8 7405   1.953   1.479   0.563  0.3448  0.0645 -0.1234
  494TMC3    O1 7406   2.265   1.702   0.367  0.0204 -0.0943 -0.2127
  494TMC3    O2 7407   1.971   1.411   0.665  0.1612  0.0015  0.3109
  495TMC3    C1 7408   1.253   4.058  14.697  0.0389 -0.2742  0.3078
  495TMC3    C2 7409   1.161   4.076  14.598 -0.4754 -0.4988 -0.1361
  495TMC3    C3 7410   1.034   4.111  14.624  0.0415 -0.1322  0.1830
  495TMC3    C4 7411   1.221   4.073  14.830 -0.4520 -0.3268  0.5877
  495TMC3    C5 7412   1.086   4.092  14.861 -0.5791 -0.0493 -0.4923
  495TMC3    C6 7413   0.990   4.118  14.761 -0.0873 -0.1405  0.0040
  495TMC3     C 7414   1.352   3.953  14.672  0.4145 -0.1409 -0.3933
  495TMC3     O 7415   1.447   3.951  14.751  0.3726 -0.2425  0.1592
  495TMC3     H 7416   1.200   4.068  14.497 -0.0413  0.6684 -0.0694
  495TMC3    H1 7417   1.300   4.059  14.903 -1.0303 -1.4135  1.0072
  495TMC3    H2 7418   0.892   4.150  14.794 -0.1919 -1.9321  1.4619
  495TMC3    C7 7419   1.053   4.093  14.999  0.1782  0.0478 -0.3745
  495TMC3    C8 7420   0.926   4.132  14.525  0.6183  0.4527 -0.0077
  495TMC3    O1 7421   1.150   4.095  15.077 -0.0028 -0.0300  0.3563
  495TMC3    O2 7422   0.809   4.144  14.568 -0.4502  0.2732 -0.1734
  496MPD2     C 7423   2.849   3.855  14.765  0.4176  0.6497 -0.4978
  496MPD2    C1 7424   2.919   3.842  14.889  0.4030  0.3634  0.0824
  496MPD2    C2 7425   2.846   3.796  15.003  0.0758 -0.2134  0.8393
  496MPD2    C3 7426   2.712   3.770  14.994  0.0714 -0.0133 -0.2267
  496MPD2    C4 7427   2.642   3.795  14.877 -0.4208  0.1127  0.0850
  496MPD2    C5 7428   2.709   3.836  14.762  0.4212  0.2242 -0.7100
  496MPD2     H 7429   2.900   3.787  15.096  0.6383 -1.1174  0.4200
  496MPD2    H1 7430   2.534   3.780  14.875  0.1603 -3.9655 -1.5374
  496MPD2    H2 7431   2.903   3.878  14.674 -0.6145 -0.5381 -1.3836
  496MPD2    H3 7432   2.651   3.868  14.677 -2.0880 -0.7727  0.6473
  496MPD2     N 7433   2.639   3.723  15.105  0.3182  0.4545  0.1288
  496MPD2    H5 7434   2.538   3.719  15.093  0.2062  0.8605  0.9595
  496MPD2    N1 7435   3.058   3.875  14.887 -0.0113 -0.1480  0.0528
  496MPD2    H7 7436   3.088   3.910  14.796 -1.1176 -0.4382 -0.4274
  497TMC3    C1 7437   2.581   3.660  15.318  0.0613  0.7555  0.4887
  497TMC3    C2 7438   2.468   3.606  15.266 -0.1050  0.6325  0.0629
  497TMC3    C3 7439   2.370   3.572  15.354  0.3163 -0.6135  0.0549
  497TMC3    C4 7440   2.592   3.688  15.452 -0.4536  0.8416 -0.5670
  497TMC3    C5 7441   2.487   3.668  15.537 -0.2009  0.5293  0.6180
  497TMC3    C6 7442   2.373   3.608  15.490 -0.1274 -0.1391 -0.0925
  497TMC3     C 7443   2.686   3.706  15.231 -0.5991  0.4289  0.2376
  497TMC3     O 7444   2.798   3.727  15.282 -0.0564  0.4815 -0.0994
  497TMC3     H 7445   2.456   3.585  15.161  0.1849  0.3783  0.0805
  497TMC3    H1 7446   2.682   3.737  15.486 -0.0956 -0.3244  0.1724
  497TMC3    H2 7447   2.281   3.604  15.548 -0.7072 -3.0181 -1.2118
  497TMC3    C7 7448   2.465   3.763  15.642 -0.7489  0.2373  0.2792
  497TMC3    C8 7449   2.245   3.539  15.296 -0.4224  0.4559 -0.2860
  497TMC3    O1 7450   2.354   3.778  15.692  0.3239 -0.1384 -0.4599
  497TMC3    O2 7451   2.215   3.602  15.193 -0.6834 -0.0171  0.3051
  498MPD2     C 7452   3.548   0.614  10.408 -0.4752  0.3663 -0.3543
  498MPD2    C1 7453   3.687   0.623  10.396 -0.1855  0.3068  0.0214
  498MPD2    C2 7454   3.770   0.576  10.501 -0.5258 -0.8814  0.9152
  498MPD2    C3 7455   3.723   0.516  10.613 -0.6150 -0.4134 -0.3332
  498MPD2    C4 7456   3.585   0.514  10.624  0.3967 -0.5671  0.3413
  498MPD2    C5 7457   3.504   0.555  10.522  0.9436 -0.0238 -0.2022
  498MPD2     H 7458   3.876   0.583  10.483 -1.2009  0.5722 -2.4126
  498MPD2    H1 7459   3.544   0.461  10.710 -1.9290  0.5198 -0.0910
  498MPD2    H2 7460   3.470   0.633  10.335  0.6875 -0.7132 -1.8687
  498MPD2    H3 7461   3.399   0.530  10.532  1.4172 -0.7136  3.2424
  498MPD2     N 7462   3.814   0.455  10.704  0.0106  0.5268 -0.6281
  498MPD2    H5 7463   3.904   0.429  10.665  0.5525 -1.4624  1.9097
  498MPD2    N1 7464   3.755   0.679  10.281 -0.2937  0.7335  0.5696
  498MPD2    H7 7465   3.856   0.680  10.284 -0.3425  1.3554  2.2896
  499TMC3    C1 7466   3.762   0.813  10.084 -0.3983 -0.5048  0.8080
  499TMC3    C2 7467   3.894   0.821  10.109 -0.5380  0.7218  0.4822
  499TMC3    C3 7468   3.962   0.932  10.047  0.2475 -0.9118  0.2872
  499TMC3    C4 7469   3.698   0.882   9.987 -0.5741  0.0133 -0.3273
  499TMC3    C5 7470   3.770   0.988   9.930 -0.0129 -0.6522  0.2913
  499TMC3    C6 7471   3.899   1.010   9.953 -0.1994 -0.3449 -0.2335
  499TMC3     C 7472   3.687   0.743  10.180 -0.3742 -0.4194 -0.3212
  499TMC3     O 7473   3.568   0.766  10.160  0.0405 -0.2867 -0.6323
  499TMC3     H 7474   3.952   0.761  10.177 -0.4361  1.0354  0.6749
  499TMC3    H1 7475   3.603   0.838   9.958 -1.1089  0.2435  1.0391
  499TMC3    H2 7476   3.949   1.095   9.908  0.9198 -0.6405  0.4505
  499TMC3    C7 7477   3.694   1.108   9.922  0.4248  0.5246  0.5536
  499TMC3    C8 7478   4.103   0.892  10.019 -0.1539  0.0302  0.3425
  499TMC3    O1 7479   3.757   1.211   9.891 -0.0714  0.3947  0.2665
  499TMC3    O2 7480   4.154   0.810  10.096 -0.1766  1.0618 -0.2687
  500MPD2     C 7481   0.221   1.630  10.474 -0.4604  0.3627 -0.1440
  500MPD2    C1 7482   0.199   1.576  10.344 -0.4730  0.4575  0.3913
  500MPD2    C2 7483   0.074   1.604  10.294  0.2974 -0.5129  1.0786
  500MPD2    C3 7484   4.710   1.666  10.361  0.1345 -0.1531  0.1211
  500MPD2    C4 7485   0.002   1.711  10.491  0.5850 -1.0900 -0.6635
  500MPD2    C5 7486   0.127   1.703  10.542 -0.2926 -0.4044  0.6380
  500MPD2     H 7487   0.062   1.567  10.192  0.3424  0.8380  0.5841
  500MPD2    H1 7488   4.658   1.758  10.550 -0.0364 -0.9208 -1.6151
  500MPD2    H2 7489   0.308   1.612  10.536 -0.2338  1.2070 -0.2177
  500MPD2    H3 7490   0.141   1.732  10.645 -2.0938 -0.2288  0.8310
  500MPD2     N 7491   4.586   1.692  10.311 -0.9236  0.1773  0.2328
  500MPD2    H5 7492   4.526   1.759  10.357 -1.9101 -2.0026  2.1503
  500MPD2    N1 7493   0.298   1.500  10.278 -0.2156  0.1387  0.0221
  500MPD2    H7 7494   0.284   1.475  10.180 -0.1047 -2.4546  0.6569
  501TMC3    C1 7495   0.506   1.387  10.240  0.5574  0.3339  0.0486
  501TMC3    C2 7496   0.542   1.458  10.127 -0.2270 -0.0686  0.1542
  501TMC3    C3 7497   0.658   1.433  10.062 -0.4121 -0.4754 -0.2598
  501TMC3    C4 7498   0.601   1.295  10.293 -0.0129 -0.6220 -0.3729
  501TMC3    C5 7499   0.712   1.260  10.220  0.5270  0.1417  0.5122
  501TMC3    C6 7500   0.743   1.339  10.109  0.0832 -0.2970 -0.3550
  501TMC3     C 7501   0.415   1.454  10.331 -0.7659 -0.3314  0.6130
  501TMC3     O 7502   0.448   1.446  10.445  0.4761 -0.2449  0.1485
  501TMC3     H 7503   0.479   1.540  10.093 -0.9507 -0.7081 -0.0288
  501TMC3    H1 7504   0.575   1.247  10.386  2.7653  1.1425  1.3031
  501TMC3    H2 7505   0.842   1.334  10.066  0.2736  0.4307 -0.0013
  501TMC3    C7 7506   0.821   1.256  10.318  0.4696  0.4590 -0.7568
  501TMC3    C8 7507   0.728   1.550  10.035  0.3100  0.3183 -0.2021
  501TMC3    O1 7508   0.815   1.179  10.410  0.2470  0.3518  0.9017
  501TMC3    O2 7509   0.828   1.571  10.103  0.3803  0.1873 -0.2593
  502TMC3    C1 7510   0.450   4.692  15.274 -0.0962 -0.1094 -0.0607
  502TMC3    C2 7511   0.393   0.077  15.295 -0.4441 -0.3718  0.2644
  502TMC3    C3 7512   0.254   0.081  15.310  0.4965 -0.1912  0.5369
  502TMC3    C4 7513   0.380   4.589  15.234 -0.3396 -0.9303  0.1890
  502TMC3    C5 7514   0.240   4.602  15.217  0.6997  1.2049  0.8260
  502TMC3    C6 7515   0.171   4.709  15.271 -0.3731 -0.3803 -0.0999
  502TMC3     C 7516   0.568   4.670  15.357 -0.1359  0.7842  0.7146
  502TMC3     O 7517   0.655   0.025  15.365 -0.1026  0.1115 -0.3727
  502TMC3     H 7518   0.456   0.163  15.318 -0.0794 -0.1668 -1.4694
  502TMC3    H1 7519   0.432   4.497  15.210  1.8868  0.4791 -0.3442
  502TMC3    H2 7520   0.064   4.694  15.279 -0.3687  0.2308  1.2549
  502TMC3    C7 7521   0.168   4.483  15.196  0.4692 -0.5882 -0.0607
  502TMC3    C8 7522   0.200   0.213  15.342 -0.0176 -0.4486 -0.1448
  502TMC3    O1 7523   0.197   4.387  15.264 -0.4102  0.0350 -0.0232
  502TMC3    O2 7524   0.267   0.310  15.302 -0.3296 -0.4459  0.4968
  503MPD2     C 7525   2.403   0.681  16.892  0.3708  0.2510  0.3243
  503MPD2    C1 7526   2.422   0.698  17.028 -0.4736  0.4265 -0.9061
  503MPD2    C2 7527   2.462   0.592  17.109 -0.0868 -0.2799 -0.1903
  503MPD2    C3 7528   2.494   0.469  17.049 -0.4149  0.3453  0.4215
  503MPD2    C4 7529   2.484   0.459  16.912 -0.0828 -0.1899 -0.9599
  503MPD2    C5 7530   2.436   0.559  16.834 -0.0500  0.6664 -0.2686
  503MPD2     H 7531   2.483   0.601  17.215 -0.1776  1.3370 -0.3103
  503MPD2    H1 7532   2.522   0.375  16.854  0.9253  0.3777 -1.1310
  503MPD2    H2 7533   2.365   0.757  16.824 -2.7019 -1.2668  0.3402
  503MPD2    H3 7534   2.425   0.538  16.728  0.1326  2.4582 -0.6403
  503MPD2     N 7535   2.553   0.364  17.127 -0.4844 -0.5964 -0.0219
  503MPD2    H5 7536   2.559   0.382  17.226  1.0750 -1.4845  0.0422
  503MPD2    N1 7537   2.388   0.820  17.097  0.0577  0.1314  0.1799
  503MPD2    H7 7538   2.374   0.810  17.198  2.1662 -2.6436  0.2039
  504TMC3    C1 7539   2.675   0.174  17.189  0.1675 -0.2984  0.1565
  504TMC3    C2 7540   2.596   0.135  17.286  0.2170  0.2954  0.7442
  504TMC3    C3 7541   2.641   0.059  17.386 -0.6792  0.4916 -0.5746
  504TMC3    C4 7542   2.807   0.134  17.184 -0.2363  0.8454  0.3579
  504TMC3    C5 7543   2.851   0.063  17.290  0.7731  0.1129 -0.0643
  504TMC3    C6 7544   2.768   0.020  17.385 -0.2947  0.4102 -0.2091
  504TMC3     C 7545   2.608   0.243  17.082 -0.1458 -0.5237  0.3705
  504TMC3     O 7546   2.653   0.218  16.975 -0.0260 -0.3507  0.2777
  504TMC3     H 7547   2.491   0.160  17.284  0.5134  1.4865 -0.4049
  504TMC3    H1 7548   2.877   0.168  17.108 -0.3685 -0.7381 -0.4721
  504TMC3    H2 7549   2.811   4.712  17.476 -0.8868  0.0281 -0.1003
  504TMC3    C7 7550   2.994   0.019  17.286  0.1081  0.0059 -0.4650
  504TMC3    C8 7551   2.544   0.016  17.481 -0.2478  0.2222  0.2519
  504TMC3    O1 7552   3.074   0.091  17.231  0.5060 -0.1497  0.3767
  504TMC3    O2 7553   2.426   0.029  17.460  0.0564  0.6546  0.1654
  505MPD2     C 7554   3.001   0.106  11.091 -0.1379  0.1576  0.2993
  505MPD2    C1 7555   2.989   4.719  11.146  0.5777 -0.0993  0.9753
  505MPD2    C2 7556   3.003   4.695  11.285 -0.1890 -0.2397 -0.4723
  505MPD2    C3 7557   3.005   0.072  11.367  0.3349 -0.0636  0.2412
  505MPD2    C4 7558   3.016   0.199  11.310  0.0102  0.5748 -0.7361
  505MPD2    C5 7559   3.006   0.219  11.175  0.4269  0.3037  0.2071
  505MPD2     H 7560   3.024   4.594  11.317  0.8820  0.1390  0.0588
  505MPD2    H1 7561   3.024   0.291  11.367  2.4677  0.9121 -1.6484
  505MPD2    H2 7562   2.997   0.132  10.985  3.3836  1.1917  0.4223
  505MPD2    H3 7563   3.000   0.321  11.140 -0.4624  0.5306  1.0283
  505MPD2     N 7564   3.022   0.072  11.510  0.2079  0.0366 -0.2153
  505MPD2    H5 7565   3.038   0.162  11.555  2.3034 -0.0964 -0.6802
  505MPD2    N1 7566   2.968   4.611  11.057  0.3762  0.4005 -0.3660
  505MPD2    H7 7567   2.976   4.625  10.957  1.0159 -1.7108 -0.6210
  506TMC3    C1 7568   2.942   4.385  10.992  0.2541 -0.0954  0.7546
  506TMC3    C2 7569   3.065   4.395  10.931 -0.0701 -0.6265 -0.0188
  506TMC3    C3 7570   3.127   4.277  10.907  0.4452 -0.7518  0.7680
  506TMC3    C4 7571   2.892   4.261  11.021  0.4080 -0.2151  0.0227
  506TMC3    C5 7572   2.964   4.147  10.992 -0.3401  0.0677  0.3399
  506TMC3    C6 7573   3.081   4.156  10.927 -0.6996  0.4670 -0.8811
  506TMC3     C 7574   2.918   4.485  11.093 -0.0671 -0.1826 -0.0930
  506TMC3     O 7575   2.887   4.448  11.204 -0.0400 -0.4327 -0.4382
  506TMC3     H 7576   3.115   4.490  10.916  1.3169 -0.7712  3.5970
  506TMC3    H1 7577   2.797   4.256  11.073 -1.5982  2.1365 -3.4111
  506TMC3    H2 7578   3.141   4.070  10.900  0.5780  0.4754  1.9556
  506TMC3    C7 7579   2.974   4.069  11.112  0.3266  0.2878  0.1684
  506TMC3    C8 7580   3.251   4.280  10.833 -0.5149 -0.7858  0.0454
  506TMC3    O1 7581   3.021   3.954  11.104  0.0791 -0.0239  0.1187
  506TMC3    O2 7582   3.269   4.191  10.747  0.0956  0.2397 -0.6049
  507TMC3    C1 7583   3.301   0.715  14.811  0.3635 -0.6112  0.3324
  507TMC3    C2 7584   3.173   0.677  14.784 -0.5561 -0.1123  0.7680
  507TMC3    C3 7585   3.101   0.757  14.702  1.0794  0.9277 -0.0230
  507TMC3    C4 7586   3.358   0.826  14.753  0.8281  0.1261 -0.4529
  507TMC3    C5 7587   3.283   0.914  14.674  0.0519 -0.0517 -0.0270
  507TMC3    C6 7588   3.149   0.872  14.654 -0.3471 -0.0366 -0.3159
  507TMC3     C 7589   3.374   0.640  14.911 -0.4097 -0.7294 -0.8548
  507TMC3     O 7590   3.467   0.686  14.975  0.1903 -0.1016  0.1278
  507TMC3     H 7591   3.126   0.599  14.843  1.6373 -2.0623 -0.0727
  507TMC3    H1 7592   3.463   0.848  14.764  1.3105 -2.5671  0.4081
  507TMC3    H2 7593   3.088   0.940  14.595 -0.1861  1.9146  1.7424
  507TMC3    C7 7594   3.287   1.050  14.726  0.0428 -0.7612  0.4376
  507TMC3    C8 7595   2.966   0.765  14.735  0.2677 -0.1863 -0.0083
  507TMC3    O1 7596   3.179   1.110  14.735 -0.0243 -0.4418  0.1569
  507TMC3    O2 7597   2.899   0.659  14.736  0.1001 -0.1768  0.3114
  508MPD2     C 7598   4.560   2.290  15.939  0.1215 -0.3053  0.8051
  508MPD2    C1 7599   4.523   2.386  16.031  0.3915 -1.0403 -0.1815
  508MPD2    C2 7600   4.437   2.479  15.981 -0.7310  0.2126 -0.1875
  508MPD2    C3 7601   4.388   2.473  15.851  0.3500 -0.0072  0.1459
  508MPD2    C4 7602   4.428   2.380  15.762  0.7314  0.1109 -0.9504
  508MPD2    C5 7603   4.510   2.281  15.808  0.4243 -0.9234 -0.2409
  508MPD2     H 7604   4.406   2.561  16.045  1.1997  1.4060 -0.7534
  508MPD2    H1 7605   4.403   2.380  15.657 -3.8158 -0.2608  0.1296
  508MPD2    H2 7606   4.622   2.205  15.963 -0.6453 -1.4209 -1.1383
  508MPD2    H3 7607   4.537   2.198  15.744  2.9590 -2.1869  2.4893
  508MPD2     N 7608   4.308   2.586  15.823 -0.2003  0.1855  0.6254
  508MPD2    H5 7609   4.296   2.647  15.903 -0.5274  0.9423  0.0055
  508MPD2    N1 7610   4.574   2.382  16.167 -0.4341  0.1394  0.1496
  508MPD2    H7 7611   4.642   2.308  16.185  1.3768  1.6908 -0.2922
  509TMC3    C1 7612   4.064   2.917  15.609 -0.1852 -0.0061 -0.1594
  509TMC3    C2 7613   4.128   3.015  15.680  0.0328 -0.6677 -0.1103
  509TMC3    C3 7614   4.226   2.976  15.764  0.3287 -0.2393  0.5700
  509TMC3    C4 7615   4.084   2.784  15.617  0.5161 -0.0067  0.2120
  509TMC3    C5 7616   4.191   2.749  15.699  0.1140  0.3217 -0.7346
  509TMC3    C6 7617   4.254   2.844  15.778 -0.3439 -0.2545 -0.4746
  509TMC3     C 7618   3.972   2.965  15.501 -0.7137 -0.3827 -0.1744
  509TMC3     O 7619   3.868   2.901  15.484  0.2192 -0.0060 -0.1198
  509TMC3     H 7620   4.106   3.121  15.673 -1.5596 -1.0039 -0.4571
  509TMC3    H1 7621   4.017   2.712  15.573 -1.3595 -0.0153  3.0853
  509TMC3    H2 7622   4.344   2.830  15.836 -1.3795 -0.2265  1.1425
  509TMC3    C7 7623   4.228   2.608  15.719  0.8078 -0.1495 -0.0089
  509TMC3    C8 7624   4.264   3.060  15.874 -0.4138  0.1296  0.3791
  509TMC3    O1 7625   4.187   2.525  15.639 -0.1725 -0.8976  0.0243
  509TMC3    O2 7626   4.301   3.002  15.976 -0.3222 -0.4759  0.1416
  510MPD2     C 7627   2.411   4.155  14.444 -0.2460 -0.3861  0.6490
  510MPD2    C1 7628   2.444   4.024  14.486 -0.1950 -0.4034 -0.1143
  510MPD2    C2 7629   2.558   3.961  14.428  0.1451  0.0987  0.2999
  510MPD2    C3 7630   2.619   4.019  14.319 -0.7143 -0.1161 -0.1215
  510MPD2    C4 7631   2.563   4.134  14.259 -0.4297  0.1615 -0.2394
  510MPD2    C5 7632   2.467   4.204  14.335 -0.4603 -0.1394 -0.0483
  510MPD2     H 7633   2.603   3.875  14.477  0.1393 -0.5618 -0.8769
  510MPD2    H1 7634   2.602   4.174  14.167  0.5944  1.4996  0.7744
  510MPD2    H2 7635   2.326   4.212  14.481 -1.0276 -1.4274  0.4824
  510MPD2    H3 7636   2.427   4.294  14.291  1.2058 -0.1455 -1.5932
  510MPD2     N 7637   2.725   3.954  14.259  0.6195  0.4837  0.4932
  510MPD2    H5 7638   2.758   3.862  14.286  0.6466  0.7681  1.4303
  510MPD2    N1 7639   2.374   3.975  14.602 -0.5807 -0.1113  0.0460
  510MPD2    H7 7640   2.315   4.035  14.658 -1.9610 -1.2415 -0.1979
  511TMC3    C1 7641   2.278   3.796  14.729 -0.8513  0.4409 -0.3102
  511TMC3    C2 7642   2.190   3.877  14.799 -0.5181 -0.2102  0.6735
  511TMC3    C3 7643   2.107   3.821  14.890 -0.3457 -0.3343 -0.7182
  511TMC3    C4 7644   2.285   3.659  14.743 -0.0337  0.2868  0.3332
  511TMC3    C5 7645   2.195   3.608  14.835  0.3645 -0.0917  0.5565
  511TMC3    C6 7646   2.104   3.684  14.909 -0.1622  0.4249 -0.7627
  511TMC3     C 7647   2.371   3.841  14.631  1.1689  0.1020 -0.4605
  511TMC3     O 7648   2.422   3.756  14.566 -0.9041  0.6340  0.4387
  511TMC3     H 7649   2.198   3.985  14.804 -1.6917 -0.1289  0.5934
  511TMC3    H1 7650   2.377   3.608  14.717 -1.8240 -0.8119 -3.7401
  511TMC3    H2 7651   2.042   3.634  14.982  0.7585  0.7790  0.2598
  511TMC3    C7 7652   2.222   3.474  14.881  0.7695 -0.5891  0.4089
  511TMC3    C8 7653   2.065   3.902  15.004 -0.1584 -0.1095 -0.0593
  511TMC3    O1 7654   2.334   3.435  14.862  0.0335  0.2130 -0.4558
  511TMC3    O2 7655   2.033   4.017  14.975  0.2598  0.6857 -0.1941
  512TMC3    C1 7656   1.302   3.636  13.358  0.3753 -0.2563  0.8417
  512TMC3    C2 7657   1.360   3.600  13.471 -0.2164 -0.4967  0.1508
  512TMC3    C3 7658   1.434   3.482  13.481 -0.1432 -0.1060 -0.8186
  512TMC3    C4 7659   1.293   3.546  13.254  0.2004 -0.0883  0.4695
  512TMC3    C5 7660   1.342   3.419  13.275  1.0171  0.3459  0.2609
  512TMC3    C6 7661   1.414   3.381  13.389  0.4118  1.0377 -0.0826
  512TMC3     C 7662   1.243   3.767  13.342 -0.1451 -0.0646  0.0199
  512TMC3     O 7663   1.175   3.825  13.427 -0.0186  0.1449  0.2825
  512TMC3     H 7664   1.347   3.670  13.553  1.8486  0.0291  0.0339
  512TMC3    H1 7665   1.243   3.574  13.162  1.1394 -0.4767 -0.1693
  512TMC3    H2 7666   1.465   3.286  13.399  1.3084  1.3478 -1.7300
  512TMC3    C7 7667   1.292   3.323  13.177 -0.4420 -0.0668  0.6632
  512TMC3    C8 7668   1.541   3.475  13.584 -0.1963 -0.1768 -0.0261
  512TMC3    O1 7669   1.216   3.362  13.090 -0.2134  0.4061 -0.3461
  512TMC3    O2 7670   1.618   3.383  13.580 -0.2651  0.7099  0.2641
  513MPD2     C 7671   3.846   3.396  12.671  0.6669  0.1691 -0.5640
  513MPD2    C1 7672   3.823   3.262  12.683 -0.7339  0.0153  0.4177
  513MPD2    C2 7673   3.846   3.200  12.806 -0.7185  0.2237 -0.1351
  513MPD2    C3 7674   3.893   3.269  12.917 -0.6753 -0.5164  0.2369
  513MPD2    C4 7675   3.907   3.402  12.907  0.1668  0.1090  0.0166
  513MPD2    C5 7676   3.885   3.464  12.785 -0.3917  0.1341 -0.9204
  513MPD2     H 7677   3.833   3.094  12.824  0.8581  0.0984  0.2441
  513MPD2    H1 7678   3.929   3.469  12.989 -0.2913  0.3270 -0.0457
  513MPD2    H2 7679   3.812   3.448  12.583  0.9512 -0.8923 -1.3112
  513MPD2    H3 7680   3.883   3.571  12.769 -0.8265  0.0539 -1.3796
  513MPD2     N 7681   3.885   3.200  13.042  0.2346 -0.2311 -0.0283
  513MPD2    H5 7682   3.853   3.104  13.039  0.3421 -0.2739  0.2076
  513MPD2    N1 7683   3.779   3.189  12.565 -0.0443  0.5391  0.5506
  513MPD2    H7 7684   3.777   3.231  12.473  0.6883 -1.2692 -0.2983
  514TMC3    C1 7685   3.751   2.997  12.440 -0.7458 -0.2811 -0.1713
  514TMC3    C2 7686   3.847   3.045  12.360 -0.1371 -0.3091  0.0361
  514TMC3    C3 7687   3.946   2.964  12.322  0.2997 -1.2833 -0.7892
  514TMC3    C4 7688   3.742   2.863  12.464  0.0807  0.7041 -1.0028
  514TMC3    C5 7689   3.835   2.783  12.414  0.1149  0.7898 -0.1011
  514TMC3    C6 7690   3.950   2.832  12.352  0.3591  0.5234 -0.0774
  514TMC3     C 7691   3.746   3.052  12.571 -0.2255  0.0317 -0.1621
  514TMC3     O 7692   3.713   2.979  12.662  0.3505  0.4841 -0.4555
  514TMC3     H 7693   3.833   3.143  12.315  1.8876  0.0976  0.3190
  514TMC3    H1 7694   3.652   2.822  12.508 -0.7542  1.6426 -1.8478
  514TMC3    H2 7695   4.027   2.757  12.330 -1.2219 -1.4279  1.0671
  514TMC3    C7 7696   3.863   2.680  12.515 -0.1071  0.5712 -0.6317
  514TMC3    C8 7697   4.080   3.016  12.302 -0.3216 -0.2685  0.1172
  514TMC3    O1 7698   3.903   2.575  12.476  0.2776  0.7137 -0.4902
  514TMC3    O2 7699   4.177   2.941  12.291  0.7591 -0.1011 -0.3354
  515MPD2     C 7700   0.892   0.928  15.151  0.5082 -0.4035 -0.1149
  515MPD2    C1 7701   0.978   0.833  15.108 -0.1981  0.0915 -0.4435
  515MPD2    C2 7702   1.098   0.836  15.169  0.2143 -0.1299 -0.4560
  515MPD2    C3 7703   1.136   0.925  15.274  0.6345 -0.2476  0.1220
  515MPD2    C4 7704   1.044   1.012  15.316  0.3932 -0.1695 -0.4219
  515MPD2    C5 7705   0.929   1.013  15.254 -0.1298  0.2041  0.5754
  515MPD2     H 7706   1.170   0.763  15.131  2.2034  0.6236  1.8920
  515MPD2    H1 7707   1.072   1.076  15.399 -2.5982  1.9353 -1.0324
  515MPD2    H2 7708   0.792   0.946  15.115  0.4384  1.6186  1.0862
  515MPD2    H3 7709   0.863   1.094  15.282  1.4052  1.8122 -0.4246
  515MPD2     N 7710   1.260   0.926  15.341  0.2980 -0.3144  0.0782
  515MPD2    H5 7711   1.292   0.983  15.418 -0.4330 -0.1765  0.2780
  515MPD2    N1 7712   0.947   0.736  15.011 -0.3058 -0.2870 -0.2658
  515MPD2    H7 7713   1.020   0.668  14.996 -1.2990 -0.8885 -2.2930
  516TMC3    C1 7714   0.834   0.613  14.842 -0.2572  0.1803 -0.4182
  516TMC3    C2 7715   0.778   0.635  14.721 -0.5760 -0.1682 -0.2886
  516TMC3    C3 7716   0.783   0.536  14.631  0.2079  0.3520  0.5903
  516TMC3    C4 7717   0.891   0.494  14.881 -0.6254  0.0034 -0.2987
  516TMC3    C5 7718   0.874   0.388  14.797  0.3521 -0.2179  0.7750
  516TMC3    C6 7719   0.812   0.407  14.673  0.8192  0.2194  0.2419
  516TMC3     C 7720   0.833   0.731  14.934  0.1114  0.2912 -0.9390
  516TMC3     O 7721   0.742   0.813  14.916  0.1399 -0.2427 -0.4287
  516TMC3     H 7722   0.741   0.732  14.691 -0.4785  0.2307  0.8554
  516TMC3    H1 7723   0.916   0.479  14.986  1.1263  0.5661 -0.6331
  516TMC3    H2 7724   0.809   0.326  14.602 -1.6640  0.2444  0.3109
  516TMC3    C7 7725   0.841   0.258  14.861 -0.1566  0.8417  0.3873
  516TMC3    C8 7726   0.722   0.576  14.503 -0.7119 -0.8172 -0.2633
  516TMC3    O1 7727   0.845   0.256  14.983 -0.2039  0.2603 -0.0036
  516TMC3    O2 7728   0.646   0.672  14.501  0.1919 -0.6561 -0.3822
  517MPD2     C 7729   0.971   2.110   0.188 -0.2344 -0.1823 -0.2556
  517MPD2    C1 7730   1.083   2.035   0.183  0.0999 -0.1079 -0.7233
  517MPD2    C2 7731   1.183   2.062   0.277  0.5971 -0.3258  0.0129
  517MPD2    C3 7732   1.162   2.151   0.375 -0.0369 -0.0133 -0.4066
  517MPD2    C4 7733   1.054   2.231   0.372 -0.2274 -0.4161 -0.6921
  517MPD2    C5 7734   0.955   2.210   0.283  0.5301  0.3471  0.0268
  517MPD2     H 7735   1.270   1.998   0.278 -0.2925 -1.5242  0.4092
  517MPD2    H1 7736   1.034   2.305   0.450  1.5447 -0.2930 -0.3648
  517MPD2    H2 7737   0.884   2.085   0.128 -0.6336 -0.5081  0.4509
  517MPD2    H3 7738   0.868   2.274   0.286 -0.4352 -0.9948  0.9973
  517MPD2     N 7739   1.253   2.177   0.477  0.1199 -0.2243  0.1565
  517MPD2    H5 7740   1.241   2.268   0.521 -2.8849  1.2680 -3.8088
  517MPD2    N1 7741   1.110   1.932   0.098 -0.5338 -0.3463 -0.0007
  517MPD2    H7 7742   1.202   1.889   0.106  0.4648  1.7279 -0.4140
  518TMC3    C1 7743   1.083   1.758  17.673  0.0592  0.3684 -0.2095
  518TMC3    C2 7744   1.009   1.651  17.627  0.6667  0.3769 -0.2392
  518TMC3    C3 7745   1.080   1.543  17.580  0.3395 -1.1941 -0.2452
  518TMC3    C4 7746   1.220   1.766  17.645 -0.3048  0.3108 -0.2688
  518TMC3    C5 7747   1.278   1.663  17.580  0.1715 -0.1387 -0.3208
  518TMC3    C6 7748   1.216   1.548  17.551  0.0694  0.2330 -0.2263
  518TMC3     C 7749   1.029   1.869   0.013  0.5788  0.9548 -0.0353
  518TMC3     O 7750   0.907   1.885   0.001  0.4580 -0.1146  0.5485
  518TMC3     H 7751   0.903   1.649  17.645  0.4500 -3.1976 -1.8779
  518TMC3    H1 7752   1.280   1.856  17.652 -2.0464  1.5284 -0.8517
  518TMC3    H2 7753   1.265   1.457  17.519 -3.3234 -1.8365  0.4548
  518TMC3    C7 7754   1.405   1.680  17.514 -0.1050  0.3450  0.2066
  518TMC3    C8 7755   1.010   1.412  17.549  0.0845  0.1029 -0.0645
  518TMC3    O1 7756   1.476   1.767  17.563 -0.7432 -0.3184  0.9156
  518TMC3    O2 7757   1.082   1.329  17.497 -0.7032 -0.1146 -0.4379
  519MPD2     C 7758   2.647   4.511  14.185 -0.0237  0.4530  0.2746
  519MPD2    C1 7759   2.617   4.630  14.123 -0.3888 -0.0357 -0.2265
  519MPD2    C2 7760   2.702   4.674  14.023 -0.9431 -0.0406  0.1073
  519MPD2    C3 7761   2.813   4.602  13.982  1.0784  0.5773  0.6554
  519MPD2    C4 7762   2.844   4.487  14.055  0.6676 -0.5356 -0.2823
  519MPD2    C5 7763   2.767   4.450  14.163 -0.0858  0.5154 -0.0370
  519MPD2     H 7764   2.681   0.036  13.977  1.5218  0.1176 -0.6913
  519MPD2    H1 7765   2.929   4.425  14.028 -1.0061 -2.7087 -0.5578
  519MPD2    H2 7766   2.590   4.463  14.264 -0.9663  1.2748  0.1040
  519MPD2    H3 7767   2.787   4.356  14.213  0.6380  0.7695  0.1406
  519MPD2     N 7768   2.893   4.656  13.885  0.6043 -0.6751 -0.5596
  519MPD2    H5 7769   2.976   4.600  13.869  1.4816  0.0290  1.5032
  519MPD2    N1 7770   2.496   4.702  14.159 -0.3913  0.0384 -0.0076
  519MPD2    H7 7771   2.438   4.671  14.236 -1.1051  0.8986 -0.1932
  520TMC3    C1 7772   2.970   0.030  13.692 -0.4760  0.5722  0.3183
  520TMC3    C2 7773   2.910   0.046  13.567  0.0219 -1.1383  0.4154
  520TMC3    C3 7774   2.939   4.689  13.468 -0.1335  0.7898  0.3155
  520TMC3    C4 7775   3.069   4.671  13.702  0.6860 -0.6864 -1.2576
  520TMC3    C5 7776   3.108   4.587  13.594 -0.1129  0.0761 -0.7099
  520TMC3    C6 7777   3.038   4.592  13.476 -0.3342 -0.1490  0.5794
  520TMC3     C 7778   2.876   0.032  13.802 -0.3968  0.2965 -0.7744
  520TMC3     O 7779   2.790   0.121  13.798  0.0047 -1.1530 -0.2158
  520TMC3     H 7780   2.832   0.119  13.547 -0.1254 -1.5090 -0.3689
  520TMC3    H1 7781   3.124   4.674  13.796 -1.1932  1.6259 -0.2303
  520TMC3    H2 7782   3.055   4.523  13.394 -0.6083 -0.8669  1.1191
  520TMC3    C7 7783   3.143   4.459  13.653 -0.6232  0.3439  0.5585
  520TMC3    C8 7784   2.864   4.691  13.344 -0.3516 -0.2712  0.8653
  520TMC3    O1 7785   3.097   4.442  13.768  0.5571  0.3438  0.1638
  520TMC3    O2 7786   2.913   4.628  13.253 -0.0352 -0.1922 -0.6147
  521MPD2     C 7787   3.565   3.261  17.602 -0.0238  0.6945  0.4502
  521MPD2    C1 7788   3.534   3.157  17.518  0.1531 -0.3566  0.5478
  521MPD2    C2 7789   3.637   3.102  17.440 -0.2134 -0.5839  0.0550
  521MPD2    C3 7790   3.764   3.153  17.440  0.4578  0.2323  0.0157
  521MPD2    C4 7791   3.795   3.256  17.530  0.2781 -0.0855 -0.3333
  521MPD2    C5 7792   3.692   3.316  17.593 -0.3686 -0.1656 -0.2356
  521MPD2     H 7793   3.611   3.027  17.366  1.6769 -0.5024 -0.7011
  521MPD2    H1 7794   3.894   3.296  17.546  0.1382 -0.0993  0.5717
  521MPD2    H2 7795   3.483   3.310  17.652 -1.2979 -0.5461 -0.4221
  521MPD2    H3 7796   3.716   3.404  17.653 -1.0526 -0.3872  0.3684
  521MPD2     N 7797   3.855   3.107  17.345 -0.1032  0.1282  0.2387
  521MPD2    H5 7798   3.822   3.042  17.274  0.1514  0.7336 -0.4376
  521MPD2    N1 7799   3.399   3.113  17.516  0.1044 -0.5277 -0.3338
  521MPD2    H7 7800   3.336   3.155  17.583  1.7306 -0.3230  1.0565
  522TMC3    C1 7801   4.064   3.097  17.245 -0.5287 -0.4518  0.3151
  522TMC3    C2 7802   4.194   3.073  17.261  0.1812 -0.0146 -0.6224
  522TMC3    C3 7803   4.274   3.052  17.150 -0.3160 -0.7077  0.3426
  522TMC3    C4 7804   4.003   3.120  17.127 -0.2538 -0.6502 -0.2416
  522TMC3    C5 7805   4.084   3.092  17.018  0.4238  0.4278  0.0767
  522TMC3    C6 7806   4.215   3.055  17.027 -0.1257  0.1467 -0.1694
  522TMC3     C 7807   3.990   3.130  17.362 -0.6185 -0.1518 -0.0707
  522TMC3     O 7808   4.045   3.149  17.470  0.0455  1.0332  0.2595
  522TMC3     H 7809   4.228   3.043  17.360  0.0542  0.1659 -0.5237
  522TMC3    H1 7810   3.896   3.132  17.120 -0.3282 -2.4122 -1.8057
  522TMC3    H2 7811   4.275   3.030  16.940 -0.8898  0.3364 -0.7514
  522TMC3    C7 7812   4.030   3.089  16.884  0.0859 -0.2059 -0.8245
  522TMC3    C8 7813   4.403   2.980  17.169 -0.5893 -0.5198  0.2396
  522TMC3    O1 7814   4.101   3.034  16.803 -0.3770 -0.3249  0.2986
  522TMC3    O2 7815   4.443   2.988  17.283 -0.1887  0.3089 -0.3649
  523MPD2     C 7816   1.366   3.500  10.030 -0.2782 -0.2149 -0.3754
  523MPD2    C1 7817   1.267   3.409  10.000 -0.3283  0.2567  0.3437
  523MPD2    C2 7818   1.150   3.461   9.943 -0.5745  0.0736  0.2042
  523MPD2    C3 7819   1.133   3.601   9.936  0.3314 -0.3180 -0.0933
  523MPD2    C4 7820   1.229   3.690   9.980  0.2641  0.0203 -0.3618
  523MPD2    C5 7821   1.347   3.637  10.032  1.0364  0.5757  0.3420
  523MPD2     H 7822   1.077   3.393   9.900  1.0501 -1.9125  0.5324
  523MPD2    H1 7823   1.216   3.797   9.973  1.4765  0.1214 -1.0408
  523MPD2    H2 7824   1.460   3.468  10.074 -0.7317 -0.7485  0.1998
  523MPD2    H3 7825   1.421   3.699  10.082  1.4556  0.5335 -0.2254
  523MPD2     N 7826   1.013   3.672   9.887  0.6064  0.1050 -0.2158
  523MPD2    H5 7827   1.023   3.772   9.878 -2.6327  0.3034 -1.5756
  523MPD2    N1 7828   1.294   3.273  10.008  0.1732 -0.0459 -0.4389
  523MPD2    H7 7829   1.388   3.250  10.035 -0.3726  0.4159  1.8454
  524TMC3    C1 7830   0.790   3.710   9.820 -0.3661 -0.6795 -0.3634
  524TMC3    C2 7831   0.683   3.665   9.744 -0.4906  0.5540 -1.0456
  524TMC3    C3 7832   0.587   3.760   9.720 -0.1820  0.4183 -0.0557
  524TMC3    C4 7833   0.801   3.835   9.881  0.3765  0.5558  0.1881
  524TMC3    C5 7834   0.708   3.923   9.838  0.0899  0.1552 -0.7786
  524TMC3    C6 7835   0.605   3.888   9.757 -0.2960 -0.4223  0.5398
  524TMC3     C 7836   0.894   3.613   9.853 -0.7682 -0.7164  0.1656
  524TMC3     O 7837   0.868   3.492   9.863  0.2342  0.0360 -0.5736
  524TMC3     H 7838   0.683   3.572   9.688 -0.1128 -0.9482  1.4499
  524TMC3    H1 7839   0.880   3.859   9.951  0.9700  3.8958 -1.6182
  524TMC3    H2 7840   0.524   3.960   9.752  0.1040 -0.1878 -2.2149
  524TMC3    C7 7841   0.694   4.051   9.914 -0.9224 -0.2486  0.6152
  524TMC3    C8 7842   0.504   3.733   9.606 -0.3156 -0.2854  0.5780
  524TMC3    O1 7843   0.761   4.056  10.016 -0.2102  0.1029  0.3589
  524TMC3    O2 7844   0.451   3.829   9.549  0.7776  0.0924  0.2735
  525MPD2     C 7845   3.723   4.448  14.232  0.3330  0.0260  0.0941
  525MPD2    C1 7846   3.832   4.467  14.325  0.2427 -0.0601  0.4283
  525MPD2    C2 7847   3.837   4.590  14.380 -0.1419  0.0117 -0.2380
  525MPD2    C3 7848   3.758   4.702  14.349 -0.2587  0.1759  0.2194
  525MPD2    C4 7849   3.649   4.674  14.271 -0.0233 -0.5732  0.2344
  525MPD2    C5 7850   3.639   4.551  14.207 -0.6548 -0.0206  1.3420
  525MPD2     H 7851   3.915   4.608  14.453  1.4168 -1.9189 -1.4380
  525MPD2    H1 7852   3.571   0.012  14.249 -0.8235 -1.2748  0.7820
  525MPD2    H2 7853   3.701   4.356  14.178  0.3895  0.4267 -0.6178
  525MPD2    H3 7854   3.546   4.544  14.151 -1.2397  2.6009  1.9768
  525MPD2     N 7855   3.774   0.096  14.402  0.6741  0.7611  0.4437
  525MPD2    H5 7856   3.702   0.164  14.380  0.5569  0.6347  0.4406
  525MPD2    N1 7857   3.914   4.358  14.373  0.0033  0.0255 -0.3143
  525MPD2    H7 7858   3.990   4.378  14.437  0.5299 -1.1795 -0.5584
  526TMC3    C1 7859   3.963   4.151  14.450 -0.2737 -0.1658 -0.3651
  526TMC3    C2 7860   3.887   4.071  14.528  1.0271  0.0306  0.1533
  526TMC3    C3 7861   3.948   4.001  14.629  0.4210 -0.1332  0.5910
  526TMC3    C4 7862   4.100   4.164  14.461 -0.2082  0.3444  0.2148
  526TMC3    C5 7863   4.154   4.089  14.553  0.0785  0.4928 -0.1798
  526TMC3    C6 7864   4.085   3.999  14.629  0.2899 -0.0055 -0.1566
  526TMC3     C 7865   3.891   4.224  14.353  0.8447  0.1532  0.0948
  526TMC3     O 7866   3.803   4.166  14.287  0.1200  0.0733 -0.2122
  526TMC3     H 7867   3.786   4.040  14.503 -0.5045  1.8662  4.0080
  526TMC3    H1 7868   4.154   4.223  14.388 -0.7492  0.0944 -0.3975
  526TMC3    H2 7869   4.144   3.937  14.695  2.7246  0.9991 -1.3764
  526TMC3    C7 7870   4.297   4.057  14.547 -0.0887  0.0257 -0.0386
  526TMC3    C8 7871   3.879   3.981  14.755  0.3294 -0.4134  0.0040
  526TMC3    O1 7872   4.364   4.074  14.445  0.0412  1.2848 -0.0562
  526TMC3    O2 7873   3.951   3.949  14.849  0.3274  0.3918  0.7035
  527MPD2     C 7874   1.802   2.228   1.608 -0.7098  0.0739  0.0035
  527MPD2    C1 7875   1.804   2.233   1.471 -0.2787 -0.5022  0.7352
  527MPD2    C2 7876   1.934   2.238   1.418  0.5664 -0.3745  0.2905
  527MPD2    C3 7877   2.049   2.222   1.497 -0.9999  0.3650 -0.0522
  527MPD2    C4 7878   2.035   2.218   1.632 -0.0390 -0.1460  0.0489
  527MPD2    C5 7879   1.909   2.217   1.686  0.2746  0.0433  0.0655
  527MPD2     H 7880   1.947   2.257   1.312 -2.3349 -2.5521 -0.4637
  527MPD2    H1 7881   2.121   2.219   1.697  0.0862 -0.4607 -0.1124
  527MPD2    H2 7882   1.710   2.227   1.665 -0.4528  0.2653  0.4254
  527MPD2    H3 7883   1.900   2.230   1.793  1.3317  3.0246 -0.2038
  527MPD2     N 7884   2.175   2.203   1.438  0.4087 -0.3183  0.0895
  527MPD2    H5 7885   2.172   2.216   1.337 -1.7884 -2.3703 -0.1104
  527MPD2    N1 7886   1.696   2.245   1.385 -0.3303  0.0481  0.3312
  527MPD2    H7 7887   1.714   2.240   1.285  3.0575 -0.1222  0.9238
  528TMC3    C1 7888   1.472   2.215   1.327 -0.0255  0.2347  0.0778
  528TMC3    C2 7889   1.442   2.300   1.221  0.1637  0.0532  0.5649
  528TMC3    C3 7890   1.310   2.309   1.188 -0.3683 -0.4954  0.2794
  528TMC3    C4 7891   1.383   2.137   1.386 -0.6270 -0.0500  0.1553
  528TMC3    C5 7892   1.254   2.154   1.358  0.6034 -0.0401  0.0374
  528TMC3    C6 7893   1.216   2.225   1.250  0.2799 -0.9776  0.7880
  528TMC3     C 7894   1.566   2.263   1.427  0.1019 -0.2458  0.0366
  528TMC3     O 7895   1.537   2.280   1.545 -0.1644 -0.4143 -0.0060
  528TMC3     H 7896   1.521   2.367   1.191 -2.2204  2.2488 -0.7906
  528TMC3    H1 7897   1.411   2.092   1.481  1.5071  0.1357 -0.3876
  528TMC3    H2 7898   1.111   2.251   1.243  0.7983  0.9748  0.2930
  528TMC3    C7 7899   1.154   2.070   1.415  0.4640  0.2277 -0.9131
  528TMC3    C8 7900   1.276   2.402   1.081  0.2843 -0.1523  0.0444
  528TMC3    O1 7901   1.040   2.105   1.384 -0.0259  0.0316 -0.1168
  528TMC3    O2 7902   1.367   2.483   1.060 -0.0083 -0.1659  0.2872
  529MPD2     C 7903   4.516   1.138   1.298 -0.2355  0.5620  0.3715
  529MPD2    C1 7904   4.487   1.034   1.209 -0.3269 -0.2713 -0.2362
  529MPD2    C2 7905   4.438   1.066   1.085 -0.9502 -0.0960  0.2236
  529MPD2    C3 7906   4.419   1.200   1.047  0.9454  0.2254  0.9130
  529MPD2    C4 7907   4.479   1.297   1.126  0.5658  0.7844 -0.4541
  529MPD2    C5 7908   4.519   1.263   1.253  0.4547  0.0993  0.3719
  529MPD2     H 7909   4.415   0.988   1.014  0.9930 -0.3909 -0.0663
  529MPD2    H1 7910   4.474   1.398   1.087 -1.3225  1.1301  0.7213
  529MPD2    H2 7911   4.557   1.126   1.397 -1.2644 -1.6115  0.5276
  529MPD2    H3 7912   4.551   1.338   1.324  2.0965 -1.9056  1.7591
  529MPD2     N 7913   4.363   1.226   0.927 -0.1631 -0.2607 -0.6379
  529MPD2    H5 7914   4.368   1.321   0.893 -0.1699  0.0485  0.2250
  529MPD2    N1 7915   4.497   0.897   1.245 -0.2901  0.2184 -0.2559
  529MPD2    H7 7916   4.483   0.832   1.168  1.0191 -1.9623  1.3257
  530TMC3    C1 7917   4.579   0.710   1.347  1.0292  0.5985  0.1135
  530TMC3    C2 7918   4.676   0.658   1.437 -0.0063  0.8703 -0.5617
  530TMC3    C3 7919   4.716   0.527   1.427  0.4840 -0.1038 -0.2525
  530TMC3    C4 7920   4.523   0.627   1.252  0.3695 -0.1149 -0.1677
  530TMC3    C5 7921   4.545   0.495   1.272  0.0668  0.0262  0.5243
  530TMC3    C6 7922   4.641   0.443   1.355 -0.3978 -0.5999 -0.0105
  530TMC3     C 7923   4.555   0.848   1.359  0.2713  0.9028  0.1821
  530TMC3     O 7924   4.595   0.900   1.464  0.2534  0.2224 -0.4230
  530TMC3     H 7925   4.725   0.725   1.507  0.4952  1.5836 -1.5870
  530TMC3    H1 7926   4.452   0.662   1.178 -0.7113  0.0886  0.9665
  530TMC3    H2 7927   4.655   0.335   1.360 -2.3466 -0.8442  0.5690
  530TMC3    C7 7928   4.483   0.405   1.172  1.1620 -0.3472  0.2356
  530TMC3    C8 7929   0.064   0.477   1.537  0.5705  0.5243  0.9676
  530TMC3    O1 7930   4.453   0.457   1.063 -0.4436  0.2136 -0.0142
  530TMC3    O2 7931   0.067   0.553   1.635  0.4004 -0.5569 -0.3973
  531MPD2     C 7932   3.865   2.527  13.025 -0.3949 -0.4458  0.5486
  531MPD2    C1 7933   3.841   2.662  13.013 -0.3058  0.2747  0.2604
  531MPD2    C2 7934   3.843   2.725  12.887  0.0607  1.0599  0.7540
  531MPD2    C3 7935   3.859   2.649  12.772 -0.9225 -0.8535  0.1988
  531MPD2    C4 7936   3.882   2.515  12.782 -0.7291 -0.9853 -0.8157
  531MPD2    C5 7937   3.881   2.458  12.910 -0.4031  0.1988 -0.3060
  531MPD2     H 7938   3.829   2.832  12.879  0.7542  1.1729  1.0910
  531MPD2    H1 7939   3.899   2.457  12.692 -0.1662  0.3101 -1.5548
  531MPD2    H2 7940   3.867   2.475  13.120 -1.2386  0.7518  1.2280
  531MPD2    H3 7941   3.903   2.352  12.915  0.6388  0.4253 -0.1602
  531MPD2     N 7942   3.840   2.721  12.648  0.0959  0.0332  0.1367
  531MPD2    H5 7943   3.803   2.815  12.655 -1.9722 -0.6567 -1.8939
  531MPD2    N1 7944   3.823   2.737  13.134 -0.2104  0.4601  0.1058
  531MPD2    H7 7945   3.852   2.683  13.215  3.3682  2.0155 -0.1185
  532TMC3    C1 7946   3.815   2.935  13.257  0.1275 -0.3239 -0.1729
  532TMC3    C2 7947   3.791   3.075  13.244  0.1629  0.0089 -0.2537
  532TMC3    C3 7948   3.894   3.159  13.267  0.5810 -0.3581  0.3830
  532TMC3    C4 7949   3.934   2.886  13.314  0.8631  0.6579  0.0864
  532TMC3    C5 7950   4.029   2.979  13.356 -0.7707 -0.7376  0.1584
  532TMC3    C6 7951   4.013   3.112  13.324  0.2077  0.2618 -0.3148
  532TMC3     C 7952   3.778   2.868  13.142 -0.5334  0.1477 -0.7603
  532TMC3     O 7953   3.742   2.945  13.054 -0.0642 -0.0140  0.5606
  532TMC3     H 7954   3.706   3.119  13.192  0.6217  0.0933 -0.9410
  532TMC3    H1 7955   3.968   2.783  13.307 -0.8991 -0.0385  1.5012
  532TMC3    H2 7956   4.096   3.182  13.333  0.7393 -0.4708  0.4666
  532TMC3    C7 7957   4.151   2.942  13.418  0.0018  0.6403 -0.5989
  532TMC3    C8 7958   3.909   3.258  13.163 -0.1963  0.7527 -0.1225
  532TMC3    O1 7959   4.242   3.024  13.423  0.2511 -0.2230 -0.3833
  532TMC3    O2 7960   3.932   3.375  13.192 -0.1105 -0.4162  0.0084
  533TMC3    C1 7961   3.878   0.281  14.518  0.3674 -0.0035 -0.2038
  533TMC3    C2 7962   4.001   0.332  14.558  0.1245 -0.2115 -0.6443
  533TMC3    C3 7963   4.001   0.449  14.628  0.2631  0.0647  0.3506
  533TMC3    C4 7964   3.760   0.348  14.552 -0.8437  0.1784 -0.6636
  533TMC3    C5 7965   3.770   0.462  14.632  0.3316  0.3069  0.5188
  533TMC3    C6 7966   3.886   0.524  14.661 -0.2482  0.0096 -0.2555
  533TMC3     C 7967   3.889   0.144  14.465  0.1377 -0.2340 -0.0164
  533TMC3     O 7968   3.994   0.088  14.490 -0.4711 -0.8725  0.0396
  533TMC3     H 7969   4.102   0.293  14.549  0.8701  1.7641 -0.9425
  533TMC3    H1 7970   3.661   0.309  14.529 -0.5234 -1.4886  0.7930
  533TMC3    H2 7971   3.900   0.626  14.696 -1.0977  0.0510 -0.0332
  533TMC3    C7 7972   3.655   0.517  14.697  0.4270  0.7542  0.4401
  533TMC3    C8 7973   4.099   0.530  14.569  0.3052  0.4376 -0.6061
  533TMC3    O1 7974   3.545   0.531  14.638 -0.0589  0.5035  0.1054
  533TMC3    O2 7975   4.083   0.556  14.453 -0.5246  0.0895 -0.1012
  534MPD2     C 7976   2.487   0.648   1.216 -0.4438 -0.7707  0.1270
  534MPD2    C1 7977   2.395   0.699   1.310 -0.5936 -0.5143 -0.1637
  534MPD2    C2 7978   2.259   0.662   1.292 -0.5824  0.7838 -0.0274
  534MPD2    C3 7979   2.218   0.589   1.179 -1.0956 -0.1880  0.1095
  534MPD2    C4 7980   2.312   0.549   1.085 -0.2911  0.3266 -0.8586
  534MPD2    C5 7981   2.444   0.578   1.106 -0.0832  0.1892 -0.8241
  534MPD2     H 7982   2.192   0.695   1.371  1.2987  1.3759  1.3433
  534MPD2    H1 7983   2.286   0.489   0.999 -2.5219 -0.9175  0.6922
  534MPD2    H2 7984   2.594   0.652   1.226 -0.5531  2.5517 -0.2457
  534MPD2    H3 7985   2.513   0.542   1.030  0.2094  1.6173 -1.2351
  534MPD2     N 7986   2.085   0.565   1.145  0.3248  0.2563  0.8489
  534MPD2    H5 7987   2.066   0.538   1.049 -0.3282  0.8375  0.8145
  534MPD2    N1 7988   2.428   0.786   1.415  0.6866 -0.0616  0.0090
  534MPD2    H7 7989   2.357   0.814   1.482 -0.5586 -1.8760 -0.5531
  535TMC3    C1 7990   1.851   0.574   1.131  0.6951  0.0195 -0.3984
  535TMC3    C2 7991   1.736   0.522   1.191 -0.2389 -0.0928 -0.4404
  535TMC3    C3 7992   1.628   0.497   1.111 -0.1718 -0.5552 -1.1774
  535TMC3    C4 7993   1.863   0.592   0.999  0.0527 -0.5309 -0.2364
  535TMC3    C5 7994   1.749   0.562   0.928  0.2891  0.5528 -0.5989
  535TMC3    C6 7995   1.636   0.498   0.977  1.1668 -0.1353  0.0686
  535TMC3     C 7996   1.971   0.579   1.217  0.3621  0.3471 -0.0052
  535TMC3     O 7997   1.948   0.594   1.334  0.8619  0.6282  0.2801
  535TMC3     H 7998   1.736   0.499   1.297 -0.2256 -0.4915 -0.5272
  535TMC3    H1 7999   1.956   0.624   0.953  0.1223  1.0880  1.0514
  535TMC3    H2 8000   1.546   0.484   0.918  1.1449 -0.5097  0.1870
  535TMC3    C7 8001   1.733   0.653   0.808  0.2540 -0.2855  0.0004
  535TMC3    C8 8002   1.508   0.448   1.165  0.2632 -0.5564  0.0608
  535TMC3    O1 8003   1.646   0.614   0.730  0.4932 -0.0748  0.4592
  535TMC3    O2 8004   1.412   0.423   1.089  0.3902  0.5712 -0.6254
  536MPD2     C 8005   0.819   3.989  16.558  0.1968  0.0157 -0.5869
  536MPD2    C1 8006   0.707   3.907  16.541  0.1537 -0.2023  0.5726
  536MPD2    C2 8007   0.602   3.938  16.458  0.2654  0.7644 -0.2297
  536MPD2    C3 8008   0.615   4.050  16.378  0.7864 -0.2657  0.2366
  536MPD2    C4 8009   0.721   4.135  16.394  0.0224  0.5345  0.3547
  536MPD2    C5 8010   0.817   4.110  16.489  0.0478  0.8120  0.3020
  536MPD2     H 8011   0.524   3.864  16.447  0.4035  0.8747 -1.8257
  536MPD2    H1 8012   0.737   4.224  16.335  0.4554  0.6048  0.5763
  536MPD2    H2 8013   0.902   3.967  16.624  0.2293 -0.0285 -0.6435
  536MPD2    H3 8014   0.909   4.166  16.490  0.8071 -0.4533  0.4596
  536MPD2     N 8015   0.526   4.081  16.275 -0.1856  0.8906 -0.0599
  536MPD2    H5 8016   0.551   4.156  16.213 -1.2817  0.2759 -1.2431
  536MPD2    N1 8017   0.702   3.799  16.627  0.3676  1.1123  0.1875
  536MPD2    H7 8018   0.782   3.768  16.682  0.4557 -2.5521 -2.0438
  537TMC3    C1 8019   0.604   3.614  16.748 -0.3884  0.1556 -0.4969
  537TMC3    C2 8020   0.731   3.591  16.796  0.1819  0.4872  0.7923
  537TMC3    C3 8021   0.734   3.517  16.917 -0.0070 -0.4851  0.2117
  537TMC3    C4 8022   0.492   3.555  16.800 -0.3512  0.0828  0.3296
  537TMC3    C5 8023   0.494   3.489  16.919  0.0739 -0.0885  0.3705
  537TMC3    C6 8024   0.619   3.469  16.971 -0.2483 -0.1102 -0.0676
  537TMC3     C 8025   0.585   3.725  16.654 -0.4630  0.5314 -0.0589
  537TMC3     O 8026   0.471   3.747  16.621  0.0276  0.2113  0.2880
  537TMC3     H 8027   0.818   3.639  16.754  1.2264 -0.8919  1.3962
  537TMC3    H1 8028   0.396   3.575  16.755  0.5487  2.2655 -0.6744
  537TMC3    H2 8029   0.630   3.406  17.058 -0.2863  0.7394  0.5534
  537TMC3    C7 8030   0.389   3.402  16.950 -0.4648 -0.3691  0.3455
  537TMC3    C8 8031   0.849   3.544  17.001 -0.1350 -0.1579 -0.2380
  537TMC3    O1 8032   0.306   3.388  16.864 -0.7416  0.7446  0.1236
  537TMC3    O2 8033   0.938   3.610  16.948  0.0831 -0.0575 -0.2604
  538TMC3    C1 8034   1.728   2.867  11.176 -0.1110 -0.3683  0.5248
  538TMC3    C2 8035   1.839   2.806  11.114 -0.1497  0.3629  0.6052
  538TMC3    C3 8036   1.855   2.843  10.984  0.4904 -0.0621 -0.1948
  538TMC3    C4 8037   1.619   2.903  11.100 -0.2491  0.6831 -0.1662
  538TMC3    C5 8038   1.631   2.906  10.967 -0.1913 -0.2400  0.0554
  538TMC3    C6 8039   1.748   2.884  10.910 -0.3288  0.3897  0.0925
  538TMC3     C 8040   1.715   2.845  11.315  0.3854  0.5671 -0.4873
  538TMC3     O 8041   1.610   2.786  11.339  0.0033 -0.2513 -0.2472
  538TMC3     H 8042   1.910   2.770  11.187  2.1395 -0.1006 -1.8431
  538TMC3    H1 8043   1.533   2.933  11.159 -0.4459 -1.9993  0.9223
  538TMC3    H2 8044   1.770   2.893  10.804  0.7142  0.5484  0.3232
  538TMC3    C7 8045   1.506   2.942  10.903 -0.1031 -0.2076 -0.4253
  538TMC3    C8 8046   1.965   2.779  10.926  0.5752  0.5257  0.3199
  538TMC3    O1 8047   1.396   2.935  10.959 -0.3530  0.6187 -0.2162
  538TMC3    O2 8048   2.009   2.682  10.993  0.4315  0.0062  0.0824
  539MPD2     C 8049   1.671   2.254  11.356  0.0064  0.8707  0.7955
  539MPD2    C1 8050   1.550   2.223  11.294  0.0801  0.1106 -0.1855
  539MPD2    C2 8051   1.474   2.326  11.249 -0.4444  0.1972  0.3030
  539MPD2    C3 8052   1.508   2.457  11.278 -0.9883  0.2090 -0.4432
  539MPD2    C4 8053   1.616   2.484  11.355 -0.2801  0.4358 -0.5752
  539MPD2    C5 8054   1.701   2.385  11.383  0.1083 -0.1434  0.9128
  539MPD2     H 8055   1.386   2.311  11.187 -0.9314  0.4187  0.9381
  539MPD2    H1 8056   1.652   2.582  11.385 -3.6281  1.7040 -0.7236
  539MPD2    H2 8057   1.737   2.184  11.406  1.1075  1.8624  0.7371
  539MPD2    H3 8058   1.796   2.403  11.434 -0.2667  3.4678  0.3374
  539MPD2     N 8059   1.428   2.572  11.252 -0.2114 -0.7013  0.2369
  539MPD2    H5 8060   1.445   2.666  11.288  1.2226  0.3664 -3.1271
  539MPD2    N1 8061   1.516   2.085  11.269 -0.2813  0.6836  0.7679
  539MPD2    H7 8062   1.439   2.061  11.207  0.0430 -1.5741  1.2536
  540TMC3    C1 8063   1.266   2.705  11.134  0.0448 -0.1053 -0.0668
  540TMC3    C2 8064   1.193   2.708  11.018  0.4178 -0.6561  0.0102
  540TMC3    C3 8065   1.107   2.809  11.000  0.0297  1.0249  0.6889
  540TMC3    C4 8066   1.259   2.806  11.218  0.0618 -0.3284  0.2122
  540TMC3    C5 8067   1.164   2.903  11.198 -0.8880 -0.1140 -0.3898
  540TMC3    C6 8068   1.095   2.914  11.086  0.6352  0.3048 -0.2996
  540TMC3     C 8069   1.317   2.577  11.162 -0.0965 -0.3114  0.6421
  540TMC3     O 8070   1.268   2.480  11.107 -0.6025 -0.4684  0.6847
  540TMC3     H 8071   1.190   2.615  10.963  1.6414  1.5293 -3.8214
  540TMC3    H1 8072   1.302   2.804  11.317 -1.9821  1.3302  1.1424
  540TMC3    H2 8073   1.018   2.989  11.077  0.9221  0.8486  1.7759
  540TMC3    C7 8074   1.092   2.934  11.314  0.7483 -0.0404 -0.0267
  540TMC3    C8 8075   1.066   2.843  10.865 -0.0687  0.5110  0.0683
  540TMC3    O1 8076   0.977   2.892  11.305 -0.2953 -0.0780 -0.8743
  540TMC3    O2 8077   0.991   2.942  10.848  0.0104 -0.6509 -0.2916
  541MPD2     C 8078   0.131   3.813  13.322  0.3802 -0.1034 -0.1535
  541MPD2    C1 8079   0.185   3.720  13.241  0.1864 -0.1742 -0.6410
  541MPD2    C2 8080   0.267   3.757  13.136  0.4001 -0.5226  0.3542
  541MPD2    C3 8081   0.278   3.893  13.109 -0.9930  0.6203 -0.3768
  541MPD2    C4 8082   0.225   3.983  13.195 -0.2198 -0.1717 -0.5882
  541MPD2    C5 8083   0.159   3.943  13.303  0.6658 -1.2194 -0.0590
  541MPD2     H 8084   0.320   3.685  13.075 -0.5532 -0.4560 -0.5455
  541MPD2    H1 8085   0.243   4.087  13.173  4.1177 -0.7174  0.3768
  541MPD2    H2 8086   0.069   3.776  13.402  1.8826  1.8840  1.9190
  541MPD2    H3 8087   0.110   4.016  13.366 -0.0339  0.2624 -2.3087
  541MPD2     N 8088   0.332   3.958  12.995 -0.0575 -0.0348  0.0124
  541MPD2    H5 8089   0.325   4.059  12.994 -1.7450 -0.1241  1.7271
  541MPD2    N1 8090   0.160   3.585  13.280  0.3602  0.1853  0.2547
  541MPD2    H7 8091   0.098   3.580  13.360  1.2142 -0.0180  0.9041
  542TMC3    C1 8092   0.423   3.974  12.781  0.3968  0.7149  0.5719
  542TMC3    C2 8093   0.414   3.931  12.648 -0.8032  0.2172  0.2658
  542TMC3    C3 8094   0.384   4.017  12.548 -0.4731  0.3087 -0.7343
  542TMC3    C4 8095   0.414   4.109  12.809 -0.4011 -0.4937  0.3632
  542TMC3    C5 8096   0.381   4.192  12.706 -0.2612 -0.0489 -0.7127
  542TMC3    C6 8097   0.369   4.157  12.575  0.7271  0.1511 -0.1301
  542TMC3     C 8098   0.372   3.888  12.881 -0.0052 -0.0769  0.6503
  542TMC3     O 8099   0.360   3.766  12.853  0.6536  0.3840 -0.0581
  542TMC3     H 8100   0.397   3.825  12.638  1.6718 -0.2402  1.0749
  542TMC3    H1 8101   0.434   4.155  12.904 -1.3682  1.9367 -0.6163
  542TMC3    H2 8102   0.363   4.225  12.491 -1.2381 -0.4352 -0.4627
  542TMC3    C7 8103   0.344   4.330  12.756  0.0678  0.8634  1.3344
  542TMC3    C8 8104   0.378   3.971  12.411 -0.1996 -0.1388 -0.1593
  542TMC3    O1 8105   0.342   4.345  12.877 -0.2019 -0.1384  0.1315
  542TMC3    O2 8106   0.320   4.038  12.329 -0.4060  0.2242 -0.4299
  543TMC3    C1 8107   3.569   4.553  17.523  0.2970 -0.3758 -0.3291
  543TMC3    C2 8108   3.638   4.431  17.534 -0.3703  0.5730 -0.7928
  543TMC3    C3 8109   3.630   4.367  17.654 -0.4567  0.2475 -0.2187
  543TMC3    C4 8110   3.486   4.600  17.618  0.0174  0.5261 -0.0968
  543TMC3    C5 8111   3.487   4.536   0.004  0.1225 -0.1155 -0.5205
  543TMC3    C6 8112   3.549   4.415   0.023  0.0203 -0.5984  0.3413
  543TMC3     C 8113   3.588   4.637  17.402 -0.1639 -0.0760 -0.0367
  543TMC3     O 8114   3.513   0.000  17.390 -0.1460  0.1523  0.0986
  543TMC3     H 8115   3.695   4.386  17.454 -0.8782  0.2987 -1.0013
  543TMC3    H1 8116   3.449   4.701  17.614 -1.7041 -0.1020  0.0537
  543TMC3    H2 8117   3.556   4.359   0.115  0.9474  0.1519  0.7181
  543TMC3    C7 8118   3.417   4.605   0.119  0.7793  0.2938 -0.2918
  543TMC3    C8 8119   3.680   4.231  17.667  0.3499 -0.1698  0.3307
  543TMC3    O1 8120   3.433   4.561   0.232 -0.0237 -0.1160 -0.1342
  543TMC3    O2 8121   3.741   4.197  17.566 -0.1758  0.5014 -0.0600
  544MPD2     C 8122   3.865   3.818   0.173 -0.3947 -0.4183  0.2586
  544MPD2    C1 8123   3.850   3.840   0.038 -0.0451  0.0105 -0.4860
  544MPD2    C2 8124   3.797   3.960  17.734 -0.6212  0.5855  0.4705
  544MPD2    C3 8125   3.769   4.060   0.096 -0.4916 -0.2038 -0.1193
  544MPD2    C4 8126   3.775   4.030   0.228 -0.6482 -0.0808 -0.5671
  544MPD2    C5 8127   3.838   3.912   0.269  0.1159  0.1028 -0.1516
  544MPD2     H 8128   3.770   3.975  17.630 -1.4271 -1.3509  0.4085
  544MPD2    H1 8129   3.744   4.096   0.308  1.8637  1.6016 -0.9874
  544MPD2    H2 8130   3.895   3.720   0.211 -0.2740 -0.2255  0.6629
  544MPD2    H3 8131   3.837   3.899   0.376 -0.7689  0.0192 -0.1694
  544MPD2     N 8132   3.707   4.182   0.058  0.0955  0.4659  0.5322
  544MPD2    H5 8133   3.676   4.233   0.140 -0.9509 -2.8499  2.2023
  544MPD2    N1 8134   3.916   3.755  17.684  0.6830  0.4073  0.3421
  544MPD2    H7 8135   3.977   3.682  17.721  2.9054  1.5937 -0.9840
  545TMC3    C1 8136   3.958   3.628  17.492 -0.3399  0.4483 -0.0924
  545TMC3    C2 8137   3.913   3.604  17.362  0.1044  0.2992 -0.3631
  545TMC3    C3 8138   3.981   3.522  17.287  0.5083 -0.4084 -0.1934
  545TMC3    C4 8139   4.081   3.588  17.533 -0.0837 -0.7625  0.1091
  545TMC3    C5 8140   4.143   3.504  17.449  0.0734  0.7205 -0.2392
  545TMC3    C6 8141   4.095   3.459  17.326 -0.1920  0.4213 -0.2091
  545TMC3     C 8142   3.906   3.752  17.551 -0.2388 -0.0310  0.0130
  545TMC3     O 8143   3.846   3.834  17.476  0.1177  0.3173  0.0620
  545TMC3     H 8144   3.814   3.638  17.333  0.5492  1.1209 -0.9045
  545TMC3    H1 8145   4.116   3.623  17.630 -0.4578 -2.1822  0.7633
  545TMC3    H2 8146   4.154   3.386  17.270 -0.9685  1.8444 -2.8731
  545TMC3    C7 8147   4.281   3.476  17.482 -0.6177 -0.4266 -0.1910
  545TMC3    C8 8148   3.953   3.536  17.149  0.5455 -0.1985  0.5557
  545TMC3    O1 8149   4.346   3.566  17.536 -0.8928  0.2296  0.1028
  545TMC3    O2 8150   3.852   3.589  17.121  0.1411 -0.6355  1.1318
  546MPD2     C 8151   0.846   4.606  17.210  0.1377 -0.4022 -0.6232
  546MPD2    C1 8152   0.775   4.666  17.313  0.0405 -0.4786 -0.3818
  546MPD2    C2 8153   0.804   0.061  17.347  0.4618 -0.4040  0.2033
  546MPD2    C3 8154   0.903   0.131  17.277  0.1860  0.6836 -0.5182
  546MPD2    C4 8155   0.964   0.070  17.176  0.1291  0.8319  0.2414
  546MPD2    C5 8156   0.946   4.672  17.146  0.4254  0.0738 -0.4509
  546MPD2     H 8157   0.759   0.109  17.434  0.2393 -2.6596  1.3538
  546MPD2    H1 8158   1.030   0.124  17.109 -0.2056 -1.3292 -1.8419
  546MPD2    H2 8159   0.818   4.507  17.175  0.0208 -0.3326 -0.7231
  546MPD2    H3 8160   1.003   4.641  17.060 -0.1475 -1.2395 -0.3546
  546MPD2     N 8161   0.922   0.273  17.287 -0.0215 -0.1641 -0.9010
  546MPD2    H5 8162   1.001   0.311  17.236  0.7756 -0.7666 -0.1161
  546MPD2    N1 8163   0.667   4.600  17.377  0.4471  0.8830 -0.5432
  546MPD2    H7 8164   0.659   4.502  17.350  1.1251  0.3648  1.1456
  547TMC3    C1 8165   0.513   4.532  17.540 -0.2091  0.4974  0.0274
  547TMC3    C2 8166   0.410   4.481  17.463  0.8672 -0.1445  0.1980
  547TMC3    C3 8167   0.302   4.429  17.530  0.2812  0.0280  0.1707
  547TMC3    C4 8168   0.510   4.509  17.672 -0.4828 -0.2912  0.5112
  547TMC3    C5 8169   0.404   4.450  17.732  0.3596 -0.1759  0.1039
  547TMC3    C6 8170   0.297   4.405  17.658 -0.6869  0.2040 -0.3421
  547TMC3     C 8171   0.606   4.632  17.498  0.0081 -1.4006 -0.0567
  547TMC3     O 8172   0.626   4.718  17.581  0.0378  0.6098 -0.5521
  547TMC3     H 8173   0.410   4.489  17.355  1.2320  1.8898  0.3506
  547TMC3    H1 8174   0.587   4.558  17.730 -0.2926 -0.8937  0.7740
  547TMC3    H2 8175   0.214   4.356  17.709 -1.3937 -0.3988 -2.0836
  547TMC3    C7 8176   0.372   4.465   0.139 -0.8719 -0.0452  0.0548
  547TMC3    C8 8177   0.182   4.422  17.445  0.6473 -0.6241  0.0944
  547TMC3    O1 8178   0.258   4.433   0.168 -0.2204  0.3041  0.1484
  547TMC3    O2 8179   0.200   4.407  17.322  0.1811 -0.0744 -0.2258
  548MPD2     C 8180   0.376   1.100  12.281 -0.1338 -0.2550  0.3674
  548MPD2    C1 8181   0.344   0.970  12.320 -0.9048 -0.2253 -0.1583
  548MPD2    C2 8182   0.427   0.866  12.288 -0.3375  0.3773 -0.2652
  548MPD2    C3 8183   0.544   0.892  12.216  0.3498 -0.1895 -0.5048
  548MPD2    C4 8184   0.580   1.021  12.181 -0.1042 -0.0806 -0.4967
  548MPD2    C5 8185   0.490   1.128  12.211  0.4689  0.9750 -0.2131
  548MPD2     H 8186   0.396   0.765  12.313 -0.4792  0.7657  1.0985
  548MPD2    H1 8187   0.670   1.038  12.123  0.9431 -0.1823  1.0919
  548MPD2    H2 8188   0.309   1.181  12.307  1.8930  2.0360 -1.5641
  548MPD2    H3 8189   0.507   1.228  12.171  1.1855  0.6924 -0.6097
  548MPD2     N 8190   0.639   0.792  12.178 -0.0392 -0.2504  0.2252
  548MPD2    H5 8191   0.723   0.823  12.131 -1.1239  0.7935 -1.0160
  548MPD2    N1 8192   0.226   0.952  12.395 -0.5436  0.9340  0.6963
  548MPD2    H7 8193   0.183   1.040  12.422 -1.1305  0.0155  2.6819
  549TMC3    C1 8194   0.098   0.843  12.559  0.4294  0.0683  0.3529
  549TMC3    C2 8195   4.730   0.934  12.544 -0.1946 -0.1980 -0.5994
  549TMC3    C3 8196   4.635   0.922  12.642 -0.4860 -0.1196 -0.6454
  549TMC3    C4 8197   0.110   0.752  12.660 -0.1760 -0.0341 -0.4318
  549TMC3    C5 8198   0.018   0.758  12.758 -0.0454  0.0774  0.9703
  549TMC3    C6 8199   4.649   0.843  12.751  0.4092 -0.4150 -0.2368
  549TMC3     C 8200   0.187   0.828  12.449 -0.3835  0.1536  0.4288
  549TMC3     O 8201   0.216   0.712  12.425 -0.1661 -0.0394 -0.1547
  549TMC3     H 8202   4.712   0.985  12.451  1.0878  1.3350 -0.0009
  549TMC3    H1 8203   0.187   0.678  12.642  0.2265  0.5225 -1.0058
  549TMC3    H2 8204   4.568   0.843  12.823  0.2246  2.1651 -0.4446
  549TMC3    C7 8205   0.026   0.669  12.878  0.4275  0.2420  0.3919
  549TMC3    C8 8206   4.524   1.017  12.635  0.2912  0.6155 -0.6821
  549TMC3    O1 8207   4.675   0.689  12.966  0.0270  0.0897  0.5006
  549TMC3    O2 8208   4.421   0.986  12.688  0.1195 -0.0464  0.1682
  550TMC3    C1 8209   0.104   3.516  12.225 -0.2040 -0.0764  0.4187
  550TMC3    C2 8210   0.098   3.463  12.354 -0.1853  0.1633  0.4422
  550TMC3    C3 8211   0.123   3.553  12.452  0.9719 -0.6142  0.0878
  550TMC3    C4 8212   0.121   3.646  12.191  0.6024 -0.8258  0.4704
  550TMC3    C5 8213   0.140   3.732  12.291  0.4150 -0.4354 -0.4581
  550TMC3    C6 8214   0.163   3.684  12.420 -0.6795 -0.6763 -0.2267
  550TMC3     C 8215   0.021   3.452  12.129 -0.2332 -0.4004  0.1030
  550TMC3     O 8216   0.048   3.339  12.087  0.0158 -0.0372  0.2292
  550TMC3     H 8217   0.049   3.367  12.367  0.2209 -0.2903 -1.4370
  550TMC3    H1 8218   0.091   3.672  12.090  2.2791 -0.5644  0.0238
  550TMC3    H2 8219   0.175   3.757  12.498  0.8301 -1.6712  0.4745
  550TMC3    C7 8220   0.015   3.815  12.294 -0.5010  0.2227 -0.0393
  550TMC3    C8 8221   0.015   3.562  12.555 -0.2966  1.4085 -0.1535
  550TMC3    O1 8222   4.645   3.751  12.281  0.7945 -0.3150  0.0702
  550TMC3    O2 8223   4.718   3.676  12.593 -0.8597  1.1020 -0.0285
  551TMC3    C1 8224   1.590   1.301  13.261 -0.3850  0.5155  0.4634
  551TMC3    C2 8225   1.708   1.360  13.225  0.3725  0.1087  0.3776
  551TMC3    C3 8226   1.807   1.370  13.320  0.2776  0.1673 -0.2231
  551TMC3    C4 8227   1.562   1.253  13.384 -0.4250 -0.5655  0.4068
  551TMC3    C5 8228   1.656   1.269  13.475  0.2010 -0.7114 -0.2797
  551TMC3    C6 8229   1.781   1.318  13.445 -0.0148 -0.5670 -0.0326
  551TMC3     C 8230   1.478   1.305  13.170  0.6538 -0.5705 -0.0407
  551TMC3     O 8231   1.398   1.213  13.171  0.8323  0.6959 -0.4502
  551TMC3     H 8232   1.722   1.395  13.124  1.6200 -1.2485  0.0867
  551TMC3    H1 8233   1.469   1.202  13.406 -0.4275 -0.3273  0.9349
  551TMC3    H2 8234   1.856   1.318  13.524 -1.7753 -0.8156  1.6344
  551TMC3    C7 8235   1.632   1.239  13.615  0.4657 -0.4443 -0.4416
  551TMC3    C8 8236   1.940   1.413  13.279  0.4024 -0.4425  0.4740
  551TMC3    O1 8237   1.723   1.177  13.667 -0.0464 -0.6119  0.2630
  551TMC3    O2 8238   2.027   1.337  13.313 -0.5463  0.1401 -0.3547
  552MPD2     C 8239   3.734   3.061  13.679 -0.4156  0.2796  0.5821
  552MPD2    C1 8240   3.731   3.002  13.802 -0.5996 -0.4369  0.4141
  552MPD2    C2 8241   3.817   3.043  13.901  0.2685  0.4225  0.3243
  552MPD2    C3 8242   3.894   3.154  13.888  0.0673  0.0195 -0.0686
  552MPD2    C4 8243   3.898   3.206  13.766 -0.1362  0.2813  0.1933
  552MPD2    C5 8244   3.819   3.160  13.662  0.4981  0.2997  0.6235
  552MPD2     H 8245   3.825   2.990  13.996  0.8337  0.5863  0.3671
  552MPD2    H1 8246   3.961   3.290  13.740  1.7389 -0.8127  1.2498
  552MPD2    H2 8247   3.666   3.033  13.599  0.6437 -1.8409  0.4102
  552MPD2    H3 8248   3.814   3.206  13.563  1.2877 -0.2827  0.3128
  552MPD2     N 8249   3.971   3.206  13.990  0.0967 -0.3483 -0.0176
  552MPD2    H5 8250   4.024   3.289  13.965 -1.7576  0.2315 -1.9477
  552MPD2    N1 8251   3.635   2.900  13.832  0.4594  0.2206 -0.0734
  552MPD2    H7 8252   3.636   2.863  13.926 -0.3160 -0.0678 -0.1789
  553TMC3    C1 8253   3.478   2.718  13.808  0.0362  0.5360 -0.4394
  553TMC3    C2 8254   3.471   2.606  13.737  0.0818 -0.1090  0.1466
  553TMC3    C3 8255   3.515   2.492  13.798 -0.0604  0.2492  0.6934
  553TMC3    C4 8256   3.516   2.717  13.940 -0.2352 -0.6483  0.6263
  553TMC3    C5 8257   3.561   2.606  14.000 -0.8789  0.6341 -0.3799
  553TMC3    C6 8258   3.558   2.493  13.924  0.7985  0.1369  0.4126
  553TMC3     C 8259   3.538   2.835  13.747  0.1111 -0.2000 -0.2119
  553TMC3     O 8260   3.520   2.856  13.630  0.0483 -0.0910  0.2044
  553TMC3     H 8261   3.439   2.604  13.634  2.2440  1.8427 -0.5793
  553TMC3    H1 8262   3.493   2.803  14.002  1.4267  0.3078 -0.0687
  553TMC3    H2 8263   3.608   2.405  13.963 -0.4360 -1.6774 -2.1008
  553TMC3    C7 8264   3.659   2.618  14.111  0.6668  0.0434  0.7191
  553TMC3    C8 8265   3.557   2.377  13.716 -1.2451  0.1993  0.4978
  553TMC3    O1 8266   3.699   2.732  14.129 -0.5067 -0.1390  0.3146
  553TMC3    O2 8267   3.631   2.299  13.774 -0.1101  0.1526  0.1072
  554TMC3    C1 8268   0.228   2.531  11.511  0.1481  0.1054  0.7264
  554TMC3    C2 8269   0.119   2.574  11.443  0.0922  0.6237  0.0163
  554TMC3    C3 8270   0.136   2.678  11.353  0.4154  0.1479  0.6739
  554TMC3    C4 8271   0.349   2.599  11.514  0.2945 -0.0210 -0.3426
  554TMC3    C5 8272   0.350   2.703  11.425  0.3154 -0.0244  0.0971
  554TMC3    C6 8273   0.247   2.741  11.341 -0.5833 -0.1870 -0.5683
  554TMC3     C 8274   0.205   2.428  11.606  0.2651 -0.2221  0.4286
  554TMC3     O 8275   0.094   2.420  11.656  0.0443 -0.0930  0.1122
  554TMC3     H 8276   0.029   2.516  11.457  0.4475 -0.0944 -0.6678
  554TMC3    H1 8277   0.418   2.589  11.597  1.7459 -1.4800 -1.7290
  554TMC3    H2 8278   0.258   2.828  11.277 -2.0256 -0.4772 -1.2055
  554TMC3    C7 8279   0.474   2.779  11.434  0.0524  0.4865  0.4096
  554TMC3    C8 8280   0.063   2.661  11.227 -0.3969 -0.1273 -0.1683
  554TMC3    O1 8281   0.559   2.746  11.518 -0.3854  0.2581  0.3201
  554TMC3    O2 8282   0.126   2.688  11.127 -0.2810  0.2324 -0.4270
  555TMC3    C1 8283   4.349   1.746  14.902  0.4589  0.1702  0.6597
  555TMC3    C2 8284   4.425   1.801  15.001 -0.1214 -0.3502  0.1169
  555TMC3    C3 8285   4.435   1.753  15.124 -0.5028 -0.9439  0.2286
  555TMC3    C4 8286   4.286   1.626  14.923  0.4455 -0.8130 -0.3626
  555TMC3    C5 8287   4.308   1.570  15.046  0.1217 -0.0307 -0.2574
  555TMC3    C6 8288   4.377   1.631  15.150 -0.6824  0.1533  0.1372
  555TMC3     C 8289   4.376   1.802  14.770 -0.5449 -0.0587 -0.7337
  555TMC3     O 8290   4.475   1.870  14.751 -0.1344  0.2161  0.1354
  555TMC3     H 8291   4.476   1.895  14.984 -1.3829  0.2405 -0.4331
  555TMC3    H1 8292   4.240   1.576  14.839  2.7744 -0.5293 -1.8167
  555TMC3    H2 8293   4.388   1.583  15.247 -0.0011 -1.1835 -0.6044
  555TMC3    C7 8294   4.296   1.424  15.053 -0.2649 -0.2989 -0.0163
  555TMC3    C8 8295   4.447   1.855  15.228  0.0274  0.2435 -0.1821
  555TMC3    O1 8296   4.318   1.380  15.169 -0.1388 -0.3022 -0.2872
  555TMC3    O2 8297   4.396   1.963  15.215 -0.1297  0.0865  0.1758
  556MPD2     C 8298   2.279   3.935  10.428 -0.6234 -0.3041 -0.2751
  556MPD2    C1 8299   2.311   3.847  10.526  0.0559  0.1570  0.1579
  556MPD2    C2 8300   2.321   3.711  10.498 -0.8710  0.4979  0.1126
  556MPD2    C3 8301   2.289   3.661  10.371  0.7386  0.6615  0.2024
  556MPD2    C4 8302   2.250   3.751  10.276 -0.2364  0.1006  0.4222
  556MPD2    C5 8303   2.239   3.884  10.307  0.2817  0.8577 -0.7561
  556MPD2     H 8304   2.351   3.646  10.580 -1.2042 -0.3565 -0.4385
  556MPD2    H1 8305   2.210   3.713  10.183  0.0238  0.0261  0.3391
  556MPD2    H2 8306   2.263   4.042  10.439 -2.7589 -0.5126 -1.2751
  556MPD2    H3 8307   2.208   3.958  10.234 -0.2789  0.5892 -0.7909
  556MPD2     N 8308   2.315   3.521  10.344  0.7141 -0.2588  0.1979
  556MPD2    H5 8309   2.334   3.462  10.424  0.0636 -1.5931 -0.6440
  556MPD2    N1 8310   2.357   3.886  10.656  0.2384  0.2088  0.0775
  556MPD2    H7 8311   2.411   3.816  10.706 -0.6622 -0.7110 -0.2574
  557TMC3    C1 8312   2.329   3.320  10.214  0.0011  0.4188 -0.4569
  557TMC3    C2 8313   2.338   3.264  10.092 -0.2469 -0.1200  0.0145
  557TMC3    C3 8314   2.323   3.123  10.086  0.1678 -0.5260 -0.7740
  557TMC3    C4 8315   2.321   3.240  10.329  0.7185 -0.0393 -1.0511
  557TMC3    C5 8316   2.308   3.108  10.321  0.3427  0.3865 -0.0325
  557TMC3    C6 8317   2.295   3.045  10.195  0.4545 -0.7327  0.3228
  557TMC3     C 8318   2.313   3.464  10.218 -0.4759 -0.3278 -0.6392
  557TMC3     O 8319   2.310   3.520  10.109 -0.6180  0.4421 -0.2716
  557TMC3     H 8320   2.341   3.321  10.000 -1.8530  0.1253  0.1065
  557TMC3    H1 8321   2.333   3.288  10.425  0.5878 -1.4114 -0.3408
  557TMC3    H2 8322   2.243   2.952  10.179  1.4181 -0.6822 -3.2661
  557TMC3    C7 8323   2.279   3.041  10.443  0.3356  0.7971  0.3647
  557TMC3    C8 8324   2.315   3.062   9.949  0.3781 -0.0316  0.3476
  557TMC3    O1 8325   2.286   3.105  10.550 -0.2211  0.1478 -0.1987
  557TMC3    O2 8326   2.288   3.144   9.859 -0.0153 -0.2852  0.0218
  558TMC3    C1 8327   4.388   1.664  10.177 -0.0097  1.1053 -0.4039
  558TMC3    C2 8328   4.310   1.711  10.283  0.3118 -0.4599  0.3469
  558TMC3    C3 8329   4.182   1.759  10.265  0.9748  0.0853  0.1895
  558TMC3    C4 8330   4.341   1.673  10.056 -0.4536 -0.5342 -0.5075
  558TMC3    C5 8331   4.217   1.730  10.035 -0.0760 -0.2437  0.7235
  558TMC3    C6 8332   4.130   1.768  10.138 -0.5986 -0.0986  0.4810
  558TMC3     C 8333   4.537   1.646  10.190  0.1608 -0.1972  0.3875
  558TMC3     O 8334   4.588   1.573  10.103  0.3188 -0.3950 -0.0574
  558TMC3     H 8335   4.345   1.706  10.386  1.1271 -2.6589 -0.0190
  558TMC3    H1 8336   4.408   1.646   9.976 -0.9540 -0.8151 -0.8303
  558TMC3    H2 8337   4.039   1.824  10.120  0.0888  0.7368 -0.4102
  558TMC3    C7 8338   4.193   1.778   9.904 -0.3974 -0.4893  0.4045
  558TMC3    C8 8339   4.095   1.806  10.374 -0.4847  0.2835 -0.3092
  558TMC3    O1 8340   4.284   1.773   9.822  0.1559 -0.2558 -0.7295
  558TMC3    O2 8341   3.987   1.852  10.352  0.2475  0.0570  0.0070
  559MPD2     C 8342   4.394   2.017  10.057 -0.9464  0.3459 -0.0688
  559MPD2    C1 8343   4.401   2.075  10.184  0.4099 -0.7083 -0.0936
  559MPD2    C2 8344   4.523   2.084  10.248  0.5224  0.2387 -0.1913
  559MPD2    C3 8345   4.636   2.025  10.194  0.6409 -0.5413 -0.7677
  559MPD2    C4 8346   4.631   1.963  10.071  0.1134  0.1918  0.8481
  559MPD2    C5 8347   4.511   1.959  10.002 -0.6383  0.4059  0.3789
  559MPD2     H 8348   4.544   2.135  10.341 -0.1222 -0.6805  0.4640
  559MPD2    H1 8349   4.712   1.922  10.012  0.1737  0.7656  0.5278
  559MPD2    H2 8350   4.299   2.010  10.006  0.6723  0.5827 -3.1133
  559MPD2    H3 8351   4.494   1.926   9.900  1.0104 -0.4955  0.3898
  559MPD2     N 8352   0.018   2.033  10.273 -0.2000  0.0877  0.0322
  559MPD2    H5 8353   0.016   2.060  10.371 -0.5042  2.2278 -0.5615
  559MPD2    N1 8354   4.279   2.119  10.243  0.0898 -0.2878 -0.0670
  559MPD2    H7 8355   4.194   2.122  10.187 -0.4575 -1.6362  0.6744
  560TMC3    C1 8356   0.247   2.015  10.322  0.3131  0.1759 -0.0443
  560TMC3    C2 8357   0.201   1.999  10.453 -0.2341  0.6087  0.0519
  560TMC3    C3 8358   0.286   2.038  10.551 -0.7157 -0.2230 -0.4707
  560TMC3    C4 8359   0.373   2.060  10.297 -0.4673 -0.1321  0.8275
  560TMC3    C5 8360   0.450   2.099  10.397 -0.6997 -0.4743 -0.6319
  560TMC3    C6 8361   0.412   2.085  10.528 -0.4364  0.4797  0.0417
  560TMC3     C 8362   0.145   2.008  10.223  0.6419 -0.6566 -0.0553
  560TMC3     O 8363   0.181   2.001  10.110  0.2259 -0.4698  0.0593
  560TMC3     H 8364   0.103   1.966  10.487 -0.9844  0.8764 -1.8645
  560TMC3    H1 8365   0.414   2.079  10.199  0.8865  0.3046  1.4782
  560TMC3    H2 8366   0.474   2.129  10.605 -0.1311  0.6006 -0.2762
  560TMC3    C7 8367   0.594   2.083  10.372 -0.2076 -0.6003  0.0765
  560TMC3    C8 8368   0.243   1.996  10.682  0.9429  0.1319  0.4602
  560TMC3    O1 8369   0.616   1.999  10.287  0.0661  0.3856 -0.2412
  560TMC3    O2 8370   0.123   1.989  10.700 -0.2682 -0.0364  0.3778
  561TMC3    C1 8371   2.747   1.105  10.926  1.0483 -0.5216 -0.5271
  561TMC3    C2 8372   2.719   1.035  11.040  0.5178  0.3980  0.2212
  561TMC3    C3 8373   2.591   1.042  11.080 -0.7173  0.1959 -0.1142
  561TMC3    C4 8374   2.650   1.187  10.873  0.0896  1.0186 -0.4548
  561TMC3    C5 8375   2.520   1.195  10.924 -0.3061  0.5940 -0.8851
  561TMC3    C6 8376   2.491   1.115  11.027  0.1075 -0.0561  0.4277
  561TMC3     C 8377   2.886   1.130  10.895 -0.1556  0.0277  0.2766
  561TMC3     O 8378   2.905   1.187  10.788 -0.1884 -0.0733 -0.5076
  561TMC3     H 8379   2.786   0.970  11.095 -1.6479 -0.7006  1.5354
  561TMC3    H1 8380   2.667   1.238  10.779 -0.8448  3.4750  0.7239
  561TMC3    H2 8381   2.388   1.109  11.059 -0.2686 -0.3355 -0.8283
  561TMC3    C7 8382   2.438   1.315  10.927  0.2794 -0.1870  0.6160
  561TMC3    C8 8383   2.548   0.967  11.192 -0.1280 -1.2048 -0.2919
  561TMC3    O1 8384   2.318   1.313  10.949 -0.2658 -0.0441 -0.1205
  561TMC3    O2 8385   2.571   0.848  11.186  0.0512  0.8041  0.2819
  562TMC3    C1 8386   4.258   2.120  16.037 -0.0848 -0.0516  0.0100
  562TMC3    C2 8387   4.163   2.214  16.006 -0.4509  0.0426  0.4557
  562TMC3    C3 8388   4.123   2.221  15.877  0.5984 -0.6388 -0.0642
  562TMC3    C4 8389   4.290   2.019  15.949  0.3802  0.5342 -0.2944
  562TMC3    C5 8390   4.251   2.036  15.813 -0.0838  0.3812  1.1413
  562TMC3    C6 8391   4.159   2.129  15.780 -0.5592 -0.5617 -0.4234
  562TMC3     C 8392   4.327   2.123  16.163  0.3739 -0.6399 -0.1739
  562TMC3     O 8393   4.418   2.043  16.178  0.5338 -0.4935 -0.3612
  562TMC3     H 8394   4.129   2.287  16.078 -1.5845  2.4477 -2.5440
  562TMC3    H1 8395   4.363   1.943  15.974  1.6167  0.6440 -3.4875
  562TMC3    H2 8396   4.124   2.140  15.678  3.2443  0.6842 -1.6050
  562TMC3    C7 8397   4.278   1.934  15.720  0.5108  0.1991 -0.6653
  562TMC3    C8 8398   4.004   2.292  15.858 -0.2297 -0.2812 -0.0949
  562TMC3    O1 8399   4.249   1.948  15.605 -0.1272  0.3154  0.1810
  562TMC3    O2 8400   3.930   2.305  15.956 -0.0991 -0.1993  0.2826
  563MPD2     C 8401   1.914   3.613  15.824 -0.3415 -0.0075 -0.3224
  563MPD2    C1 8402   1.970   3.589  15.946 -0.1792  0.0325  0.1114
  563MPD2    C2 8403   2.084   3.518  15.953  0.1628  0.5374  0.3710
  563MPD2    C3 8404   2.145   3.483  15.836  0.2713 -0.1494  0.0615
  563MPD2    C4 8405   2.100   3.518  15.713 -0.0439 -0.8747 -0.5825
  563MPD2    C5 8406   1.978   3.579  15.711 -0.0676 -0.6474  0.9066
  563MPD2     H 8407   2.124   3.487  16.049 -0.8987  2.3564  1.3955
  563MPD2    H1 8408   2.134   3.486  15.615  0.6589 -0.0940 -0.5936
  563MPD2    H2 8409   1.813   3.650  15.814  0.1622  1.2629 -0.6964
  563MPD2    H3 8410   1.936   3.585  15.611 -2.3928  0.0408  1.9157
  563MPD2     N 8411   2.259   3.397  15.846 -0.0112  0.0781 -0.1786
  563MPD2    H5 8412   2.300   3.395  15.939 -0.1116  2.2580 -0.0721
  563MPD2    N1 8413   1.887   3.626  16.060 -0.4218  0.2906 -0.1039
  563MPD2    H7 8414   1.793   3.660  16.047 -1.1346 -1.6330  0.0777
  564TMC3    C1 8415   1.827   3.613  16.282  0.0551  0.2370  0.7700
  564TMC3    C2 8416   1.714   3.558  16.220  0.3181  0.2234 -0.0443
  564TMC3    C3 8417   1.652   3.452  16.281 -0.1546 -0.0756 -0.1457
  564TMC3    C4 8418   1.873   3.572  16.403  0.5741  0.9452  0.3186
  564TMC3    C5 8419   1.803   3.476  16.465 -0.0832 -0.5924  0.6270
  564TMC3    C6 8420   1.687   3.415  16.415  0.2417 -0.5974  0.2730
  564TMC3     C 8421   1.937   3.637  16.184  0.4066  0.4536 -0.0007
  564TMC3     O 8422   2.053   3.635  16.224  0.8334 -0.1668  0.4064
  564TMC3     H 8423   1.666   3.614  16.141  1.7465 -0.7208 -1.5936
  564TMC3    H1 8424   1.957   3.614  16.457 -0.6979 -0.4620  3.3967
  564TMC3    H2 8425   1.631   3.341  16.471 -0.1259 -0.5545 -0.0420
  564TMC3    C7 8426   1.899   3.378  16.520  0.0676  0.3921 -1.2152
  564TMC3    C8 8427   1.657   3.331  16.205  0.7622  0.6502 -0.0665
  564TMC3    O1 8428   1.990   3.427  16.587  0.0437 -0.7465 -0.0570
  564TMC3    O2 8429   1.671   3.231  16.280  0.4027 -0.4415 -0.2817
  565TMC3    C1 8430   1.754   0.056  10.119  0.1117 -0.4977 -0.3336
  565TMC3    C2 8431   1.797   4.710  10.214  0.3344 -0.1070 -0.5847
  565TMC3    C3 8432   1.713   4.612  10.241  0.4390 -0.3007  0.4789
  565TMC3    C4 8433   1.625   0.047  10.070 -0.0208  0.4183 -0.1103
  565TMC3    C5 8434   1.542   4.681  10.103 -0.0817  0.5569  0.2326
  565TMC3    C6 8435   1.578   4.600  10.203  0.6667  0.1965  0.0230
  565TMC3     C 8436   1.831   0.173  10.085 -0.0028 -1.1240 -1.0660
  565TMC3     O 8437   1.796   0.213   9.977  0.0159 -0.3850  0.2506
  565TMC3     H 8438   1.903   4.698  10.233  0.1787  1.1509  1.0701
  565TMC3    H1 8439   1.599   0.124   9.998  0.3969 -0.9338 -1.7163
  565TMC3    H2 8440   1.512   4.516  10.224  1.2800 -0.3006 -0.0725
  565TMC3    C7 8441   1.403   4.682  10.049 -0.2581  0.4217  0.5907
  565TMC3    C8 8442   1.771   4.511  10.319 -0.6604 -0.5920  0.6849
  565TMC3    O1 8443   1.387   0.007   9.941  0.1701  0.3175 -0.0944
  565TMC3    O2 8444   1.847   4.544  10.411 -0.0827  0.0111  0.6593
  566MPD2     C 8445   3.378   1.156  14.408  0.7069  0.0033 -0.6344
  566MPD2    C1 8446   3.479   1.119  14.337 -0.2326  0.1376  0.2965
  566MPD2    C2 8447   3.457   1.016  14.239  0.4919 -0.2066 -0.3178
  566MPD2    C3 8448   3.330   0.969  14.215 -0.0439 -0.2504  0.1639
  566MPD2    C4 8449   3.225   1.017  14.288  0.5830 -0.3077  0.3106
  566MPD2    C5 8450   3.249   1.111  14.387 -0.3802  0.5781 -0.6566
  566MPD2     H 8451   3.541   0.988  14.177  0.5329 -0.5253 -0.1181
  566MPD2    H1 8452   3.124   0.977  14.280  0.6282  0.0212 -1.8100
  566MPD2    H2 8453   3.396   1.221  14.493  2.0017 -1.2496  0.0571
  566MPD2    H3 8454   3.167   1.141  14.451  0.8501  0.8236  0.7917
  566MPD2     N 8455   3.294   0.875  14.125  0.0052 -0.1746  0.1220
  566MPD2    H5 8456   3.198   0.846  14.144 -0.5070  1.1665 -0.4409
  566MPD2    N1 8457   3.599   1.192  14.355 -0.5605 -0.3769 -0.0664
  566MPD2    H7 8458   3.590   1.261  14.430 -0.1427 -1.3818  0.9106
  567TMC3    C1 8459   3.834   1.236  14.359 -0.5395  0.3680 -0.1426
  567TMC3    C2 8460   3.945   1.245  14.274 -0.1792  0.3666  0.0372
  567TMC3    C3 8461   4.056   1.310  14.315  0.3119  0.1707  0.6043
  567TMC3    C4 8462   3.838   1.291  14.488 -0.1047 -0.0671  0.2529
  567TMC3    C5 8463   3.953   1.337  14.533  0.9148  0.2964  0.2252
  567TMC3    C6 8464   4.064   1.354  14.447  0.0066  0.5319  0.2423
  567TMC3     C 8465   3.718   1.167  14.296  0.3537  0.5312  0.1737
  567TMC3     O 8466   3.754   1.087  14.209 -0.7040  0.0433 -0.1307
  567TMC3     H 8467   3.943   1.205  14.173 -2.5391  0.6404 -0.0316
  567TMC3    H1 8468   3.756   1.289  14.559 -1.4268  0.8048 -1.2279
  567TMC3    H2 8469   4.155   1.402  14.479  1.7938 -2.2006 -0.7877
  567TMC3    C7 8470   3.971   1.383  14.672 -0.4637 -0.3350 -0.1820
  567TMC3    C8 8471   4.116   1.390  14.203 -0.3074 -0.2239 -0.2032
  567TMC3    O1 8472   4.016   1.494  14.690 -0.1893  0.2684 -0.1788
  567TMC3    O2 8473   4.068   1.374  14.094 -0.2484 -0.1108  0.0572
  568MPD2     C 8474   2.010   1.954  16.532 -0.0585 -0.7551 -0.2202
  568MPD2    C1 8475   1.928   2.042  16.605 -0.6098 -0.5046 -0.5932
  568MPD2    C2 8476   1.922   2.174  16.560 -0.2817 -0.2061 -0.5839
  568MPD2    C3 8477   1.975   2.208  16.437 -0.2331  0.8125 -0.2670
  568MPD2    C4 8478   2.042   2.117  16.357  0.5242 -0.5624 -0.4129
  568MPD2    C5 8479   2.057   1.996  16.409 -0.1512 -0.2164  0.7169
  568MPD2     H 8480   1.871   2.250  16.619 -1.2575 -1.0002 -0.4218
  568MPD2    H1 8481   2.074   2.131  16.255  2.4796 -0.3648  0.2340
  568MPD2    H2 8482   2.033   1.854  16.567  1.1868 -1.2737 -2.4816
  568MPD2    H3 8483   2.119   1.921  16.361 -0.1529 -2.3019  3.8996
  568MPD2     N 8484   1.948   2.340  16.411 -0.4972 -0.4808  0.0213
  568MPD2    H5 8485   1.885   2.394  16.469 -0.4494 -1.5656  1.0747
  568MPD2    N1 8486   1.873   1.998  16.722 -0.3743 -0.2220  0.7141
  568MPD2    H7 8487   1.888   1.900  16.747 -1.5617 -0.7359 -0.5483
  569TMC3    C1 8488   1.938   2.542  16.303  0.3105 -0.3534  0.1447
  569TMC3    C2 8489   1.850   2.576  16.402 -0.3859  0.0984 -0.1695
  569TMC3    C3 8490   1.746   2.660  16.369 -0.4858  0.0622  0.6734
  569TMC3    C4 8491   1.919   2.589  16.174 -0.2908 -0.8065  0.4352
  569TMC3    C5 8492   1.816   2.671  16.146 -0.0389 -0.7803  0.1975
  569TMC3    C6 8493   1.724   2.703  16.242  0.9596  0.9184  0.6615
  569TMC3     C 8494   1.995   2.411  16.304 -0.1229  0.8936  0.6542
  569TMC3     O 8495   2.049   2.360  16.207  0.4235 -0.3757 -0.0318
  569TMC3     H 8496   1.865   2.547  16.505 -0.7409 -0.2396 -0.2124
  569TMC3    H1 8497   2.001   2.563  16.108 -0.4432 -1.2302  0.4166
  569TMC3    H2 8498   1.631   2.757  16.231 -0.2607 -0.9373  1.7806
  569TMC3    C7 8499   1.832   2.757  16.030 -0.9702 -1.4904 -0.1460
  569TMC3    C8 8500   1.675   2.739  16.466  0.5133  0.9133 -0.2084
  569TMC3    O1 8501   1.918   2.728  15.945  0.0005  0.2610  0.2546
  569TMC3    O2 8502   1.560   2.768  16.439 -0.2001  0.1663 -0.6314
  570TMC3    C1 8503   0.658   0.715  16.212  0.6860 -0.1325  0.1775
  570TMC3    C2 8504   0.707   0.810  16.134  0.7120 -0.8819  0.2056
  570TMC3    C3 8505   0.763   0.924  16.192  0.1899  0.3179  0.1020
  570TMC3    C4 8506   0.649   0.739  16.349 -0.7121 -0.3098 -0.7209
  570TMC3    C5 8507   0.701   0.856  16.404  0.0581  0.1143  0.0810
  570TMC3    C6 8508   0.756   0.957  16.327 -0.5707  0.4542  0.2955
  570TMC3     C 8509   0.631   0.578  16.150 -0.3758 -0.1404  0.0875
  570TMC3     O 8510   0.623   0.571  16.031 -0.0870 -0.4452 -0.2257
  570TMC3     H 8511   0.714   0.797  16.026 -0.2080 -1.7102  0.2403
  570TMC3    H1 8512   0.585   0.667  16.400  1.3724 -1.0761  0.8329
  570TMC3    H2 8513   0.803   1.047  16.366 -2.5442  1.6270 -0.0409
  570TMC3    C7 8514   0.670   0.881  16.542 -0.1455 -0.2209 -0.5968
  570TMC3    C8 8515   0.833   1.022  16.107  0.0622  0.2467 -0.0220
  570TMC3    O1 8516   0.639   0.787  16.619  0.2520  0.1405  0.9452
  570TMC3    O2 8517   0.885   1.114  16.167 -0.4732 -0.5003 -0.2370
  571MPD2     C 8518   4.003   2.487   0.009  0.4647 -0.0090  0.0005
  571MPD2    C1 8519   3.924   2.397   0.073  0.1496 -0.0410 -0.4988
  571MPD2    C2 8520   3.802   2.441   0.107  0.3979 -0.4239  0.4986
  571MPD2    C3 8521   3.763   2.571   0.093  0.4325 -0.2043  0.8578
  571MPD2    C4 8522   3.843   2.663   0.025 -0.7320  0.4737 -0.3040
  571MPD2    C5 8523   3.967   2.617  17.717  0.1467 -0.2020 -0.9764
  571MPD2     H 8524   3.741   2.379   0.171 -1.5940 -0.5021 -1.5093
  571MPD2    H1 8525   3.814   2.767   0.013  0.3366  0.3916 -3.5882
  571MPD2    H2 8526   4.104   2.472  17.710  0.7823  4.3013 -0.9635
  571MPD2    H3 8527   4.049   2.680  17.686  0.0508 -0.3437 -1.5119
  571MPD2     N 8528   3.640   2.624   0.135  0.2575  0.3619  0.0999
  571MPD2    H5 8529   3.608   2.702   0.078 -0.5986 -0.5200 -0.6267
  571MPD2    N1 8530   3.972   2.259   0.098  0.9325  0.2657 -0.8094
  571MPD2    H7 8531   4.065   2.247   0.060  0.3965 -2.4781 -1.2158
  572TMC3    C1 8532   3.447   2.657   0.278 -0.1099  0.2728 -0.5324
  572TMC3    C2 8533   3.353   2.601   0.361  0.1914 -0.6858  0.7819
  572TMC3    C3 8534   3.246   2.670   0.399 -1.1694 -0.3375 -0.5253
  572TMC3    C4 8535   3.433   2.785   0.230  0.5902 -0.1233  0.7009
  572TMC3    C5 8536   3.324   2.855   0.272 -0.4561  0.0228  0.0962
  572TMC3    C6 8537   3.224   2.797   0.356  0.1702  0.5561  1.0262
  572TMC3     C 8538   3.563   2.579   0.240  0.4227 -0.0352  0.2928
  572TMC3     O 8539   3.578   2.472   0.303 -0.0486  0.2673 -0.3457
  572TMC3     H 8540   3.371   2.501   0.399  2.8737 -0.3298  0.4182
  572TMC3    H1 8541   3.499   2.830   0.157  0.7428 -0.7357  0.4643
  572TMC3    H2 8542   3.128   2.840   0.379 -0.8067 -1.7649  1.2495
  572TMC3    C7 8543   3.328   2.993   0.260  0.5403 -0.3273 -0.3236
  572TMC3    C8 8544   3.140   2.598   0.467  0.3095  0.3356 -0.3055
  572TMC3    O1 8545   3.438   3.038   0.231  0.8580  0.1652  0.3646
  572TMC3    O2 8546   3.136   2.478   0.442 -0.0367 -0.0226 -0.4386
  573MPD2     C 8547   4.154   2.247   0.425  0.6416 -0.2834 -0.6829
  573MPD2    C1 8548   4.178   2.379   0.419  0.6143  0.1868  0.2501
  573MPD2    C2 8549   4.250   2.418   0.312  0.2863  0.7396 -0.5188
  573MPD2    C3 8550   4.309   2.330   0.219  0.3772  0.0602 -0.4132
  573MPD2    C4 8551   4.288   2.195   0.233  0.3345 -0.3582  0.0640
  573MPD2    C5 8552   4.206   2.151   0.339 -0.1524  0.3834 -0.2112
  573MPD2     H 8553   4.264   2.525   0.310 -1.6490  0.9760 -1.6324
  573MPD2    H1 8554   4.315   2.122   0.158  1.8237  0.2838 -0.0162
  573MPD2    H2 8555   4.092   2.202   0.502  1.5200  1.1202  0.8316
  573MPD2    H3 8556   4.188   2.045   0.348  0.2363  0.3510  0.1868
  573MPD2     N 8557   4.384   2.370   0.099  0.0011 -0.2400  0.5583
  573MPD2    H5 8558   4.435   2.299   0.048 -0.3303  0.8675 -1.3128
  573MPD2    N1 8559   4.135   2.457   0.522  0.0151  0.5207  0.0526
  573MPD2    H7 8560   4.102   2.408   0.604 -0.0053  0.5482  0.0607
  574TMC3    C1 8561   4.472   2.528  17.676  0.0883  0.2765  0.7578
  574TMC3    C2 8562   4.512   2.659  17.653  0.2211  0.6075 -0.3833
  574TMC3    C3 8563   4.608   2.691  17.562 -0.4187 -0.7535 -0.5926
  574TMC3    C4 8564   4.525   2.432  17.599  0.2518  0.5204 -0.3724
  574TMC3    C5 8565   4.634   2.469  17.512  0.5354  0.1332  0.2378
  574TMC3    C6 8566   4.677   2.595  17.497 -0.3412 -0.2239 -0.6878
  574TMC3     C 8567   4.394   2.500   0.060 -0.2858 -0.4573  0.8885
  574TMC3     O 8568   4.332   2.601   0.093  0.3109 -0.0388  0.4837
  574TMC3     H 8569   4.454   2.743  17.692 -2.2378 -2.7079  3.0474
  574TMC3    H1 8570   4.496   2.330  17.621 -1.7100  1.2900  0.5559
  574TMC3    H2 8571   0.028   2.612  17.433 -0.1013  2.2647  0.3058
  574TMC3    C7 8572   4.682   2.370  17.417  0.1999  0.4611  0.5209
  574TMC3    C8 8573   4.646   2.831  17.541  0.4050 -0.3618  0.0800
  574TMC3    O1 8574   0.031   2.401  17.339  0.2377  0.2808  0.5748
  574TMC3    O2 8575   0.030   2.861  17.518 -0.5981 -0.3091 -0.6495
  575TMC3    C1 8576   2.110   4.068  11.043 -0.1247  0.1408  0.2262
  575TMC3    C2 8577   2.109   3.934  11.046  1.1468 -0.0613  0.3709
  575TMC3    C3 8578   2.065   3.868  10.925 -0.2122 -0.1003 -0.4051
  575TMC3    C4 8579   2.066   4.141  10.938 -1.1595  0.0021  0.0994
  575TMC3    C5 8580   2.034   4.075  10.821  0.8073  0.0946 -0.0467
  575TMC3    C6 8581   2.029   3.937  10.812  0.5532  0.0593 -0.0523
  575TMC3     C 8582   2.165   4.123  11.168 -0.7737 -0.1533 -0.1274
  575TMC3     O 8583   2.202   4.045  11.253  0.1950 -0.0774  0.4740
  575TMC3     H 8584   2.146   3.874  11.128 -0.6229 -1.6449 -0.0022
  575TMC3    H1 8585   2.042   4.246  10.953 -0.6971 -0.0740  1.3847
  575TMC3    H2 8586   2.038   3.895  10.712  1.8133 -0.5071  0.2992
  575TMC3    C7 8587   1.980   4.156  10.712 -0.5181 -0.5955 -0.1768
  575TMC3    C8 8588   2.092   3.728  10.905 -0.3528  0.8775 -0.4332
  575TMC3    O1 8589   1.985   4.278  10.712  0.4389 -0.1225  0.4059
  575TMC3    O2 8590   2.138   3.686  10.799  0.2546  0.0815 -0.8669
  576MPD2     C 8591   2.255   1.663  12.484  0.1977 -0.0602  0.2101
  576MPD2    C1 8592   2.192   1.692  12.370  1.1924 -0.5495 -0.2825
  576MPD2    C2 8593   2.100   1.793  12.377  0.1242  0.0344 -0.2963
  576MPD2    C3 8594   2.077   1.858  12.494  0.3567 -0.7612  0.7633
  576MPD2    C4 8595   2.144   1.832  12.606  0.1317 -0.2375  0.2209
  576MPD2    C5 8596   2.231   1.730  12.603  0.3255  0.1177  0.5174
  576MPD2     H 8597   2.047   1.825  12.288  0.2533 -0.8446 -0.6933
  576MPD2    H1 8598   2.122   1.890  12.694 -1.4902  1.3380 -1.2002
  576MPD2    H2 8599   2.329   1.583  12.482  0.5457  0.2664 -0.0085
  576MPD2    H3 8600   2.287   1.697  12.690 -0.4024  2.3094  1.8107
  576MPD2     N 8601   1.977   1.959  12.485 -0.0818 -0.0898  0.0127
  576MPD2    H5 8602   1.961   1.995  12.391 -3.9594 -1.8422 -0.0154
  576MPD2    N1 8603   2.221   1.627  12.246  0.3877 -0.8992 -0.0043
  576MPD2    H7 8604   2.170   1.657  12.163  1.4110  0.5645 -0.0983
  577TMC3    C1 8605   2.312   1.488  12.081 -0.7164  0.2127 -0.2389
  577TMC3    C2 8606   2.314   1.358  12.028  0.1433 -0.0432  0.0813
  577TMC3    C3 8607   2.311   1.349  11.893 -0.0027 -1.1409  0.6721
  577TMC3    C4 8608   2.316   1.598  11.997 -0.3380  0.3155 -0.2147
  577TMC3    C5 8609   2.316   1.577  11.869  0.1984  0.7497 -0.1190
  577TMC3    C6 8610   2.316   1.455  11.803 -0.5777 -1.0427  0.1619
  577TMC3     C 8611   2.298   1.513  12.225 -0.1016 -0.3108 -0.5729
  577TMC3     O 8612   2.354   1.440  12.304  0.3088 -0.3283  0.1265
  577TMC3     H 8613   2.330   1.271  12.090 -1.1939 -0.8294 -0.6779
  577TMC3    H1 8614   2.317   1.694  12.046  0.0963 -0.1173  0.6291
  577TMC3    H2 8615   2.312   1.449  11.695 -3.3714  1.2525  0.1331
  577TMC3    C7 8616   2.285   1.692  11.798 -0.5172 -0.6401  0.0327
  577TMC3    C8 8617   2.339   1.209  11.843 -0.4734 -0.5203  0.1224
  577TMC3    O1 8618   2.304   1.803  11.843 -0.2613 -0.4123  0.5128
  577TMC3    O2 8619   2.348   1.120  11.922 -0.4474  0.3321 -0.7885
  578MPD2     C 8620   0.157   0.954   1.384  0.4212 -0.3135  0.2753
  578MPD2    C1 8621   0.172   0.908   1.260  0.8432 -0.3759 -0.0525
  578MPD2    C2 8622   0.236   0.789   1.238  0.4120  0.1929  0.1368
  578MPD2    C3 8623   0.298   0.721   1.342 -0.4034  0.8434  0.1658
  578MPD2    C4 8624   0.286   0.776   1.472  0.1809 -0.0895 -0.1995
  578MPD2    C5 8625   0.204   0.882   1.494  0.2120  0.3114 -0.6002
  578MPD2     H 8626   0.258   0.747   1.140 -0.3722  1.2085 -0.4708
  578MPD2    H1 8627   0.338   0.731   1.556 -1.6437 -0.2589  0.8332
  578MPD2    H2 8628   0.106   1.048   1.398  2.1359  0.9134 -1.6031
  578MPD2    H3 8629   0.203   0.930   1.591 -0.2779  0.3911 -0.6467
  578MPD2     N 8630   0.373   0.606   1.315 -0.6745  0.8532  0.0462
  578MPD2    H5 8631   0.388   0.592   1.215  2.8378 -1.8795  0.9628
  578MPD2    N1 8632   0.127   0.988   1.153  0.2887  0.3074  0.3573
  578MPD2    H7 8633   0.087   1.077   1.179 -0.0093  0.3534 -0.2550
  579TMC3    C1 8634   0.562   0.461   1.339  0.6565  0.3420 -0.7527
  579TMC3    C2 8635   0.678   0.434   1.411  0.4424 -0.6687 -0.1736
  579TMC3    C3 8636   0.786   0.376   1.354 -0.0540 -0.1462  0.7502
  579TMC3    C4 8637   0.561   0.430   1.206 -0.2718  0.0544 -0.2900
  579TMC3    C5 8638   0.672   0.362   1.156  0.5416  0.0853 -0.1943
  579TMC3    C6 8639   0.784   0.330   1.223  0.0734 -0.6188  0.5747
  579TMC3     C 8640   0.461   0.543   1.406  0.1662  0.2630 -0.5984
  579TMC3     O 8641   0.466   0.557   1.530 -0.5464 -0.7177 -0.0891
  579TMC3     H 8642   0.686   0.472   1.513 -0.8587 -0.4742 -0.1445
  579TMC3    H1 8643   0.469   0.433   1.149 -1.4438 -2.2057  1.4645
  579TMC3    H2 8644   0.875   0.286   1.183 -0.0882 -2.9339  2.6884
  579TMC3    C7 8645   0.667   0.308   1.017 -0.4434  0.0540  0.0027
  579TMC3    C8 8646   0.903   0.374   1.440 -0.1570  0.4875  0.2397
  579TMC3    O1 8647   0.702   0.190   1.009 -0.0112  0.0907 -0.0121
  579TMC3    O2 8648   0.886   0.373   1.560  0.6402  0.1853 -0.5299
  580TMC3    C1 8649   0.015   0.657  12.107 -0.0263 -0.1888 -0.7991
  580TMC3    C2 8650   0.060   0.696  11.988  0.0029 -0.7087 -1.1057
  580TMC3    C3 8651   0.181   0.657  11.950  0.5665 -0.2977 -0.9485
  580TMC3    C4 8652   0.087   0.566  12.181  0.9088  0.1209 -0.1317
  580TMC3    C5 8653   0.203   0.513  12.133  0.9669 -0.8527  0.1050
  580TMC3    C6 8654   0.242   0.558  12.015 -0.1961  0.2413  0.4042
  580TMC3     C 8655   4.702   0.769  12.180 -0.1640 -0.4991  0.9358
  580TMC3     O 8656   4.615   0.763  12.268 -0.3788 -0.8447 -0.2931
  580TMC3     H 8657   0.010   0.768  11.924 -0.3714 -0.3348 -0.3855
  580TMC3    H1 8658   0.040   0.542  12.276  1.4887 -0.3799  0.0220
  580TMC3    H2 8659   0.323   0.505  11.966  0.4754  1.4059  0.2471
  580TMC3    C7 8660   0.250   0.389  12.196  0.3637  0.9962  0.3777
  580TMC3    C8 8661   0.271   0.766  11.933 -0.3326 -0.8721  0.2980
  580TMC3    O1 8662   0.250   0.379  12.320 -0.1799  0.4826  0.9377
  580TMC3    O2 8663   0.210   0.871  11.947  0.3684 -0.2116 -0.7363
  581MPD2     C 8664   2.707   4.208  14.777  0.3007  0.3097 -0.4883
  581MPD2    C1 8665   2.703   4.281  14.894 -0.0774  0.0364  0.3232
  581MPD2    C2 8666   2.636   4.400  14.903 -0.6965 -0.0781  0.1564
  581MPD2    C3 8667   2.563   4.443  14.794  0.6191  0.8312  0.0301
  581MPD2    C4 8668   2.575   4.376  14.675 -0.0649  0.4900 -0.6256
  581MPD2    C5 8669   2.645   4.261  14.665 -0.3752 -0.4612 -0.2491
  581MPD2     H 8670   2.637   4.455  14.997  0.3185  0.6288 -0.2677
  581MPD2    H1 8671   2.527   4.406  14.582  0.9148 -0.3560 -1.4110
  581MPD2    H2 8672   2.750   4.109  14.778  1.5105  0.8437 -0.5310
  581MPD2    H3 8673   2.648   4.205  14.572 -1.8044 -1.0947  0.0786
  581MPD2     N 8674   2.481   4.561  14.813 -0.0023  0.5515  0.4340
  581MPD2    H5 8675   2.511   4.626  14.885 -0.7450 -0.5371  1.7289
  581MPD2    N1 8676   2.766   4.211  15.003  0.0620 -0.0245 -0.0893
  581MPD2    H7 8677   2.807   4.121  14.978  1.4038  0.9623 -1.3949
  582TMC3    C1 8678   2.771   4.149  15.230  0.3048  0.3482  0.3081
  582TMC3    C2 8679   2.813   4.194  15.345 -0.2709 -1.1261 -0.0539
  582TMC3    C3 8680   2.747   4.151  15.461 -0.2997  1.0581  0.0022
  582TMC3    C4 8681   2.661   4.059  15.214  0.6251 -0.0679 -0.5921
  582TMC3    C5 8682   2.591   4.026  15.334  0.1740 -1.1212 -0.1255
  582TMC3    C6 8683   2.639   4.066  15.458 -0.3582  0.0124 -0.2301
  582TMC3     C 8684   2.766   4.258  15.132  0.6811 -0.0252 -0.7509
  582TMC3     O 8685   2.730   4.366  15.174 -0.5615  0.3244  0.0057
  582TMC3     H 8686   2.880   4.279  15.353 -0.3278 -1.0147 -0.7594
  582TMC3    H1 8687   2.611   4.049  15.118 -0.5459  0.7876 -0.0675
  582TMC3    H2 8688   2.587   4.051  15.551 -1.2969 -1.9747 -1.0840
  582TMC3    C7 8689   2.453   4.058  15.320  0.5455  0.4620 -0.8369
  582TMC3    C8 8690   2.731   4.257  15.558  0.8193 -0.1859  0.3962
  582TMC3    O1 8691   2.365   3.981  15.358  0.0134 -0.1128  0.3932
  582TMC3    O2 8692   2.615   4.290  15.586  0.6586 -0.3321  0.4298
  583MPD2     C 8693   2.785   1.269  16.954 -0.1012  0.2037  0.0856
  583MPD2    C1 8694   2.812   1.404  16.907 -0.4630  0.5691  0.3598
  583MPD2    C2 8695   2.778   1.512  16.992 -0.3633 -0.7635  0.3212
  583MPD2    C3 8696   2.707   1.487  17.109  0.5217 -0.3434  0.8297
  583MPD2    C4 8697   2.689   1.358  17.149  0.9053 -0.0662  0.2238
  583MPD2    C5 8698   2.718   1.249  17.072 -0.4175  1.0993  0.3700
  583MPD2     H 8699   2.810   1.613  16.968 -2.0041 -0.4250 -0.4922
  583MPD2    H1 8700   2.654   1.338  17.249  0.9269 -1.7549 -0.1177
  583MPD2    H2 8701   2.816   1.182  16.897  1.7393  0.7993  0.1706
  583MPD2    H3 8702   2.700   1.149  17.111 -1.1025  0.2712 -2.0911
  583MPD2     N 8703   2.678   1.595  17.194 -0.4548  0.4112 -0.3858
  583MPD2    H5 8704   2.695   1.686  17.152  0.0711  0.4981  0.0126
  583MPD2    N1 8705   2.876   1.439  16.788  0.3643  0.2096 -0.8741
  583MPD2    H7 8706   2.869   1.538  16.764  1.8439  0.1550 -1.5626
  584TMC3    C1 8707   2.618   1.733  17.374 -0.0515 -0.3669  0.3734
  584TMC3    C2 8708   2.642   1.855  17.311 -0.2941  0.1571  0.1111
  584TMC3    C3 8709   2.611   1.973  17.380  0.1962  0.0148 -0.8280
  584TMC3    C4 8710   2.580   1.737  17.505 -0.4495  0.2156 -0.2354
  584TMC3    C5 8711   2.550   1.855  17.565  0.2668 -0.2266 -0.5066
  584TMC3    C6 8712   2.570   1.984  17.509  0.3509  0.1011  0.6186
  584TMC3     C 8713   2.631   1.598  17.319  0.7223 -0.3535  0.1995
  584TMC3     O 8714   2.593   1.505  17.387 -0.4323  0.3662 -0.4769
  584TMC3     H 8715   2.687   1.846  17.213 -0.4462 -1.1516  0.1570
  584TMC3    H1 8716   2.539   1.644  17.544  0.3617 -0.4263 -0.9074
  584TMC3    H2 8717   2.521   2.068  17.557 -0.0184 -0.1768  0.7335
  584TMC3    C7 8718   2.526   1.845  17.705  0.4819 -0.1631  0.3688
  584TMC3    C8 8719   2.630   2.087  17.292  0.4311 -0.2503  0.2089
  584TMC3    O1 8720   2.495   1.737   0.020  0.4237  0.4623  0.4651
  584TMC3    O2 8721   2.625   2.052  17.172 -0.0713  0.3481  0.3547
  585MPD2     C 8722   1.493   0.518   0.073  0.3681 -0.2882 -0.2364
  585MPD2    C1 8723   1.553   0.619  17.733 -0.0272  0.1983 -0.1424
  585MPD2    C2 8724   1.629   0.586  17.619  0.0642 -0.6527 -0.6515
  585MPD2    C3 8725   1.658   0.455  17.589 -0.2064  0.1133  0.3718
  585MPD2    C4 8726   1.604   0.357  17.668 -0.4906 -0.7162 -0.4067
  585MPD2    C5 8727   1.534   0.388   0.052  0.3919 -0.7268 -0.2418
  585MPD2     H 8728   1.656   0.669  17.554  0.6403 -0.1860  0.1845
  585MPD2    H1 8729   1.608   0.251  17.649 -3.1116 -0.9404  0.2882
  585MPD2    H2 8730   1.432   0.539   0.160 -0.5787 -0.5523 -0.8345
  585MPD2    H3 8731   1.499   0.312   0.121 -0.8527  0.0630  0.0014
  585MPD2     N 8732   1.715   0.416  17.463  0.0331 -0.2728 -1.0118
  585MPD2    H5 8733   1.691   0.320  17.439 -0.7365 -0.1529 -0.7274
  585MPD2    N1 8734   1.514   0.752   0.039  0.1329 -0.4373 -0.2667
  585MPD2    H7 8735   1.452   0.759   0.119 -1.2411  0.4553 -1.4301
  586TMC3    C1 8736   1.833   0.430  17.272  0.6776  0.3755 -0.2831
  586TMC3    C2 8737   1.967   0.403  17.262 -0.4004 -0.1733 -0.5596
  586TMC3    C3 8738   2.010   0.312  17.169  0.3243 -0.2381  0.1193
  586TMC3    C4 8739   1.738   0.368  17.194  0.1444 -0.2355  0.0380
  586TMC3    C5 8740   1.780   0.276  17.103 -0.0691  0.7805  0.7314
  586TMC3    C6 8741   1.911   0.246  17.092 -0.3177  0.2403 -0.2777
  586TMC3     C 8742   1.781   0.507  17.379  0.4987  0.5042  0.2591
  586TMC3     O 8743   1.829   0.613  17.420 -0.7689 -0.0684  0.0807
  586TMC3     H 8744   2.038   0.470  17.310 -0.4518 -1.7019  1.6619
  586TMC3    H1 8745   1.632   0.383  17.211  0.1043  0.5129 -0.9148
  586TMC3    H2 8746   1.934   0.167  17.022 -0.1534 -1.5151  1.7459
  586TMC3    C7 8747   1.696   0.154  17.098 -0.8589  0.8947 -0.2648
  586TMC3    C8 8748   2.120   0.225  17.200 -0.0714 -0.0262 -0.2074
  586TMC3    O1 8749   1.600   0.143  17.176 -0.2778 -0.3889  0.2322
  586TMC3    O2 8750   2.149   0.212  17.320 -0.0191 -0.5674 -0.4562
  587TMC3    C1 8751   4.182   4.170  16.010 -0.1586  0.7485 -0.3737
  587TMC3    C2 8752   4.174   4.176  16.148 -0.4588 -0.4475  0.0239
  587TMC3    C3 8753   4.291   4.147  16.211 -0.7356  0.2519 -0.2216
  587TMC3    C4 8754   4.294   4.125  15.944  0.0105 -0.4055  0.7725
  587TMC3    C5 8755   4.401   4.072  16.014  0.4978  0.8971  0.7635
  587TMC3    C6 8756   4.398   4.092  16.149 -0.3339 -0.0482  0.8428
  587TMC3     C 8757   4.078   4.225  15.936  0.0980 -0.0795  0.4028
  587TMC3     O 8758   4.108   4.259  15.820  0.1087  0.0213 -0.1791
  587TMC3     H 8759   4.091   4.225  16.199 -0.1661 -1.0865  1.1219
  587TMC3    H1 8760   4.293   4.115  15.836  0.7131  1.4807  0.5860
  587TMC3    H2 8761   4.483   4.062  16.209  1.5072  1.2852 -1.0891
  587TMC3    C7 8762   4.530   4.055  15.962 -0.2883 -0.0042  0.3510
  587TMC3    C8 8763   4.299   4.160  16.357 -0.6514 -0.4964  0.0161
  587TMC3    O1 8764   4.611   3.997  16.034 -0.6334  0.0834  0.1021
  587TMC3    O2 8765   4.400   4.113  16.402 -0.4977 -0.6318  0.3307
  588TMC3    C1 8766   1.527   2.182   9.587 -0.0309  0.4084 -0.3051
  588TMC3    C2 8767   1.447   2.074   9.576 -0.5361  0.1698 -0.4502
  588TMC3    C3 8768   1.497   1.964   9.639 -0.9668 -0.0461  0.0366
  588TMC3    C4 8769   1.650   2.179   9.650 -0.4092 -0.1722 -0.4077
  588TMC3    C5 8770   1.696   2.066   9.705 -0.0388 -0.9680  0.4401
  588TMC3    C6 8771   1.618   1.957   9.692 -0.5563 -0.1900  0.2813
  588TMC3     C 8772   1.467   2.311   9.575  0.2840  0.0080 -0.0750
  588TMC3     O 8773   1.379   2.338   9.494 -0.5630  0.1829  0.8560
  588TMC3     H 8774   1.348   2.081   9.533 -0.9986 -3.4155  0.0009
  588TMC3    H1 8775   1.720   2.259   9.628 -0.0836 -0.2375  0.3907
  588TMC3    H2 8776   1.649   1.859   9.725 -0.3099  0.2192  1.2712
  588TMC3    C7 8777   1.780   2.062   9.816  0.2915  1.0834  0.2168
  588TMC3    C8 8778   1.418   1.841   9.610 -0.0285  0.2920 -0.0352
  588TMC3    O1 8779   1.792   1.958   9.879  0.3310 -0.2066 -0.7445
  588TMC3    O2 8780   1.336   1.839   9.521  0.2943  0.2318  0.1881
  589TMC3    C1 8781   0.826   3.936   1.145 -0.4045  0.1382  0.3525
  589TMC3    C2 8782   0.950   3.869   1.165 -0.4201  0.1532  0.8168
  589TMC3    C3 8783   0.957   3.746   1.112 -1.3009 -0.4035  0.6692
  589TMC3    C4 8784   0.716   3.876   1.095  0.4529 -0.0342 -0.1387
  589TMC3    C5 8785   0.729   3.742   1.056 -0.7429 -0.1961 -0.3076
  589TMC3    C6 8786   0.846   3.678   1.061 -1.3030 -0.5188 -0.7393
  589TMC3     C 8787   0.809   4.062   1.216  0.3246  0.4702 -0.2827
  589TMC3     O 8788   0.696   4.094   1.252  0.3982 -0.5267  0.6486
  589TMC3     H 8789   1.040   3.914   1.206 -0.6574  0.3881  1.0773
  589TMC3    H1 8790   0.625   3.934   1.087 -0.1546 -0.9372  0.2520
  589TMC3    H2 8791   0.860   3.580   1.016  2.5678 -0.8404  1.1835
  589TMC3    C7 8792   0.622   3.676   0.983  0.0794  0.2026  0.1570
  589TMC3    C8 8793   1.078   3.665   1.142  0.0524  0.5091  0.2523
  589TMC3    O1 8794   0.539   3.746   0.924 -0.3752  0.2101 -0.3779
  589TMC3    O2 8795   1.188   3.720   1.152  0.5652 -0.0633 -0.0427
  590MPD2     C 8796   0.514   2.244  16.615 -0.4862  0.1535 -0.0067
  590MPD2    C1 8797   0.472   2.336  16.522 -0.3244 -0.1461 -0.5669
  590MPD2    C2 8798   0.562   2.396  16.439 -0.7031 -0.2629  0.0514
  590MPD2    C3 8799   0.701   2.370  16.447  0.1063  0.7662  0.3861
  590MPD2    C4 8800   0.739   2.276  16.544  0.4163  0.2031  0.5696
  590MPD2    C5 8801   0.646   2.212  16.621  0.2784 -0.4496 -0.0551
  590MPD2     H 8802   0.532   2.472  16.368 -0.5069 -1.7903 -1.6631
  590MPD2    H1 8803   0.843   2.273  16.575  0.7114  1.2411 -0.3268
  590MPD2    H2 8804   0.448   2.197  16.687 -2.2619  0.3829 -1.4951
  590MPD2    H3 8805   0.678   2.160  16.710  1.3228  1.1830  0.5371
  590MPD2     N 8806   0.789   2.455  16.375  0.3327  0.2011  0.0407
  590MPD2    H5 8807   0.737   2.521  16.317  0.9805  0.6555 -0.0275
  590MPD2    N1 8808   0.338   2.377  16.523 -0.5644 -0.2165 -0.0667
  590MPD2    H7 8809   0.287   2.359  16.608 -0.0169 -1.0788  0.0784
  591TMC3    C1 8810   0.983   2.537  16.289 -0.0673 -1.1264 -1.1189
  591TMC3    C2 8811   1.059   2.496  16.184 -0.1876 -0.0967 -0.2901
  591TMC3    C3 8812   1.099   2.586  16.088  0.3778  0.6496 -0.1981
  591TMC3    C4 8813   0.945   2.670  16.303 -0.1973  0.4434  0.1699
  591TMC3    C5 8814   0.974   2.752  16.199  0.3100  0.4404 -0.4351
  591TMC3    C6 8815   1.058   2.722  16.094 -0.3242 -0.3248 -0.4896
  591TMC3     C 8816   0.924   2.441  16.373 -0.2596  0.2997 -0.0078
  591TMC3     O 8817   0.992   2.350  16.420  0.1027  0.2871 -0.3514
  591TMC3     H 8818   1.076   2.392  16.159 -0.8667  0.1170 -1.5897
  591TMC3    H1 8819   0.891   2.693  16.394 -3.8705  1.4605 -2.2869
  591TMC3    H2 8820   1.082   2.795  16.017  0.5592 -2.3214 -2.1148
  591TMC3    C7 8821   0.929   2.888  16.224  0.3470 -0.1637  0.0345
  591TMC3    C8 8822   1.142   2.537  15.956  0.1089  0.3143  0.0074
  591TMC3    O1 8823   0.860   2.908  16.324 -0.3338  0.0439 -0.5479
  591TMC3    O2 8824   1.201   2.427  15.969  0.1663 -0.2431 -0.5644
  592MPD2     C 8825   0.699   4.595  11.318 -0.3386  0.1850  0.6384
  592MPD2    C1 8826   0.771   4.625  11.436  0.0300  0.2464 -0.0013
  592MPD2    C2 8827   0.752   4.538  11.549  0.3171  0.2715 -0.2290
  592MPD2    C3 8828   0.688   4.419  11.529  0.2625 -0.1306 -0.0419
  592MPD2    C4 8829   0.623   4.388  11.408 -0.4489 -0.2297  0.7150
  592MPD2    C5 8830   0.628   4.481  11.307  0.2733  0.3359 -0.9030
  592MPD2     H 8831   0.787   4.557  11.650  0.2970 -2.3198  0.2760
  592MPD2    H1 8832   0.554   4.307  11.390 -1.0708  1.5381 -4.7314
  592MPD2    H2 8833   0.703   4.662  11.233 -1.0489  0.0304  0.4860
  592MPD2    H3 8834   0.568   4.469  11.218 -0.0126  0.3474 -0.7110
  592MPD2     N 8835   0.657   4.346  11.646 -0.6609 -0.3278  0.1981
  592MPD2    H5 8836   0.688   4.384  11.734  1.4945 -0.6332 -0.4357
  592MPD2    N1 8837   0.845   0.009  11.443  0.6473 -1.2450 -0.4211
  592MPD2    H7 8838   0.852   0.063  11.357  3.5863  0.9001  1.1794
  593TMC3    C1 8839   0.992   0.167  11.554  0.0599 -0.2384  0.4588
  593TMC3    C2 8840   1.014   0.247  11.662  0.4649 -0.7749 -0.1305
  593TMC3    C3 8841   1.117   0.331  11.654  1.0875 -0.0874 -0.5663
  593TMC3    C4 8842   1.061   0.189  11.440  0.6564 -0.0837 -0.3469
  593TMC3    C5 8843   1.157   0.282  11.435  0.0923  0.1693  0.0388
  593TMC3    C6 8844   1.188   0.358  11.542  0.1096 -0.1967  0.2577
  593TMC3     C 8845   0.886   0.058  11.567 -0.1685  0.6826 -0.3050
  593TMC3     O 8846   0.865   0.027  11.681 -0.2573 -0.4751 -0.5549
  593TMC3     H 8847   0.961   0.229  11.755  0.4119  0.3903  0.0642
  593TMC3    H1 8848   1.049   0.120  11.357  3.4940 -0.9238 -0.0668
  593TMC3    H2 8849   1.268   0.431  11.535  0.3103 -0.1485  2.9450
  593TMC3    C7 8850   1.184   0.352  11.308 -0.7970  0.3103  0.1031
  593TMC3    C8 8851   1.112   0.431  11.758 -0.2675 -0.3450 -0.0467
  593TMC3    O1 8852   1.262   0.448  11.314  0.2382  0.3499 -0.3622
  593TMC3    O2 8853   1.003   0.483  11.780 -0.3192 -0.2853  0.2149
  594MPD2     C 8854   4.488   3.497  13.876 -0.7674 -0.0181 -0.3490
  594MPD2    C1 8855   4.479   3.518  14.010  0.1941 -0.4034  0.4650
  594MPD2    C2 8856   4.578   3.589  14.076  0.4856  0.3301 -0.2090
  594MPD2    C3 8857   4.679   3.646  13.998 -0.2497  0.6537 -0.1464
  594MPD2    C4 8858   4.686   3.623  13.865  1.3806 -0.2950 -0.1875
  594MPD2    C5 8859   4.592   3.543  13.809 -0.9491  0.7159  0.1689
  594MPD2     H 8860   4.579   3.596  14.184  0.5770 -0.1178 -0.1795
  594MPD2    H1 8861   0.040   3.651  13.808  0.3820  0.5392 -1.3003
  594MPD2    H2 8862   4.421   3.439  13.814 -2.5939  0.4083  1.2417
  594MPD2    H3 8863   4.589   3.531  13.701  3.3724  2.7381 -0.1837
  594MPD2     N 8864   0.034   3.735  14.066  0.1823  0.2120  0.2096
  594MPD2    H5 8865   0.001   3.782  14.150 -1.3106  2.5322 -1.6932
  594MPD2    N1 8866   4.368   3.459  14.078 -0.3953 -0.0033 -0.3861
  594MPD2    H7 8867   4.292   3.423  14.021 -0.7408  1.8434 -1.0722
  595TMC3    C1 8868   0.363   3.905  14.251 -0.0499 -0.8111 -0.1378
  595TMC3    C2 8869   0.328   3.879  14.123 -0.0774  0.5175  0.4008
  595TMC3    C3 8870   0.197   3.901  14.089 -0.4612  0.5879  0.3025
  595TMC3    C4 8871   0.277   3.946  14.346 -0.0166 -0.0009 -0.7938
  595TMC3    C5 8872   0.150   3.972  14.308 -0.6174 -0.3931 -0.3311
  595TMC3    C6 8873   0.105   3.949  14.183  0.5914 -0.6472  0.0987
  595TMC3     C 8874   0.502   3.923  14.284 -0.4101 -0.2818  0.0528
  595TMC3     O 8875   0.536   3.924  14.402 -0.6381  0.4836  0.2805
  595TMC3     H 8876   0.394   3.812  14.069  0.3214  0.6507  0.7193
  595TMC3    H1 8877   0.310   3.995  14.437  0.1380  0.5896 -1.1688
  595TMC3    H2 8878   0.003   3.970  14.151  1.8038  1.4521 -2.4075
  595TMC3    C7 8879   0.043   3.932  14.401  0.4420  0.4553 -0.3286
  595TMC3    C8 8880   0.148   3.794  14.010 -0.0206 -0.3488  0.5808
  595TMC3    O1 8881   4.686   3.866  14.355 -0.2076 -0.2330 -0.3534
  595TMC3    O2 8882   0.215   3.761  13.912  0.0952 -0.1905 -0.1901
  596MPD2     C 8883   3.660   1.322  16.918  0.1278  0.3612  0.3025
  596MPD2    C1 8884   3.659   1.459  16.874  0.0271 -0.2828 -0.8281
  596MPD2    C2 8885   3.705   1.489  16.748  0.5991 -0.1037  0.5101
  596MPD2    C3 8886   3.752   1.384  16.662 -0.2038  0.2349 -0.2639
  596MPD2    C4 8887   3.746   1.256  16.707  0.0716  0.4006 -0.1347
  596MPD2    C5 8888   3.702   1.225  16.833  0.1860 -0.1392 -0.4017
  596MPD2     H 8889   3.691   1.588  16.705 -2.5315 -1.1712 -0.8989
  596MPD2    H1 8890   3.785   1.183  16.637  1.5465  3.7526 -2.8139
  596MPD2    H2 8891   3.649   1.304  17.024  0.9361 -1.7962  0.0110
  596MPD2    H3 8892   3.724   1.122  16.861 -1.2696  0.2384  2.1300
  596MPD2     N 8893   3.796   1.408  16.528 -0.3429 -0.3936  0.0096
  596MPD2    H5 8894   3.834   1.334  16.470 -2.3064 -0.4949 -1.1461
  596MPD2    N1 8895   3.630   1.573  16.946  0.4406 -0.3284 -0.1500
  596MPD2    H7 8896   3.660   1.661  16.906  2.1709 -0.1743  1.4979
  597TMC3    C1 8897   3.561   1.699  17.140  0.1379 -0.3855 -0.9869
  597TMC3    C2 8898   3.655   1.798  17.131 -0.3420  0.5160  0.3048
  597TMC3    C3 8899   3.630   1.915  17.199  0.6752 -0.1742  0.7186
  597TMC3    C4 8900   3.448   1.707  17.223  0.0054  0.4724  0.1231
  597TMC3    C5 8901   3.429   1.827  17.284 -0.5248  0.7334 -0.1813
  597TMC3    C6 8902   3.519   1.931  17.278  0.8874  0.4566 -0.1398
  597TMC3     C 8903   3.559   1.577  17.062  0.2569  0.0928  0.3509
  597TMC3     O 8904   3.499   1.484  17.113  0.2757  0.5097 -0.3673
  597TMC3     H 8905   3.745   1.782  17.074 -0.1525  0.0008  0.7462
  597TMC3    H1 8906   3.372   1.630  17.221 -0.6730  1.1267  0.7786
  597TMC3    H2 8907   3.512   2.022  17.336  0.6059 -0.8240  1.8226
  597TMC3    C7 8908   3.317   1.838  17.382  0.6762  0.2416 -0.0468
  597TMC3    C8 8909   3.716   2.024  17.190 -0.2118 -0.4847 -0.2178
  597TMC3    O1 8910   3.297   1.747  17.463 -0.1877 -0.5067 -0.0384
  597TMC3    O2 8911   3.713   2.108  17.280  0.4693  0.4085 -0.9809
  598TMC3    C1 8912   1.613   2.868  15.480 -0.2875 -0.0070  0.3546
  598TMC3    C2 8913   1.504   2.869  15.397  0.1940  0.2302  0.1859
  598TMC3    C3 8914   1.532   2.884  15.263 -0.2696  0.0597  0.0434
  598TMC3    C4 8915   1.739   2.886  15.440  0.3003  0.4945  0.3046
  598TMC3    C5 8916   1.761   2.906  15.307  0.1180 -0.5285  0.5976
  598TMC3    C6 8917   1.659   2.910  15.220  0.5257  0.3718  0.1608
  598TMC3     C 8918   1.586   2.825  15.613 -0.1943 -0.0795  0.3843
  598TMC3     O 8919   1.674   2.758  15.670  0.3184 -0.0886  0.1244
  598TMC3     H 8920   1.401   2.865  15.430 -0.1214  0.2749 -0.8127
  598TMC3    H1 8921   1.810   2.908  15.519  0.5528 -3.3521  1.1268
  598TMC3    H2 8922   1.676   2.907  15.113  0.6823  2.0761  0.1335
  598TMC3    C7 8923   1.898   2.953  15.268  0.2093 -0.6524 -0.4371
  598TMC3    C8 8924   1.417   2.876  15.175  0.1055  0.0962 -0.3467
  598TMC3    O1 8925   1.993   2.904  15.322 -0.0817 -0.4687 -0.0019
  598TMC3    O2 8926   1.313   2.822  15.209  0.1005 -0.3262  0.6681
  599MPD2     C 8927   1.716   0.380  15.474  0.0102  0.8923  0.7967
  599MPD2    C1 8928   1.674   0.254  15.509  0.2779 -0.5124 -0.4120
  599MPD2    C2 8929   1.551   0.244  15.580 -0.3604 -0.4220  0.5916
  599MPD2    C3 8930   1.480   0.364  15.614  0.4006  0.1355  1.2332
  599MPD2    C4 8931   1.530   0.492  15.574  0.7193  0.2240 -0.0499
  599MPD2    C5 8932   1.639   0.496  15.503  0.5715  0.3347  0.2491
  599MPD2     H 8933   1.506   0.154  15.619  0.8106 -1.2360  0.0699
  599MPD2    H1 8934   1.487   0.590  15.590 -0.3036 -0.1228 -0.6472
  599MPD2    H2 8935   1.808   0.388  15.418 -0.0874  0.4869  0.5807
  599MPD2    H3 8936   1.668   0.592  15.461 -0.4730  0.2258 -0.7357
  599MPD2     N 8937   1.356   0.352  15.692 -0.1267  0.3513  0.5853
  599MPD2    H5 8938   1.313   0.263  15.718 -0.1750  0.2105  0.0340
  599MPD2    N1 8939   1.758   0.142  15.480 -0.7688 -0.1670 -0.1035
  599MPD2    H7 8940   1.841   0.161  15.425 -0.0195 -0.1615  1.0442
  600TMC3    C1 8941   1.186   0.411  15.835  0.2923  0.3672 -0.3038
  600TMC3    C2 8942   1.086   0.344  15.776 -0.5534 -0.5341  0.4622
  600TMC3    C3 8943   0.968   0.334  15.852 -0.7968  0.0851  0.4201
  600TMC3    C4 8944   1.168   0.481  15.956 -1.1222  0.4516  0.2184
  600TMC3    C5 8945   1.043   0.474  16.018  0.0493  0.1199  0.4491
  600TMC3    C6 8946   0.941   0.403  15.966  0.5752 -0.8960  0.6870
  600TMC3     C 8947   1.301   0.461  15.759 -0.3356  0.3971 -0.2038
  600TMC3     O 8948   1.360   0.567  15.786 -0.4246 -0.5376 -0.2865
  600TMC3     H 8949   1.111   0.287  15.687 -1.4831 -1.0051  0.5004
  600TMC3    H1 8950   1.246   0.539  16.004 -1.2395  1.6007 -0.9712
  600TMC3    H2 8951   0.845   0.399  16.016 -0.3559  0.0743 -1.0075
  600TMC3    C7 8952   1.021   0.547  16.136 -1.0998  0.4712  0.1579
  600TMC3    C8 8953   0.855   0.271  15.785 -0.0888 -0.2046  0.3499
  600TMC3    O1 8954   0.951   0.493  16.218 -0.2097  0.1738  0.3610
  600TMC3    O2 8955   0.882   0.192  15.699 -0.4552 -0.3760 -0.3399
  601MPD2     C 8956   3.142   3.453   0.377 -0.5406 -0.0354 -0.0296
  601MPD2    C1 8957   3.257   3.424   0.315 -0.1816  0.4192  0.6040
  601MPD2    C2 8958   3.290   3.292   0.283 -1.1900 -0.5263 -0.1135
  601MPD2    C3 8959   3.213   3.188   0.340  0.0667  0.1416  0.8614
  601MPD2    C4 8960   3.097   3.229   0.408 -0.3796  0.0253  1.3075
  601MPD2    C5 8961   3.065   3.357   0.435 -0.2833  0.6125 -0.1409
  601MPD2     H 8962   3.375   3.270   0.221  0.2200  0.1410  1.5852
  601MPD2    H1 8963   3.019   3.156   0.431  0.3054 -1.4402 -0.9944
  601MPD2    H2 8964   3.101   3.553   0.380 -1.1556 -0.3361  1.2617
  601MPD2    H3 8965   2.978   3.375   0.496  0.4264  0.5023  0.9022
  601MPD2     N 8966   3.225   3.052   0.319  0.0800 -0.2442  0.0050
  601MPD2    H5 8967   3.147   2.995   0.350 -0.5361  0.5681 -0.0282
  601MPD2    N1 8968   3.355   3.517   0.269  0.6015  0.2312  0.1865
  601MPD2    H7 8969   3.425   3.499   0.198 -0.1726  1.9538 -1.0285
  602TMC3    C1 8970   3.419   3.739   0.197 -1.0962 -0.2878 -0.3972
  602TMC3    C2 8971   3.431   3.871   0.224 -0.3560  0.5236 -0.7632
  602TMC3    C3 8972   3.434   3.961   0.125  0.0174 -0.0943  0.4159
  602TMC3    C4 8973   3.419   3.705   0.068  0.5285  0.3432  0.5382
  602TMC3    C5 8974   3.448   3.792  17.706 -0.7766 -0.2814  0.2178
  602TMC3    C6 8975   3.442   3.921  17.729  0.5323  0.0580 -0.4531
  602TMC3     C 8976   3.342   3.650   0.292  0.0055  0.5457  0.4825
  602TMC3     O 8977   3.255   3.718   0.351 -0.5061  0.7709  0.0145
  602TMC3     H 8978   3.412   3.911   0.323  1.1729  1.2697 -0.7606
  602TMC3    H1 8979   3.385   3.607   0.035  0.2359  0.2927  0.9793
  602TMC3    H2 8980   3.464   3.993  17.651  1.7170  0.2254  0.0375
  602TMC3    C7 8981   3.408   3.754  17.578  0.2187 -0.9458  0.7091
  602TMC3    C8 8982   3.382   4.090   0.150 -0.3068 -0.4736 -0.3968
  602TMC3    O1 8983   3.463   3.655  17.535 -0.2280 -0.1244  0.7251
  602TMC3    O2 8984   3.449   4.162   0.217 -0.3829 -0.5042  0.2005
  603TMC3    C1 8985   1.581   4.081  10.805 -0.4483  0.5681 -0.6057
  603TMC3    C2 8986   1.643   4.074  10.929  0.7435  0.3701 -0.0175
  603TMC3    C3 8987   1.682   4.189  10.988  0.1028  0.5663 -0.2394
  603TMC3    C4 8988   1.544   4.194  10.734 -0.2338  0.7074 -0.2259
  603TMC3    C5 8989   1.586   4.305  10.806  1.0172 -0.3687  0.4725
  603TMC3    C6 8990   1.654   4.305  10.930  0.0177  0.2987 -0.3619
  603TMC3     C 8991   1.538   3.957  10.745  0.9143  0.1212 -0.2422
  603TMC3     O 8992   1.573   3.858  10.805 -0.7705 -0.2105 -0.2854
  603TMC3     H 8993   1.680   3.981  10.971  2.8028  0.6938 -1.0947
  603TMC3    H1 8994   1.522   4.201  10.628 -0.1083 -1.0887 -0.3684
  603TMC3    H2 8995   1.707   4.394  10.962  1.2768 -0.3152 -0.7483
  603TMC3    C7 8996   1.584   4.435  10.744  0.4512  0.0191 -0.4707
  603TMC3    C8 8997   1.725   4.175  11.122  0.1074  0.0399 -0.2731
  603TMC3    O1 8998   1.671   4.515  10.780 -0.2420  0.1629  0.1416
  603TMC3    O2 8999   1.720   4.066  11.172 -0.4587  0.4307 -0.5265
  604MPD2     C 9000   2.637   2.427  16.733  0.3868  0.0920  0.0501
  604MPD2    C1 9001   2.677   2.530  16.649 -0.3514 -0.1910  0.8518
  604MPD2    C2 9002   2.722   2.502  16.521 -0.0730 -0.4822  0.1119
  604MPD2    C3 9003   2.724   2.371  16.479 -0.0731 -0.1624 -0.6170
  604MPD2    C4 9004   2.704   2.269  16.572  0.0333 -0.2377 -0.0664
  604MPD2    C5 9005   2.665   2.297  16.699 -0.1640 -0.1776  0.0541
  604MPD2     H 9006   2.746   2.588  16.460  1.3954 -0.4782  0.6972
  604MPD2    H1 9007   2.718   2.163  16.553 -0.2518  0.0830 -2.0334
  604MPD2    H2 9008   2.593   2.450  16.830 -0.0762 -0.8262  0.0505
  604MPD2    H3 9009   2.645   2.218  16.770 -0.8636 -0.3169 -0.2930
  604MPD2     N 9010   2.756   2.344  16.344 -0.2063  0.1098 -0.4355
  604MPD2    H5 9011   2.783   2.417  16.279  3.6629 -1.5497 -0.6820
  604MPD2    N1 9012   2.650   2.662  16.693  0.1446  0.0483 -0.8865
  604MPD2    H7 9013   2.578   2.670  16.764  0.3686  0.4583 -0.7055
  605TMC3    C1 9014   2.658   2.899  16.699  0.0620  0.0803  0.2406
  605TMC3    C2 9015   2.740   3.003  16.735 -0.2514 -0.0987 -0.0694
  605TMC3    C3 9016   2.681   3.122  16.770  0.8572  0.1284 -0.0102
  605TMC3    C4 9017   2.524   2.920  16.695  0.3464 -0.4472 -0.6716
  605TMC3    C5 9018   2.464   3.039  16.737  0.4870  0.4948  0.6448
  605TMC3    C6 9019   2.548   3.145  16.764 -0.0653 -0.3054 -0.2533
  605TMC3     C 9020   2.723   2.771  16.661  0.2037  0.0443 -0.4238
  605TMC3     O 9021   2.846   2.776  16.643  0.0172  0.2009  0.2735
  605TMC3     H 9022   2.846   2.985  16.745 -0.8720 -3.2992  0.6718
  605TMC3    H1 9023   2.467   2.830  16.677  0.9116 -0.7411 -0.9859
  605TMC3    H2 9024   2.508   3.246  16.762 -0.5398 -0.4633  1.0530
  605TMC3    C7 9025   2.326   3.071  16.701  0.1121 -0.5707  0.2396
  605TMC3    C8 9026   2.773   3.225  16.786  0.5291 -0.0574 -0.2622
  605TMC3    O1 9027   2.280   3.177  16.742  0.0555 -0.2264  0.0024
  605TMC3    O2 9028   2.891   3.207  16.751  0.2788  0.1756 -0.0791
  606TMC3    C1 9029   3.121   0.923   0.143 -1.2069 -0.5614  0.1889
  606TMC3    C2 9030   3.210   0.959   0.241 -0.1905  0.0748 -0.2073
  606TMC3    C3 9031   3.311   1.049   0.212  0.2121  0.1283  0.1917
  606TMC3    C4 9032   3.144   0.964   0.008  0.0824 -0.4608 -0.4673
  606TMC3    C5 9033   3.255   1.042  17.716  0.2227  0.0971 -0.2313
  606TMC3    C6 9034   3.332   1.087   0.083 -0.6572 -0.4691  0.3305
  606TMC3     C 9035   3.016   0.819   0.180  0.1133  0.0698 -0.3144
  606TMC3     O 9036   3.013   0.770   0.289  0.5272  0.2592  0.3198
  606TMC3     H 9037   3.181   0.926   0.341  1.1597 -0.8431 -0.1260
  606TMC3    H1 9038   3.081   0.940  17.658  0.0185  0.5495 -0.7049
  606TMC3    H2 9039   3.424   1.138   0.055 -1.4485  0.6447 -0.2619
  606TMC3    C7 9040   3.317   1.048  17.578  0.1227  0.2458 -0.7532
  606TMC3    C8 9041   3.429   1.043   0.300  0.5601 -0.7349  0.3349
  606TMC3    O1 9042   3.363   1.155  17.548  0.1596  0.1142 -0.7437
  606TMC3    O2 9043   3.535   1.074   0.256 -0.3448  0.6408 -0.6861
  607MPD2     C 9044   0.921   4.075  11.880  0.1517  0.3292 -0.3364
  607MPD2    C1 9045   0.996   4.170  11.946 -0.5602  0.3265  1.0498
  607MPD2    C2 9046   1.033   4.138  12.077 -0.1007 -0.0825 -0.1123
  607MPD2    C3 9047   1.003   4.014  12.136 -0.6070  0.8091 -0.1823
  607MPD2    C4 9048   0.925   3.929  12.074 -0.0797 -0.3125  0.4468
  607MPD2    C5 9049   0.890   3.955  11.942 -0.5437 -0.1714  0.0971
  607MPD2     H 9050   1.081   4.215  12.136 -0.3598  0.6960 -0.9331
  607MPD2    H1 9051   0.897   3.830  12.109  1.0696 -1.1102 -0.8902
  607MPD2    H2 9052   0.886   4.083  11.778 -1.5037  0.0159  0.2112
  607MPD2    H3 9053   0.826   3.885  11.889 -0.1430  1.4726 -2.5534
  607MPD2     N 9054   1.046   4.005  12.272 -0.9035  0.4799 -0.4439
  607MPD2    H5 9055   1.102   4.085  12.300 -0.2248  0.3958 -1.5366
  607MPD2    N1 9056   1.039   4.295  11.896 -0.5973 -0.0911 -0.0066
  607MPD2    H7 9057   1.090   4.349  11.964 -1.3077  0.5829 -0.0076
  608TMC3    C1 9058   1.054   4.485  11.774 -0.4087  0.5204  0.0613
  608TMC3    C2 9059   1.076   4.557  11.888 -0.0055 -0.0692 -0.3177
  608TMC3    C3 9060   1.151   4.670  11.884 -0.3887  1.0700  0.1112
  608TMC3    C4 9061   1.126   4.513  11.657 -0.2818 -0.0216  0.3041
  608TMC3    C5 9062   1.234   4.588  11.671  0.4565 -0.4352  0.1050
  608TMC3    C6 9063   1.243   4.675  11.782 -0.1607 -0.2073 -0.6183
  608TMC3     C 9064   1.002   4.349  11.780  1.0676  0.4064 -0.6650
  608TMC3     O 9065   0.957   4.293  11.681  0.3997 -0.6473  0.5184
  608TMC3     H 9066   1.025   4.533  11.981 -1.2479  0.0785 -0.9615
  608TMC3    H1 9067   1.095   4.446  11.578 -1.0100  0.4305  0.2124
  608TMC3    H2 9068   1.335   4.731  11.788 -0.5040  0.1927  0.7561
  608TMC3    C7 9069   1.276   4.641  11.535 -0.4636 -0.1805  0.0963
  608TMC3    C8 9070   1.221   4.720  12.007 -0.4957  0.6114 -0.1010
  608TMC3    O1 9071   1.207   4.608  11.444  0.1676 -0.0156  0.0472
  608TMC3    O2 9072   1.274   0.098  12.016 -0.1148 -0.1618 -0.3494
  609TMC3    C1 9073   3.846   3.470  10.173  0.1447  0.0797 -0.8854
  609TMC3    C2 9074   3.739   3.539  10.121  1.0420  0.1407 -0.2733
  609TMC3    C3 9075   3.761   3.600  10.001 -0.4619  0.0292  0.0032
  609TMC3    C4 9076   3.952   3.428  10.099 -0.6192  0.1804  0.2713
  609TMC3    C5 9077   3.954   3.467   9.964 -0.3189 -0.8360  0.5354
  609TMC3    C6 9078   3.863   3.565   9.918 -0.2309 -0.0450 -0.2263
  609TMC3     C 9079   3.851   3.450  10.312 -0.0543 -0.4497 -0.4195
  609TMC3     O 9080   3.889   3.344  10.360  0.5247  0.1718 -0.9148
  609TMC3     H 9081   3.668   3.579  10.191 -1.2243  0.0800 -2.5332
  609TMC3    H1 9082   4.040   3.379  10.140 -1.0149 -1.8879 -1.3635
  609TMC3    H2 9083   3.875   3.606   9.818 -2.1037  2.5660  0.6332
  609TMC3    C7 9084   4.070   3.451   9.888  0.7972  0.2029 -0.9716
  609TMC3    C8 9085   3.678   3.708   9.951 -0.4275 -0.2800 -0.0496
  609TMC3    O1 9086   4.169   3.477   9.958  0.1314  0.5251  0.0295
  609TMC3    O2 9087   3.709   3.757   9.843 -0.4080 -0.5765 -1.2214
  610TMC3    C1 9088   1.729   3.942  12.736 -0.5867  0.3548  0.8623
  610TMC3    C2 9089   1.678   4.045  12.655  0.4139  1.1847  0.1641
  610TMC3    C3 9090   1.766   4.087  12.566  0.5556 -0.3248  0.1944
  610TMC3    C4 9091   1.855   3.882  12.719 -0.3594  0.6093 -0.7124
  610TMC3    C5 9092   1.936   3.933  12.618  0.4864 -0.4264 -0.6332
  610TMC3    C6 9093   1.890   4.039  12.543  0.0352 -0.1765 -0.2977
  610TMC3     C 9094   1.664   3.945  12.866  0.1338 -0.2269 -0.4012
  610TMC3     O 9095   1.583   4.032  12.880 -0.1606  0.0437  0.9216
  610TMC3     H 9096   1.585   4.097  12.673  0.9986  2.1502  0.4381
  610TMC3    H1 9097   1.897   3.808  12.787  3.4226  1.6155 -1.9254
  610TMC3    H2 9098   1.947   4.081  12.461  0.9537  0.0573  0.4636
  610TMC3    C7 9099   2.075   3.911  12.619 -0.1884 -0.6829 -0.3602
  610TMC3    C8 9100   1.716   4.207  12.488  0.3667 -0.1476 -0.3853
  610TMC3    O1 9101   2.130   3.940  12.515 -0.9469 -0.5620 -0.0873
  610TMC3    O2 9102   1.646   4.283  12.543  0.8440  0.4043 -0.6398
  611MPD2     C 9103   0.531   4.272  10.742  0.3010 -0.2322 -0.0090
  611MPD2    C1 9104   0.486   4.280  10.607 -0.0593 -1.0393 -0.3257
  611MPD2    C2 9105   0.555   4.366  10.520 -0.3463  0.2494  0.1674
  611MPD2    C3 9106   0.670   4.427  10.563 -0.1113  0.1777 -0.2303
  611MPD2    C4 9107   0.729   4.395  10.686 -0.1775 -0.3466  0.3137
  611MPD2    C5 9108   0.656   4.317  10.774 -0.1759 -0.9521  0.4669
  611MPD2     H 9109   0.517   4.394  10.422  1.8734  0.2253 -0.6982
  611MPD2    H1 9110   0.812   4.458  10.713  1.4034 -1.8190 -1.1120
  611MPD2    H2 9111   0.468   4.234  10.822  0.8219  0.9285  0.9567
  611MPD2    H3 9112   0.684   4.312  10.879  0.1667 -2.2966  0.3176
  611MPD2     N 9113   0.739   4.526  10.479  0.1090  0.1020  0.0502
  611MPD2    H5 9114   0.833   4.556  10.502 -0.9511  1.7567  2.2058
  611MPD2    N1 9115   0.359   4.224  10.577 -0.3266 -0.2313 -0.5652
  611MPD2    H7 9116   0.302   4.184  10.651 -0.6063  0.8286 -0.2080
  612TMC3    C1 9117   0.766   4.699  10.322 -0.2903  0.7219  0.6551
  612TMC3    C2 9118   0.892   4.714  10.375 -0.4949  0.3933 -0.0415
  612TMC3    C3 9119   0.980   0.057  10.302 -0.6781  0.2214  0.5078
  612TMC3    C4 9120   0.731   0.005  10.199 -0.0475  0.4585  0.0698
  612TMC3    C5 9121   0.817   0.085  10.130 -0.3871  0.0613  0.3166
  612TMC3    C6 9122   0.941   0.116  10.182  0.1872 -0.7128 -0.5189
  612TMC3     C 9123   0.672   4.604  10.382 -0.0415 -0.4254 -0.2362
  612TMC3     O 9124   0.557   4.612  10.352 -0.0035 -0.3074 -0.9893
  612TMC3     H 9125   0.920   4.683  10.475 -1.3035  0.0227  0.0664
  612TMC3    H1 9126   0.632   4.720  10.160 -0.2560 -1.4705  1.5227
  612TMC3    H2 9127   1.011   0.186  10.139  1.6468 -1.6989  0.2732
  612TMC3    C7 9128   0.771   0.121   9.998 -0.1562  0.3914  0.5897
  612TMC3    C8 9129   1.122   0.075  10.335 -0.0434  0.4535 -0.3228
  612TMC3    O1 9130   0.687   0.050   9.957 -0.3186 -0.2171 -0.0415
  612TMC3    O2 9131   1.176   0.176  10.285  0.0170  0.2166 -0.1266
  613MPD2     C 9132   4.512   1.325  16.425  0.2982 -0.2103  0.6088
  613MPD2    C1 9133   4.565   1.343  16.303  0.0156 -0.7185 -0.7055
  613MPD2    C2 9134   4.597   1.225  16.219  0.3518  0.1220 -0.3835
  613MPD2    C3 9135   4.576   1.094  16.268 -0.4665 -0.4184 -0.0915
  613MPD2    C4 9136   4.514   1.082  16.393  0.6761 -0.0294 -0.4729
  613MPD2    C5 9137   4.477   1.199  16.458  0.7075  0.2759 -0.6875
  613MPD2     H 9138   4.656   1.245  16.131 -2.3091  2.2596 -1.6780
  613MPD2    H1 9139   4.509   0.991  16.452 -2.1624  0.2762 -0.2557
  613MPD2    H2 9140   4.479   1.402  16.493 -3.2544 -1.1252 -0.0587
  613MPD2    H3 9141   4.424   1.189  16.552  0.8766 -0.7925 -0.7021
  613MPD2     N 9142   4.629   0.982  16.215  0.6343  0.5926  0.2227
  613MPD2    H5 9143   4.620   0.902  16.276  0.9978 -1.0338 -1.8448
  613MPD2    N1 9144   4.615   1.476  16.275 -0.1098 -0.0107 -0.3221
  613MPD2    H7 9145   4.619   1.553  16.341 -2.4593  0.1957 -0.4186
  614TMC3    C1 9146   4.725   1.652  16.154 -0.3540 -0.6137  0.2549
  614TMC3    C2 9147   0.088   1.674  16.243  0.1232  0.0536  0.6760
  614TMC3    C3 9148   0.182   1.763  16.193 -0.2921 -0.2645  0.2940
  614TMC3    C4 9149   4.723   1.709  16.029  0.3682  0.0086  0.1875
  614TMC3    C5 9150   0.083   1.791  15.989  0.1050  0.5720 -0.3542
  614TMC3    C6 9151   0.175   1.833  16.081  0.7047  0.1966 -0.2170
  614TMC3     C 9152   4.654   1.520  16.151  0.3218 -0.9049 -0.3451
  614TMC3     O 9153   4.634   1.473  16.036 -0.2197  0.4978 -0.2181
  614TMC3     H 9154   0.114   1.620  16.333  2.6079 -1.2324 -0.8091
  614TMC3    H1 9155   4.641   1.692  15.961  0.3820  0.7329 -0.0043
  614TMC3    H2 9156   0.248   1.905  16.047  0.1181  0.6571 -0.4972
  614TMC3    C7 9157   0.029   1.894  15.900  0.2225 -0.2547  0.3590
  614TMC3    C8 9158   0.310   1.749  16.263  0.2656  0.7047 -0.6399
  614TMC3    O1 9159   0.042   2.010  15.933  0.0817 -0.0376 -0.2326
  614TMC3    O2 9160   0.304   1.753  16.388  0.6489  0.3428 -0.3003
  615MPD2     C 9161   3.666   2.741  16.292  0.3020  0.5496 -0.1065
  615MPD2    C1 9162   3.796   2.786  16.277  0.1135 -0.5720 -0.1962
  615MPD2    C2 9163   3.831   2.871  16.177 -0.2753  0.0921 -0.3562
  615MPD2    C3 9164   3.736   2.900  16.072 -0.3022  0.2095  0.5713
  615MPD2    C4 9165   3.607   2.853  16.087  0.6998 -0.2213  0.7586
  615MPD2    C5 9166   3.574   2.779  16.200  0.4005 -0.5540 -0.0371
  615MPD2     H 9167   3.935   2.898  16.169  0.0039 -1.6645 -2.7626
  615MPD2    H1 9168   3.531   2.874  16.013  0.8327  3.5663  1.7267
  615MPD2    H2 9169   3.632   2.684  16.378  0.5953 -1.0847 -1.0709
  615MPD2    H3 9170   3.472   2.743  16.208 -0.1001 -0.0396 -4.2457
  615MPD2     N 9171   3.768   2.980  15.964  0.5554  0.3130 -0.7640
  615MPD2    H5 9172   3.690   2.996  15.903 -0.2571 -1.1799 -0.1288
  615MPD2    N1 9173   3.904   2.756  16.363  0.5550  0.0630  0.6232
  615MPD2    H7 9174   3.998   2.790  16.347 -0.7539  4.2866  2.1404
  616TMC3    C1 9175   4.026   2.657  16.542 -0.9726  0.1635  0.0676
  616TMC3    C2 9176   4.133   2.686  16.464  0.0479  1.0130 -0.3707
  616TMC3    C3 9177   4.250   2.728  16.521  0.1156  0.2103  0.3920
  616TMC3    C4 9178   4.032   2.668  16.679 -0.5871 -0.4965 -0.1109
  616TMC3    C5 9179   4.148   2.717  16.728 -0.0943 -0.3650 -0.0787
  616TMC3    C6 9180   4.260   2.733  16.657  0.6235 -0.0727  0.0802
  616TMC3     C 9181   3.894   2.682  16.486  0.1953  0.4217  0.0136
  616TMC3     O 9182   3.795   2.632  16.546 -0.4441  0.1415 -0.4434
  616TMC3     H 9183   4.123   2.670  16.358  0.8693  0.1790 -0.3209
  616TMC3    H1 9184   3.942   2.649  16.736 -0.6247 -3.0516 -1.0468
  616TMC3    H2 9185   4.345   2.773  16.710 -0.9176  3.4319 -0.0880
  616TMC3    C7 9186   4.161   2.730  16.873  0.0541  0.8390 -0.4047
  616TMC3    C8 9187   4.339   2.790  16.425 -0.3025  0.3786 -0.1295
  616TMC3    O1 9188   4.280   2.719  16.911  0.3830  0.9733  0.3044
  616TMC3    O2 9189   4.292   2.796  16.314 -0.1479 -0.8090  0.1103
  617MPD2     C 9190   2.475   1.258  13.442 -0.8625 -0.3797 -1.0630
  617MPD2    C1 9191   2.529   1.151  13.518  0.8023 -0.5344  0.0469
  617MPD2    C2 9192   2.446   1.078  13.600 -0.9233 -0.0770  0.1780
  617MPD2    C3 9193   2.312   1.116  13.611  0.6664  0.1430  0.3901
  617MPD2    C4 9194   2.262   1.214  13.526  0.3548 -0.1978 -0.3830
  617MPD2    C5 9195   2.342   1.286  13.445  0.5566  0.1745  0.3961
  617MPD2     H 9196   2.484   0.990  13.651 -1.6020 -0.0842  0.6655
  617MPD2    H1 9197   2.159   1.246  13.526  0.0146 -1.2598  0.6126
  617MPD2    H2 9198   2.542   1.311  13.375  1.1440  0.6222  1.7399
  617MPD2    H3 9199   2.305   1.370  13.387  0.0519  0.6836  1.4616
  617MPD2     N 9200   2.219   1.057  13.696  0.0551  0.5884  0.3752
  617MPD2    H5 9201   2.131   1.108  13.700 -0.9714 -1.2163  0.5719
  617MPD2    N1 9202   2.672   1.138  13.518 -0.3910 -0.2809 -0.2403
  617MPD2    H7 9203   2.724   1.214  13.477  0.1021 -0.9216 -0.8070
  618TMC3    C1 9204   2.883   1.077  13.588  0.2675 -0.7208  0.2379
  618TMC3    C2 9205   2.967   0.976  13.617 -0.9040 -0.4548  0.4622
  618TMC3    C3 9206   3.102   1.003  13.613 -0.2872 -1.1804  0.0463
  618TMC3    C4 9207   2.924   1.205  13.564 -0.0562  0.3361  0.0188
  618TMC3    C5 9208   3.057   1.220  13.553  0.5275 -0.5427 -0.5630
  618TMC3    C6 9209   3.149   1.126  13.590 -0.3925  0.3505  0.2070
  618TMC3     C 9210   2.744   1.040  13.578 -0.0232  0.6660  0.1427
  618TMC3     O 9211   2.710   0.934  13.618 -0.1365  0.1341 -0.4165
  618TMC3     H 9212   2.941   0.872  13.629 -2.4518  0.0651  1.4455
  618TMC3    H1 9213   2.858   1.291  13.559 -0.2492  0.1909  0.0836
  618TMC3    H2 9214   3.250   1.166  13.592 -1.0615  2.1362 -1.2630
  618TMC3    C7 9215   3.103   1.333  13.481 -0.6153 -0.2126  0.0972
  618TMC3    C8 9216   3.194   0.889  13.595 -0.0595  0.8233  1.0441
  618TMC3    O1 9217   3.057   1.429  13.531  0.4452 -0.3592  0.2865
  618TMC3    O2 9218   3.146   0.778  13.602 -0.5502 -0.4797  0.1601
  619MPD2     C 9219   3.895   2.038  14.133  0.1109 -0.2609 -0.0838
  619MPD2    C1 9220   3.850   1.981  14.023 -0.8126  0.2965  0.3056
  619MPD2    C2 9221   3.722   1.932  14.011  0.5394 -0.5423 -0.0595
  619MPD2    C3 9222   3.641   1.928  14.124  0.3140 -0.1271 -0.5632
  619MPD2    C4 9223   3.698   1.974  14.243 -0.3335 -0.1307 -0.0027
  619MPD2    C5 9224   3.813   2.041  14.250  0.6549  1.0243 -0.1438
  619MPD2     H 9225   3.688   1.905  13.912  0.4754 -1.0762  0.1081
  619MPD2    H1 9226   3.646   1.956  14.337  2.4591 -1.2758  1.3379
  619MPD2    H2 9227   3.992   2.086  14.140 -1.2131  2.3358  0.5419
  619MPD2    H3 9228   3.848   2.084  14.343  1.0992 -1.1046  0.6737
  619MPD2     N 9229   3.509   1.869  14.122  0.0772 -0.4011 -0.2467
  619MPD2    H5 9230   3.456   1.895  14.204 -0.8782  0.0428 -1.0061
  619MPD2    N1 9231   3.928   1.983  13.902 -0.3727  0.4667  0.9414
  619MPD2    H7 9232   3.883   1.968  13.812 -3.6033  0.8620  2.4964
  620TMC3    C1 9233   4.105   2.024  13.763 -0.0317  0.2372 -0.4979
  620TMC3    C2 9234   4.048   1.949  13.669 -0.3957 -0.1530 -0.6937
  620TMC3    C3 9235   4.034   1.999  13.543 -0.5361 -0.0617 -0.1368
  620TMC3    C4 9236   4.171   2.140  13.736  0.2753  0.0833 -0.1734
  620TMC3    C5 9237   4.163   2.185  13.604 -0.0153 -0.9337  0.7949
  620TMC3    C6 9238   4.097   2.116  13.510  0.9028 -0.6925 -0.1778
  620TMC3     C 9239   4.060   1.999  13.896 -0.4392 -0.6830 -0.1917
  620TMC3     O 9240   4.145   1.997  13.984  0.3438  0.0456 -0.7003
  620TMC3     H 9241   4.000   1.857  13.699 -0.7918 -0.5651 -2.5723
  620TMC3    H1 9242   4.231   2.187  13.813  0.9359  0.2315 -0.7818
  620TMC3    H2 9243   4.096   2.146  13.406  1.1147 -1.7283 -0.4875
  620TMC3    C7 9244   4.178   2.328  13.583  0.5533  0.3703 -0.1086
  620TMC3    C8 9245   3.895   2.022  13.529 -0.8138  0.2059 -0.0892
  620TMC3    O1 9246   4.107   2.367  13.496 -0.0812  0.0591 -0.6175
  620TMC3    O2 9247   3.830   1.995  13.632  0.2679 -0.1632  0.1346
  621MPD2     C 9248   3.987   2.882  10.751  0.2884 -0.4552 -0.0147
  621MPD2    C1 9249   3.963   2.894  10.620 -1.0656  0.2382  0.2148
  621MPD2    C2 9250   4.000   3.008  10.555  0.0569  0.2548 -0.0851
  621MPD2    C3 9251   4.073   3.110  10.612  0.0491 -0.1595  0.3278
  621MPD2    C4 9252   4.101   3.095  10.749 -0.2551  1.0080  0.3921
  621MPD2    C5 9253   4.049   2.991  10.818 -0.1965 -0.2299  0.0057
  621MPD2     H 9254   3.980   3.023  10.449  1.9977 -0.3748 -0.5378
  621MPD2    H1 9255   4.153   3.171  10.807 -1.1232  1.6051  0.3793
  621MPD2    H2 9256   3.945   2.797  10.804 -0.6106 -1.1792 -1.9082
  621MPD2    H3 9257   4.062   2.983  10.925  0.2276  0.9628  0.0383
  621MPD2     N 9258   4.107   3.224  10.536 -0.5908 -0.1119  0.4169
  621MPD2    H5 9259   4.056   3.225  10.448 -2.2649  1.8423  1.4323
  621MPD2    N1 9260   3.900   2.790  10.546 -0.8366  0.4448  0.2263
  621MPD2    H7 9261   3.891   2.801  10.446 -0.6049  1.0768  0.2759
  622TMC3    C1 9262   3.773   2.602  10.495  0.6321  0.7840  0.5079
  622TMC3    C2 9263   3.668   2.518  10.540 -0.1429  0.0039 -0.2045
  622TMC3    C3 9264   3.578   2.476  10.448  0.5439 -0.5137 -0.0948
  622TMC3    C4 9265   3.785   2.636  10.363 -0.5729  1.2899 -0.0188
  622TMC3    C5 9266   3.679   2.602  10.280 -0.0754 -0.3494  0.1019
  622TMC3    C6 9267   3.576   2.523  10.320 -0.4864 -0.1362 -0.1952
  622TMC3     C 9268   3.831   2.683  10.601 -0.6674 -0.3734 -0.1369
  622TMC3     O 9269   3.792   2.657  10.713 -0.4888  0.3957 -0.4401
  622TMC3     H 9270   3.665   2.478  10.640 -2.2322  1.5000  0.3284
  622TMC3    H1 9271   3.879   2.662  10.316 -0.1199  0.6632  0.5240
  622TMC3    H2 9272   3.486   2.523  10.259 -0.5174  0.6226 -0.1481
  622TMC3    C7 9273   3.663   2.704  10.180  0.1913  0.5249  0.1403
  622TMC3    C8 9274   3.450   2.461  10.502 -0.4423 -0.2610 -0.8499
  622TMC3    O1 9275   3.755   2.759  10.116 -0.0954  0.1303 -0.0011
  622TMC3    O2 9276   3.428   2.510  10.612  0.8158 -0.1252 -0.0105
  623MPD2     C 9277   3.048   3.458  15.783  0.0903  0.1296  0.0163
  623MPD2    C1 9278   2.973   3.421  15.894  0.2323 -0.5502  0.5288
  623MPD2    C2 9279   3.024   3.441  16.019  0.0615 -0.5924  0.2324
  623MPD2    C3 9280   3.140   3.506  16.039  0.9874  0.2747 -0.4911
  623MPD2    C4 9281   3.208   3.560  15.929  0.4391  0.0380 -0.1326
  623MPD2    C5 9282   3.160   3.533  15.796 -0.1224  0.5951 -0.3848
  623MPD2     H 9283   2.976   3.390  16.102  1.9714 -1.0109  1.0973
  623MPD2    H1 9284   3.299   3.617  15.945  0.6112 -0.5379  0.9174
  623MPD2    H2 9285   3.019   3.427  15.683  3.3120 -2.5179 -0.0971
  623MPD2    H3 9286   3.220   3.569  15.713 -1.6198  1.5414 -1.0474
  623MPD2     N 9287   3.189   3.518  16.170 -0.1148 -0.7094  0.3588
  623MPD2    H5 9288   3.136   3.479  16.247 -2.4944  0.7938 -0.5050
  623MPD2    N1 9289   2.850   3.348  15.868 -0.6310 -0.5882  0.0772
  623MPD2    H7 9290   2.803   3.308  15.948  4.0370  0.1004  3.1645
  624TMC3    C1 9291   3.466   3.553  16.546 -0.3199  0.3193  0.0218
  624TMC3    C2 9292   3.362   3.585  16.618  0.1902  0.0760 -0.7693
  624TMC3    C3 9293   3.241   3.618  16.555 -0.0976 -0.1687 -0.2421
  624TMC3    C4 9294   3.450   3.530  16.415 -0.2888  0.5637 -0.2241
  624TMC3    C5 9295   3.338   3.563  16.351  0.1303  0.9529 -0.1703
  624TMC3    C6 9296   3.228   3.609  16.418 -0.7290 -0.0308  0.1591
  624TMC3     C 9297   3.568   3.480  16.620  0.3814  0.3943 -0.5347
  624TMC3     O 9298   3.598   3.520  16.734 -0.3383 -0.2265 -0.2901
  624TMC3     H 9299   3.360   3.597  16.726  0.6698 -1.2530 -0.6143
  624TMC3    H1 9300   3.534   3.505  16.351 -0.9688  2.3569 -1.8053
  624TMC3    H2 9301   3.132   3.631  16.373 -0.6768 -2.3733 -1.1299
  624TMC3    C7 9302   3.323   3.543  16.203  0.6795  0.2637  0.0911
  624TMC3    C8 9303   3.119   3.574  16.619 -0.5380 -0.3983 -0.0189
  624TMC3    O1 9304   3.422   3.554  16.132  0.1603 -0.2442  0.0501
  624TMC3    O2 9305   3.065   3.487  16.554  0.3812  0.3473  0.1382
  625MPD2     C 9306   3.046   4.156   0.883 -0.1073 -0.1961 -0.4243
  625MPD2    C1 9307   3.101   4.264   0.821 -0.8218  0.5542  0.1576
  625MPD2    C2 9308   3.241   4.271   0.810 -0.0692  0.1703 -0.2555
  625MPD2    C3 9309   3.316   4.171   0.860  0.3455 -0.4072  0.5862
  625MPD2    C4 9310   3.258   4.066   0.928  0.2517  0.6359 -0.3001
  625MPD2    C5 9311   3.126   4.057   0.929 -0.2115  0.1252 -0.7220
  625MPD2     H 9312   3.289   4.365   0.786  0.8576 -0.2368 -0.0188
  625MPD2    H1 9313   3.307   3.984   0.978  0.1147 -0.8919 -2.6488
  625MPD2    H2 9314   2.943   4.152   0.914  0.4165 -1.6323  1.1299
  625MPD2    H3 9315   3.078   3.971   0.973  1.0862 -0.5192 -0.5666
  625MPD2     N 9316   3.455   4.195   0.874 -0.1395 -0.0969 -0.2211
  625MPD2    H5 9317   3.496   4.280   0.837  0.4140 -0.4028 -0.3182
  625MPD2    N1 9318   3.018   4.370   0.776  0.2106 -0.0999  0.7003
  625MPD2    H7 9319   2.920   4.373   0.800 -0.2315 -0.9193 -0.9877
  626TMC3    C1 9320   2.942   4.543   0.654  0.3536  1.1790  0.3763
  626TMC3    C2 9321   2.923   4.581   0.525 -0.3608  0.9222 -0.6829
  626TMC3    C3 9322   2.797   4.626   0.496 -0.2308  0.3468  0.6828
  626TMC3    C4 9323   2.851   4.555   0.753  0.5999 -0.2892 -0.4750
  626TMC3    C5 9324   2.733   4.613   0.723 -0.0038 -1.0141  0.2840
  626TMC3    C6 9325   2.702   4.643   0.595  0.1543 -0.3818  0.2236
  626TMC3     C 9326   3.057   4.459   0.682 -0.2308 -0.0291 -0.0619
  626TMC3     O 9327   3.153   4.452   0.605  0.1559 -0.0907 -0.5210
  626TMC3     H 9328   3.001   4.590   0.450  2.0420 -1.1538  1.5803
  626TMC3    H1 9329   2.869   4.544   0.859  0.5790  0.7837 -0.3550
  626TMC3    H2 9330   2.605   4.678   0.563  0.5086 -0.3013 -0.7319
  626TMC3    C7 9331   2.652   4.664   0.831 -0.3233 -0.4661 -0.6610
  626TMC3    C8 9332   2.759   4.638   0.355  0.5093 -0.3728  0.1715
  626TMC3    O1 9333   2.694   4.653   0.946 -0.1569  0.2057 -0.7623
  626TMC3    O2 9334   2.853   4.654   0.277 -0.5192  0.1491 -0.0768
  627MPD2     C 9335   1.725   4.681  14.501  0.3060  0.0807 -0.0902
  627MPD2    C1 9336   1.821   4.603  14.563 -0.2058 -0.0113 -0.4294
  627MPD2    C2 9337   1.803   4.468  14.555  0.3457 -0.5404  0.3547
  627MPD2    C3 9338   1.703   4.408  14.477  0.6266 -0.3307  0.1364
  627MPD2    C4 9339   1.615   4.489  14.412  0.7545 -0.1590  0.0548
  627MPD2    C5 9340   1.625   4.625  14.422 -0.3442 -0.3963 -1.0312
  627MPD2     H 9341   1.867   4.397  14.607  0.1241 -0.3900  0.8335
  627MPD2    H1 9342   1.545   4.446  14.342 -0.6757  4.3058 -1.2827
  627MPD2    H2 9343   1.724   0.056  14.504 -1.4254  0.0226  1.4761
  627MPD2    H3 9344   1.552   4.687  14.372  0.0463  0.5107 -0.4664
  627MPD2     N 9345   1.698   4.265  14.482  0.1200 -0.2940 -0.4813
  627MPD2    H5 9346   1.769   4.222  14.541 -0.4435  0.3886  0.7019
  627MPD2    N1 9347   1.936   4.649  14.623  0.2474 -0.2321  0.8884
  627MPD2    H7 9348   2.002   4.582  14.659  2.6556  1.4984 -0.2649
  628TMC3    C1 9349   2.113   0.071  14.677  0.7803  0.0810 -0.1302
  628TMC3    C2 9350   2.180   4.708  14.746 -0.6158 -0.1054  0.5627
  628TMC3    C3 9351   2.315   4.721  14.777 -0.3268 -0.6630 -0.2202
  628TMC3    C4 9352   2.180   0.188  14.630  0.2524 -0.7860  0.2410
  628TMC3    C5 9353   2.318   0.197  14.657  0.8490 -0.8986 -0.1408
  628TMC3    C6 9354   2.379   0.101  14.737 -0.6299  1.3776 -0.2292
  628TMC3     C 9355   1.977   0.049  14.629 -0.4721 -0.0828  0.0839
  628TMC3     O 9356   1.913   0.142  14.582 -0.6047 -0.4703 -0.6682
  628TMC3     H 9357   2.139   4.610  14.767  0.7608 -1.1204 -1.5368
  628TMC3    H1 9358   2.119   0.259  14.575 -0.5476 -0.2249  1.8514
  628TMC3    H2 9359   2.486   0.085  14.740 -0.9175 -0.6436 -0.6764
  628TMC3    C7 9360   2.399   0.256  14.549  0.7156  0.3942  0.9263
  628TMC3    C8 9361   2.375   4.592  14.734 -0.2145 -0.6408 -0.0684
  628TMC3    O1 9362   2.517   0.227  14.544  0.1549  0.1008 -0.3451
  628TMC3    O2 9363   2.313   4.521  14.657  0.6006 -0.1877 -0.3175
  629MPD2     C 9364   4.719   3.096  16.284  0.0360  0.2661 -0.5139
  629MPD2    C1 9365   0.018   3.045  16.404 -0.2246 -0.4919  0.0783
  629MPD2    C2 9366   4.653   2.977  16.469  0.1161  1.0587 -0.0815
  629MPD2    C3 9367   4.531   2.943  16.405 -0.3487 -0.1576  0.3471
  629MPD2    C4 9368   4.509   3.003  16.284  0.8763 -0.0903  0.1518
  629MPD2    C5 9369   4.594   3.084  16.223 -0.6431 -0.4546  0.5889
  629MPD2     H 9370   4.671   2.944  16.570 -1.5312  1.5875  0.3807
  629MPD2    H1 9371   4.413   2.993  16.235 -0.1405  4.1662  1.2795
  629MPD2    H2 9372   0.056   3.157  16.229  1.0377 -0.5762 -0.1632
  629MPD2    H3 9373   4.576   3.122  16.124  0.4558 -0.4046  0.4018
  629MPD2     N 9374   4.450   2.847  16.474 -0.1353 -0.0396 -0.3541
  629MPD2    H5 9375   4.481   2.800  16.559 -1.0567  2.5466  1.4167
  629MPD2    N1 9376   0.144   3.067  16.467 -0.2242  0.4331  0.1560
  629MPD2    H7 9377   0.221   3.114  16.419  2.2425 -0.2058  3.4956
  630TMC3    C1 9378   0.319   3.079  16.620  0.0079 -0.4465  0.4101
  630TMC3    C2 9379   0.374   3.189  16.554  0.0420  0.8514  0.3558
  630TMC3    C3 9380   0.482   3.242  16.606 -0.0236  0.9967 -0.1755
  630TMC3    C4 9381   0.368   3.041  16.738 -0.8582 -0.3319 -0.0049
  630TMC3    C5 9382   0.488   3.094  16.778 -0.1073  0.2126  0.4651
  630TMC3    C6 9383   0.537   3.208  16.728 -0.6432 -0.2342  0.5143
  630TMC3     C 9384   0.186   3.034  16.591  0.0639  0.2019  0.9769
  630TMC3     O 9385   0.123   2.992  16.689 -0.2519  0.1167  0.1709
  630TMC3     H 9386   0.324   3.236  16.470  0.9353  1.0599 -0.0645
  630TMC3    H1 9387   0.335   2.942  16.769 -0.3213 -0.5201 -0.0338
  630TMC3    H2 9388   0.624   3.256  16.770  0.1794 -0.0712 -1.3895
  630TMC3    C7 9389   0.534   3.056  16.914  0.5745 -0.2620  0.2111
  630TMC3    C8 9390   0.564   3.337  16.537 -0.2159 -0.3237  0.0537
  630TMC3    O1 9391   0.449   2.997  16.978 -0.8848  0.1784  0.2856
  630TMC3    O2 9392   0.681   3.334  16.572  0.5635 -0.0705  0.4665
  631MPD2     C 9393   3.304   3.509  15.323  0.2228  0.6119  0.0335
  631MPD2    C1 9394   3.422   3.542  15.273  0.1513  0.0798 -0.0127
  631MPD2    C2 9395   3.535   3.477  15.320 -0.1997  0.5983  0.1783
  631MPD2    C3 9396   3.524   3.378  15.411  0.8850  0.4275 -0.3544
  631MPD2    C4 9397   3.403   3.340  15.453 -0.2400  0.0167 -0.4800
  631MPD2    C5 9398   3.291   3.396  15.402 -0.4841 -0.2702 -0.0656
  631MPD2     H 9399   3.634   3.499  15.281 -0.0598  1.0886  0.8222
  631MPD2    H1 9400   3.394   3.256  15.522 -1.8779 -0.1223 -0.8629
  631MPD2    H2 9401   3.215   3.557  15.284 -1.3018 -1.4604  0.9892
  631MPD2    H3 9402   3.192   3.367  15.435  0.5810 -1.6177  1.9379
  631MPD2     N 9403   3.642   3.312  15.463 -0.3258  0.6199 -0.0476
  631MPD2    H5 9404   3.731   3.341  15.424 -0.1120 -0.9025 -0.6586
  631MPD2    N1 9405   3.426   3.645  15.170  0.5510  0.5867 -0.1473
  631MPD2    H7 9406   3.339   3.688  15.141 -0.4057  0.0530  1.9714
  632TMC3    C1 9407   3.488   3.792  15.012  0.2034 -0.3866  0.7675
  632TMC3    C2 9408   3.377   3.851  15.044  0.2119 -0.0633 -0.3657
  632TMC3    C3 9409   3.285   3.864  14.941 -0.1907  0.2799 -0.0619
  632TMC3    C4 9410   3.515   3.755  14.881  0.5084  0.1834  0.3056
  632TMC3    C5 9411   3.423   3.775  14.784 -0.3397 -0.0620  0.1720
  632TMC3    C6 9412   3.303   3.828  14.816 -0.7472  0.2760 -0.2293
  632TMC3     C 9413   3.535   3.694  15.105 -0.5856  0.5568 -0.3585
  632TMC3     O 9414   3.657   3.662  15.107 -0.2129 -0.3894  0.5649
  632TMC3     H 9415   3.358   3.877  15.147  0.7615 -0.8346 -0.0765
  632TMC3    H1 9416   3.611   3.708  14.866 -0.0741 -0.5610 -1.0294
  632TMC3    H2 9417   3.236   3.842  14.731 -0.6655 -1.5211 -0.5943
  632TMC3    C7 9418   3.440   3.708  14.656 -0.3738  0.7258  0.2128
  632TMC3    C8 9419   3.149   3.870  14.991 -0.4681  0.2078 -0.5125
  632TMC3    O1 9420   3.369   3.743  14.562 -0.9198  0.4839 -0.3147
  632TMC3    O2 9421   3.132   3.831  15.109 -0.0295  0.2508 -0.3352
  633MPD2     C 9422   2.883   0.871  17.269  0.2896  0.6947  0.7989
  633MPD2    C1 9423   2.923   0.886  17.138 -0.8043 -0.3491 -0.5902
  633MPD2    C2 9424   2.895   0.782  17.046 -0.0804  0.2008 -0.5344
  633MPD2    C3 9425   2.820   0.670  17.083  0.8874  0.4021 -0.1187
  633MPD2    C4 9426   2.759   0.675  17.204 -0.0368  0.5797 -0.1467
  633MPD2    C5 9427   2.803   0.761  17.299 -0.4935  0.0912 -0.2120
  633MPD2     H 9428   2.920   0.810  16.944  1.2682 -0.8268 -0.4839
  633MPD2    H1 9429   2.691   0.600  17.244  1.9016  0.1386  2.3166
  633MPD2    H2 9430   2.916   0.942  17.344 -0.5074  1.0109  0.8539
  633MPD2    H3 9431   2.757   0.750  17.396  2.0945  1.5875  1.1844
  633MPD2     N 9432   2.801   0.559  16.997  0.6416  0.5638  0.6254
  633MPD2    H5 9433   2.728   0.499  17.033  0.3291  0.6311  0.0917
  633MPD2    N1 9434   2.998   0.998  17.092  0.3392 -1.0535  0.4883
  633MPD2    H7 9435   3.024   0.993  16.994  2.3303  0.5611  0.9337
  634TMC3    C1 9436   3.110   1.185  17.077 -0.3487 -0.6750  0.2272
  634TMC3    C2 9437   3.186   1.135  16.972  0.1757 -0.5144 -0.1991
  634TMC3    C3 9438   3.278   1.222  16.915  0.0732 -0.2806 -0.5425
  634TMC3    C4 9439   3.110   1.318  17.102 -0.5703  0.3623  0.3857
  634TMC3    C5 9440   3.196   1.398  17.036 -0.0850  0.3130  0.9464
  634TMC3    C6 9441   3.280   1.355  16.934 -0.2789 -0.2257 -0.4119
  634TMC3     C 9442   3.035   1.104  17.166  0.2370 -0.1427 -0.3536
  634TMC3     O 9443   2.999   1.139  17.279 -0.5743  0.7035 -0.0021
  634TMC3     H 9444   3.171   1.035  16.933  1.8972  0.0725 -2.3719
  634TMC3    H1 9445   3.037   1.356  17.172  0.1475  1.0668  0.7435
  634TMC3    H2 9446   3.363   1.414  16.898  0.7957 -1.1250  0.5522
  634TMC3    C7 9447   3.159   1.532  16.997  0.5326  0.7614  0.8675
  634TMC3    C8 9448   3.330   1.171  16.795  0.5578 -0.8455 -0.2685
  634TMC3    O1 9449   3.193   1.569  16.885 -0.7328 -0.1222  0.2999
  634TMC3    O2 9450   3.359   1.054  16.801  0.4231 -0.1009 -0.1063
  635TMC3    C1 9451   3.966   2.030   0.170  0.3441 -0.5983  0.4706
  635TMC3    C2 9452   3.977   1.971   0.050  0.2248  0.2235 -0.2474
  635TMC3    C3 9453   3.947   1.839   0.045 -0.5092 -0.5477 -0.2282
  635TMC3    C4 9454   3.934   1.967   0.283  0.1048 -0.2823  0.4420
  635TMC3    C5 9455   3.930   1.833   0.275  0.1262 -0.2870  0.5816
  635TMC3    C6 9456   3.925   1.762   0.157  0.1841  1.0945 -0.3509
  635TMC3     C 9457   3.911   2.163   0.180  0.0443  0.3867  0.6964
  635TMC3     O 9458   3.825   2.177   0.264  0.2257  0.3134  0.3581
  635TMC3     H 9459   3.992   2.027  17.693  0.3517 -0.8978 -0.9048
  635TMC3    H1 9460   3.936   2.008   0.383  0.7205 -1.5364  0.9479
  635TMC3    H2 9461   3.927   1.654   0.168 -0.5820  1.2472  1.2406
  635TMC3    C7 9462   3.921   1.769   0.407 -0.1707  0.4362  0.3067
  635TMC3    C8 9463   3.934   1.757  17.650  0.4218 -0.1281 -0.3909
  635TMC3    O1 9464   3.977   1.824   0.500  0.2749 -0.3837  0.6387
  635TMC3    O2 9465   3.913   1.639  17.669 -0.3495  0.4068  0.6492
  636MPD2     C 9466   4.316   1.672  15.586 -0.1833 -0.3702 -0.1856
  636MPD2    C1 9467   4.349   1.703  15.715 -0.5880  0.0923  0.0103
  636MPD2    C2 9468   4.419   1.610  15.788 -0.2982  0.2146  0.0494
  636MPD2    C3 9469   4.436   1.483  15.742  0.6689 -0.3650 -0.5044
  636MPD2    C4 9470   4.386   1.452  15.617  0.3489  0.1783 -0.6760
  636MPD2    C5 9471   4.332   1.546  15.537  0.2033  0.2494 -0.7154
  636MPD2     H 9472   4.448   1.629  15.891 -0.6350  2.9287 -0.3573
  636MPD2    H1 9473   4.396   1.358  15.564  0.3231  0.0169 -0.3960
  636MPD2    H2 9474   4.268   1.730  15.508  0.6922 -0.6331 -0.9342
  636MPD2    H3 9475   4.286   1.522  15.442 -1.2755 -1.4617  0.4275
  636MPD2     N 9476   4.519   1.387  15.811  0.2016 -0.1541 -0.3531
  636MPD2    H5 9477   4.576   1.424  15.886  0.0881 -1.8047  0.5458
  636MPD2    N1 9478   4.330   1.822  15.782 -0.1438  0.1037  0.0293
  636MPD2    H7 9479   4.361   1.825  15.879 -0.2296  1.2360  0.0187
  637TMC3    C1 9480   4.630   1.196  15.853  0.3708 -0.5931 -0.2181
  637TMC3    C2 9481   4.609   1.089  15.931  0.2939  0.6723  0.4394
  637TMC3    C3 9482   4.715   1.041  15.993 -0.1668  0.2514  0.2526
  637TMC3    C4 9483   0.014   1.258  15.831  0.4380 -0.0775 -0.3870
  637TMC3    C5 9484   0.118   1.207  15.901 -0.4377  0.3894  0.1668
  637TMC3    C6 9485   0.098   1.103  15.990 -0.4131  0.3190  0.2098
  637TMC3     C 9486   4.513   1.258  15.797 -0.9023  0.2609 -0.0676
  637TMC3     O 9487   4.428   1.192  15.743 -0.4883 -0.2381 -0.4872
  637TMC3     H 9488   4.508   1.066  15.962 -0.8615  1.5981 -2.6795
  637TMC3    H1 9489   0.022   1.352  15.778 -0.3023  1.2683  1.8709
  637TMC3    H2 9490   0.177   1.082  16.061 -1.2744  0.1431  1.1318
  637TMC3    C7 9491   0.206   1.301  15.966  0.1196  0.3080  0.3627
  637TMC3    C8 9492   4.698   0.948  16.100  0.1309 -0.1245 -0.2018
  637TMC3    O1 9493   0.188   1.321  16.085 -0.4830  0.6527 -0.3263
  637TMC3    O2 9494   0.002   0.835  16.070  0.0558 -0.3291  0.3391
  638MPD2     C 9495   3.779   0.520  15.046 -0.0219  0.7293  0.4854
  638MPD2    C1 9496   3.748   0.468  14.921 -0.2544 -0.0027 -0.0472
  638MPD2    C2 9497   3.778   0.333  14.899  0.0292  0.2494  0.8535
  638MPD2    C3 9498   3.851   0.259  14.992 -0.1075  0.4197  0.2370
  638MPD2    C4 9499   3.893   0.327  15.109 -0.0378 -0.2647 -0.4171
  638MPD2    C5 9500   3.850   0.451  15.145  0.0451  0.2061 -0.6090
  638MPD2     H 9501   3.756   0.294  14.801  2.1267  0.4538  0.3041
  638MPD2    H1 9502   3.952   0.269  15.179  0.0389 -0.9014 -1.0020
  638MPD2    H2 9503   3.745   0.620  15.071 -2.3869  0.5132 -1.8988
  638MPD2    H3 9504   3.879   0.498  15.238  2.3189 -0.5924 -0.9158
  638MPD2     N 9505   3.884   0.122  14.966  0.2848  0.1189  0.1813
  638MPD2    H5 9506   3.843   0.076  14.885  2.8792  0.6389 -1.4323
  638MPD2    N1 9507   3.678   0.552  14.830  0.2457 -0.7054  0.3955
  638MPD2    H7 9508   3.635   0.634  14.871  0.7347 -0.5330  0.5650
  639TMC3    C1 9509   3.977   4.635  14.996 -0.8967  0.8375 -0.0880
  639TMC3    C2 9510   3.884   4.589  14.906  0.3150  0.6474 -0.0850
  639TMC3    C3 9511   3.913   4.470  14.854 -0.0234 -0.7512  0.5446
  639TMC3    C4 9512   4.090   4.572  15.039  0.0861  0.2728 -0.6683
  639TMC3    C5 9513   4.104   4.445  14.983  0.0054  0.0983  0.0235
  639TMC3    C6 9514   4.020   4.393  14.886  0.7561 -0.0777  0.1661
  639TMC3     C 9515   3.964   0.039  15.043 -0.4600  0.5445 -0.5556
  639TMC3     O 9516   4.017   0.058  15.150  0.1357  0.4505  0.3183
  639TMC3     H 9517   3.795   4.647  14.884 -0.4861 -1.3114 -1.9384
  639TMC3    H1 9518   4.160   4.601  15.117 -2.4997  1.1764  1.3017
  639TMC3    H2 9519   4.023   4.294  14.841  0.2787 -0.9186  1.9886
  639TMC3    C7 9520   4.212   4.357  15.012  0.0057 -0.2712 -0.6893
  639TMC3    C8 9521   3.836   4.416  14.751  0.3689 -1.0326 -0.3809
  639TMC3    O1 9522   4.182   4.241  15.045  0.2448  0.3122  0.0460
  639TMC3    O2 9523   3.902   4.340  14.677  0.4710 -0.6561 -0.1471
  640MPD2     C 9524   0.243   4.567  10.493  0.1547  0.1856  0.0683
  640MPD2    C1 9525   0.145   4.584  10.394 -0.2778 -0.4114 -0.6959
  640MPD2    C2 9526   0.024   4.636  10.431 -0.8426  0.0314  0.1121
  640MPD2    C3 9527   0.000   4.688  10.561  0.2715 -0.4426  0.0146
  640MPD2    C4 9528   0.101   4.667  10.657  0.6186  0.2431 -1.1690
  640MPD2    C5 9529   0.222   4.608  10.622 -0.3411 -0.5097  0.1081
  640MPD2     H 9530   4.681   4.640  10.354 -0.9980  0.2627  0.2792
  640MPD2    H1 9531   0.089   4.710  10.756 -0.2036 -2.8692  0.0917
  640MPD2    H2 9532   0.338   4.527  10.459 -0.7677 -2.0564  0.1107
  640MPD2    H3 9533   0.294   4.587  10.701  1.6588 -0.2067 -1.6062
  640MPD2     N 9534   4.620   0.028  10.594  0.4428 -0.3882  0.2185
  640MPD2    H5 9535   4.612   0.069  10.686  0.1638  1.7233 -0.7338
  640MPD2    N1 9536   0.183   4.559  10.260  0.7585 -0.2086 -0.2628
  640MPD2    H7 9537   0.279   4.527  10.244  0.8612 -0.7521  1.4395
  641TMC3    C1 9538   0.162   4.526  10.032  0.4737 -0.1452 -0.7630
  641TMC3    C2 9539   0.192   4.392  10.034  0.2252 -0.7156  0.3148
  641TMC3    C3 9540   0.221   4.326   9.917  0.5151  0.3173  0.8615
  641TMC3    C4 9541   0.135   4.580   9.910  0.4051 -0.1853  0.3445
  641TMC3    C5 9542   0.162   4.508   9.791  0.4700 -0.0061 -0.4859
  641TMC3    C6 9543   0.206   4.383   9.793  0.7829 -0.1235  0.4338
  641TMC3     C 9544   0.101   4.576  10.153 -0.3717 -0.0449  0.9316
  641TMC3     O 9545   4.723   4.627  10.140  0.5245 -0.2102 -0.4803
  641TMC3     H 9546   0.200   4.341  10.129  0.5866  2.8062  2.1792
  641TMC3    H1 9547   0.106   4.684   9.906 -2.0468 -0.8812 -0.0582
  641TMC3    H2 9548   0.218   4.318   9.706  1.5933  1.4242 -0.6244
  641TMC3    C7 9549   0.138   4.566   9.660  0.4347  0.2003  0.2131
  641TMC3    C8 9550   0.228   4.179   9.918 -0.1284 -0.3041 -0.6784
  641TMC3    O1 9551   0.225   4.546   9.582 -0.1697 -0.0798  0.9098
  641TMC3    O2 9552   0.157   4.119   9.840  0.1217 -0.9214 -0.2197
  642TMC3    C1 9553   0.745   0.579  12.171  0.2744 -0.1615  0.5396
  642TMC3    C2 9554   0.864   0.634  12.225  0.2420  0.0047 -0.2055
  642TMC3    C3 9555   0.965   0.550  12.264 -0.4132 -0.4728 -0.0443
  642TMC3    C4 9556   0.734   0.444  12.166 -0.0222  0.0238 -0.5513
  642TMC3    C5 9557   0.838   0.366  12.205  1.0522  0.5890 -0.1494
  642TMC3    C6 9558   0.957   0.418  12.252 -0.3407  0.7987  0.2342
  642TMC3     C 9559   0.620   0.654  12.188 -0.1815  0.0041 -0.3243
  642TMC3     O 9560   0.516   0.588  12.202 -0.2352  0.3592 -0.6012
  642TMC3     H 9561   0.888   0.740  12.233  2.5972 -0.5894  0.4343
  642TMC3    H1 9562   0.641   0.401  12.131 -0.5609  0.5360  0.2472
  642TMC3    H2 9563   1.034   0.353  12.292 -0.8754  0.1586  0.2112
  642TMC3    C7 9564   0.815   0.223  12.179  0.2140  0.0128 -0.2625
  642TMC3    C8 9565   1.072   0.608  12.342 -0.0985 -0.5014 -0.1390
  642TMC3    O1 9566   0.736   0.191  12.097  0.1158 -0.4892 -0.0267
  642TMC3    O2 9567   1.047   0.719  12.389 -0.2000  0.1792 -0.1976
  643TMC3    C1 9568   4.649   4.435   0.664 -0.8134 -0.6253  0.6908
  643TMC3    C2 9569   4.538   4.447   0.586  0.1148 -0.0606 -0.3624
  643TMC3    C3 9570   4.520   4.563   0.519  0.1333 -0.0875  0.1415
  643TMC3    C4 9571   0.014   4.529   0.678 -0.0897 -0.0905  0.8220
  643TMC3    C5 9572   4.723   4.646   0.616 -0.6674 -0.2198 -0.1021
  643TMC3    C6 9573   4.613   4.666   0.532 -0.4354  0.5527 -0.7000
  643TMC3     C 9574   4.670   4.311   0.741 -0.4212  0.1180  0.2286
  643TMC3     O 9575   4.575   4.248   0.788 -0.3889 -0.7680 -0.0396
  643TMC3     H 9576   4.466   4.367   0.577 -0.5514  0.1659  2.7728
  643TMC3    H1 9577   0.089   4.520   0.756  0.4823 -1.6647  0.0894
  643TMC3    H2 9578   4.600   0.026   0.480 -1.1635  0.2806 -1.0084
  643TMC3    C7 9579   0.111   4.687   0.547 -0.3485 -0.2233  0.5942
  643TMC3    C8 9580   4.419   4.563   0.412 -0.0175  0.5821 -0.8069
  643TMC3    O1 9581   0.094   4.715   0.428  0.0433  0.0144 -0.0337
  643TMC3    O2 9582   4.306   4.522   0.437 -0.4476 -0.1758  0.0775
  644MPD2     C 9583   0.091   0.595   9.374 -0.1561 -0.5222 -0.4062
  644MPD2    C1 9584   0.068   0.518   9.485  0.0251  0.6744 -0.2883
  644MPD2    C2 9585   4.688   0.536   9.556  0.3866 -0.7047  0.0703
  644MPD2    C3 9586   4.592   0.625   9.512  0.1740  0.0553 -0.0934
  644MPD2    C4 9587   4.614   0.710   9.402 -0.2767  0.2417 -0.2785
  644MPD2    C5 9588   4.729   0.684   9.332  0.0197 -0.4219  0.1971
  644MPD2     H 9589   4.669   0.471   9.640 -2.8743 -0.1922 -0.2853
  644MPD2    H1 9590   4.542   0.780   9.363  0.4425  1.4997  0.6401
  644MPD2    H2 9591   0.189   0.579   9.331  0.5404  1.0643  0.6050
  644MPD2    H3 9592   0.023   0.750   9.251 -0.5280  0.2658  0.5775
  644MPD2     N 9593   4.470   0.622   9.590  0.0325 -0.0573  0.7939
  644MPD2    H5 9594   4.465   0.577   9.681  3.0707 -1.7719  0.0743
  644MPD2    N1 9595   0.178   0.427   9.521  0.0300  0.5350 -0.1180
  644MPD2    H7 9596   0.265   0.430   9.469 -0.1568 -0.7746 -0.5061
  645TMC3    C1 9597   4.248   0.669   9.636  0.4008 -0.8111 -0.4631
  645TMC3    C2 9598   4.233   0.543   9.680  0.1132 -0.7200  0.4830
  645TMC3    C3 9599   4.102   0.505   9.704 -0.0111  1.1113  0.5553
  645TMC3    C4 9600   4.151   0.758   9.613  0.4315  0.5066 -0.0942
  645TMC3    C5 9601   4.026   0.717   9.645 -0.2166 -0.1302 -0.9479
  645TMC3    C6 9602   3.997   0.594   9.697  0.0401 -0.0092 -0.7361
  645TMC3     C 9603   4.357   0.691   9.545  0.1742  0.5796  0.4130
  645TMC3     O 9604   4.335   0.751   9.442 -0.1568  0.2690 -1.1317
  645TMC3     H 9605   4.311   0.468   9.683  1.5116  0.7005 -0.7979
  645TMC3    H1 9606   4.168   0.855   9.569  2.8224 -0.1502 -0.6285
  645TMC3    H2 9607   3.895   0.560   9.713  0.4451 -1.6027 -1.6116
  645TMC3    C7 9608   3.923   0.809   9.639  0.4277 -0.2208  0.2756
  645TMC3    C8 9609   4.073   0.375   9.761  0.2605  0.2857  0.5674
  645TMC3    O1 9610   3.951   0.929   9.651 -0.1448  0.1801 -0.3450
  645TMC3    O2 9611   3.959   0.337   9.743  0.4533  0.5698 -0.2632
  646MPD2     C 9612   4.243   3.781  14.310  0.0646 -0.1947  0.0794
  646MPD2    C1 9613   4.167   3.743  14.420 -0.1333  0.3046 -0.7477
  646MPD2    C2 9614   4.027   3.743  14.403  0.0651  0.1062 -0.7073
  646MPD2    C3 9615   3.963   3.786  14.282 -0.4785 -0.0768  0.3068
  646MPD2    C4 9616   4.046   3.822  14.176 -0.0241  0.1943  0.1231
  646MPD2    C5 9617   4.185   3.821  14.189  0.2525  0.0675  0.1074
  646MPD2     H 9618   3.957   3.719  14.482  0.4671  1.2501  0.0050
  646MPD2    H1 9619   4.000   3.854  14.083 -0.6623 -0.9691  0.0421
  646MPD2    H2 9620   4.351   3.783  14.306  0.1727 -2.3979  2.1581
  646MPD2    H3 9621   4.249   3.845  14.105  0.6893 -1.2994  0.0454
  646MPD2     N 9622   3.823   3.792  14.277 -0.2304  0.6665 -0.3107
  646MPD2    H5 9623   3.776   3.775  14.366  0.0355  1.1511 -0.0794
  646MPD2    N1 9624   4.232   3.702  14.540 -0.4061 -0.3335 -0.8332
  646MPD2    H7 9625   4.333   3.689  14.535 -0.0359  1.0521  3.0283
  647TMC3    C1 9626   4.240   3.630  14.770  0.1596  0.5630 -0.9526
  647TMC3    C2 9627   4.174   3.564  14.870 -0.1514 -0.1027  0.1909
  647TMC3    C3 9628   4.247   3.483  14.954 -0.1095  0.0904  0.0558
  647TMC3    C4 9629   4.376   3.636  14.765 -0.3374  0.5559  0.0246
  647TMC3    C5 9630   4.449   3.568  14.867 -0.4418  0.7437  0.0415
  647TMC3    C6 9631   4.383   3.494  14.959 -0.2171 -0.1994  0.8205
  647TMC3     C 9632   4.166   3.651  14.645  0.9299  0.0862 -0.5708
  647TMC3     O 9633   4.053   3.605  14.648 -0.0308 -0.2341 -0.0355
  647TMC3     H 9634   4.066   3.571  14.868 -0.3073 -2.7459  0.2819
  647TMC3    H1 9635   4.422   3.692  14.685  3.4643  0.0615  1.8752
  647TMC3    H2 9636   4.440   3.425  15.020  0.3853 -0.4667 -0.0517
  647TMC3    C7 9637   4.590   3.568  14.885  0.2101 -0.7277 -0.2135
  647TMC3    C8 9638   4.177   3.414  15.067  0.1178 -0.2935  0.6982
  647TMC3    O1 9639   4.638   3.521  14.988  0.3268 -0.5214  0.1874
  647TMC3    O2 9640   4.252   3.390  15.158 -0.0732 -0.1975  0.2173
  648TMC3    C1 9641   3.817   1.508  16.315  1.1910  0.5997  0.1550
  648TMC3    C2 9642   3.854   1.379  16.277  0.0412  0.3049 -0.2776
  648TMC3    C3 9643   3.822   1.336  16.148 -0.1710  0.9026  0.4613
  648TMC3    C4 9644   3.750   1.590  16.229 -0.3528 -0.5201  0.0706
  648TMC3    C5 9645   3.704   1.537  16.106  0.2616 -0.1127  0.3425
  648TMC3    C6 9646   3.742   1.412  16.066  0.0575 -0.5981  0.5976
  648TMC3     C 9647   3.777   1.524  16.453  0.2844  0.7403  0.3449
  648TMC3     O 9648   3.716   1.622  16.492 -0.1402 -0.1188  0.4651
  648TMC3     H 9649   3.932   1.336  16.338  2.1963  3.6186 -0.7021
  648TMC3    H1 9650   3.731   1.691  16.261 -0.5597 -0.3592 -0.5651
  648TMC3    H2 9651   3.722   1.378  15.965 -0.5261 -3.7282  1.7489
  648TMC3    C7 9652   3.616   1.617  16.026 -0.4600  0.5001  0.6698
  648TMC3    C8 9653   3.840   1.194  16.130 -0.6786  0.4074 -0.3155
  648TMC3    O1 9654   3.612   1.603  15.905  0.3998 -0.2905  0.1205
  648TMC3    O2 9655   3.847   1.137  16.238  0.1356  0.0751 -0.3272
  649TMC3    C1 9656   2.681   2.611  13.106  0.2881  0.4595  0.4638
  649TMC3    C2 9657   2.813   2.617  13.066 -0.0215  0.4539 -0.5082
  649TMC3    C3 9658   2.904   2.564  13.151  0.4182  0.2029  0.2017
  649TMC3    C4 9659   2.642   2.545  13.222 -0.0810  0.1752  0.5942
  649TMC3    C5 9660   2.744   2.485  13.300 -0.2412 -0.3807  0.3073
  649TMC3    C6 9661   2.873   2.503  13.266 -0.7769  0.0005 -0.7134
  649TMC3     C 9662   2.581   2.704  13.051 -0.3277 -0.0053 -0.9267
  649TMC3     O 9663   2.471   2.710  13.103  0.6337  0.6255 -0.0605
  649TMC3     H 9664   2.842   2.641  12.965  1.4012 -0.8895 -0.4187
  649TMC3    H1 9665   2.535   2.535  13.237 -0.5595  1.5779 -1.9528
  649TMC3    H2 9666   2.953   2.465  13.329 -1.2186 -1.2265 -0.8971
  649TMC3    C7 9667   2.712   2.371  13.384 -0.4688 -0.0577 -0.6763
  649TMC3    C8 9668   3.045   2.562  13.114 -0.3261  0.3460 -0.5365
  649TMC3    O1 9669   2.593   2.347  13.386  0.4188  0.4320  0.0018
  649TMC3    O2 9670   3.119   2.487  13.172  0.4238  0.5123  0.4502
  650TMC3    C1 9671   0.596   4.593  12.864  0.8488 -0.9504  0.3068
  650TMC3    C2 9672   0.564   4.719  12.911  0.1018 -0.2008  0.0691
  650TMC3    C3 9673   0.550   0.085  12.815  0.5413 -0.3365  0.3701
  650TMC3    C4 9674   0.624   4.570  12.724  0.2659  0.0353  0.4171
  650TMC3    C5 9675   0.621   4.684  12.640 -0.3972  0.3963 -0.5559
  650TMC3    C6 9676   0.597   0.076  12.689 -0.4932 -0.2026  0.4451
  650TMC3     C 9677   0.598   4.485  12.959  0.5952 -0.2644 -0.2042
  650TMC3     O 9678   0.553   4.511  13.070 -0.0623 -0.2451  0.1290
  650TMC3     H 9679   0.549   0.011  13.015  0.8300 -1.2783  0.4417
  650TMC3    H1 9680   0.647   4.471  12.688  0.3743  0.7241 -1.4201
  650TMC3    H2 9681   0.589   0.165  12.626 -0.8903 -1.2958 -1.0451
  650TMC3    C7 9682   0.584   4.666  12.497  0.8104  0.0419  0.5287
  650TMC3    C8 9683   0.469   0.201  12.844  0.1726  0.0066  0.3754
  650TMC3    O1 9684   0.577   4.548  12.468  0.1173 -0.4438  0.3604
  650TMC3    O2 9685   0.515   0.300  12.793  0.3180 -0.2306 -0.0188
  651MPD2     C 9686   3.304   1.893  10.440 -0.0328  0.0837  0.6528
  651MPD2    C1 9687   3.320   1.980  10.548  0.4033  0.0068 -0.2247
  651MPD2    C2 9688   3.439   2.051  10.566 -0.3725 -0.6804 -0.6941
  651MPD2    C3 9689   3.544   2.036  10.478 -0.6561  0.5168 -0.3885
  651MPD2    C4 9690   3.532   1.946  10.373 -0.5186  0.2450 -0.6248
  651MPD2    C5 9691   3.415   1.871  10.362 -0.4334  0.0841 -0.2436
  651MPD2     H 9692   3.443   2.138  10.631  1.6182  0.5362 -2.4241
  651MPD2    H1 9693   3.601   1.923  10.293  0.7251  2.1576 -0.0786
  651MPD2    H2 9694   3.211   1.840  10.423 -0.5514  1.9146 -2.2453
  651MPD2    H3 9695   3.410   1.795  10.285  1.1086  0.2866 -0.5414
  651MPD2     N 9696   3.665   2.117  10.485  0.1692 -0.4060 -0.1375
  651MPD2    H5 9697   3.680   2.180  10.563 -0.8092  0.9182 -1.0086
  651MPD2    N1 9698   3.208   2.003  10.634  0.0091 -0.2268  0.1237
  651MPD2    H7 9699   3.121   1.961  10.602 -0.5034  0.3842  0.7031
  652TMC3    C1 9700   4.131   2.206  10.408 -0.3190  0.4246 -0.0004
  652TMC3    C2 9701   4.013   2.151  10.370 -0.0354  0.2551  0.0607
  652TMC3    C3 9702   3.894   2.183  10.437  0.4607 -0.4323 -0.1857
  652TMC3    C4 9703   4.135   2.283  10.526  0.2348 -0.8537 -0.1885
  652TMC3    C5 9704   4.017   2.321  10.586 -0.2128 -0.2300  0.4272
  652TMC3    C6 9705   3.896   2.269  10.548  0.0367  0.0728  0.4688
  652TMC3     C 9706   4.259   2.149  10.373  0.1850 -0.0063  0.0213
  652TMC3     O 9707   4.335   2.135  10.469 -0.2167 -0.7591 -0.0997
  652TMC3     H 9708   4.003   2.080  10.289 -1.0124  1.3247 -0.7583
  652TMC3    H1 9709   4.232   2.316  10.559  0.6505 -0.3206 -1.9380
  652TMC3    H2 9710   3.807   2.288  10.606 -0.6800 -0.1740 -0.5577
  652TMC3    C7 9711   4.014   2.398  10.704  0.3986  0.2775 -0.3519
  652TMC3    C8 9712   3.768   2.118  10.392  0.6362 -0.3411  0.4923
  652TMC3    O1 9713   3.939   2.368  10.793 -0.2982  0.0943 -0.2770
  652TMC3    O2 9714   3.777   2.062  10.285 -0.5181 -0.3586  1.5245
  653MPD2     C 9715   2.670   1.296   0.196  0.6624  0.2390 -0.5733
  653MPD2    C1 9716   2.655   1.400   0.113  0.4865  0.6871  0.0788
  653MPD2    C2 9717   2.629   1.376  17.713 -0.6680 -0.4367 -0.7255
  653MPD2    C3 9718   2.615   1.251  17.669  0.6416 -0.1729 -0.3836
  653MPD2    C4 9719   2.632   1.146   0.021  0.0735 -0.2822 -0.5916
  653MPD2    C5 9720   2.666   1.162   0.150 -0.3022  0.4323  0.1449
  653MPD2     H 9721   2.619   1.460  17.645 -2.4672 -0.9269 -1.0584
  653MPD2    H1 9722   2.617   1.042  17.726  0.2418 -0.1834 -1.0210
  653MPD2    H2 9723   2.698   1.317   0.299  1.2509  1.0208 -0.8958
  653MPD2    H3 9724   2.692   1.072   0.204  0.3507  0.9447  0.6854
  653MPD2     N 9725   2.581   1.226  17.535 -0.2230 -0.0944 -0.1191
  653MPD2    H5 9726   2.582   1.313  17.483  3.2808 -0.7267 -1.0768
  653MPD2    N1 9727   2.672   1.536   0.150 -0.8515 -0.3291 -0.0713
  653MPD2    H7 9728   2.673   1.605   0.075  1.4120  3.3355  3.2698
  654TMC3    C1 9729   2.498   1.135  17.344  0.0389 -0.1975 -0.0830
  654TMC3    C2 9730   2.420   1.251  17.335 -0.2766  0.5873  0.2532
  654TMC3    C3 9731   2.340   1.268  17.224  0.1894 -0.1283  0.1613
  654TMC3    C4 9732   2.478   1.037  17.257  0.0957  0.8691  0.3716
  654TMC3    C5 9733   2.396   1.052  17.149  0.0346  0.1381  0.7320
  654TMC3    C6 9734   2.332   1.168  17.126  0.0879  0.0073  0.2261
  654TMC3     C 9735   2.550   1.106  17.473  0.1513  0.0123  0.1842
  654TMC3     O 9736   2.575   0.987  17.504 -0.0658 -0.0401  0.0472
  654TMC3     H 9737   2.418   1.329  17.411  1.4958 -1.4453  2.3556
  654TMC3    H1 9738   2.546   0.954  17.277  1.4287  1.8616 -0.0676
  654TMC3    H2 9739   2.261   1.183  17.046  0.3652  2.1088  0.3865
  654TMC3    C7 9740   2.392   0.947  17.047  0.3586 -0.8061  0.3143
  654TMC3    C8 9741   2.257   1.387  17.202 -0.8332  0.2439 -0.6200
  654TMC3    O1 9742   2.407   0.980  16.929  0.0011 -0.2577  0.5673
  654TMC3    O2 9743   2.172   1.385  17.115  0.2840 -0.3424 -0.0587
  655MPD2     C 9744   3.966   1.851  16.144  0.6454  0.3461  0.2235
  655MPD2    C1 9745   3.903   1.955  16.079  0.2435  0.2101  0.5014
  655MPD2    C2 9746   3.882   1.951  15.941 -0.7427  0.3869  0.2550
  655MPD2    C3 9747   3.928   1.843  15.871 -0.1819 -0.1912  0.0063
  655MPD2    C4 9748   3.989   1.739  15.940  0.1073 -0.5753 -0.0596
  655MPD2    C5 9749   4.008   1.740  16.076 -0.2185 -0.4814  0.1910
  655MPD2     H 9750   3.832   2.039  15.901  1.1193  1.2673 -0.1258
  655MPD2    H1 9751   4.032   1.658  15.881  2.7447  0.1786  0.8170
  655MPD2    H2 9752   3.984   1.841  16.251 -0.4672  0.3813  0.4091
  655MPD2    H3 9753   4.055   1.655  16.123 -1.3673 -1.7286 -0.8990
  655MPD2     N 9754   3.934   1.841  15.731 -0.9613  0.6833  0.2157
  655MPD2    H5 9755   3.976   1.761  15.684  1.2355  2.1672 -0.3254
  655MPD2    N1 9756   3.860   2.071  16.151  0.2260  0.4674 -0.0310
  655MPD2    H7 9757   3.832   2.151  16.096  0.2799 -0.1261 -0.9084
  656TMC3    C1 9758   3.815   2.214  16.338 -0.1278 -0.4369  0.8001
  656TMC3    C2 9759   3.797   2.223  16.476  0.0536 -1.0427 -0.4229
  656TMC3    C3 9760   3.698   2.301  16.525 -0.2907  0.6321 -0.2535
  656TMC3    C4 9761   3.736   2.288  16.258 -0.0184  0.6582 -0.4296
  656TMC3    C5 9762   3.637   2.363  16.311 -0.2189  0.3004 -0.0656
  656TMC3    C6 9763   3.619   2.374  16.444 -0.5056  0.5014  0.2860
  656TMC3     C 9764   3.878   2.092  16.289 -0.0439  0.2551  0.5112
  656TMC3     O 9765   3.908   2.018  16.379 -1.3428 -0.2890 -0.0071
  656TMC3     H 9766   3.869   2.174  16.541  0.0640 -1.6327 -0.8841
  656TMC3    H1 9767   3.732   2.272  16.150  1.4643 -1.1665 -0.2026
  656TMC3    H2 9768   3.530   2.422  16.483 -2.1328 -0.8555 -1.7357
  656TMC3    C7 9769   3.509   2.378  16.237  0.8373 -0.1379  0.2421
  656TMC3    C8 9770   3.630   2.246  16.639  0.2277  0.0207 -0.1947
  656TMC3    O1 9771   3.400   2.356  16.287 -0.1802 -0.3355 -0.1281
  656TMC3    O2 9772   3.652   2.295  16.749 -0.1676  0.9376  0.0081
  657TMC3    C1 9773   2.426   1.082  15.323  0.0262 -0.2111  0.1690
  657TMC3    C2 9774   2.535   1.155  15.353 -0.3437  0.4070 -0.0826
  657TMC3    C3 9775   2.539   1.285  15.314 -0.0722 -0.5991  0.5009
  657TMC3    C4 9776   2.330   1.133  15.237  0.4850  0.5588  0.2869
  657TMC3    C5 9777   2.345   1.262  15.185 -0.1802  0.0564  0.0531
  657TMC3    C6 9778   2.445   1.343  15.233  0.2223 -0.1131  0.0220
  657TMC3     C 9779   2.459   0.947  15.303 -0.1692  0.1494  0.2838
  657TMC3     O 9780   2.369   0.863  15.295 -0.3385  0.0361 -0.5673
  657TMC3     H 9781   2.597   1.114  15.432  2.4150  2.6170 -1.1056
  657TMC3    H1 9782   2.247   1.069  15.209 -2.0006  3.5948  0.7219
  657TMC3    H2 9783   2.449   1.450  15.219 -1.0759 -0.0848 -0.1241
  657TMC3    C7 9784   2.243   1.324  15.100  0.2095 -0.0754 -0.3641
  657TMC3    C8 9785   2.639   1.368  15.365 -0.0189  0.4692  0.1149
  657TMC3    O1 9786   2.125   1.283  15.103 -0.4611  0.5478 -0.7053
  657TMC3    O2 9787   2.659   1.474  15.301 -0.0479 -0.4085 -0.0995
  658MPD2     C 9788   3.941   1.362  15.186  0.1982  0.2223  0.7899
  658MPD2    C1 9789   3.948   1.470  15.098  0.6092 -0.2590  0.0505
  658MPD2    C2 9790   3.933   1.444  14.965  0.0313  0.3371  0.5245
  658MPD2    C3 9791   3.925   1.319  14.912  0.2527 -0.2107  0.4107
  658MPD2    C4 9792   3.910   1.213  15.001 -0.5723  1.0402 -0.0295
  658MPD2    C5 9793   3.922   1.234  15.136  0.7522 -0.2147 -0.1419
  658MPD2     H 9794   3.944   1.527  14.896 -0.1020  1.6086  2.0332
  658MPD2    H1 9795   3.906   1.114  14.958 -0.4828  0.5697  1.0427
  658MPD2    H2 9796   3.958   1.354  15.292 -4.4646 -1.7057  1.3991
  658MPD2    H3 9797   3.918   1.148  15.203  1.5562 -0.9505 -1.0203
  658MPD2     N 9798   3.922   1.298  14.770  0.0752 -0.0671  0.1988
  658MPD2    H5 9799   3.894   1.205  14.740 -2.3553  0.8809 -0.5263
  658MPD2    N1 9800   3.961   1.599  15.148  0.3901 -0.1187  0.1446
  658MPD2    H7 9801   3.965   1.681  15.089  4.3738 -0.7228 -0.4487
  659TMC3    C1 9802   3.962   1.754  15.333 -0.4964  0.3078 -0.7474
  659TMC3    C2 9803   3.973   1.785  15.466 -0.1599 -0.5158 -0.1472
  659TMC3    C3 9804   3.934   1.911  15.509  0.1679  0.3796 -0.1738
  659TMC3    C4 9805   3.915   1.845  15.242  0.2011  0.1200 -0.2701
  659TMC3    C5 9806   3.874   1.964  15.287 -0.6284 -0.8788  0.4851
  659TMC3    C6 9807   3.889   2.008  15.420  0.1261  0.5625 -0.6140
  659TMC3     C 9808   3.991   1.620  15.280 -0.3781 -0.1491 -0.4758
  659TMC3     O 9809   4.051   1.548  15.359  0.2775  0.1242 -0.2136
  659TMC3     H 9810   4.001   1.699  15.526 -0.7553 -0.2562  0.5077
  659TMC3    H1 9811   3.894   1.814  15.141  0.3814  0.0749 -0.2936
  659TMC3    H2 9812   3.836   2.095  15.457  0.6069  0.8312 -0.5574
  659TMC3    C7 9813   3.743   1.995  15.236  0.3470  0.4344  0.5397
  659TMC3    C8 9814   3.902   1.943  15.649 -0.2394 -0.0802  0.5742
  659TMC3    O1 9815   3.677   1.900  15.205  0.3313 -0.7272 -0.1009
  659TMC3    O2 9816   3.869   2.058  15.675  0.0503 -0.8626  0.0444
  660MPD2     C 9817   2.261   0.411  12.457 -0.6458 -0.3623 -0.7138
  660MPD2    C1 9818   2.128   0.454  12.471 -0.5846 -0.7459 -0.8228
  660MPD2    C2 9819   2.050   0.394  12.562 -0.2581 -0.5998 -0.0971
  660MPD2    C3 9820   2.096   0.293  12.643 -0.5307 -0.4240 -0.5333
  660MPD2    C4 9821   2.231   0.253  12.638  0.3870  0.2497 -1.1635
  660MPD2    C5 9822   2.310   0.320  12.546  0.2788  0.7443  0.0692
  660MPD2     H 9823   1.946   0.418  12.577 -0.6767 -2.1764 -0.4723
  660MPD2    H1 9824   2.268   0.177  12.706  1.7474  2.6449  0.8252
  660MPD2    H2 9825   2.316   0.454  12.373  0.3698  0.8782  0.5931
  660MPD2    H3 9826   2.409   0.277  12.543 -0.4003 -0.5950 -2.5659
  660MPD2     N 9827   2.018   0.223  12.744 -0.4345 -0.2979  0.1920
  660MPD2    H5 9828   2.063   0.141  12.783 -1.1220 -0.3397  0.8946
  660MPD2    N1 9829   2.082   0.550  12.380 -0.4170  0.6511 -0.3627
  660MPD2    H7 9830   2.155   0.587  12.321 -0.3188 -0.0213 -0.6592
  661TMC3    C1 9831   1.917   0.677  12.260 -0.2004  0.3073  0.3452
  661TMC3    C2 9832   1.991   0.674  12.143  0.0866 -0.6990 -0.0011
  661TMC3    C3 9833   1.932   0.731  12.034  0.2497 -0.5078 -0.7019
  661TMC3    C4 9834   1.793   0.737  12.266 -0.5090  0.3644  0.2992
  661TMC3    C5 9835   1.746   0.797  12.151  0.2700  0.1313  0.2180
  661TMC3    C6 9836   1.802   0.780  12.029 -0.5107 -0.1906 -0.1762
  661TMC3     C 9837   1.953   0.599  12.377  0.2031 -0.1367 -0.1530
  661TMC3     O 9838   1.867   0.595  12.460 -0.0435 -0.5469 -0.4447
  661TMC3     H 9839   2.090   0.629  12.138 -0.5875 -2.1512 -0.2948
  661TMC3    H1 9840   1.742   0.753  12.360 -0.5515 -1.1550  0.5190
  661TMC3    H2 9841   1.755   0.833  11.946 -0.8521 -0.4521 -0.1489
  661TMC3    C7 9842   1.600   0.805  12.149 -0.2940 -0.4868 -0.2256
  661TMC3    C8 9843   2.002   0.733  11.905  0.1477  0.0317  0.5264
  661TMC3    O1 9844   1.535   0.874  12.228  0.0850  0.2574  0.1561
  661TMC3    O2 9845   2.110   0.672  11.901 -0.3294 -0.6090  0.4577
  662MPD2     C 9846   2.442   4.584  17.047  0.4044 -0.0353 -0.4638
  662MPD2    C1 9847   2.358   4.592  17.156 -0.8145 -0.4025 -1.0833
  662MPD2    C2 9848   2.274   4.704  17.169  0.3172  0.7949 -0.5827
  662MPD2    C3 9849   2.276   0.071  17.080  0.0754  0.3435  0.1341
  662MPD2    C4 9850   2.349   0.055  16.967  0.0871  0.0825 -0.3182
  662MPD2    C5 9851   2.437   4.682  16.950 -0.6447  0.5027 -0.1037
  662MPD2     H 9852   2.204   4.714  17.251  1.4756  0.0086  0.5038
  662MPD2    H1 9853   2.352   0.128  16.888  1.1621  0.4571  0.0729
  662MPD2    H2 9854   2.506   4.501  17.019  2.9567  0.7834  2.8653
  662MPD2    H3 9855   2.495   4.676  16.859 -4.0924  1.2789 -2.3688
  662MPD2     N 9856   2.194   0.186  17.090  0.1331 -0.3242  0.2459
  662MPD2    H5 9857   2.188   0.239  17.004 -1.6292 -0.0005  0.5669
  662MPD2    N1 9858   2.340   4.490  17.251 -0.1614 -0.4826 -0.0586
  662MPD2    H7 9859   2.294   4.505  17.340 -1.2153  0.5693 -0.7752
  663TMC3    C1 9860   2.397   4.292  17.358 -0.5062  0.8224  0.0699
  663TMC3    C2 9861   2.359   4.362  17.474  0.2183 -0.6256  0.0440
  663TMC3    C3 9862   2.291   4.302  17.576  0.9061  0.1986  0.1539
  663TMC3    C4 9863   2.376   4.161  17.343 -0.6038 -0.3910 -0.1909
  663TMC3    C5 9864   2.306   4.097  17.447  0.3308 -0.5147 -0.7057
  663TMC3    C6 9865   2.270   4.167  17.568  0.1367 -0.2849  0.1521
  663TMC3     C 9866   2.396   4.368  17.236 -0.1685 -0.6371  0.4676
  663TMC3     O 9867   2.446   4.322  17.137  0.1174 -0.1975  0.2948
  663TMC3     H 9868   2.392   4.462  17.498 -0.1036 -0.6895  0.7747
  663TMC3    H1 9869   2.386   4.117  17.244 -0.8776 -2.4469  0.6958
  663TMC3    H2 9870   2.182   4.123  17.615 -0.0638  1.2870  1.2325
  663TMC3    C7 9871   2.281   3.954  17.446 -0.0119  0.2299  0.6959
  663TMC3    C8 9872   2.169   4.372  17.585 -0.2602  0.2069 -0.2678
  663TMC3    O1 9873   2.222   3.896  17.536 -0.1915  0.2365 -0.7471
  663TMC3    O2 9874   2.160   4.473  17.515  0.3830  0.0668  0.0729
  664MPD2     C 9875   0.180   2.418  17.701  0.0109 -0.4585  0.4106
  664MPD2    C1 9876   0.161   2.543   0.019 -0.3106 -0.6232  0.0264
  664MPD2    C2 9877   0.081   2.559   0.131 -0.1848 -0.7487 -0.5375
  664MPD2    C3 9878   0.025   2.452   0.191  0.2441 -0.0230 -0.1706
  664MPD2    C4 9879   0.040   2.321   0.136 -0.0956 -0.6334 -0.2084
  664MPD2    C5 9880   0.121   2.312   0.030  0.3932 -0.1992  0.1724
  664MPD2     H 9881   0.083   2.661   0.166  0.8302 -0.9882  0.1115
  664MPD2    H1 9882   4.731   2.235   0.185 -0.9306 -0.6051 -0.8969
  664MPD2    H2 9883   0.236   2.401  17.610  0.4359 -1.4722  0.8643
  664MPD2    H3 9884   0.141   2.215  17.719 -0.0182 -0.5404  0.7298
  664MPD2     N 9885   4.693   2.479   0.318  1.1188 -0.1682 -0.3226
  664MPD2    H5 9886   4.688   2.575   0.349 -0.1254 -0.0066 -1.0279
  664MPD2    N1 9887   0.215   2.658  17.702  0.5487 -0.2652  0.5153
  664MPD2    H7 9888   0.195   2.744   0.017 -0.2625 -0.2447  0.1640
  665TMC3    C1 9889   4.543   2.454   0.490  0.4607 -0.4361  0.0335
  665TMC3    C2 9890   4.562   2.401   0.615 -0.7988  0.5695  0.1102
  665TMC3    C3 9891   4.533   2.484   0.723  0.3277 -0.3952  0.1990
  665TMC3    C4 9892   4.509   2.586   0.469  0.4112 -0.2313  0.8415
  665TMC3    C5 9893   4.487   2.656   0.576 -0.1069 -0.1923 -0.4261
  665TMC3    C6 9894   4.495   2.611   0.704  0.7316 -0.3839  0.4078
  665TMC3     C 9895   4.621   2.389   0.386 -0.2231 -0.3922 -0.3701
  665TMC3     O 9896   4.639   2.268   0.393  0.0360 -0.5185  0.1193
  665TMC3     H 9897   4.610   2.304   0.627  0.0626  0.8965 -0.6853
  665TMC3    H1 9898   4.503   2.637   0.373  1.8344 -0.8094  0.4423
  665TMC3    H2 9899   4.461   2.679   0.781 -0.2693 -0.5267  0.0888
  665TMC3    C7 9900   4.491   2.803   0.551  0.0245  0.4624  0.2059
  665TMC3    C8 9901   4.549   2.434   0.857 -0.1727 -0.2129  0.2986
  665TMC3    O1 9902   4.423   2.835   0.455 -0.4137  0.0976  0.3432
  665TMC3    O2 9903   4.557   2.521   0.944 -0.3135  0.1809  0.6922
  666TMC3    C1 9904   4.184   3.421  10.462  0.4933  0.1017 -0.3456
  666TMC3    C2 9905   4.213   3.368  10.343  0.3178 -0.0985  0.4748
  666TMC3    C3 9906   4.295   3.433  10.250 -0.7690  0.2524 -0.3304
  666TMC3    C4 9907   4.226   3.551  10.489 -0.4927 -0.0495 -0.3829
  666TMC3    C5 9908   4.302   3.616  10.398  0.4768 -0.4271  0.3514
  666TMC3    C6 9909   4.339   3.563  10.277  0.4278  0.6999 -0.8084
  666TMC3     C 9910   4.169   3.340  10.574  0.4951 -0.4437  0.3163
  666TMC3     O 9911   4.204   3.389  10.679  0.6809  0.3427  0.1172
  666TMC3     H 9912   4.185   3.265  10.328  2.2706 -0.7263  1.0880
  666TMC3    H1 9913   4.173   3.609  10.564 -1.1737 -1.0402 -0.0827
  666TMC3    H2 9914   4.399   3.614  10.202 -1.6156  1.1771 -2.1109
  666TMC3    C7 9915   4.315   3.760  10.428  0.4060  0.2058 -0.5695
  666TMC3    C8 9916   4.406   3.342  10.228  0.2150 -0.2327  0.1962
  666TMC3    O1 9917   4.302   3.792  10.547 -0.0976 -1.1236 -0.3046
  666TMC3    O2 9918   4.390   3.222  10.248 -0.4644  0.5918  0.2009
  667MPD2     C 9919   1.002   3.482  14.692 -0.1442  0.0773 -0.5112
  667MPD2    C1 9920   0.965   3.422  14.807  0.3036 -0.5508 -0.0114
  667MPD2    C2 9921   0.836   3.396  14.846 -0.2448  0.0051 -0.0975
  667MPD2    C3 9922   0.741   3.411  14.747 -0.3384  0.2942 -0.3879
  667MPD2    C4 9923   0.773   3.467  14.624  0.3220  0.0848  0.0206
  667MPD2    C5 9924   0.905   3.508  14.594 -0.4980  0.2054 -0.0584
  667MPD2     H 9925   0.812   3.364  14.947  0.0631  1.3481  0.4110
  667MPD2    H1 9926   0.695   3.476  14.549  0.5680  2.1532  0.0111
  667MPD2    H2 9927   1.101   3.505  14.655  0.5624  0.1356  1.4140
  667MPD2    H3 9928   0.938   3.551  14.501 -1.0531  1.4264  0.3049
  667MPD2     N 9929   0.600   3.382  14.764  0.2858  0.5315  0.6149
  667MPD2    H5 9930   0.543   3.393  14.681  3.1870 -0.4881 -1.5174
  667MPD2    N1 9931   1.063   3.391  14.900  0.4094 -0.8351 -0.7107
  667MPD2    H7 9932   1.036   3.332  14.978  1.7690 -1.2237 -0.5235
  668TMC3    C1 9933   1.279   3.374  15.002 -0.4956  0.2194  0.5407
  668TMC3    C2 9934   1.419   3.381  14.981 -0.3058  0.1606  0.4360
  668TMC3    C3 9935   1.497   3.329  15.082 -0.9580  0.4320 -0.1182
  668TMC3    C4 9936   1.222   3.314  15.111  0.1140 -0.7045  0.0061
  668TMC3    C5 9937   1.307   3.253  15.203 -0.0398  0.3514 -0.7444
  668TMC3    C6 9938   1.445   3.259  15.187 -0.1240 -0.6235 -0.6392
  668TMC3     C 9939   1.197   3.428  14.896  0.6008  0.1721 -0.0403
  668TMC3     O 9940   1.242   3.531  14.846  0.0766 -0.2886 -0.3111
  668TMC3     H 9941   1.450   3.408  14.881  2.3931  0.4680  1.3558
  668TMC3    H1 9942   1.116   3.330  15.127 -0.7772 -2.6046 -3.8896
  668TMC3    H2 9943   1.509   3.237  15.271 -2.4562 -0.5365  1.1375
  668TMC3    C7 9944   1.252   3.192  15.323 -0.3428 -0.2781  0.2091
  668TMC3    C8 9945   1.626   3.283  15.038  0.4740  0.2226  0.0134
  668TMC3    O1 9946   1.335   3.160  15.404  0.7267 -0.0964  0.3891
  668TMC3    O2 9947   1.636   3.164  15.073 -0.1249  0.4691 -0.2749
  669TMC3    C1 9948   4.118   3.283  14.433  0.4084  0.2439  0.0373
  669TMC3    C2 9949   4.032   3.226  14.342  0.1282  0.2211  0.0395
  669TMC3    C3 9950   4.057   3.245  14.206  0.9616  0.5018  0.5136
  669TMC3    C4 9951   4.216   3.369  14.394 -0.0266  0.6124  0.2697
  669TMC3    C5 9952   4.234   3.389  14.259  0.0965 -0.2350 -0.2510
  669TMC3    C6 9953   4.158   3.331  14.164  0.0391 -0.5074  0.3742
  669TMC3     C 9954   4.101   3.250  14.579  0.2632  0.3145  0.1537
  669TMC3     O 9955   3.986   3.229  14.616  0.0332  0.0494 -0.9091
  669TMC3     H 9956   3.946   3.173  14.382 -1.1539  2.3514  0.0937
  669TMC3    H1 9957   4.272   3.425  14.467 -1.0218  0.2339  1.3370
  669TMC3    H2 9958   4.196   3.331  14.063  0.9069 -1.2964  0.7039
  669TMC3    C7 9959   4.357   3.453  14.218  0.5286  0.0900 -0.1772
  669TMC3    C8 9960   3.964   3.170  14.122  0.3803  0.4438  0.5226
  669TMC3    O1 9961   4.432   3.489  14.314  0.3964 -0.1612  0.2200
  669TMC3    O2 9962   3.898   3.085  14.179 -0.8976  0.0039 -0.1256
  670MPD2     C 9963   2.311   0.661  13.549 -0.0607  0.9598 -0.3085
  670MPD2    C1 9964   2.427   0.589  13.597  0.3995  0.4951 -0.2506
  670MPD2    C2 9965   2.406   0.519  13.715 -0.2625 -0.3107 -0.6652
  670MPD2    C3 9966   2.286   0.508  13.775 -0.6784 -1.2319 -0.6103
  670MPD2    C4 9967   2.178   0.579  13.725  0.2497  0.2878 -0.1321
  670MPD2    C5 9968   2.192   0.657  13.616 -0.3492  0.5160 -0.6542
  670MPD2     H 9969   2.493   0.464  13.748 -0.2685  0.1320  0.0946
  670MPD2    H1 9970   2.090   0.595  13.787  0.0277  1.0182 -0.6240
  670MPD2    H2 9971   2.316   0.732  13.468  1.4359 -1.7014 -2.5642
  670MPD2    H3 9972   2.110   0.722  13.590 -1.7226 -1.0357 -0.1744
  670MPD2     N 9973   2.272   0.419  13.881  0.0871 -0.5436  0.0893
  670MPD2    H5 9974   2.360   0.386  13.920  0.1674 -0.7617 -0.2820
  670MPD2    N1 9975   2.559   0.601  13.545 -0.3957 -0.2459 -0.2976
  670MPD2    H7 9976   2.631   0.546  13.591 -0.0407  0.1841 -0.3366
  671TMC3    C1 9977   2.177   0.304  14.074 -0.1802  1.0314  0.2793
  671TMC3    C2 9978   2.304   0.260  14.095 -0.3899 -0.0073  0.3376
  671TMC3    C3 9979   2.330   0.133  14.136 -0.4820  0.4046  0.1615
  671TMC3    C4 9980   2.071   0.217  14.096  0.6760 -0.1914  0.1625
  671TMC3    C5 9981   2.105   0.091  14.141 -0.6791 -0.2450 -0.0740
  671TMC3    C6 9982   2.229   0.038  14.163 -0.0388 -0.8521  0.8343
  671TMC3     C 9983   2.158   0.386  13.952 -0.0311 -0.1107 -0.3300
  671TMC3     O 9984   2.041   0.419  13.926  0.1063  0.3477  0.2600
  671TMC3     H 9985   2.376   0.340  14.094 -0.4790  0.0641 -0.4831
  671TMC3    H1 9986   1.969   0.241  14.069  0.2617 -2.2323 -0.0790
  671TMC3    H2 9987   2.243   4.665  14.168  3.3551 -0.4276  0.7510
  671TMC3    C7 9988   2.020   0.001  14.068  0.4987  0.0239  0.0137
  671TMC3    C8 9989   2.462   0.091  14.106  0.2985  0.2085 -0.6751
  671TMC3    O1 9990   2.082   4.659  13.993 -0.0350  0.0148  0.3351
  671TMC3    O2 9991   2.500   0.155  14.013  0.0147  0.1680  0.0989
  672MPD2     C 9992   2.215   0.941   1.157 -1.0148  0.0960  0.1133
  672MPD2    C1 9993   2.312   0.931   1.060  0.1098 -0.8749  0.5141
  672MPD2    C2 9994   2.435   0.981   1.090  0.4190 -0.3255 -0.0973
  672MPD2    C3 9995   2.453   1.072   1.195 -0.1817 -0.4505 -0.8680
  672MPD2    C4 9996   2.352   1.081   1.285  0.1882 -0.6178 -0.3019
  672MPD2    C5 9997   2.236   1.013   1.267 -0.7967  0.2081  0.5056
  672MPD2     H 9998   2.515   0.952   1.023  1.3463  0.1888  0.7794
  672MPD2    H1 9999   2.360   1.130   1.381 -0.3430 -0.8341 -0.1474
  672MPD2    H210000   2.122   0.886   1.152  0.1397 -1.6804 -1.8420
  672MPD2    H310001   2.158   1.015   1.343 -3.4329  2.3217 -2.2758
  672MPD2     N10002   2.580   1.132   1.228  0.5920 -0.0090 -0.8320
  672MPD2    H510003   2.590   1.184   1.314  0.4268 -1.6046  0.1428
  672MPD2    N110004   2.299   0.864   0.937 -0.3327 -0.2441  0.3647
  672MPD2    H710005   2.380   0.866   0.876 -1.3975 -1.5702 -1.0931
  673TMC3    C110006   2.190   0.764   0.760 -0.3628  0.0161  0.2784
  673TMC3    C210007   2.280   0.663   0.731  0.2503  0.3236  0.4031
  673TMC3    C310008   2.278   0.621   0.604 -0.1271  0.0955 -0.1694
  673TMC3    C410009   2.106   0.829   0.672  0.4372 -0.3530 -0.4937
  673TMC3    C510010   2.120   0.780   0.546  0.3757  0.6509 -0.0858
  673TMC3    C610011   2.199   0.669   0.508 -0.3590  0.0621  0.2070
  673TMC3     C10012   2.181   0.812   0.894 -0.1999  0.0004 -0.5677
  673TMC3     O10013   2.068   0.846   0.928 -0.1191 -0.0094 -0.2091
  673TMC3     H10014   2.334   0.619   0.815  0.2455 -1.1801 -0.3908
  673TMC3    H110015   2.053   0.913   0.715  0.0421 -0.5323 -0.6328
  673TMC3    H210016   2.184   0.645   0.403 -1.6253 -2.5269  0.9737
  673TMC3    C710017   2.076   0.859   0.435 -0.4464 -0.5381 -0.8654
  673TMC3    C810018   2.390   0.541   0.554 -0.0962 -1.1035 -0.2890
  673TMC3    O110019   2.107   0.829   0.319  0.1786 -0.5773  0.4734
  673TMC3    O210020   2.402   0.545   0.432  0.1055  0.6124 -0.1940
  674MPD2     C10021   1.984   1.535  17.680 -0.4985  0.3710  1.2683
  674MPD2    C110022   1.992   1.406  17.637 -0.2845  0.8281 -0.2683
  674MPD2    C210023   1.876   1.330  17.626 -0.6985 -0.7802  0.7588
  674MPD2    C310024   1.755   1.385  17.657 -0.3597 -0.0416  0.8072
  674MPD2    C410025   1.747   1.518  17.700 -0.1561  0.0721  0.0045
  674MPD2    C510026   1.859   1.590  17.713 -0.9818  0.2775  0.2167
  674MPD2     H10027   1.880   1.235  17.573 -1.6345  0.7345 -2.0582
  674MPD2    H110028   1.654   1.561   0.001 -0.0765 -0.2286  0.5796
  674MPD2    H210029   2.073   1.593  17.702  0.4145 -1.0787  1.4796
  674MPD2    H310030   1.849   1.689   0.020 -1.1035 -0.2275  1.3971
  674MPD2     N10031   1.641   1.299  17.666 -0.0201 -0.4965  0.1057
  674MPD2    H510032   1.657   1.202  17.639  0.9077 -0.5645  0.9104
  674MPD2    N110033   2.117   1.346  17.614  0.4152 -0.3129 -0.2426
  674MPD2    H710034   2.189   1.379  17.678  0.8606  0.1309 -0.9553
  675TMC3    C110035   2.219   1.140  17.649  0.2040  0.0120  0.2267
  675TMC3    C210036   2.202   1.006  17.619 -0.3391 -1.1797 -0.1029
  675TMC3    C310037   2.237   0.916  17.714 -0.2502  0.2117  0.4751
  675TMC3    C410038   2.265   1.184   0.035  0.0808 -0.2674  0.0828
  675TMC3    C510039   2.289   1.091   0.135 -0.3841 -0.4083  0.1368
  675TMC3    C610040   2.265   0.955   0.110 -0.5944 -0.0631 -0.1415
  675TMC3     C10041   2.136   1.223  17.565  0.1886 -0.6386  0.0113
  675TMC3     O10042   2.084   1.173  17.470 -0.5696  0.1455  0.5133
  675TMC3     H10043   2.168   0.972  17.521  0.8587  0.4681 -1.1056
  675TMC3    H110044   2.279   1.287   0.065 -0.9256  0.1559 -0.8932
  675TMC3    H210045   2.280   0.883   0.189 -0.1252 -0.8112 -0.9193
  675TMC3    C710046   2.308   1.140   0.271  0.1543  0.1454 -0.0282
  675TMC3    C810047   2.189   0.783  17.687 -0.3676 -0.3879  0.2382
  675TMC3    O110048   2.293   1.259   0.294 -0.0708  0.2996 -0.1225
  675TMC3    O210049   2.215   0.736  17.579 -0.2043 -0.4611  0.0172
  676MPD2     C10050   0.279   4.504  11.059  0.1349  0.1820 -0.0039
  676MPD2    C110051   0.169   4.479  11.141 -0.1653  0.2885  0.4499
  676MPD2    C210052   0.094   4.370  11.107  0.4736  0.2578 -0.4295
  676MPD2    C310053   0.121   4.286  10.999  0.3736  0.1112 -0.1469
  676MPD2    C410054   0.223   4.320  10.914 -0.1252  0.1797  0.0681
  676MPD2    C510055   0.314   4.418  10.959 -0.0560 -0.5364 -0.1960
  676MPD2     H10056   0.005   4.349  11.167  0.4624 -1.2118 -0.9505
  676MPD2    H110057   0.249   4.266  10.823 -1.0547  0.0520 -0.1224
  676MPD2    H210058   0.335   4.596  11.054 -0.3233  0.5404  1.5267
  676MPD2    H310059   0.394   4.449  10.892 -2.5470  2.6075 -1.7376
  676MPD2     N10060   0.054   4.162  10.975 -0.3603 -0.4414 -0.1644
  676MPD2    H510061   0.069   4.108  10.890  1.4661 -0.5599  0.2391
  676MPD2    N110062   0.130   4.557  11.254 -0.3522  0.2645  0.5438
  676MPD2    H710063   0.071   4.518  11.328  0.0312 -0.1342  0.6373
  677TMC3    C110064   0.125   0.004  11.406 -0.2732 -0.0946 -0.5637
  677TMC3    C210065   0.050   4.665  11.490  0.0280 -0.0958  0.3414
  677TMC3    C310066   0.036   4.711  11.617  0.6679  0.1668 -0.1876
  677TMC3    C410067   0.180   0.129  11.439  0.2720 -0.5426  0.5542
  677TMC3    C510068   0.154   0.172  11.571  0.1313 -0.0408 -0.3241
  677TMC3    C610069   0.088   0.094  11.659 -0.4116  0.4052 -0.9586
  677TMC3     C10070   0.171   4.684  11.272 -1.3052  0.1036  0.2039
  677TMC3     O10071   0.234   0.023  11.194  0.1760  0.9014  0.3968
  677TMC3     H10072   4.721   4.583  11.456  0.5147  0.2659 -1.4294
  677TMC3    H110073   0.246   0.183  11.372 -0.2154  0.3781  0.8173
  677TMC3    H210074   0.075   0.125  11.762  1.0399  0.4934 -0.7988
  677TMC3    C710075   0.243   0.264  11.642 -0.0222  0.2643 -0.7209
  677TMC3    C810076   0.051   4.605  11.716 -0.6623  0.5308 -0.3155
  677TMC3    O110077   0.193   0.320  11.739  0.1333 -0.4783 -0.1789
  677TMC3    O210078   0.089   4.500  11.669 -0.1736  0.8207  0.1710
  678MPD2     C10079   1.282   3.201   1.175  0.4725 -0.4963  0.2510
  678MPD2    C110080   1.347   3.323   1.157 -0.4707  0.3184 -0.2769
  678MPD2    C210081   1.273   3.438   1.156  0.7072  0.2423  0.6964
  678MPD2    C310082   1.136   3.427   1.164  0.6370 -0.2969  0.8552
  678MPD2    C410083   1.075   3.301   1.180 -0.0036  0.5090  0.5115
  678MPD2    C510084   1.147   3.190   1.194 -0.4651 -0.0135  0.0880
  678MPD2     H10085   1.323   3.534   1.148  1.6764 -0.4042 -1.2533
  678MPD2    H110086   0.970   3.286   1.199  0.2881 -2.4074 -0.1576
  678MPD2    H210087   1.341   3.110   1.177  1.6026  0.2320  0.2037
  678MPD2    H310088   1.105   3.090   1.203  0.7185 -0.6141 -0.9254
  678MPD2     N10089   1.045   3.531   1.153  0.1599 -0.0003 -0.3521
  678MPD2    H510090   0.947   3.511   1.170  0.7245 -1.4817  1.1766
  678MPD2    N110091   1.488   3.329   1.145  0.2462  0.2689  0.1767
  678MPD2    H710092   1.537   3.417   1.131 -1.2357  1.3348  1.6568
  679TMC3    C110093   1.941   3.192   1.123  0.5119 -0.4866  0.3094
  679TMC3    C210094   1.811   3.163   1.158  0.6478  0.0200  0.2010
  679TMC3    C310095   1.717   3.263   1.154 -0.3363 -0.3375 -0.5396
  679TMC3    C410096   1.984   3.316   1.090 -0.0823  0.0449 -0.0375
  679TMC3    C510097   1.890   3.411   1.104 -0.5016 -0.6434  0.1251
  679TMC3    C610098   1.756   3.389   1.130  0.2164  0.0346 -0.0491
  679TMC3     C10099   2.041   3.083   1.096  0.5786  0.3809  0.3277
  679TMC3     O10100   2.132   3.107   1.016  0.2530  0.3210  0.0267
  679TMC3     H10101   1.771   3.062   1.163 -1.4413  0.8463  0.2760
  679TMC3    H110102   2.091   3.334   1.080 -0.0354  0.9264  1.9572
  679TMC3    H210103   1.681   3.467   1.122 -0.3116 -0.4554  0.1421
  679TMC3    C710104   1.935   3.543   1.086  0.7021  0.0136 -0.3493
  679TMC3    C810105   1.576   3.229   1.167  0.0171  1.1038 -0.0135
  679TMC3    O110106   2.057   3.557   1.094 -0.1328  0.0052  0.3827
  679TMC3    O210107   1.551   3.117   1.210 -0.7389  0.2626  0.1522
  680MPD2     C10108   2.011   2.453  13.726 -0.7822 -0.5701  0.1478
  680MPD2    C110109   2.092   2.424  13.826 -0.8001  0.5346  0.0190
  680MPD2    C210110   2.152   2.523  13.903  0.1023  0.2053 -0.6509
  680MPD2    C310111   2.110   2.654  13.886  0.4565  0.0631 -0.0721
  680MPD2    C410112   2.016   2.683  13.790  0.3061  0.1132  0.2805
  680MPD2    C510113   1.973   2.584  13.712  0.6237 -0.0224  0.1195
  680MPD2     H10114   2.221   2.497  13.982  0.8457 -0.5028 -1.5280
  680MPD2    H110115   1.991   2.786  13.769  0.4295 -0.5562 -3.0696
  680MPD2    H210116   1.969   2.383  13.656 -1.4078 -0.1994  0.1477
  680MPD2    H310117   1.908   2.605  13.628 -0.8929  0.1635  1.3314
  680MPD2     N10118   2.150   2.761  13.972 -0.1884 -0.0491  0.0532
  680MPD2    H510119   2.140   2.857  13.942  1.4078  0.9085  2.5727
  680MPD2    N110120   2.144   2.290  13.844  0.7048 -0.1656  0.1727
  680MPD2    H710121   2.229   2.279  13.898  1.6328  1.1304 -1.0215
  681TMC3    C110122   2.161   2.058  13.798 -0.4191 -0.6387  0.1989
  681TMC3    C210123   2.091   1.946  13.834 -0.2560  0.0487  0.1603
  681TMC3    C310124   2.158   1.840  13.891 -0.3761  0.2331  0.2725
  681TMC3    C410125   2.296   2.065  13.816  0.1226  0.4928 -0.6490
  681TMC3    C510126   2.363   1.951  13.861  0.6714  0.2862 -0.4823
  681TMC3    C610127   2.294   1.839  13.904 -0.1612 -0.4229  0.2529
  681TMC3     C10128   2.080   2.177  13.794 -0.2835  0.2356  0.6945
  681TMC3     O10129   1.970   2.162  13.747  0.2182 -0.3860  0.2300
  681TMC3     H10130   1.983   1.945  13.840 -0.1434 -1.0867  2.0466
  681TMC3    H110131   2.342   2.161  13.794  0.3219  0.3448 -0.8774
  681TMC3    H210132   2.350   1.757  13.946 -1.1301 -0.1846  2.0021
  681TMC3    C710133   2.495   1.924  13.808  0.1294  0.7060  0.0812
  681TMC3    C810134   2.077   1.783  13.998  0.1235 -0.4911  0.5152
  681TMC3    O110135   2.562   1.840  13.868 -0.2603  0.4429 -0.1892
  681TMC3    O210136   1.996   1.701  13.961 -0.0029 -0.4893  0.4350
  682MPD2     C10137   4.233   0.188  11.105 -0.5140 -0.2947  0.0674
  682MPD2    C110138   4.175   0.064  11.147  0.7810 -0.5333  0.1916
  682MPD2    C210139   4.117   0.057  11.271  0.0770  0.8359 -0.7394
  682MPD2    C310140   4.110   0.165  11.358  0.1043  0.3271 -0.1124
  682MPD2    C410141   4.166   0.285  11.314  0.1140 -0.9934 -0.2710
  682MPD2    C510142   4.226   0.294  11.192  0.1292 -0.2385 -0.0907
  682MPD2     H10143   4.068   4.698  11.301  2.9539 -0.0603  1.2742
  682MPD2    H110144   4.169   0.369  11.383 -0.7437 -1.6206  0.5190
  682MPD2    H210145   4.275   0.195  11.005  1.3886 -1.8796  0.7461
  682MPD2    H310146   4.259   0.394  11.166 -0.9043  0.7823  2.4614
  682MPD2     N10147   4.061   0.160  11.494  0.4555  0.4381  0.2256
  682MPD2    H510148   4.048   0.252  11.533 -0.8615  0.3850 -0.0965
  682MPD2    N110149   4.166   4.692  11.059 -0.4155 -0.1725  0.5013
  682MPD2    H710150   4.120   4.610  11.095 -0.5495 -0.7693 -1.0289
  683TMC3    C110151   3.935   0.248  11.872  0.4848  0.2338 -0.0246
  683TMC3    C210152   3.841   0.177  11.933 -0.4728 -0.7043  0.1485
  683TMC3    C310153   3.816   0.056  11.883 -0.7963  0.2572  0.1197
  683TMC3    C410154   4.002   0.219  11.756 -0.5454 -0.4850 -0.5503
  683TMC3    C510155   3.947   0.104  11.692  0.6738 -0.1898 -0.0404
  683TMC3    C610156   3.866   0.019  11.756  0.6568 -0.2725  0.1956
  683TMC3     C10157   3.999   0.338  11.961 -0.1043  0.7140 -0.0281
  683TMC3     O10158   3.994   0.308  12.079 -0.5343 -0.5316  0.4345
  683TMC3     H10159   3.807   0.206  12.032 -1.1489  0.6839 -0.4797
  683TMC3    H110160   4.091   0.265  11.715  0.9411 -2.2825  0.6433
  683TMC3    H210161   3.835   4.657  11.715 -1.2136  0.5474 -0.2944
  683TMC3    C710162   3.990   0.063  11.555 -0.6806 -0.3190  0.0945
  683TMC3    C810163   3.719   4.720  11.955 -0.4406 -0.4476  0.4504
  683TMC3    O110164   3.968   4.683  11.516  0.4378 -0.1326  0.5120
  683TMC3    O210165   3.634   0.039  12.022  0.4792  0.4226  0.9505
  684MPD2     C10166   2.734   3.326  16.330  0.4392 -0.2597 -0.8818
  684MPD2    C110167   2.674   3.385  16.223 -0.4491 -0.5068 -0.4163
  684MPD2    C210168   2.657   3.521  16.220 -0.1892  0.1144  0.2406
  684MPD2    C310169   2.714   3.601  16.317 -0.7832  0.3963  0.1662
  684MPD2    C410170   2.772   3.541  16.434 -0.0858  0.1915 -0.3569
  684MPD2    C510171   2.791   3.404  16.434 -0.3523 -0.9037  0.2505
  684MPD2     H10172   2.604   3.568  16.138  0.6051  1.0200  0.2540
  684MPD2    H110173   2.791   3.590  16.529 -1.1399 -2.1979  1.0772
  684MPD2    H210174   2.744   3.218  16.330 -1.1057 -0.3955 -1.9553
  684MPD2    H310175   2.846   3.348  16.509  1.1178  1.1193  0.6693
  684MPD2     N10176   2.693   3.740  16.320 -0.0880  0.1970 -0.0396
  684MPD2    H510177   2.718   3.789  16.405 -0.3815  1.0168 -0.4159
  684MPD2    N110178   2.613   3.319  16.114 -0.1718 -0.0270 -0.2729
  684MPD2    H710179   2.563   3.380  16.050  3.2895  2.2822 -0.7970
  685TMC3    C110180   2.577   3.169  15.943  0.0977  0.4091 -0.0058
  685TMC3    C210181   2.463   3.247  15.910 -0.4794 -0.4225 -1.1148
  685TMC3    C310182   2.457   3.294  15.787  0.3557 -0.6994  0.1312
  685TMC3    C410183   2.684   3.155  15.861  0.2982 -0.1179 -0.2373
  685TMC3    C510184   2.685   3.235  15.754  0.2065 -0.1505  0.4175
  685TMC3    C610185   2.567   3.294  15.709 -0.1803  0.0492 -0.1394
  685TMC3     C10186   2.620   3.185  16.079 -0.2967  0.2525  0.0431
  685TMC3     O10187   2.702   3.113  16.120 -0.5409 -0.4632 -0.5317
  685TMC3     H10188   2.375   3.238  15.972  1.6340 -0.2841  1.9331
  685TMC3    H110189   2.770   3.092  15.880  0.6360  0.7949  1.2358
  685TMC3    H210190   2.572   3.346  15.614 -2.2878 -0.9699 -0.8071
  685TMC3    C710191   2.801   3.315  15.740  0.2245 -1.2489 -0.2661
  685TMC3    C810192   2.328   3.335  15.746 -0.0709  0.0856  0.5992
  685TMC3    O110193   2.809   3.370  15.633 -0.2697  0.1841 -0.4055
  685TMC3    O210194   2.307   3.329  15.627 -0.9058  0.1208  0.5782
  686MPD2     C10195   3.501   3.599  15.668  0.4068 -0.4701 -0.2001
  686MPD2    C110196   3.566   3.531  15.766  0.1794 -0.4012 -0.3845
  686MPD2    C210197   3.703   3.524  15.770  0.5139  0.7901 -0.6546
  686MPD2    C310198   3.775   3.587  15.675  0.6122 -0.4800  0.3908
  686MPD2    C410199   3.717   3.674  15.589 -0.3737  0.1526 -0.2726
  686MPD2    C510200   3.576   3.677  15.584 -0.8743 -0.2504  0.5682
  686MPD2     H10201   3.756   3.471  15.848 -0.2140  1.9994  0.6669
  686MPD2    H110202   3.780   3.743  15.534  3.9106 -3.2701  0.3231
  686MPD2    H210203   3.396   3.591  15.642  0.7739 -2.2055 -1.1320
  686MPD2    H310204   3.539   3.743  15.507  0.0806  1.3809  1.5121
  686MPD2     N10205   3.922   3.580  15.669 -0.0284 -0.0042  0.4578
  686MPD2    H510206   3.960   3.652  15.609  1.6506 -1.5956 -0.3840
  686MPD2    N110207   3.481   3.441  15.839 -0.3677 -0.9140  0.2398
  686MPD2    H710208   3.380   3.445  15.831 -0.3961 -1.0303  0.5674
  687TMC3    C110209   3.934   3.351  15.717  0.1826  0.1346 -0.0288
  687TMC3    C210210   3.865   3.310  15.599 -0.3909 -0.2094  0.3689
  687TMC3    C310211   3.781   3.207  15.617  0.3527  0.4119 -0.6344
  687TMC3    C410212   3.940   3.268  15.832 -0.4452 -0.1772 -0.3156
  687TMC3    C510213   3.872   3.150  15.829 -0.3231  0.5963 -0.9104
  687TMC3    C610214   3.780   3.129  15.729  0.2431 -0.5157  0.0169
  687TMC3     C10215   4.002   3.480  15.723 -0.8752  0.9277 -0.9901
  687TMC3     O10216   4.125   3.482  15.717 -0.6930  0.3333 -0.5317
  687TMC3     H10217   3.888   3.371  15.512  0.1207 -1.1487 -0.1641
  687TMC3    H110218   3.991   3.312  15.917 -1.6579 -1.2262  0.9443
  687TMC3    H210219   3.722   3.037  15.719 -1.7728  0.6094  1.5094
  687TMC3    C710220   3.878   3.068  15.951  0.5079 -0.0993 -0.8667
  687TMC3    C810221   3.643   3.217  15.560  0.3298  0.2854  0.3408
  687TMC3    O110222   3.982   3.073  16.014  0.0086  0.3136  0.0960
  687TMC3    O210223   3.555   3.173  15.632 -0.1413  0.0493  0.2468
  688MPD2     C10224   2.978   2.144  17.605  0.1622 -0.1341 -0.2804
  688MPD2    C110225   2.992   2.009  17.623 -0.0969 -0.0620  0.6507
  688MPD2    C210226   3.084   1.938  17.537 -0.3001  0.4458  0.0115
  688MPD2    C310227   3.148   2.009  17.442  0.0360 -0.6082  0.0651
  688MPD2    C410228   3.122   2.141  17.417  0.0625 -0.3522 -0.2451
  688MPD2    C510229   3.035   2.209  17.498 -0.2652  0.0624  0.1971
  688MPD2     H10230   3.077   1.831  17.550  2.4531  0.2833  0.0331
  688MPD2    H110231   3.169   2.198  17.338 -1.1949  0.2653 -0.5559
  688MPD2    H210232   2.907   2.198  17.667 -1.5260 -2.5231 -0.1097
  688MPD2    H310233   3.016   2.315  17.493 -2.9102 -0.4467 -0.3317
  688MPD2     N10234   3.257   1.959  17.364 -0.2761 -0.1316 -0.0201
  688MPD2    H510235   3.294   2.018  17.291  0.2167 -0.6656 -0.1998
  688MPD2    N110236   2.934   1.940  17.727  0.8302  0.5342 -0.2108
  688MPD2    H710237   2.941   1.839  17.725 -2.0131  0.3106  0.9284
  689TMC3    C110238   2.862   1.903   0.214 -1.3352 -0.1852  0.0299
  689TMC3    C210239   2.831   1.972   0.330 -0.6118 -0.0482  0.2249
  689TMC3    C310240   2.757   1.905   0.428  0.6736 -0.8293 -0.2162
  689TMC3    C410241   2.797   1.785   0.181  0.3023 -0.3942 -0.3504
  689TMC3    C510242   2.727   1.727   0.282  0.3270 -0.6063  0.2016
  689TMC3    C610243   2.712   1.778   0.412 -0.1516 -0.3640  0.6288
  689TMC3     C10244   2.878   2.000   0.109  0.1458 -0.2359  0.0186
  689TMC3     O10245   2.854   2.117   0.139 -0.4906 -0.1373  0.0910
  689TMC3     H10246   2.884   2.064   0.354  0.4896 -0.5245 -0.3878
  689TMC3    H110247   2.831   1.728   0.095  0.7076 -1.7091  0.6666
  689TMC3    H210248   2.658   1.726   0.490  1.9505  1.0945  3.0363
  689TMC3    C710249   2.701   1.579   0.280  0.9515  0.0588 -0.2830
  689TMC3    C810250   2.729   1.961   0.561  0.3320  0.6819  0.2261
  689TMC3    O110251   2.713   1.516   0.383 -0.2533 -0.2210 -0.1411
  689TMC3    O210252   2.686   1.892   0.653 -0.4192 -0.4124  0.4349
  690MPD2     C10253   0.625   3.957  15.890  0.0092 -0.4830  0.0350
  690MPD2    C110254   0.565   3.955  15.761  0.1385 -0.3266  0.4220
  690MPD2    C210255   0.624   4.027  15.660 -0.5015 -0.7324  0.7400
  690MPD2    C310256   0.742   4.103  15.676  0.3433 -0.6133  0.0836
  690MPD2    C410257   0.798   4.107  15.805  0.2370  0.4191 -0.1842
  690MPD2    C510258   0.739   4.029  15.904 -0.3053  0.6454 -0.2500
  690MPD2     H10259   0.576   4.016  15.564  0.9067  1.1299 -0.1775
  690MPD2    H110260   0.889   4.161  15.831  0.7639 -0.9060  0.7209
  690MPD2    H210261   0.586   3.919  15.984  1.2305  0.9724  1.1304
  690MPD2    H310262   0.772   4.034  16.007  0.5204  3.6145 -0.6672
  690MPD2     N10263   0.793   4.180  15.570 -0.9505  0.2562  0.1244
  690MPD2    H510264   0.739   4.178  15.485 -3.8253 -1.8117  2.0156
  690MPD2    N110265   0.448   3.876  15.737 -0.2074 -0.1018 -0.7658
  690MPD2    H710266   0.415   3.875  15.641  1.1805  1.7546 -1.2641
  691TMC3    C110267   0.256   3.757  15.778 -0.0405 -0.0053  0.1636
  691TMC3    C210268   0.227   3.747  15.646  0.2753 -0.1638  0.2780
  691TMC3    C310269   0.093   3.734  15.613  0.3091  0.6089 -0.0724
  691TMC3    C410270   0.159   3.735  15.874 -0.3423 -0.2355  0.3235
  691TMC3    C510271   0.034   3.713  15.828 -0.2647 -0.0830  0.0918
  691TMC3    C610272   4.729   3.722  15.702  0.6327 -0.0001 -0.9525
  691TMC3     C10273   0.365   3.826  15.834 -0.5033  0.2970 -0.3469
  691TMC3     O10274   0.367   3.852  15.954  0.4500 -0.0958 -0.6419
  691TMC3     H10275   0.300   3.778  15.572  0.0779  1.4418  0.7426
  691TMC3    H110276   0.184   3.734  15.979 -0.9506  0.3680  0.4665
  691TMC3    H210277   4.632   3.694  15.663 -0.3030  1.7553  0.0795
  691TMC3    C710278   4.691   3.630  15.919 -0.6597  0.3045 -0.3431
  691TMC3    C810279   0.051   3.774  15.481 -0.1241  0.2316 -0.1319
  691TMC3    O110280   4.717   3.635  16.037  0.4853 -0.4972 -0.6322
  691TMC3    O210281   0.121   3.763  15.384 -0.0435 -0.1446 -0.3623
  692TMC3    C110282   1.824   4.638  15.488 -0.3580 -0.0255 -0.5407
  692TMC3    C210283   1.940   4.674  15.439  0.0015  0.6077  0.3315
  692TMC3    C310284   2.055   4.617  15.482 -0.0349 -0.2671  0.5602
  692TMC3    C410285   1.813   4.535  15.580  0.4367  0.1817 -0.3974
  692TMC3    C510286   1.927   4.485  15.627 -0.4484 -0.0211  0.2054
  692TMC3    C610287   2.048   4.514  15.567 -0.7783  0.3973  0.2223
  692TMC3     C10288   1.729   0.014  15.519 -0.9518  0.0816 -0.7620
  692TMC3     O10289   1.637   4.709  15.592  0.2305  0.4241 -0.1869
  692TMC3     H10290   1.942   0.029  15.376  0.1615  0.6098  0.3398
  692TMC3    H110291   1.730   4.510  15.645  0.1886 -0.9503 -1.1660
  692TMC3    H210292   2.142   4.503  15.620 -2.9883 -0.1281  3.9786
  692TMC3    C710293   1.910   4.372  15.715  0.3628 -0.6688  0.2481
  692TMC3    C810294   2.145   4.723  15.531 -0.0292  0.6346  0.9758
  692TMC3    O110295   1.801   4.316  15.703  0.1410 -0.2931 -0.1841
  692TMC3    O210296   2.261   4.716  15.501  0.4006 -0.0876  0.7640
  693MPD2     C10297   1.289   3.212  10.513  0.7679 -0.3937 -0.4949
  693MPD2    C110298   1.230   3.145  10.620  0.1697  0.0597 -0.2722
  693MPD2    C210299   1.308   3.066  10.708  0.2837 -0.4941  0.2494
  693MPD2    C310300   1.447   3.073  10.703  0.3123 -0.5753  0.5570
  693MPD2    C410301   1.495   3.149  10.597  0.0435 -0.8283  0.1430
  693MPD2    C510302   1.417   3.219  10.502 -0.2749  0.5824  0.2417
  693MPD2     H10303   1.253   3.006  10.781 -1.8247  1.6131  0.3914
  693MPD2    H110304   1.603   3.158  10.588 -0.0049  1.6800  1.9936
  693MPD2    H210305   1.231   3.266  10.438 -0.4463 -0.9553  0.0269
  693MPD2    H310306   1.460   3.268  10.415 -1.3668 -3.2506 -2.4431
  693MPD2     N10307   1.539   3.010  10.792  0.3256 -0.2981  0.1002
  693MPD2    H510308   1.637   3.032  10.775 -0.4984  1.9156 -1.7706
  693MPD2    N110309   1.089   3.135  10.639 -0.4257  0.2340  0.0770
  693MPD2    H710310   1.064   3.085  10.725  0.7240 -2.6148 -1.2459
  694TMC3    C110311   0.861   3.188  10.617  0.8917 -0.2055 -0.0364
  694TMC3    C210312   0.742   3.160  10.547 -0.8769  0.8081 -0.3439
  694TMC3    C310313   0.628   3.148  10.624  0.8855 -0.0778  0.5357
  694TMC3    C410314   0.862   3.246  10.740 -0.1459 -0.2586  0.4013
  694TMC3    C510315   0.745   3.244  10.816  0.1941  0.5638  0.6972
  694TMC3    C610316   0.630   3.189  10.756 -0.4507 -0.0400  0.0136
  694TMC3     C10317   0.992   3.179  10.552  0.0346  0.1968 -0.0005
  694TMC3     O10318   0.996   3.206  10.431  0.5558  0.4759 -0.3206
  694TMC3     H10319   0.755   3.130  10.443  0.6341 -0.3210  0.1818
  694TMC3    H110320   0.946   3.294  10.788  0.8953 -2.3654  0.6324
  694TMC3    H210321   0.539   3.189  10.815 -1.5873  1.5789 -1.7192
  694TMC3    C710322   0.764   3.219  10.954  0.0253 -0.3844  0.6558
  694TMC3    C810323   0.516   3.076  10.558 -0.6590 -0.4876 -0.0010
  694TMC3    O110324   0.857   3.278  11.004  0.2265  0.2935 -1.0824
  694TMC3    O210325   0.440   3.020  10.638  0.2659  0.2881 -0.2309
  695MPD2     C10326   2.662   4.722  13.135  0.6011  0.1842 -0.4884
  695MPD2    C110327   2.633   0.004  13.266 -0.5818 -1.1259  0.7857
  695MPD2    C210328   2.502   0.041  13.298 -0.4987 -0.7359 -0.2003
  695MPD2    C310329   2.404   0.054  13.207 -0.1399 -0.6254  0.6860
  695MPD2    C410330   2.445   0.040  13.077 -0.0780  0.0234 -0.0483
  695MPD2    C510331   2.568   0.011  13.042  0.7609 -0.2148  0.6625
  695MPD2     H10332   2.477   0.034  13.403 -1.2515 -2.5376 -0.5092
  695MPD2    H110333   2.373   0.066  13.001  1.5740  3.0917 -0.5564
  695MPD2    H210334   2.759   4.697  13.094  0.0746 -2.0311 -0.3580
  695MPD2    H310335   2.606   0.014  12.940  0.2883  0.1343  0.4957
  695MPD2     N10336   2.269   0.074  13.244  0.0552  0.1937 -0.1469
  695MPD2    H510337   2.253   0.063  13.343 -1.3277  3.5919  0.0102
  695MPD2    N110338   2.736   4.726  13.361  0.3674  0.4901  0.3122
  695MPD2    H710339   2.697   4.732  13.454 -1.8948 -1.7633 -0.4750
  696TMC3    C110340   2.039   0.122  13.219  0.1212 -0.2099  1.2274
  696TMC3    C210341   2.021   0.052  13.332 -0.2623  0.3058  0.4307
  696TMC3    C310342   1.914   0.090  13.411  0.6040 -0.2305  0.4342
  696TMC3    C410343   1.960   0.230  13.182  0.3395 -0.9072 -0.2129
  696TMC3    C510344   1.858   0.269  13.261  0.5282 -0.3721 -0.3901
  696TMC3    C610345   1.833   0.196  13.374 -0.1493  0.0761 -0.0064
  696TMC3     C10346   2.165   0.115  13.157  0.3753 -0.1204  0.3197
  696TMC3     O10347   2.182   0.162  13.049 -0.2244 -0.0697  0.2162
  696TMC3     H10348   2.093   4.711  13.364  3.7992  4.1415  0.0887
  696TMC3    H110349   1.971   0.284  13.088  0.5311 -2.7785 -1.2606
  696TMC3    H210350   1.749   0.236  13.431 -1.4906 -1.8045 -0.6360
  696TMC3    C710351   1.831   0.406  13.242 -0.2670  0.2805 -0.1915
  696TMC3    C810352   1.910   0.038  13.545  0.4038 -0.4730  0.1292
  696TMC3    O110353   1.827   0.457  13.131 -0.1028  0.1178 -0.1319
  696TMC3    O210354   2.015   0.006  13.598 -0.0522  0.5285 -0.5354
  697MPD2     C10355   1.693   1.812  16.186 -0.7422 -0.4258  0.0029
  697MPD2    C110356   1.729   1.734  16.079  0.5543 -0.5036  0.1643
  697MPD2    C210357   1.780   1.799  15.971 -0.0602  0.4229 -0.0590
  697MPD2    C310358   1.815   1.930  15.969  0.2199 -0.3159  0.3751
  697MPD2    C410359   1.791   2.000  16.082  0.0416  0.3275 -0.4914
  697MPD2    C510360   1.732   1.945  16.191 -0.1234  0.0964  0.2765
  697MPD2     H10361   1.806   1.735  15.887 -1.1497 -0.5800  0.3712
  697MPD2    H110362   1.837   2.097  16.099 -1.4861  1.2195 -1.3748
  697MPD2    H210363   1.655   1.771  16.279  0.3449 -1.4266  0.0083
  697MPD2    H310364   1.731   1.987  16.291  0.6579 -0.2262  0.4215
  697MPD2     N10365   1.874   1.999  15.860 -0.3518  0.0829  0.5681
  697MPD2    H510366   1.906   2.092  15.881  1.4032 -0.2206 -0.8561
  697MPD2    N110367   1.704   1.597  16.076 -0.4492 -0.3840 -0.3589
  697MPD2    H710368   1.733   1.541  15.996  0.5273  0.0332 -0.2909
  698TMC3    C110369   1.952   2.047  15.641  0.3505  0.2284  0.9980
  698TMC3    C210370   2.039   2.135  15.679 -0.3304  0.1196  0.3715
  698TMC3    C310371   2.076   2.225  15.586 -1.1859  0.9019  0.2005
  698TMC3    C410372   1.900   2.044  15.515 -0.0742  0.1238  0.7668
  698TMC3    C510373   1.943   2.134  15.427 -0.1983 -0.5793 -0.0411
  698TMC3    C610374   2.029   2.232  15.458 -0.0018  0.2150  0.3331
  698TMC3     C10375   1.894   1.951  15.729 -0.3359 -0.4120  0.9922
  698TMC3     O10376   1.855   1.845  15.673  0.2827 -0.2904 -0.1668
  698TMC3     H10377   2.095   2.122  15.771  1.5980 -0.2161 -0.8541
  698TMC3    H110378   1.823   1.971  15.495  0.5167 -0.5506  0.9865
  698TMC3    H210379   2.044   2.308  15.382  0.5839 -1.4984 -1.2559
  698TMC3    C710380   1.891   2.115  15.290  0.0346 -0.0536 -0.1986
  698TMC3    C810381   2.161   2.335  15.635 -0.0396 -0.4410  0.2628
  698TMC3    O110382   1.805   2.032  15.267 -0.4138  0.1440 -0.7897
  698TMC3    O210383   2.154   2.340  15.759  0.4344  0.1623 -0.3503
  699TMC3    C110384   1.833   0.180  12.886  0.6983 -0.2583  0.6280
  699TMC3    C210385   1.874   0.054  12.911  0.0938 -0.0137  0.4908
  699TMC3    C310386   1.796   4.708  12.984 -0.3564 -0.8644  0.9092
  699TMC3    C410387   1.714   0.225  12.937 -0.0127  0.4641 -0.2218
  699TMC3    C510388   1.627   0.140  13.004 -0.2158  0.7267 -0.1432
  699TMC3    C610389   1.663   0.004  13.013  0.4159  0.1018 -0.2161
  699TMC3     C10390   1.885   0.254  12.770 -0.0797 -0.6498 -0.1361
  699TMC3     O10391   1.810   0.343  12.733 -0.1114  0.1866  0.5102
  699TMC3     H10392   1.954   0.006  12.856 -0.8835 -2.9213  1.5790
  699TMC3    H110393   1.682   0.325  12.911 -0.6718  0.6240  1.1611
  699TMC3    H210394   1.595   4.670  13.064 -2.3112  0.6544 -3.0793
  699TMC3    C710395   1.529   0.196  13.087  0.3419 -0.3928  0.1220
  699TMC3    C810396   1.849   4.601  13.063 -0.2463  0.1076  0.5772
  699TMC3    O110397   1.461   0.112  13.146 -0.0532 -0.2089 -0.1440
  699TMC3    O210398   1.776   4.565  13.151 -0.3612 -0.1106  0.0622
  700TMC3    C110399   0.860   2.528  17.553  0.1486 -0.3763 -0.1182
  700TMC3    C210400   0.905   2.398  17.556  0.2635  0.1741 -0.0454
  700TMC3    C310401   1.001   2.366  17.647 -0.4662  0.3445  0.0664
  700TMC3    C410402   0.929   2.630  17.609  0.6803  0.4779  0.5839
  700TMC3    C510403   1.035   2.599  17.695 -0.4085  0.2465 -0.4516
  700TMC3    C610404   1.065   2.464  17.716 -0.8176  0.1256  0.5691
  700TMC3     C10405   0.783   2.563  17.441 -0.2223  0.2825  0.2254
  700TMC3     O10406   0.676   2.511  17.426 -0.9250 -0.3693  0.7058
  700TMC3     H10407   0.862   2.330  17.484  2.7604 -1.0783 -0.3573
  700TMC3    H110408   0.899   2.734  17.598 -1.4027 -0.1287  0.5856
  700TMC3    H210409   1.156   2.443   0.035 -0.1184 -1.6958 -1.3310
  700TMC3    C710410   1.110   2.702   0.032 -1.0768 -0.2947 -0.3238
  700TMC3    C810411   1.089   2.262  17.601  0.5144  0.6538 -0.4203
  700TMC3    O110412   1.158   2.673   0.140  0.0381 -0.4389 -0.2063
  700TMC3    O210413   1.212   2.271  17.617 -0.4872 -0.2162  0.1570
  701TMC3    C110414   0.781   1.330  15.721 -0.4830  0.2872  1.4895
  701TMC3    C210415   0.729   1.318  15.594  0.4344  0.5240 -0.0063
  701TMC3    C310416   0.826   1.327  15.495 -0.1183 -0.6240  0.0446
  701TMC3    C410417   0.913   1.363  15.749 -0.2494  0.0661  0.3197
  701TMC3    C510418   0.996   1.384  15.651 -0.0126  0.3674 -0.2833
  701TMC3    C610419   0.958   1.360  15.520  0.8542 -0.5764  0.3812
  701TMC3     C10420   0.685   1.284  15.825  0.3127 -0.5912 -0.4261
  701TMC3     O10421   0.602   1.200  15.793  0.2346  0.3169 -0.1125
  701TMC3     H10422   0.621   1.315  15.584  0.5782 -1.0551 -1.0300
  701TMC3    H110423   0.949   1.359  15.851 -0.6726  3.9245  0.6314
  701TMC3    H210424   1.022   1.372  15.433  1.1673  0.2783  0.7249
  701TMC3    C710425   1.117   1.465  15.660 -0.7645 -0.2989  0.4876
  701TMC3    C810426   0.773   1.358  15.359 -0.2341 -0.1860  0.0154
  701TMC3    O110427   1.199   1.459  15.568 -0.2640  0.8103 -0.0455
  701TMC3    O210428   0.820   1.454  15.306  0.0479 -0.1098 -0.2191
  702MPD2     C10429   0.000   3.676  10.496  0.0306 -0.1742  0.4300
  702MPD2    C110430   4.668   3.797  10.518 -0.2837 -0.1729 -0.3882
  702MPD2    C210431   4.660   3.893  10.411 -1.0931 -0.4967 -0.0065
  702MPD2    C310432   4.710   3.866  10.282  0.0678 -0.2017  0.0622
  702MPD2    C410433   0.036   3.744  10.259  0.1962 -0.9906  0.0512
  702MPD2    C510434   0.047   3.654  10.370  0.3004 -0.2884  0.3156
  702MPD2     H10435   4.583   3.969  10.420 -1.7209 -1.5830  4.3821
  702MPD2    H110436   0.082   3.715  10.166  0.0391  0.0378 -0.3444
  702MPD2    H210437   0.007   3.602  10.575 -0.5657 -0.1414  0.5099
  702MPD2    H310438   0.100   3.561  10.353  2.7036  0.6873  2.4998
  702MPD2     N10439   4.695   3.953  10.176 -0.2684  0.4348  0.3426
  702MPD2    H510440   4.706   3.915  10.082 -2.0491 -4.2847  2.0692
  702MPD2    N110441   4.614   3.838  10.648 -0.5402  0.5894  0.1798
  702MPD2    H710442   4.571   3.929  10.659 -1.5535  0.0394  0.7182
  703TMC3    C110443   4.723   4.161  10.304  0.0439 -0.2065 -0.2669
  703TMC3    C210444   4.643   4.226  10.387 -0.8779 -0.0407  0.0308
  703TMC3    C310445   4.689   4.266  10.514  0.6315  0.9065 -0.4827
  703TMC3    C410446   0.118   4.142  10.334 -0.5426 -0.1217 -0.9272
  703TMC3    C510447   0.160   4.185  10.453 -0.1645 -0.2553  0.0513
  703TMC3    C610448   0.086   4.247  10.545  0.3603 -0.2932 -0.0936
  703TMC3     C10449   4.666   4.093  10.182  0.6520 -0.5370  0.3267
  703TMC3     O10450   4.648   4.169  10.087  0.3909  0.5214 -0.4232
  703TMC3     H10451   4.538   4.212  10.368 -0.8406 -0.9014  0.4392
  703TMC3    H110452   0.173   4.071  10.273  0.2106 -2.0382  1.9620
  703TMC3    H210453   0.126   4.295  10.633  0.3465  0.4776 -0.5104
  703TMC3    C710454   0.309   4.214  10.450 -0.6155  0.4173  0.2178
  703TMC3    C810455   4.598   4.229  10.618  0.4781  0.3294  0.4063
  703TMC3    O110456   0.352   4.258  10.343  0.2807 -0.4600 -0.0645
  703TMC3    O210457   4.532   4.125  10.608 -0.0406 -0.0789 -0.2189
  704TMC3    C110458   2.754   2.055  12.309  0.2909 -0.0393 -0.2392
  704TMC3    C210459   2.734   1.987  12.187  0.1901  0.2220 -0.2943
  704TMC3    C310460   2.780   1.857  12.186 -0.3031  0.4919 -0.1171
  704TMC3    C410461   2.805   2.004  12.420  0.6824  0.0821  0.5198
  704TMC3    C510462   2.863   1.882  12.402 -0.2320  0.0499 -0.0822
  704TMC3    C610463   2.842   1.805  12.296 -0.5081  0.2829 -0.1928
  704TMC3     C10464   2.677   2.174  12.321 -0.0389  0.6536  0.5661
  704TMC3     O10465   2.650   2.214  12.433  0.2345 -0.2120 -0.5515
  704TMC3     H10466   2.678   2.030  12.105  2.5074  1.0617 -1.4450
  704TMC3    H110467   2.800   2.056  12.515  1.3113  0.5035  0.3205
  704TMC3    H210468   2.885   1.706  12.298 -2.7197 -0.6917 -0.5497
  704TMC3    C710469   2.932   1.817  12.513 -0.9577 -0.0848 -0.1847
  704TMC3    C810470   2.730   1.761  12.087  0.3913 -0.7881 -0.1345
  704TMC3    O110471   2.896   1.706  12.545 -0.0664  0.6199  0.1775
  704TMC3    O210472   2.732   1.642  12.116 -0.0604  0.4943  0.1598
  705MPD2     C10473   1.879   4.638  15.975 -0.0878 -0.5956 -0.6253
  705MPD2    C110474   1.924   4.727  16.061  0.6060 -0.0977 -0.4246
  705MPD2    C210475   1.836   0.045  16.155 -0.1933  1.2409 -0.4473
  705MPD2    C310476   1.713   4.727  16.172  0.6309  0.3131 -0.6787
  705MPD2    C410477   1.664   4.635  16.074  0.1064  0.6523  0.0031
  705MPD2    C510478   1.750   4.600  15.971 -0.2399  0.9965  0.2846
  705MPD2     H10479   1.863   0.114  16.234  2.9434 -0.0441 -0.3754
  705MPD2    H110480   1.564   4.594  16.074  0.0235  0.8368 -3.0349
  705MPD2    H210481   1.947   4.593  15.904  2.2255  1.4481  0.2638
  705MPD2    H310482   1.722   4.520  15.903  1.0936 -0.1504  1.0802
  705MPD2     N10483   1.641   0.023  16.291  0.2993  0.4387 -0.1944
  705MPD2    H510484   1.681   0.086  16.361  0.8473 -1.8223  1.5107
  705MPD2    N110485   2.062   0.036  16.070 -0.2068  0.5383 -1.0859
  705MPD2    H710486   2.099   0.106  16.133  1.3710  0.5197 -1.9740
  706TMC3    C110487   2.524   0.045  16.046  0.6719  0.4527  0.1011
  706TMC3    C210488   2.529   0.166  16.120  0.8270  0.4408 -0.4479
  706TMC3    C310489   2.411   0.227  16.131 -0.4055  0.7620 -0.0954
  706TMC3    C410490   2.415   4.722  15.998  0.5931  0.2968  0.4200
  706TMC3    C510491   2.298   0.054  16.021  1.0666  0.0920 -0.6841
  706TMC3    C610492   2.296   0.174  16.086 -0.8894 -0.0328  0.2135
  706TMC3     C10493   2.657   4.724  16.012 -0.0075 -0.0800  0.2607
  706TMC3     O10494   2.755   0.036  16.069 -0.0924  0.9230  0.6410
  706TMC3     H10495   2.620   0.217  16.148  1.5019  0.2756 -2.3181
  706TMC3    H110496   2.415   4.615  15.978 -2.9546  0.3326  0.1035
  706TMC3    H210497   2.209   0.238  16.075  0.0815  1.6880  2.5540
  706TMC3    C710498   2.170   4.719  15.993  0.0456 -0.0377 -0.6487
  706TMC3    C810499   2.410   0.359  16.178  0.1998 -1.0277  0.0888
  706TMC3    O110500   2.181   4.623  15.918 -0.0877 -0.8398  0.5882
  706TMC3    O210501   2.311   0.427  16.161 -0.5356  0.4648 -0.1847
  707TMC3    C110502   4.557   3.420   1.310 -0.2176 -0.5687 -0.3460
  707TMC3    C210503   4.640   3.351   1.390  0.5157 -0.4244  0.2290
  707TMC3    C310504   4.722   3.432   1.468 -0.0095 -0.1824  0.2668
  707TMC3    C410505   4.532   3.555   1.322 -1.0002 -0.1545  0.1207
  707TMC3    C510506   4.616   3.627   1.409  0.0481  0.8144 -0.2065
  707TMC3    C610507   4.716   3.562   1.475 -0.7680  0.4827  0.4851
  707TMC3     C10508   4.495   3.339   1.203  0.1309 -0.6227 -0.0833
  707TMC3     O10509   4.496   3.221   1.224 -0.9942  0.0540 -0.6493
  707TMC3     H10510   4.662   3.250   1.359  0.3607 -0.1758 -0.7008
  707TMC3    H110511   4.441   3.603   1.289 -0.7531  1.3771  1.6328
  707TMC3    H210512   0.051   3.616   1.539 -1.7699 -0.0582  2.0281
  707TMC3    C710513   4.573   3.759   1.460  0.4338  0.6789  0.0078
  707TMC3    C810514   0.106   3.372   1.531  0.3384  0.3530 -0.3619
  707TMC3    O110515   4.456   3.796   1.437  1.0256 -0.6422  0.4206
  707TMC3    O210516   0.210   3.442   1.532  0.0360  0.8292 -0.7156
  708MPD2     C10517   1.017   3.536  13.529 -0.4284  0.1943  0.4351
  708MPD2    C110518   0.959   3.585  13.645  0.4374  0.7146  0.8388
  708MPD2    C210519   0.997   3.525  13.764 -0.2372 -0.1160  0.3750
  708MPD2    C310520   1.072   3.410  13.768  0.1818 -0.1683 -0.9042
  708MPD2    C410521   1.119   3.360  13.650 -0.6776  0.1539  0.1508
  708MPD2    C510522   1.088   3.421  13.531  0.0991  0.0976  0.0863
  708MPD2     H10523   0.958   3.566  13.856  1.0547  1.4924  0.2117
  708MPD2    H110524   1.169   3.264  13.637 -0.1589  1.0029 -4.1843
  708MPD2    H210525   0.981   3.564  13.430  1.8661  0.8174 -0.2271
  708MPD2    H310526   1.103   3.366  13.438  0.2291  2.4065 -1.2641
  708MPD2     N10527   1.075   3.345  13.891  0.0384  0.5934  0.1529
  708MPD2    H510528   1.035   3.397  13.968  2.2887  0.4651  1.3936
  708MPD2    N110529   0.857   3.687  13.633  0.4270  0.3304  0.9330
  708MPD2    H710530   0.833   3.725  13.541  2.5428 -1.8837 -0.5259
  709TMC3    C110531   0.667   3.800  13.711  0.5029 -0.3433 -0.1320
  709TMC3    C210532   0.612   3.759  13.589 -0.1552 -0.7491  0.2768
  709TMC3    C310533   0.488   3.696  13.590 -0.5623  0.4816  0.3776
  709TMC3    C410534   0.594   3.783  13.827  0.6318  0.2271 -0.2765
  709TMC3    C510535   0.488   3.698  13.821 -0.4546  0.4327 -0.0322
  709TMC3    C610536   0.426   3.669  13.706  0.1114  0.5296  0.2894
  709TMC3     C10537   0.792   3.739  13.741  0.0467  0.1602  0.3346
  709TMC3     O10538   0.833   3.743  13.855  0.1820 -0.4449 -0.2878
  709TMC3     H10539   0.669   3.788  13.501 -1.8081 -0.9624 -0.8579
  709TMC3    H110540   0.635   3.809  13.924 -0.8541 -0.7957  0.6310
  709TMC3    H210541   0.335   3.609  13.708  0.2276  0.3836  1.4514
  709TMC3    C710542   0.501   3.587  13.914  0.6270 -1.0626  0.3076
  709TMC3    C810543   0.490   3.577  13.513 -0.3607 -0.1361  0.3322
  709TMC3    O110544   0.562   3.603  14.018  0.1663 -0.0389  0.3789
  709TMC3    O210545   0.455   3.479  13.584 -0.3270  0.2627  0.4482
  710TMC3    C110546   1.400   4.047   0.434  0.4504  0.7334 -0.2074
  710TMC3    C210547   1.472   4.112   0.335 -0.0528  0.4223  0.0958
  710TMC3    C310548   1.608   4.103   0.361  1.5207 -0.0109  0.3008
  710TMC3    C410549   1.444   3.977   0.538 -0.6954 -0.0172 -0.3483
  710TMC3    C510550   1.574   3.980   0.564  0.5432 -0.3291 -0.2940
  710TMC3    C610551   1.657   4.034   0.471 -0.2859 -0.5035  0.0444
  710TMC3     C10552   1.259   4.088   0.443  0.2848  0.3930 -0.2881
  710TMC3     O10553   1.173   4.017   0.484  0.6226 -0.0929 -0.0845
  710TMC3     H10554   1.428   4.165   0.252  0.9782  0.6754 -0.2954
  710TMC3    H110555   1.373   3.943   0.612 -2.5616 -0.9699 -2.5813
  710TMC3    H210556   1.763   4.032   0.492 -0.1493  0.4586 -0.5949
  710TMC3    C710557   1.626   3.908   0.671  0.1771 -0.0797 -0.2061
  710TMC3    C810558   1.699   4.154   0.262  0.6313 -0.5008 -0.2057
  710TMC3    O110559   1.571   3.803   0.688  0.2701  0.5919 -0.1556
  710TMC3    O210560   1.803   4.096   0.257 -0.2991  0.3724 -0.2501
  711TMC3    C110561   1.483   0.860  15.380  0.2380  0.1965 -0.1782
  711TMC3    C210562   1.468   0.871  15.518 -0.2758 -0.6329 -0.1335
  711TMC3    C310563   1.577   0.873  15.595  0.5258 -0.0971  0.2451
  711TMC3    C410564   1.607   0.857  15.318 -0.1043 -0.1665 -0.4003
  711TMC3    C510565   1.714   0.865  15.405  0.0642 -0.6290  0.3067
  711TMC3    C610566   1.697   0.876  15.541 -0.6645  0.5866 -0.1878
  711TMC3     C10567   1.365   0.856  15.287 -0.2410 -1.0449  0.1519
  711TMC3     O10568   1.391   0.808  15.177  0.4481  0.2180 -0.0392
  711TMC3     H10569   1.368   0.869  15.559 -0.7620 -3.2970 -1.4203
  711TMC3    H110570   1.619   0.849  15.211 -1.1486  1.5330 -0.6340
  711TMC3    H210571   1.786   0.895  15.600 -1.5743  0.7828  1.1149
  711TMC3    C710572   1.834   0.806  15.347 -0.3962 -0.9959 -0.0589
  711TMC3    C810573   1.551   0.875  15.744  0.4192  0.4946  0.4492
  711TMC3    O110574   1.894   0.727  15.413 -0.0386 -0.2665 -0.1064
  711TMC3    O210575   1.434   0.893  15.778  0.0857  0.0143  0.0292
  712MPD2     C10576   2.817   1.180  13.930 -0.5280  0.0835  0.1010
  712MPD2    C110577   2.765   1.303  13.897 -0.9219 -0.0449 -0.0150
  712MPD2    C210578   2.845   1.417  13.885  0.4652  0.5213 -1.0911
  712MPD2    C310579   2.981   1.413  13.907  0.6290  0.1847  0.6642
  712MPD2    C410580   3.035   1.290  13.932 -0.2405 -0.5075  0.2633
  712MPD2    C510581   2.954   1.183  13.949 -0.1990  0.3884 -0.3385
  712MPD2     H10582   2.796   1.511  13.866  0.4549  0.6643 -0.3356
  712MPD2    H110583   3.141   1.279  13.952  0.0842  0.9383 -0.6504
  712MPD2    H210584   2.757   1.089  13.924 -1.2543  0.7307 -2.3462
  712MPD2    H310585   2.988   1.087  13.984  0.6037  0.8894  0.2556
  712MPD2     N10586   3.065   1.533  13.903 -0.3985 -0.4589  0.7098
  712MPD2    H510587   3.164   1.525  13.923 -0.4045 -1.1641  0.4736
  712MPD2    N110588   2.627   1.322  13.869 -0.7019  0.4068  0.3273
  712MPD2    H710589   2.603   1.407  13.819  0.7093  0.5237 -0.1443
  713TMC3    C110590   3.111   1.763  13.891 -0.3144 -0.0536 -0.8558
  713TMC3    C210591   3.241   1.730  13.919 -0.3280  0.2891 -0.1269
  713TMC3    C310592   3.313   1.799  14.019 -0.0142  0.3652 -0.0352
  713TMC3    C410593   3.061   1.881  13.936 -0.2752 -0.0661 -0.5294
  713TMC3    C510594   3.124   1.935  14.041 -0.2168 -0.0219  0.1640
  713TMC3    C610595   3.247   1.896  14.093 -0.0728 -0.4772 -0.0411
  713TMC3     C10596   3.010   1.658  13.895 -0.1995  0.2087  0.9269
  713TMC3     O10597   2.895   1.697  13.911  0.3423  0.0801  0.4294
  713TMC3     H10598   3.296   1.656  13.862 -1.6238 -2.9319  2.8242
  713TMC3    H110599   2.960   1.915  13.921  0.0990  0.6027 -1.5110
  713TMC3    H210600   3.296   1.962  14.164  0.5992 -1.5979  0.5408
  713TMC3    C710601   3.063   2.044  14.104  0.0354  0.1223 -0.1301
  713TMC3    C810602   3.457   1.805  14.017 -0.5251 -0.8011  0.3039
  713TMC3    O110603   3.076   2.055  14.227 -0.1298  0.2074 -0.5331
  713TMC3    O210604   3.511   1.744  13.924 -0.0223  0.0858 -0.2885
  714MPD2     C10605   0.425   0.200   1.764  0.2272  0.0390 -0.0222
  714MPD2    C110606   0.432   0.182   1.629 -0.0484 -0.4159  0.0708
  714MPD2    C210607   0.348   0.248   1.543 -0.1285  0.1948  0.2376
  714MPD2    C310608   0.242   0.323   1.602  0.0530 -0.1067  0.2996
  714MPD2    C410609   0.221   0.324   1.736 -0.2684 -0.0748 -0.7767
  714MPD2    C510610   0.318   0.272   1.818 -0.6109  1.5818  0.1590
  714MPD2     H10611   0.372   0.265   1.439  0.6912 -1.9996  0.0725
  714MPD2    H110612   0.144   0.383   1.784  0.4197  0.8826 -0.8573
  714MPD2    H210613   0.497   0.149   1.827  0.8574  1.2953  0.2897
  714MPD2    H310614   0.307   0.282   1.926  0.5589  1.1759  0.3172
  714MPD2     N10615   0.146   0.366   1.507 -0.1640 -0.2262  0.1329
  714MPD2    H510616   0.154   0.335   1.411  0.2258  1.0114 -0.2353
  714MPD2    N110617   0.547   0.110   1.587 -0.0915  0.7287 -0.4472
  714MPD2    H710618   0.605   0.080   1.664  1.9976  0.8586 -1.9663
  715TMC3    C110619   0.721   0.021   1.445 -0.3306 -0.5746  0.0275
  715TMC3    C210620   0.750   4.690   1.329  0.0712  0.2728  0.2806
  715TMC3    C310621   0.881   4.655   1.309 -0.6219 -0.4698 -0.8855
  715TMC3    C410622   0.818   0.048   1.538 -0.4289  0.2107 -0.1972
  715TMC3    C510623   0.949   0.008   1.516  0.3351 -0.3164 -0.5465
  715TMC3    C610624   0.980   4.687   1.401  0.3042 -0.0828 -0.4115
  715TMC3     C10625   0.589   0.085   1.458 -0.7192 -0.6487  0.2928
  715TMC3     O10626   0.527   0.116   1.359 -0.2761 -0.6039 -0.1278
  715TMC3     H10627   0.677   4.684   1.249  1.4619  1.8312 -1.1240
  715TMC3    H110628   0.798   0.130   1.606  0.4373 -0.8011  1.2918
  715TMC3    H210629   1.084   4.669   1.376  0.9941  0.7098  1.8391
  715TMC3    C710630   1.055   0.040   1.606  0.1007 -0.3534  0.0182
  715TMC3    C810631   0.903   4.565   1.197  0.0439  0.1310  0.0017
  715TMC3    O110632   1.170   4.731   1.569  0.4339 -0.4584  0.3790
  715TMC3    O210633   0.798   4.530   1.149  0.3978  0.1528 -0.1428
  716MPD2     C10634   0.418   3.951  10.138 -0.8503  0.3317  0.8984
  716MPD2    C110635   0.338   3.985  10.032 -0.1554  0.8436 -1.2014
  716MPD2    C210636   0.277   3.883   9.963 -0.0211  0.3086 -0.1284
  716MPD2    C310637   0.316   3.757   9.988  0.3338 -0.5444  0.0782
  716MPD2    C410638   0.402   3.718  10.086 -0.0384  0.0899  0.0075
  716MPD2    C510639   0.455   3.819  10.157  0.1540 -0.0182  0.3694
  716MPD2     H10640   0.204   3.910   9.887  0.8888  3.1104 -0.0017
  716MPD2    H110641   0.434   3.615  10.094  3.9394  1.2780 -0.5450
  716MPD2    H210642   0.467   4.028  10.196 -1.4393  1.7877 -0.5042
  716MPD2    H310643   0.524   3.788  10.235  0.8586 -1.7478 -0.9260
  716MPD2     N10644   0.255   3.667   9.904  0.1420 -0.1150  0.4758
  716MPD2    H510645   0.197   3.703   9.830  2.2546  1.4937 -0.4032
  716MPD2    N110646   0.305   4.125  10.017 -0.4510 -0.5103  0.5717
  716MPD2    H710647   0.352   4.193  10.077  1.0354  0.1136 -1.2821
  717TMC3    C110648   0.187   3.463   9.796  0.0661 -0.8528  0.1916
  717TMC3    C210649   0.059   3.512   9.778  0.0310 -0.1462  0.0990
  717TMC3    C310650   4.700   3.450   9.693 -0.5299 -0.3442 -0.1309
  717TMC3    C410651   0.210   3.340   9.742  0.0529  0.4098 -0.6351
  717TMC3    C510652   0.120   3.280   9.660  0.1986 -0.1918 -0.1858
  717TMC3    C610653   0.010   3.343   9.617 -1.0608  0.2792  0.5549
  717TMC3     C10654   0.275   3.525   9.897  0.5600 -0.3778 -0.1385
  717TMC3     O10655   0.369   3.458   9.938 -0.1590 -0.2686 -0.4558
  717TMC3     H10656   0.009   3.590   9.833  1.7340  1.1304 -0.1687
  717TMC3    H110657   0.301   3.288   9.771 -0.9534 -0.3460  1.2242
  717TMC3    H210658   4.681   3.286   9.549  1.4100  0.2548 -1.7178
  717TMC3    C710659   0.163   3.157   9.593 -0.0613 -0.3953 -0.2493
  717TMC3    C810660   4.566   3.484   9.684 -0.4144  0.2608  0.8353
  717TMC3    O110661   0.281   3.132   9.617  0.1043 -0.0581  0.0685
  717TMC3    O210662   4.525   3.537   9.785 -0.1367  0.5854 -0.3350
  718MPD2     C10663   4.327   2.436  12.992 -0.2143 -0.2436  0.0712
  718MPD2    C110664   4.260   2.404  12.880  0.1138  0.4513  0.0112
  718MPD2    C210665   4.166   2.301  12.876  0.3467 -0.2800 -0.5597
  718MPD2    C310666   4.142   2.230  12.989  0.1829 -0.3661 -0.1679
  718MPD2    C410667   4.215   2.257  13.105 -0.0315 -0.3241 -0.0434
  718MPD2    C510668   4.311   2.354  13.105  0.2184 -0.4466  0.2097
  718MPD2     H10669   4.106   2.268  12.792 -1.0254  2.8370 -0.8232
  718MPD2    H110670   4.195   2.192  13.190 -0.3985  0.7691  0.7007
  718MPD2    H210671   4.418   2.495  12.989 -0.0575 -0.3808  2.6002
  718MPD2    H310672   4.370   2.370  13.194 -0.1346  1.7312  0.0472
  718MPD2     N10673   4.047   2.126  12.975  0.2543 -0.5848  0.2007
  718MPD2    H510674   4.007   2.114  12.883  0.2888 -1.1046  0.2522
  718MPD2    N110675   4.275   2.491  12.771 -0.7521 -0.0933 -0.7998
  718MPD2    H710676   4.341   2.567  12.780 -0.3747 -0.5942  0.6938
  719TMC3    C110677   4.297   2.538  12.540  1.1968 -0.3441  0.2721
  719TMC3    C210678   4.224   2.512  12.424  0.2749 -0.0637  0.3188
  719TMC3    C310679   4.290   2.478  12.304 -0.2745  0.7376 -0.6231
  719TMC3    C410680   4.429   2.555  12.528 -0.3957  0.9228 -0.1439
  719TMC3    C510681   4.492   2.529  12.401  0.7254  0.2043 -0.1222
  719TMC3    C610682   4.424   2.483  12.293  0.1068  0.8731  0.2123
  719TMC3     C10683   4.225   2.468  12.650 -0.5864  0.2186 -0.1776
  719TMC3     O10684   4.139   2.385  12.606  0.0048 -0.6778 -0.7717
  719TMC3     H10685   4.117   2.517  12.434  0.3073 -1.0150  1.0523
  719TMC3    H110686   4.480   2.613  12.604  1.6634 -0.9785 -0.0865
  719TMC3    H210687   4.470   2.460  12.197  0.8005  1.1108  0.4867
  719TMC3    C710688   4.637   2.536  12.374 -0.4890  0.2506 -0.3018
  719TMC3    C810689   4.234   2.360  12.247 -0.0535  0.6491  0.0954
  719TMC3    O110690   4.670   2.509  12.258  0.2833 -0.4804 -0.3077
  719TMC3    O210691   4.285   2.310  12.149  0.1437 -0.1613 -0.3092
  720MPD2     C10692   2.853   3.231  13.458  0.1193  0.5237  0.5485
  720MPD2    C110693   2.951   3.309  13.392  0.7202  0.6021  0.5457
  720MPD2    C210694   3.076   3.317  13.451  0.1568  0.6578  0.2297
  720MPD2    C310695   3.097   3.274  13.582 -0.0817  0.6896  0.1897
  720MPD2    C410696   3.002   3.201  13.647 -0.8812 -0.6296  0.1554
  720MPD2    C510697   2.883   3.164  13.580 -0.1241 -0.2265  1.4111
  720MPD2     H10698   3.150   3.379  13.402 -0.1083  0.0230 -0.9866
  720MPD2    H110699   3.011   3.150  13.742  0.0366  0.6780  0.7630
  720MPD2    H210700   2.757   3.211  13.412  0.5362  1.2536 -0.6415
  720MPD2    H310701   2.808   3.093  13.615  0.4493 -1.3488  0.3960
  720MPD2     N10702   3.210   3.334  13.648  0.0423  0.4697 -0.5764
  720MPD2    H510703   3.277   3.388  13.594  1.1748  0.1673  0.5345
  720MPD2    N110704   2.918   3.385  13.277 -0.3191  0.2892 -0.1384
  720MPD2    H710705   2.992   3.422  13.219  1.0917 -1.7949  0.3257
  721TMC3    C110706   3.364   3.390  13.806  0.0613 -1.4038  0.7539
  721TMC3    C210707   3.389   3.424  13.933 -0.2644  0.1727  0.1933
  721TMC3    C310708   3.504   3.490  13.960 -0.6378  0.4666 -0.4077
  721TMC3    C410709   3.450   3.431  13.699 -1.0432  0.1675 -0.6785
  721TMC3    C510710   3.569   3.492  13.731 -0.2364  0.2586 -0.7878
  721TMC3    C610711   3.602   3.508  13.862 -0.0771  0.0206 -0.0128
  721TMC3     C10712   3.238   3.327  13.781  0.3491  0.1626 -0.2499
  721TMC3     O10713   3.189   3.248  13.864 -0.1800  0.1117 -0.6816
  721TMC3     H10714   3.315   3.401  14.009  0.3418 -0.8993  0.4581
  721TMC3    H110715   3.429   3.417  13.593 -0.0274  1.9994 -1.1161
  721TMC3    H210716   3.691   3.560  13.895 -0.0806 -0.0041  0.0360
  721TMC3    C710717   3.678   3.479  13.636  0.0114  0.3397 -0.0344
  721TMC3    C810718   3.574   3.464  14.081  0.0137 -0.0244  0.0268
  721TMC3    O110719   3.673   3.400  13.542  1.0013  0.2986 -0.6317
  721TMC3    O210720   3.694   3.437  14.067 -0.7834  0.2699  0.4992
  722MPD2     C10721   2.133   2.182  13.456 -0.6635 -0.4783 -0.5022
  722MPD2    C110722   2.129   2.317  13.422 -0.5233 -0.5613 -0.4602
  722MPD2    C210723   2.020   2.364  13.349  0.0559  0.6446 -0.1283
  722MPD2    C310724   1.915   2.284  13.311 -0.1738  0.0147  0.0943
  722MPD2    C410725   1.924   2.150  13.340 -0.0049 -1.4108 -0.4094
  722MPD2    C510726   2.035   2.099  13.402 -0.4919 -0.2278 -0.4136
  722MPD2     H10727   2.007   2.471  13.335 -2.9618  0.5699  2.0756
  722MPD2    H110728   1.842   2.083  13.315 -0.6129  0.1465 -2.6196
  722MPD2    H210729   2.211   2.145  13.521 -1.1484  1.3614  1.1366
  722MPD2    H310730   2.043   1.993  13.420  1.7919  0.1102  0.5686
  722MPD2     N10731   1.809   2.337  13.240 -0.0486  0.0047  0.2681
  722MPD2    H510732   1.818   2.434  13.210  0.7524  0.2510  1.2935
  722MPD2    N110733   2.227   2.414  13.460 -0.1968 -0.0090 -0.5972
  722MPD2    H710734   2.229   2.505  13.415  0.7705 -0.8030 -2.1903
  723TMC3    C110735   1.598   2.336  13.122 -0.4142 -0.0298  0.0316
  723TMC3    C210736   1.485   2.269  13.100 -0.1453 -0.5489 -0.0545
  723TMC3    C310737   1.374   2.347  13.105  0.7350 -0.3602  0.6527
  723TMC3    C410738   1.594   2.471  13.143  0.0168 -0.0833  0.7826
  723TMC3    C510739   1.481   2.538  13.143  0.4522  0.5032  0.4667
  723TMC3    C610740   1.361   2.481  13.137 -0.1530 -0.6977 -0.4234
  723TMC3     C10741   1.710   2.260  13.183 -0.0483 -0.4319  0.2558
  723TMC3     O10742   1.675   2.143  13.196  0.0587  0.2804 -0.2612
  723TMC3     H10743   1.484   2.161  13.098  1.1769 -0.5448 -2.5347
  723TMC3    H110744   1.683   2.530  13.125  1.7458 -3.0287 -0.2926
  723TMC3    H210745   1.269   2.532  13.161 -0.0139 -1.4764  1.7474
  723TMC3    C710746   1.490   2.680  13.143 -0.6388  0.3199  0.2485
  723TMC3    C810747   1.250   2.274  13.103  0.0223 -0.9836  0.0864
  723TMC3    O110748   1.567   2.735  13.220 -0.1176  0.3972 -0.2286
  723TMC3    O210749   1.158   2.321  13.170  0.7192 -0.0129  0.4414
  724TMC3    C110750   1.856   0.785  10.061  0.4050 -0.3438  0.0378
  724TMC3    C210751   1.858   0.794   9.928 -0.4679  0.2958  0.4852
  724TMC3    C310752   1.900   0.910   9.871  0.3878 -0.9640  0.6986
  724TMC3    C410753   1.921   0.872  10.146  0.2640  0.7138 -0.3528
  724TMC3    C510754   1.974   0.983  10.084 -0.6879 -0.3273  0.6491
  724TMC3    C610755   1.958   1.010   9.951 -0.0827 -0.3917  0.1477
  724TMC3     C10756   1.765   0.691  10.130  0.2569 -0.0714  0.3885
  724TMC3     O10757   1.780   0.683  10.254 -0.7209  0.2835 -0.5261
  724TMC3     H10758   1.812   0.721   9.863 -0.1746  0.9204 -0.4213
  724TMC3    H110759   1.932   0.848  10.251  1.1656  1.4135 -0.2857
  724TMC3    H210760   1.981   1.104   9.903  0.2122  0.4583  1.9524
  724TMC3    C710761   2.054   1.081  10.154 -0.9647 -0.2377 -0.5727
  724TMC3    C810762   1.899   0.921   9.726 -0.1513 -0.4062  0.3423
  724TMC3    O110763   2.104   1.169  10.078  0.4052  0.4048 -0.0958
  724TMC3    O210764   1.896   0.811   9.673  0.4569 -0.5281  0.5468
  725TMC3    C110765   4.170   4.050  13.006 -0.2171 -1.1251 -0.3027
  725TMC3    C210766   4.036   4.031  12.983 -0.0145  0.5311  0.2512
  725TMC3    C310767   4.001   3.933  12.896 -0.2243 -0.0765 -0.0063
  725TMC3    C410768   4.260   3.968  12.945  0.0560 -0.1982  0.5226
  725TMC3    C510769   4.214   3.857  12.884 -0.1988 -0.0364  0.0807
  725TMC3    C610770   4.088   3.838  12.855  0.4423  0.0370  0.9546
  725TMC3     C10771   4.213   4.175  13.059  0.0502  0.2422 -0.0042
  725TMC3     O10772   4.141   4.217  13.151 -0.3205  0.0011  0.5761
  725TMC3     H10773   3.968   4.100  13.033  1.4018  0.6427  2.0263
  725TMC3    H110774   4.367   3.960  12.963  0.1657  1.2484  0.5360
  725TMC3    H210775   4.061   3.760  12.784  0.1383  0.6784  0.3629
  725TMC3    C710776   4.308   3.782  12.806  0.1946 -0.1105  0.0889
  725TMC3    C810777   3.867   3.915  12.863  0.1660  0.1244 -0.1201
  725TMC3    O110778   4.398   3.844  12.745  0.1580 -0.0886 -0.0546
  725TMC3    O210779   3.838   3.798  12.847  0.3046 -0.1619 -0.5219
  726MPD2     C10780   1.285   1.487  10.121  0.6026  0.1224  0.1180
  726MPD2    C110781   1.188   1.420  10.055 -0.1549 -0.7228  0.2126
  726MPD2    C210782   1.161   1.294  10.086 -0.5733  0.3416  1.3412
  726MPD2    C310783   1.202   1.233  10.201 -0.6410 -0.3217  0.7756
  726MPD2    C410784   1.301   1.292  10.264 -0.2913  0.0649 -0.1847
  726MPD2    C510785   1.344   1.420  10.231  0.0973  0.1937 -0.1856
  726MPD2     H10786   1.100   1.239  10.014 -0.8622  4.3015 -1.4198
  726MPD2    H110787   1.355   1.250  10.348  1.5913  1.6459 -0.6082
  726MPD2    H210788   1.314   1.589  10.096 -0.5750 -0.4150 -3.4977
  726MPD2    H310789   1.416   1.470  10.294  0.5747 -0.4602 -0.2070
  726MPD2     N10790   1.161   1.102  10.236 -0.4984 -0.5640 -0.0390
  726MPD2    H510791   1.203   1.063  10.320 -0.2271 -1.5668 -0.6365
  726MPD2    N110792   1.127   1.492   9.944  0.3824 -0.0647  0.3673
  726MPD2    H710793   1.177   1.574   9.912 -1.6298  0.5515 -1.1687
  727TMC3    C110794   0.975   1.578   9.797 -0.6827 -0.7024  0.3613
  727TMC3    C210795   1.019   1.693   9.860 -0.3032 -0.5264  0.1337
  727TMC3    C310796   1.049   1.802   9.785 -0.3387  0.2947  0.0130
  727TMC3    C410797   0.971   1.561   9.662 -0.0430 -0.3368  0.5052
  727TMC3    C510798   1.016   1.668   9.586  0.0866 -0.4893 -0.1291
  727TMC3    C610799   1.052   1.789   9.647  0.2284  0.0074 -0.1332
  727TMC3     C10800   1.011   1.462   9.870 -0.9222  0.4560  0.1339
  727TMC3     O10801   0.941   1.357   9.860 -0.0116 -0.0460 -0.1436
  727TMC3     H10802   1.003   1.704   9.967  0.6798  0.6325  0.1614
  727TMC3    H110803   0.949   1.465   9.618 -0.1097 -0.1343  0.0914
  727TMC3    H210804   1.096   1.863   9.581 -3.1923 -0.2507 -2.6870
  727TMC3    C710805   1.006   1.656   9.434 -0.1601 -0.7115  0.3804
  727TMC3    C810806   1.161   1.865   9.845  0.3014 -0.2764  0.1350
  727TMC3    O110807   0.988   1.547   9.380  0.9538 -0.2171  0.3535
  727TMC3    O210808   1.205   1.802   9.944 -0.6692 -0.1972  0.1167
  728TMC3    C110809   0.933   4.316  15.445  0.8471  0.4482  0.4851
  728TMC3    C210810   1.065   4.334  15.409 -0.7960  0.1852  0.2554
  728TMC3    C310811   1.100   4.362  15.274 -0.4008  0.2601  0.6048
  728TMC3    C410812   0.834   4.332  15.356  0.1545 -0.6232 -0.8756
  728TMC3    C510813   0.876   4.378  15.230 -0.6508  0.6597  0.0667
  728TMC3    C610814   1.000   4.387  15.185 -0.6337  0.2069 -0.8665
  728TMC3     C10815   0.905   4.249  15.569  0.1343  0.0308  0.6992
  728TMC3     O10816   0.994   4.249  15.653  0.4602 -0.0249  0.2355
  728TMC3     H10817   1.142   4.317  15.483 -0.6936 -1.6965 -0.2987
  728TMC3    H110818   0.728   4.329  15.379 -0.1525 -2.1505 -2.5295
  728TMC3    H210819   1.017   4.378  15.079 -1.3154 -0.4508 -0.9201
  728TMC3    C710820   0.768   4.432  15.150 -0.7091  0.4093  0.6718
  728TMC3    C810821   1.237   4.338  15.235  0.0916  0.3056  1.5764
  728TMC3    O110822   0.660   4.374  15.163  0.6182  0.4337  0.7361
  728TMC3    O210823   1.304   4.282  15.319 -0.3600  0.3468 -0.4323
  729MPD2     C10824   3.109   0.596  16.037 -0.3453 -0.1537  0.2899
  729MPD2    C110825   3.219   0.564  16.109 -0.5916 -0.4193 -0.1243
  729MPD2    C210826   3.215   0.533  16.241 -0.2412  0.6897 -0.7791
  729MPD2    C310827   3.102   0.553  16.313  0.1321  0.4058  0.1118
  729MPD2    C410828   2.996   0.600  16.248  0.2852  0.0254 -0.1679
  729MPD2    C510829   2.992   0.617  16.115 -0.6489 -0.4540 -0.3254
  729MPD2     H10830   3.309   0.508  16.289 -0.9051 -0.3605 -0.0269
  729MPD2    H110831   2.912   0.647  16.299 -0.9360 -0.5966 -1.6200
  729MPD2    H210832   3.117   0.624  15.933  0.6629  0.2208  0.4677
  729MPD2    H310833   2.906   0.654  16.061 -0.2246 -0.5749 -1.0874
  729MPD2     N10834   3.093   0.553  16.451 -1.0712 -0.4260  0.3660
  729MPD2    H510835   3.007   0.592  16.490 -1.1717  0.3035 -0.5764
  729MPD2    N110836   3.342   0.579  16.035  0.3439 -0.3527  0.2193
  729MPD2    H710837   3.336   0.634  15.951  0.2586  0.2301  0.6062
  730TMC3    C110838   3.153   0.547  16.674 -0.5815 -0.0117 -0.1769
  730TMC3    C210839   3.253   0.552  16.771  0.4733  0.7134 -0.0266
  730TMC3    C310840   3.219   0.579  16.896 -0.7198  0.5150 -0.0269
  730TMC3    C410841   3.022   0.552  16.711 -0.7407  0.5108 -0.6253
  730TMC3    C510842   2.991   0.573  16.844 -0.3146  0.1991 -0.3312
  730TMC3    C610843   3.089   0.589  16.939  0.4798 -0.0938 -0.2281
  730TMC3     C10844   3.196   0.547  16.540 -0.5422  0.2753  0.6708
  730TMC3     O10845   3.319   0.540  16.526  0.0391 -0.3069 -0.2759
  730TMC3     H10846   3.356   0.528  16.745  0.3783  0.6695 -0.3666
  730TMC3    H110847   2.937   0.550  16.642 -0.3260 -1.5670 -1.0784
  730TMC3    H210848   3.065   0.585  17.044 -0.2403  1.4044 -0.3333
  730TMC3    C710849   2.859   0.529  16.873 -0.5255  0.3408 -1.4238
  730TMC3    C810850   3.310   0.664  16.966  0.1551 -0.1925  0.3214
  730TMC3    O110851   2.815   0.448  16.789 -0.1886  0.7943 -0.9502
  730TMC3    O210852   3.424   0.676  16.916 -0.2374 -0.1313  0.3850
  731MPD2     C10853   4.356   3.444  12.355 -0.2867 -0.1861  0.1891
  731MPD2    C110854   4.223   3.474  12.383  0.0814 -0.0744  0.1332
  731MPD2    C210855   4.132   3.372  12.378  0.3870  0.2570  0.5261
  731MPD2    C310856   4.173   3.246  12.350 -0.0473 -0.9110 -0.4443
  731MPD2    C410857   4.302   3.220  12.316  0.2849 -0.0437  0.2124
  731MPD2    C510858   4.395   3.322  12.309 -0.6941 -0.3141 -0.6784
  731MPD2     H10859   4.027   3.387  12.401  0.6651 -0.2117  2.1143
  731MPD2    H110860   4.326   3.126  12.267  0.2554  0.4200 -0.6987
  731MPD2    H210861   4.436   3.517  12.355 -0.2228 -0.2630 -2.6419
  731MPD2    H310862   4.500   3.311  12.284 -0.8087 -0.5849 -1.0357
  731MPD2     N10863   4.073   3.149  12.336 -0.3132 -0.0686  0.1442
  731MPD2    H510864   3.980   3.181  12.361 -1.3888 -2.3137 -1.0359
  731MPD2    N110865   4.186   3.604  12.411  0.2953  0.8424 -0.1869
  731MPD2    H710866   4.269   3.662  12.418 -0.2489  1.6469 -0.2609
  732TMC3    C110867   4.044   3.793  12.450 -0.0274  0.1247  0.4938
  732TMC3    C210868   3.917   3.845  12.472 -0.6223  0.5437 -0.1134
  732TMC3    C310869   3.893   3.980  12.463  0.5386 -0.9558  0.3373
  732TMC3    C410870   4.139   3.885  12.412  0.6156 -0.4095  0.1619
  732TMC3    C510871   4.112   4.022  12.405 -0.0313  0.2911  0.2373
  732TMC3    C610872   3.992   4.072  12.437  0.1407 -0.3750  0.2369
  732TMC3     C10873   4.058   3.655  12.425  0.2853  0.4877  0.3274
  732TMC3     O10874   3.948   3.602  12.409 -0.2502 -0.2255 -0.2205
  732TMC3     H10875   3.842   3.781  12.518  1.9988 -2.4516 -0.0659
  732TMC3    H110876   4.236   3.846  12.382  0.5700  1.0028 -1.8568
  732TMC3    H210877   3.971   4.178  12.427  2.0300 -0.0319 -0.0995
  732TMC3    C710878   4.209   4.117  12.367  0.2937  0.0764 -0.2002
  732TMC3    C810879   3.761   4.031  12.430  0.3726 -0.6356 -0.0547
  732TMC3    O110880   4.202   4.231  12.409  0.3308 -0.6530 -0.1938
  732TMC3    O210881   3.749   4.154  12.414  0.2307  1.0044  0.5548
  733TMC3    C110882   3.783   1.775  12.984 -0.2075  0.4667 -0.5922
  733TMC3    C210883   3.846   1.865  13.058 -0.2874 -0.7569  0.3639
  733TMC3    C310884   3.964   1.915  13.010  0.5205 -0.7813 -0.0089
  733TMC3    C410885   3.830   1.740  12.857  0.1386 -0.0805 -0.0729
  733TMC3    C510886   3.929   1.809  12.806  0.3905 -0.3755  0.2505
  733TMC3    C610887   4.007   1.890  12.882  0.1133  0.3255 -0.3485
  733TMC3     C10888   3.676   1.709  13.047  0.6755 -0.6309  0.3528
  733TMC3     O10889   3.629   1.770  13.142  0.2060 -0.4797  0.4310
  733TMC3     H10890   3.833   1.878  13.165  1.2119 -1.2132  0.5993
  733TMC3    H110891   3.771   1.669  12.799 -0.3160  0.7297 -0.6009
  733TMC3    H210892   4.098   1.933  12.841  0.1401 -0.5746 -1.2374
  733TMC3    C710893   3.942   1.815  12.658 -0.0093  0.0875  0.4258
  733TMC3    C810894   4.005   2.039  13.073 -0.8906  0.5799  0.1732
  733TMC3    O110895   3.861   1.750  12.594  0.3741  0.4011 -0.1226
  733TMC3    O210896   3.996   2.047  13.197 -0.4108 -0.2495 -0.3786
  734MPD2     C10897   1.382   4.579  12.468  0.2841  0.1614 -0.2571
  734MPD2    C110898   1.314   4.473  12.411  0.0547  0.1194 -0.1809
  734MPD2    C210899   1.274   4.496  12.284 -0.0888 -0.1189  0.3511
  734MPD2    C310900   1.287   4.617  12.224 -0.2291 -0.2127 -0.1505
  734MPD2    C410901   1.330   4.730  12.284 -0.1490  0.7721 -0.2285
  734MPD2    C510902   1.377   4.711  12.413  0.4222 -0.4883 -0.1482
  734MPD2     H10903   1.247   4.409  12.224 -0.0258  0.7497 -0.9248
  734MPD2    H110904   1.334   0.089  12.229 -1.4473 -0.3830 -2.2765
  734MPD2    H210905   1.429   4.580  12.566  2.5435  1.9960 -1.3464
  734MPD2    H310906   1.421   0.058  12.471  0.5387 -0.3128 -0.4793
  734MPD2     N10907   1.233   4.620  12.099 -0.4114  0.2485 -0.5158
  734MPD2    H510908   1.189   4.537  12.062 -0.3954  0.9762 -2.1698
  734MPD2    N110909   1.291   4.352  12.478 -0.1330  0.0773  0.9470
  734MPD2    H710910   1.345   4.337  12.563 -1.3122 -0.3304  1.6284
  735TMC3    C110911   1.191   4.151  12.530 -0.6146  0.4214 -0.1069
  735TMC3    C210912   1.079   4.076  12.493 -0.8522  0.2596  0.0477
  735TMC3    C310913   1.083   3.935  12.485 -0.2959  0.0027 -0.9456
  735TMC3    C410914   1.313   4.085  12.550 -0.0670  0.2036  0.1004
  735TMC3    C510915   1.309   3.945  12.554  0.1687 -0.2606  0.8481
  735TMC3    C610916   1.193   3.870  12.526 -0.6315  0.2599  0.4094
  735TMC3     C10917   1.198   4.260  12.445 -0.3168  0.6661 -0.5701
  735TMC3     O10918   1.116   4.266  12.355  0.1487  0.4666 -0.0650
  735TMC3     H10919   0.980   4.119  12.479 -1.4448 -1.5464 -1.1821
  735TMC3    H110920   1.402   4.144  12.568 -0.9183  0.7488  2.5215
  735TMC3    H210921   1.200   3.764  12.507  1.4337  0.1951  1.4163
  735TMC3    C710922   1.428   3.899  12.493  0.1133 -0.1651 -0.2261
  735TMC3    C810923   1.024   3.902  12.359  0.6063  0.2228  0.1690
  735TMC3    O110924   1.468   3.973  12.406  0.8142  0.1586 -0.1523
  735TMC3    O210925   0.968   3.796  12.349 -0.8567 -0.1293  0.6345
  736MPD2     C10926   1.600   3.570  12.509  0.4511 -0.0858  0.1282
  736MPD2    C110927   1.586   3.702  12.476  0.1874  0.0252  0.0621
  736MPD2    C210928   1.675   3.753  12.386 -0.6678  0.3647  0.4709
  736MPD2    C310929   1.772   3.678  12.316 -0.7490  0.3247  0.2389
  736MPD2    C410930   1.789   3.544  12.360  0.0435 -0.3813  0.4253
  736MPD2    C510931   1.701   3.493  12.455  0.3686  0.2958 -0.7284
  736MPD2     H10932   1.667   3.859  12.369  0.0940  0.6283  1.7403
  736MPD2    H110933   1.867   3.483  12.317 -1.2809 -1.7022 -0.1301
  736MPD2    H210934   1.528   3.523  12.574 -0.1208  1.8403  0.8799
  736MPD2    H310935   1.705   3.390  12.490  0.5591  0.5522 -0.0026
  736MPD2     N10936   1.848   3.727  12.206  0.8231  0.0039  0.2735
  736MPD2    H510937   1.912   3.658  12.168 -1.5540 -2.6928  1.1165
  736MPD2    N110938   1.473   3.772  12.523 -0.7212 -0.3787  0.5478
  736MPD2    H710939   1.428   3.730  12.603 -0.6469 -0.9906  0.2642
  737TMC3    C110940   1.922   3.861  12.018  0.0376  0.9766  0.4581
  737TMC3    C210941   1.923   3.988  11.969  0.2241  0.0094 -0.3260
  737TMC3    C310942   1.939   3.995  11.831 -0.2177 -0.0789  0.7422
  737TMC3    C410943   1.970   3.753  11.953 -1.0733 -0.6560  0.4959
  737TMC3    C510944   1.994   3.765  11.820 -0.8626  0.2269  0.3622
  737TMC3    C610945   1.971   3.887  11.758 -0.4536 -0.1716 -0.1218
  737TMC3     C10946   1.833   3.851  12.141  0.4288 -0.3446  0.0303
  737TMC3     O10947   1.775   3.956  12.176  0.1611  0.0192  0.3694
  737TMC3     H10948   1.886   4.071  12.027 -2.7775 -0.9734 -0.7947
  737TMC3    H110949   1.991   3.660  12.004  0.4123 -0.6258 -0.0782
  737TMC3    H210950   1.983   3.898  11.651 -0.0596 -0.3869 -0.0966
  737TMC3    C710951   2.098   3.675  11.759  0.5190 -0.4541  0.5602
  737TMC3    C810952   1.888   4.118  11.768 -0.1980 -0.3268 -0.2672
  737TMC3    O110953   2.105   3.560  11.795 -0.2500 -0.8476  0.7768
  737TMC3    O210954   1.854   4.205  11.846  0.7493  0.3018  0.5344
  738MPD2     C10955   2.406   2.476  15.706 -0.6795 -0.7262  0.3314
  738MPD2    C110956   2.355   2.469  15.575 -0.2934  0.5909 -0.0243
  738MPD2    C210957   2.418   2.545  15.477  0.1244  0.3919  0.1406
  738MPD2    C310958   2.518   2.634  15.505 -0.0166  0.0224  0.2110
  738MPD2    C410959   2.570   2.640  15.631 -0.0261  0.0148 -0.7152
  738MPD2    C510960   2.514   2.557  15.728  0.1309 -0.2743 -0.1804
  738MPD2     H10961   2.373   2.535  15.379 -0.7487 -1.1597  0.7056
  738MPD2    H110962   2.650   2.705  15.664 -1.4442  0.7746  1.2223
  738MPD2    H210963   2.362   2.422  15.788 -0.9958  0.5041  0.9679
  738MPD2    H310964   2.559   2.554  15.826 -0.7250 -2.0915  0.1635
  738MPD2     N10965   2.571   2.719  15.403  0.5422 -0.0091 -0.3082
  738MPD2    H510966   2.660   2.764  15.423  0.7268 -0.0887 -0.9323
  738MPD2    N110967   2.246   2.391  15.544 -1.0747  0.5396  0.0208
  738MPD2    H710968   2.214   2.374  15.450 -0.2349 -1.3651  0.0822
  739TMC3    C110969   2.610   2.809  15.201 -0.3059 -0.1304  0.4023
  739TMC3    C210970   2.564   2.920  15.121 -0.6357 -0.1395 -0.0463
  739TMC3    C310971   2.662   3.000  15.061  0.1618 -0.1634 -0.7504
  739TMC3    C410972   2.740   2.792  15.224 -0.1640 -0.6972 -0.0812
  739TMC3    C510973   2.836   2.877  15.173 -0.9247  0.0152 -0.5619
  739TMC3    C610974   2.796   2.982  15.095  0.0239 -0.1479 -0.4850
  739TMC3     C10975   2.512   2.748  15.284  0.6115  0.7445 -0.4680
  739TMC3     O10976   2.398   2.728  15.242  0.0742  0.3583  0.5524
  739TMC3     H10977   2.461   2.955  15.127 -0.7665 -0.5082 -0.0710
  739TMC3    H110978   2.775   2.703  15.275 -1.5429 -2.3701 -2.1032
  739TMC3    H210979   2.870   3.052  15.057  0.0308  0.4044  0.5315
  739TMC3    C710980   2.976   2.850  15.209  0.1541 -1.2191 -0.4492
  739TMC3    C810981   2.632   3.043  14.926 -0.0142 -0.7228  0.9649
  739TMC3    O110982   3.006   2.732  15.227  0.2535 -0.0165 -0.1696
  739TMC3    O210983   2.520   3.018  14.883 -0.2996  0.1150 -0.1371
  740TMC3    C110984   2.910   3.916  14.119  0.5634 -0.2467 -0.6159
  740TMC3    C210985   2.976   3.830  14.207 -0.1203 -0.2313  0.1077
  740TMC3    C310986   3.069   3.747  14.147 -0.0974 -0.3673 -0.3197
  740TMC3    C410987   2.920   3.906  13.981  0.1357  0.2145  0.0803
  740TMC3    C510988   3.005   3.810  13.931  0.3834 -0.3475  0.3842
  740TMC3    C610989   3.077   3.731  14.014 -0.6382 -0.6028  0.1329
  740TMC3     C10990   2.803   4.004  14.162 -0.2671 -0.3000  0.5701
  740TMC3     O10991   2.798   4.108  14.101 -0.4563  0.2027  0.3398
  740TMC3     H10992   2.955   3.837  14.313  0.5538  0.3540  0.2043
  740TMC3    H110993   2.857   3.963  13.915  2.4807  2.8433  0.0831
  740TMC3    H210994   3.140   3.653  13.974  0.9923  0.4252  0.6894
  740TMC3    C710995   3.008   3.776  13.787 -0.7764 -0.6170  0.2964
  740TMC3    C810996   3.147   3.655  14.232  0.3620  0.1892  0.5932
  740TMC3    O110997   3.075   3.678  13.758  0.1648 -1.1499 -0.5319
  740TMC3    O210998   3.253   3.606  14.196 -0.4948  0.1368 -0.7345
  741TMC3    C110999   2.583   3.523  14.465  0.2997  0.4755  0.2377
  741TMC3    C211000   2.471   3.441  14.447 -0.0439  0.4718 -0.0829
  741TMC3    C311001   2.436   3.359  14.552 -0.1566 -0.3908  0.7768
  741TMC3    C411002   2.664   3.504  14.574  0.6898 -0.3354 -0.2677
  741TMC3    C511003   2.625   3.412  14.673 -0.3116 -0.1183  0.6781
  741TMC3    C611004   2.512   3.340  14.667 -0.4292  0.1046 -0.3062
  741TMC3     C11005   2.666   3.576  14.352 -0.5366 -0.9963  0.2990
  741TMC3     O11006   2.765   3.644  14.372  0.6453 -0.1747 -0.0836
  741TMC3     H11007   2.410   3.445  14.357 -0.3044 -2.8070 -0.0483
  741TMC3    H111008   2.757   3.560  14.586 -0.3405  0.5783  3.4573
  741TMC3    H211009   2.486   3.275  14.749 -0.5991  1.2920  0.5720
  741TMC3    C711010   2.696   3.424  14.801 -0.5464 -0.1142  0.2675
  741TMC3    C811011   2.340   3.262  14.514 -0.8160  0.0639  0.2574
  741TMC3    O111012   2.806   3.476  14.797 -0.5034 -0.5826  0.4448
  741TMC3    O211013   2.289   3.275  14.405 -0.3104  0.0260  0.1949
  742TMC3    C111014   1.969   1.559  15.585  0.0968  0.1217  0.4340
  742TMC3    C211015   1.856   1.566  15.505 -0.9893  0.3085  0.7597
  742TMC3    C311016   1.875   1.576  15.373 -0.0166  0.4318  0.4255
  742TMC3    C411017   2.103   1.583  15.540 -0.3777  0.5416  0.4657
  742TMC3    C511018   2.112   1.588  15.400  0.6372 -0.3126  0.4964
  742TMC3    C611019   2.002   1.579  15.313  0.1487 -0.2074  0.0194
  742TMC3     C11020   1.956   1.536  15.734 -0.5124 -0.2398  0.4375
  742TMC3     O11021   1.842   1.548  15.780  0.9815  0.1959 -0.5783
  742TMC3     H11022   1.767   1.521  15.548 -1.4113  0.1895 -0.2533
  742TMC3    H111023   2.188   1.605  15.603  0.4111 -0.3840 -0.2677
  742TMC3    H211024   2.007   1.598  15.206  1.9923  0.2846  0.1801
  742TMC3    C711025   2.247   1.624  15.347  0.8803 -0.3096  0.5210
  742TMC3    C811026   1.756   1.571  15.294  0.5052 -0.4676 -0.2479
  742TMC3    O111027   2.344   1.596  15.422 -0.0993  1.0935  0.0319
  742TMC3    O211028   1.651   1.618  15.338  0.3013 -0.7484 -0.2403
  743MPD2     C11029   0.238   1.967   1.921  0.1183  0.2048 -0.1971
  743MPD2    C111030   0.282   2.086   1.864 -0.0757  0.1612  0.1422
  743MPD2    C211031   0.410   2.121   1.886  0.4249  0.9849 -0.3454
  743MPD2    C311032   0.504   2.041   1.938  0.2514  0.2182 -0.7148
  743MPD2    C411033   0.460   1.914   1.986  0.7522  0.3775 -0.7851
  743MPD2    C511034   0.329   1.877   1.969  0.3203  0.3488 -0.0443
  743MPD2     H11035   0.446   2.207   1.830  0.0126  0.7143 -1.0264
  743MPD2    H111036   0.522   1.839   2.034 -0.7451 -0.6490 -0.4546
  743MPD2    H211037   0.134   1.937   1.930  0.7392 -1.6149  0.9299
  743MPD2    H311038   0.317   1.775   2.003 -2.8709  1.4714  2.1299
  743MPD2     N11039   0.629   2.087   1.948 -0.4123 -0.0697 -0.7002
  743MPD2    H511040   0.652   2.181   1.918  2.2309 -0.3606  0.3499
  743MPD2    N111041   0.185   2.171   1.801 -0.0102  0.1019 -0.2172
  743MPD2    H711042   0.091   2.133   1.801  0.0590 -0.1654  3.3158
  744TMC3    C111043   0.109   2.367   1.668  0.5102 -0.5335 -0.0051
  744TMC3    C211044   0.130   2.500   1.691  0.6555  0.2806  0.3491
  744TMC3    C311045   0.055   2.587   1.609 -0.0197  0.6034 -0.2944
  744TMC3    C411046   0.019   2.317   1.578  0.5543 -0.2204  0.0324
  744TMC3    C511047   4.672   2.405   1.510 -0.2141 -0.0726  0.2171
  744TMC3    C611048   4.687   2.539   1.527  0.5082 -0.1922  0.2243
  744TMC3     C11049   0.216   2.287   1.727 -0.1152  0.2853 -0.0593
  744TMC3     O11050   0.331   2.325   1.693  0.2170 -0.2306 -0.5301
  744TMC3     H11051   0.211   2.535   1.754  1.3345 -1.1817  0.2707
  744TMC3    H111052   0.004   2.210   1.572 -0.6482  0.0469 -1.5658
  744TMC3    H211053   4.613   2.605   1.483 -0.8919 -2.1741 -0.3699
  744TMC3    C711054   4.605   2.356   1.390  0.4124 -0.7323 -0.1137
  744TMC3    C811055   0.065   2.728   1.621  0.3177  0.2372 -0.8699
  744TMC3    O111056   4.547   2.447   1.328 -0.0873 -0.0128 -0.0797
  744TMC3    O211057   4.702   2.792   1.585 -0.6249 -0.1720  0.5553
  745TMC3    C111058   2.389   1.299  13.897  0.0859  0.0595  0.3824
  745TMC3    C211059   2.289   1.286  13.989  0.5626 -0.2576  0.0605
  745TMC3    C311060   2.170   1.348  13.969  0.1135 -0.5415  0.1597
  745TMC3    C411061   2.383   1.390  13.794 -0.1263  0.5214 -0.8381
  745TMC3    C511062   2.265   1.454  13.780 -0.2956 -0.5703 -0.3220
  745TMC3    C611063   2.160   1.438  13.866  0.0185 -0.1500 -0.3013
  745TMC3     C11064   2.525   1.253  13.936 -0.0817  0.6775 -0.4784
  745TMC3     O11065   2.546   1.178  14.029 -0.3503  0.6296  0.1387
  745TMC3     H11066   2.303   1.232  14.082  1.2826 -2.3613 -1.2853
  745TMC3    H111067   2.465   1.392  13.722 -1.4100  1.7006 -2.2526
  745TMC3    H211068   2.069   1.495  13.852 -0.0474 -0.1142  0.2378
  745TMC3    C711069   2.239   1.560  13.674  0.5983  0.1383 -0.1539
  745TMC3    C811070   2.144   1.416  14.090 -0.2736 -0.1167 -0.2913
  745TMC3    O111071   2.127   1.606  13.664 -0.0712  0.4313 -0.6816
  745TMC3    O211072   2.041   1.401  14.158 -0.4447 -0.0376  0.3964
  746TMC3    C111073   4.684   3.961  11.029 -0.1510 -0.1991  0.4149
  746TMC3    C211074   4.650   3.943  10.900  0.0853 -0.3694 -0.2036
  746TMC3    C311075   4.577   3.833  10.877  0.1827  0.5733  0.6153
  746TMC3    C411076   4.662   3.872  11.132 -0.8235  0.5610  0.3722
  746TMC3    C511077   4.588   3.767  11.099  0.1363  0.2478 -0.5535
  746TMC3    C611078   4.539   3.742  10.974  0.3863 -0.0639  0.6273
  746TMC3     C11079   4.715   4.097  11.072  0.4039  0.0765 -0.5299
  746TMC3     O11080   4.679   4.133  11.185  1.0264  0.0677  0.2592
  746TMC3     H11081   4.648   4.034  10.841 -0.1480 -0.5916 -0.5359
  746TMC3    H111082   4.708   3.884  11.230 -1.2104  0.2103  0.5971
  746TMC3    H211083   4.470   3.662  10.951 -1.3617  1.7856 -0.5922
  746TMC3    C711084   4.501   3.708  11.196 -0.2981 -0.2332  0.2874
  746TMC3    C811085   4.613   3.762  10.759 -0.2028 -0.1183 -0.1247
  746TMC3    O111086   4.390   3.663  11.170  0.4428 -0.1429  0.3854
  746TMC3    O211087   4.640   3.640  10.770 -0.0424 -0.5243 -0.4252
  747TMC3    C111088   2.395   4.032  10.845  0.5232 -0.6234  0.3819
  747TMC3    C211089   2.396   3.923  10.924 -0.5941  1.1166  0.0663
  747TMC3    C311090   2.435   3.922  11.052  0.7116  0.0037  0.4360
  747TMC3    C411091   2.411   4.153  10.892 -0.3820  0.2981  0.1760
  747TMC3    C511092   2.453   4.156  11.022 -0.6764 -0.3706  0.2657
  747TMC3    C611093   2.482   4.043  11.098 -0.1904 -0.1775 -0.2036
  747TMC3     C11094   2.349   4.017  10.708  0.5791 -0.3550  0.4104
  747TMC3     O11095   2.285   4.112  10.662  0.2517 -0.5009  0.1102
  747TMC3     H11096   2.351   3.827  10.905 -0.4117  1.0335  0.0556
  747TMC3    H111097   2.384   4.232  10.822 -0.7827  0.4513  0.4989
  747TMC3    H211098   2.511   4.068  11.200 -0.2453  0.0555 -0.2436
  747TMC3    C711099   2.506   4.282  11.067  0.9949 -0.5111  0.1393
  747TMC3    C811100   2.441   3.804  11.131  0.3896 -0.2251  0.7368
  747TMC3    O111101   2.531   4.302  11.187  0.3860  0.2105 -0.0072
  747TMC3    O211102   2.476   3.698  11.078 -0.1327 -0.1933 -0.0800
  748MPD2     C11103   3.939   3.933   1.265 -0.2678 -0.3153 -0.2703
  748MPD2    C111104   4.050   3.867   1.219  0.0609  0.1263 -0.2803
  748MPD2    C211105   4.173   3.928   1.221 -0.8846  0.0240 -0.4585
  748MPD2    C311106   4.174   4.059   1.258 -0.9818 -0.2958  0.1256
  748MPD2    C411107   4.060   4.122   1.313 -0.5301  0.2708 -0.4090
  748MPD2    C511108   3.939   4.059   1.313 -0.6376 -0.6656  0.6036
  748MPD2     H11109   4.254   3.870   1.178 -0.3406  1.4317 -1.3239
  748MPD2    H111110   4.060   4.219   1.362  0.4048  0.3532 -0.5843
  748MPD2    H211111   3.847   3.876   1.269 -0.3616 -0.1586 -0.2107
  748MPD2    H311112   3.848   4.107   1.349 -2.2508 -1.9909 -1.7070
  748MPD2     N11113   4.297   4.128   1.247  0.8200 -0.1047  0.3500
  748MPD2    H511114   4.368   4.073   1.200  0.4359 -0.3467  0.0476
  748MPD2    N111115   4.024   3.740   1.164  0.0153  0.1669 -0.0641
  748MPD2    H711116   3.926   3.720   1.152  0.3400 -0.1763 -2.0873
  749TMC3    C111117   4.435   4.314   1.189 -0.3144 -0.3106 -0.6294
  749TMC3    C211118   4.562   4.268   1.218  0.4253  0.4105  0.4430
  749TMC3    C311119   4.669   4.332   1.169  0.3412 -0.6011  0.6557
  749TMC3    C411120   4.431   4.433   1.123 -0.1130 -0.4621  0.4861
  749TMC3    C511121   4.536   4.488   1.072 -0.3237 -0.1422  0.5890
  749TMC3    C611122   4.660   4.443   1.095 -0.1159  0.1689  0.0123
  749TMC3     C11123   4.312   4.268   1.248  0.1371  0.1713 -0.1098
  749TMC3     O11124   4.222   4.349   1.265 -0.2647 -0.1724 -0.3840
  749TMC3     H11125   4.577   4.188   1.289  1.2984 -0.7678 -1.0687
  749TMC3    H111126   4.337   4.481   1.099 -0.6045 -0.3929  2.5334
  749TMC3    H211127   0.014   4.489   1.050 -0.3898  0.5815 -0.0995
  749TMC3    C711128   4.526   4.611   0.991 -0.3837 -0.4196  0.4232
  749TMC3    C811129   0.066   4.270   1.181 -0.1917  0.2151 -0.2608
  749TMC3    O111130   4.620   4.682   0.975  0.0621 -0.3879  0.0039
  749TMC3    O211131   0.160   4.341   1.140  0.2867 -0.1582 -0.4045
  750MPD2     C11132   0.331   1.433  11.155  0.0156 -0.1035  0.1364
  750MPD2    C111133   0.318   1.364  11.276  0.3073 -0.4318  0.1428
  750MPD2    C211134   0.375   1.236  11.290 -0.1435  0.0219 -0.5870
  750MPD2    C311135   0.437   1.174  11.186  0.6942 -0.7244 -1.1340
  750MPD2    C411136   0.451   1.245  11.071 -0.4933 -0.5237 -0.4381
  750MPD2    C511137   0.398   1.371  11.052  0.4661  0.4607  0.1116
  750MPD2     H11138   0.352   1.178  11.378  0.3171  1.0187  0.1920
  750MPD2    H111139   0.488   1.203  10.979 -2.0656 -1.7193 -0.5137
  750MPD2    H211140   0.284   1.529  11.137 -1.3008 -0.8678 -0.5795
  750MPD2    H311141   0.382   1.414  10.954 -0.9322  2.2522  1.1230
  750MPD2     N11142   0.476   1.039  11.187 -0.0533  0.5685 -0.6885
  750MPD2    H511143   0.492   1.001  11.094 -1.5622 -0.6794 -0.4495
  750MPD2    N111144   0.236   1.412  11.373 -0.0108 -0.4040  0.1159
  750MPD2    H711145   0.178   1.487  11.337 -1.6641 -2.3984 -1.3065
  751TMC3    C111146   0.508   0.830  11.282 -0.1082 -0.3981  0.3236
  751TMC3    C211147   0.460   0.747  11.375 -1.0083  0.1798 -0.6534
  751TMC3    C311148   0.447   0.614  11.351  0.4415 -0.3633  0.3093
  751TMC3    C411149   0.533   0.785  11.155  0.3872 -0.7716 -0.0225
  751TMC3    C511150   0.515   0.649  11.127 -0.6115 -0.2156  0.5539
  751TMC3    C611151   0.485   0.560  11.231 -0.3100  0.3426  0.3335
  751TMC3     C11152   0.491   0.966  11.299  0.9148  0.9607 -0.5316
  751TMC3     O11153   0.501   1.007  11.411 -0.5854 -0.7849  0.1368
  751TMC3     H11154   0.440   0.782  11.475  0.8349 -0.1321 -0.1755
  751TMC3    H111155   0.588   0.844  11.082 -1.3563 -1.4137 -1.8502
  751TMC3    H211156   0.481   0.455  11.207 -2.9758  1.1754 -2.7931
  751TMC3    C711157   0.455   0.609  11.003 -0.0366 -0.8142 -0.2347
  751TMC3    C811158   0.327   0.550  11.406  0.0455 -0.3602  0.7516
  751TMC3    O111159   0.411   0.492  11.000 -0.0403 -0.8625 -0.2141
  751TMC3    O211160   0.297   0.450  11.348 -0.3538 -0.8033  0.1596
  752TMC3    C111161   3.603   0.603  17.175 -0.9355 -1.1544  0.2236
  752TMC3    C211162   3.490   0.527  17.184  0.2814  0.5885 -0.1741
  752TMC3    C311163   3.416   0.537  17.298  0.3292  0.1855  0.2452
  752TMC3    C411164   3.648   0.685  17.271 -0.3718 -0.3815  0.2390
  752TMC3    C511165   3.572   0.699  17.381 -0.5165 -0.1346  0.1981
  752TMC3    C611166   3.456   0.630  17.391  0.0508 -0.0750  0.3278
  752TMC3     C11167   3.709   0.552  17.086 -0.4630  1.2625 -0.2497
  752TMC3     O11168   3.823   0.560  17.127 -0.5116  0.1046 -0.0077
  752TMC3     H11169   3.464   0.456  17.107 -1.7486 -1.2333  2.2072
  752TMC3    H111170   3.748   0.727  17.262 -0.1863 -0.5847  1.3952
  752TMC3    H211171   3.388   0.671  17.465 -1.7822 -1.7975 -0.4046
  752TMC3    C711172   3.601   0.796  17.482  0.0449  0.8653 -0.3460
  752TMC3    C811173   3.291   0.470  17.300 -0.7553 -0.2668  0.3273
  752TMC3    O111174   3.539   0.778  17.585 -0.5842  0.4989 -0.4302
  752TMC3    O211175   3.237   0.463  17.191 -0.4095  0.2210 -0.0209
  753TMC3    C111176   1.176   1.029  14.035 -0.3100  0.2382 -0.3734
  753TMC3    C211177   1.058   1.077  14.091  0.3961 -0.6623 -0.0130
  753TMC3    C311178   1.057   1.093  14.222  0.5491  0.4474  0.0969
  753TMC3    C411179   1.276   0.977  14.105  0.2037 -0.0843 -0.0588
  753TMC3    C511180   1.266   0.975  14.245 -0.0848 -0.0060 -0.0780
  753TMC3    C611181   1.158   1.031  14.299  0.2420  0.4929  0.3680
  753TMC3     C11182   1.181   1.032  13.890  0.2610  0.5706 -0.5573
  753TMC3     O11183   1.286   1.018  13.831  0.0805 -0.1225 -0.3882
  753TMC3     H11184   0.974   1.115  14.034  0.8141 -0.3104 -0.3937
  753TMC3    H111185   1.366   0.955  14.049  0.6446  2.1903 -0.2438
  753TMC3    H211186   1.150   1.056  14.404 -0.4451  0.7526  0.2507
  753TMC3    C711187   1.373   0.939  14.333  0.0901 -0.5974  0.2489
  753TMC3    C811188   0.987   1.207  14.272 -0.1036 -0.4333  0.4433
  753TMC3    O111189   1.395   1.024  14.423  0.1261  0.5041  0.0448
  753TMC3    O211190   0.881   1.244  14.225 -0.2667  0.0770 -0.1010
  754MPD2     C11191   0.465   0.247  13.393 -0.6143 -0.3102 -0.4855
  754MPD2    C111192   0.440   0.111  13.406 -0.3894 -0.3083  0.0180
  754MPD2    C211193   0.310   0.068  13.442 -0.3111  0.1666  0.2027
  754MPD2    C311194   0.218   0.167  13.472  0.2735 -0.1669 -0.3193
  754MPD2    C411195   0.247   0.303  13.453 -0.4439 -0.3327 -0.7754
  754MPD2    C511196   0.367   0.338  13.412 -0.0588  1.2132  0.4208
  754MPD2     H11197   0.274   4.699  13.439  0.8847 -0.2033 -1.8637
  754MPD2    H111198   0.181   0.380  13.492  0.8253 -0.4716  1.6553
  754MPD2    H211199   0.561   0.276  13.354  0.0982 -2.5501 -0.3969
  754MPD2    H311200   0.383   0.443  13.393  2.2337  0.3352 -2.5756
  754MPD2     N11201   0.085   0.147  13.526  0.5840  0.4399 -0.1990
  754MPD2    H511202   0.038   0.230  13.559  0.1279 -0.6093  1.7845
  754MPD2    N111203   0.552   0.027  13.388 -0.7029 -0.6213 -0.0000
  754MPD2    H711204   0.633   0.083  13.360 -2.2044  1.2431 -0.6018
  755MPD2     C11205   4.469   0.723  13.358  0.3197 -0.2290  0.4784
  755MPD2    C111206   4.369   0.679  13.441  0.0137 -0.3606  0.4438
  755MPD2    C211207   4.350   0.540  13.468 -0.3143  0.5131 -0.0823
  755MPD2    C311208   4.444   0.446  13.418  0.2222 -0.1826  0.2827
  755MPD2    C411209   4.552   0.497  13.343  1.2072  0.3544  1.1628
  755MPD2    C511210   4.560   0.629  13.302 -0.0617 -0.0150  0.3578
  755MPD2     H11211   4.266   0.507  13.528  1.7081 -0.8716  2.0003
  755MPD2    H111212   4.632   0.432  13.311  1.2911 -0.5466  3.1852
  755MPD2    H211213   4.492   0.827  13.333  2.2024 -0.8004 -0.1883
  755MPD2    H311214   4.641   0.667  13.241 -0.8581  0.1294 -0.6118
  755MPD2     N11215   4.456   0.311  13.462  0.2233  0.1663  0.3024
  755MPD2    H511216   4.530   0.253  13.424  0.6072  1.5998 -1.1000
  755MPD2    N111217   4.276   0.768  13.491 -0.0749 -0.2067  0.1420
  755MPD2    H711218   4.186   0.737  13.527 -0.7566  1.5001 -0.0862
  756MPD2     C11219   4.077   1.897   9.664  0.0894 -0.2652 -0.0411
  756MPD2    C111220   4.012   1.838   9.767  0.2670 -0.4058  0.5864
  756MPD2    C211221   3.876   1.824   9.758 -0.3394 -0.5362  0.1578
  756MPD2    C311222   3.800   1.863   9.643  0.0513  0.4175 -0.0470
  756MPD2    C411223   3.871   1.918   9.538  0.7265 -0.2922  0.3108
  756MPD2    C511224   4.009   1.930   9.558 -0.4141  0.4468 -0.3532
  756MPD2     H11225   3.828   1.765   9.836 -0.6746 -0.7637 -0.2202
  756MPD2    H111226   3.831   1.938   9.439 -0.0238  1.1834  0.9019
  756MPD2    H211227   4.179   1.928   9.680  0.3318 -2.6938  3.0888
  756MPD2    H311228   4.069   1.972   9.477 -0.9161  0.2314 -0.8366
  756MPD2     N11229   3.667   1.823   9.638 -0.0354 -0.0089 -0.1457
  756MPD2    H511230   3.631   1.770   9.716 -0.6019 -1.7508 -1.6032
  756MPD2    N111231   4.059   1.797   9.887 -0.3581  0.1296 -0.7143
  756MPD2    H711232   3.995   1.779   9.964 -0.8137  2.0712 -0.6371
  757MPD2     C11233   3.335   1.097   9.940 -0.3497  0.0304 -0.5120
  757MPD2    C111234   3.454   1.159   9.905 -0.0861 -0.0445 -0.5115
  757MPD2    C211235   3.458   1.284   9.848 -0.4205  1.0385  0.1856
  757MPD2    C311236   3.338   1.346   9.814 -0.1774  0.3578  0.2194
  757MPD2    C411237   3.218   1.287   9.845 -0.4003 -0.0342 -0.5100
  757MPD2    C511238   3.219   1.169   9.917  0.0560 -0.2618 -0.6126
  757MPD2     H11239   3.558   1.319   9.824 -0.8425  2.0237 -0.1712
  757MPD2    H111240   3.123   1.331   9.818  0.4807  2.4071  0.3818
  757MPD2    H211241   3.328   1.000   9.988  1.2085  0.9511  1.5879
  757MPD2    H311242   3.123   1.127   9.946  0.2834 -2.7120 -3.3639
  757MPD2     N11243   3.352   1.468   9.745  0.3254 -0.7909  0.0642
  757MPD2    H511244   3.450   1.485   9.723 -0.0822 -0.0418 -1.1610
  757MPD2    N111245   3.561   1.076   9.932 -0.3173 -0.4760  0.5234
  757MPD2    H711246   3.535   0.987   9.973 -0.7156  0.4033  2.2042
  758MPD2     C11247   4.465   4.453  16.078 -0.0557 -0.5311  0.5010
  758MPD2    C111248   4.561   4.410  16.163 -0.2131 -0.3796 -0.1460
  758MPD2    C211249   4.536   4.427  16.301  0.2654  0.8043 -0.1858
  758MPD2    C311250   4.423   4.506  16.340  0.1145  0.3888  0.0254
  758MPD2    C411251   4.334   4.554  16.245  0.0858  0.3665  0.8490
  758MPD2    C511252   4.354   4.519  16.114  0.1407  0.5365  0.0669
  758MPD2     H11253   4.606   4.382  16.370  0.4650  0.2343 -0.7656
  758MPD2    H111254   4.251   4.619  16.270  2.3142  3.5296 -0.0763
  758MPD2    H211255   4.473   4.420  15.975  0.0356 -0.4802  0.4919
  758MPD2    H311256   4.279   4.551  16.043 -0.0747 -3.8328 -1.6834
  758MPD2     N11257   4.381   4.514  16.472 -0.5500  0.2494  1.0768
  758MPD2    H511258   4.289   4.556  16.486  0.1265  2.2137 -0.3557
  758MPD2    N111259   4.669   4.339  16.109  0.3493 -0.1245  0.2805
  758MPD2    H711260   4.683   4.340  16.008  0.1181  0.2982  0.2547
  759MPD2     C11261   2.887   3.245  10.970 -0.0128  0.1670 -0.6510
  759MPD2    C111262   2.955   3.123  10.961  0.0230 -0.4350 -0.1195
  759MPD2    C211263   3.085   3.116  11.015  0.1038 -0.4153 -0.6640
  759MPD2    C311264   3.148   3.229  11.059  0.2088 -0.7724 -0.3782
  759MPD2    C411265   3.082   3.346  11.067 -1.1284  0.0645  0.0802
  759MPD2    C511266   2.953   3.357  11.021  0.2069 -0.2148 -0.4032
  759MPD2     H11267   3.149   3.029  11.008  0.2735 -0.4364  1.1174
  759MPD2    H111268   3.132   3.440  11.087 -0.9168  0.0911 -0.5487
  759MPD2    H211269   2.787   3.271  10.939 -0.7860  2.2842  3.7166
  759MPD2    H311270   2.904   3.453  11.019  0.2906 -0.1712 -0.3641
  759MPD2     N11271   3.282   3.209  11.090  0.6731  0.4852  0.7461
  759MPD2    H511272   3.323   3.117  11.083 -1.8438 -0.7251  1.9743
  759MPD2    N111273   2.898   3.006  10.906  0.3792 -0.1998  0.0158
  759MPD2    H711274   2.949   2.918  10.905  0.7466  0.0106  0.1902
  760MPD2     C11275   2.900   0.162  11.989 -1.0464 -0.3078 -0.0430
  760MPD2    C111276   3.003   0.233  12.043 -0.1480  0.0073 -0.0251
  760MPD2    C211277   3.087   0.169  12.130  0.1423 -0.3836  0.0703
  760MPD2    C311278   3.078   0.033  12.155 -0.5628 -0.1120  0.0167
  760MPD2    C411279   2.983   4.697  12.086 -0.4698 -0.0460 -0.2891
  760MPD2    C511280   2.892   0.028  12.008  0.2627  1.0101  0.1525
  760MPD2     H11281   3.163   0.228  12.181 -0.2030  1.5189 -1.5994
  760MPD2    H111282   2.983   4.589  12.088  0.7307 -0.0277  0.4570
  760MPD2    H211283   2.826   0.205  11.923  0.3381  1.9594 -0.1141
  760MPD2    H311284   2.815   4.716  11.946  3.6784 -3.0155 -1.1390
  760MPD2     N11285   3.170   4.696  12.236 -0.2548  0.5000  0.1624
  760MPD2    H511286   3.173   4.594  12.233 -2.6930  0.3606  3.1396
  760MPD2    N111287   3.015   0.369  12.023 -0.4141 -0.2623  0.6827
  760MPD2    H711288   3.101   0.402  12.066 -0.5985  0.1867  0.7106
  761MPD2     C11289   4.596   0.572  11.618  0.3778  0.2584  0.2665
  761MPD2    C111290   4.643   0.477  11.523  0.0031 -0.4675  0.3331
  761MPD2    C211291   0.038   0.504  11.476  0.0811  0.0540 -0.2572
  761MPD2    C311292   0.115   0.605  11.524  0.2518 -0.0607 -0.6677
  761MPD2    C411293   0.060   0.687  11.615  0.2869  0.0524  0.0244
  761MPD2    C511294   4.665   0.677  11.665 -0.3500 -0.6373  0.4723
  761MPD2     H11295   0.083   0.430  11.411 -1.6522 -0.5491 -0.7779
  761MPD2    H111296   0.117   0.775  11.643  1.9565 -0.4571 -1.7733
  761MPD2    H211297   4.493   0.560  11.651  1.1830  1.1189  3.0464
  761MPD2    H311298   4.615   0.754  11.722  0.5562  0.2282  0.0889
  761MPD2     N11299   0.251   0.632  11.493  0.2364  0.6374 -0.0395
  761MPD2    H511300   0.289   0.722  11.518 -1.6558  1.4405 -0.0554
  761MPD2    N111301   4.566   0.361  11.483  0.9532 -0.5011 -0.4213
  761MPD2    H711302   4.482   0.347  11.537  0.9888 -0.2160 -0.2885
  762MPD2     C11303   4.373   4.296  11.075  0.1652  0.5384 -0.0389
  762MPD2    C111304   4.442   4.412  11.044 -0.0069  0.8029  0.4630
  762MPD2    C211305   4.519   4.421  10.929 -0.1427  0.0098 -0.4978
  762MPD2    C311306   4.523   4.314  10.837 -0.0447  0.3174  0.6386
  762MPD2    C411307   4.439   4.206  10.864 -0.1252  0.5042  0.4303
  762MPD2    C511308   4.371   4.197  10.978 -0.3470 -0.6543  0.0134
  762MPD2     H11309   4.594   4.495  10.904 -1.5766  2.1185  1.4271
  762MPD2    H111310   4.429   4.124  10.794 -0.4706  0.0147  1.0504
  762MPD2    H211311   4.329   4.280  11.173  3.0111 -0.3588  1.0972
  762MPD2    H311312   4.306   4.112  10.993 -1.3284 -0.0751 -0.9673
  762MPD2     N11313   4.596   4.331  10.714 -0.0218 -0.4900  0.1247
  762MPD2    H511314   4.667   4.404  10.708 -0.1812 -0.2189  1.4641
  762MPD2    N111315   4.455   4.495  11.155  0.0101  0.5279 -0.6245
  762MPD2    H711316   4.382   4.472  11.222  0.1521 -1.2829 -1.0981
  763MPD2     C11317   1.284   4.637  15.916  0.0657  0.5158  0.2818
  763MPD2    C111318   1.396   4.666  15.841  0.5611 -0.5400 -0.6409
  763MPD2    C211319   1.467   0.051  15.865 -0.5877 -0.3801 -0.2622
  763MPD2    C311320   1.440   0.129  15.977 -1.1428 -0.4490  0.8598
  763MPD2    C411321   1.331   0.098  16.050 -0.1504  0.5445  0.5219
  763MPD2    C511322   1.252   4.721  16.022  0.0747 -0.3346  0.3768
  763MPD2     H11323   1.559   0.072  15.811 -0.5561  0.2063  0.0205
  763MPD2    H111324   1.295   0.168  16.125  1.3834  0.4439  1.3375
  763MPD2    H211325   1.218   4.553  15.898 -0.4263  0.7710  0.9019
  763MPD2    H311326   1.152   4.714  16.063 -0.4119 -0.0492 -0.7602
  763MPD2     N11327   1.510   0.247  16.000  0.0939  0.1375 -0.0567
  763MPD2    H511328   1.582   0.269  15.932  0.2237 -0.7749 -0.2167
  763MPD2    N111329   1.431   4.590  15.730  0.8802  0.0770 -0.2141
  763MPD2    H711330   1.501   4.624  15.664 -1.9396  3.3597 -1.5406
  764MPD2     C11331   4.326   1.821   0.168 -0.3233 -0.0968  0.8112
  764MPD2    C111332   4.270   1.713   0.105  1.2159 -0.3104 -0.4733
  764MPD2    C211333   4.242   1.606   0.185  0.2466 -0.1945 -0.6290
  764MPD2    C311334   4.265   1.610   0.322 -0.8634 -0.3109  0.8784
  764MPD2    C411335   4.326   1.717   0.375  0.0914  0.0041 -0.5518
  764MPD2    C511336   4.362   1.820   0.297  0.2194 -0.3070  0.0918
  764MPD2     H11337   4.200   1.515   0.143  1.6736 -2.6230  3.1975
  764MPD2    H111338   4.363   1.725   0.476 -1.7405 -0.2282  0.1493
  764MPD2    H211339   4.376   1.899   0.111 -1.5999  1.9037  2.4392
  764MPD2    H311340   4.412   1.907   0.336  0.4094  0.0977 -1.0801
  764MPD2     N11341   4.232   1.495   0.396 -0.2237 -0.1772 -0.3555
  764MPD2    H511342   4.176   1.431   0.341 -0.8774  0.3709 -0.3296
  764MPD2    N111343   4.267   1.709  17.696  0.0441  0.3483 -0.3681
  764MPD2    H711344   4.225   1.623  17.663 -0.2940  0.3252  0.1129
  765MPD2     C11345   4.373   3.914  15.207  0.4756  0.6175 -0.2833
  765MPD2    C111346   4.367   3.964  15.334 -0.2751 -0.0693  0.3247
  765MPD2    C211347   4.466   3.940  15.418 -0.0228 -0.8023  0.4067
  765MPD2    C311348   4.571   3.860  15.382 -0.0715 -0.2518  0.2754
  765MPD2    C411349   4.581   3.799  15.262 -0.0598 -0.1179 -0.1877
  765MPD2    C511350   4.476   3.827  15.175  0.2144  0.5506 -0.3465
  765MPD2     H11351   4.462   3.975  15.520 -1.4996  0.5147 -0.1147
  765MPD2    H111352   4.653   3.723  15.235 -0.9691 -1.4322  1.0639
  765MPD2    H211353   4.294   3.952  15.142  0.4991 -2.2131 -1.9719
  765MPD2    H311354   4.478   3.782  15.076  2.3476  0.0494 -0.0830
  765MPD2     N11355   4.661   3.842  15.484 -0.0477 -0.0238 -0.4696
  765MPD2    H511356   4.636   3.883  15.574  0.4833  0.3592 -0.4969
  765MPD2    N111357   4.255   4.042  15.370  0.0521  0.4083  0.5457
  765MPD2    H711358   4.185   4.058  15.299 -2.5601  0.7419  3.1847
  766MPD2     C11359   3.560   4.222  15.073 -0.1329  0.1177  0.2597
  766MPD2    C111360   3.693   4.190  15.089 -0.7722  0.3569 -0.8988
  766MPD2    C211361   3.756   4.124  14.986  0.3673  0.9052 -0.4224
  766MPD2    C311362   3.686   4.085  14.871  0.0409 -0.1930 -0.6944
  766MPD2    C411363   3.551   4.114  14.857 -0.0381  0.5861 -0.4329
  766MPD2    C511364   3.494   4.181  14.962 -0.0226  0.4000  0.2864
  766MPD2     H11365   3.864   4.129  14.988  0.5033 -2.0104  0.6611
  766MPD2    H111366   3.497   4.080  14.770  2.0490 -0.0835 -1.4670
  766MPD2    H211367   3.501   4.280  15.144 -2.5668 -1.7419 -0.2405
  766MPD2    H311368   3.388   4.203  14.969  0.0839  1.2145 -0.6090
  766MPD2     N11369   3.753   4.033  14.759 -0.0429 -0.3271 -0.6448
  766MPD2    H511370   3.698   4.038  14.674 -0.9595 -2.8914 -0.2036
  766MPD2    N111371   3.750   4.230  15.204  0.8043  1.1955 -0.4364
  766MPD2    H711372   3.703   4.299  15.262 -0.3403  0.7909 -0.8795
  767MPD2     C11373   3.468   4.431  14.750 -0.1087  0.1571  0.5062
  767MPD2    C111374   3.595   4.401  14.697 -1.2035 -0.8071  0.2258
  767MPD2    C211375   3.601   4.322  14.586  0.4560  0.4132 -0.1370
  767MPD2    C311376   3.490   4.260  14.528 -0.5288 -0.0353  0.2081
  767MPD2    C411377   3.369   4.275  14.589 -0.2396 -0.2478  0.4087
  767MPD2    C511378   3.355   4.371  14.688  0.3662 -0.8406 -0.0055
  767MPD2     H11379   3.701   4.314  14.543  0.7406  2.4560  0.1095
  767MPD2    H111380   3.276   4.227  14.560 -1.0971  2.4699 -1.3620
  767MPD2    H211381   3.439   4.500  14.829 -1.5220 -0.1566  0.2634
  767MPD2    H311382   3.260   4.391  14.737  0.0281 -0.7138 -0.7098
  767MPD2     N11383   3.512   4.170  14.417  0.5395  0.0457  0.5988
  767MPD2    H511384   3.604   4.165  14.374  1.2766  0.2970  2.1421
  767MPD2    N111385   3.703   4.453  14.770 -0.7901  0.9843  0.1995
  767MPD2    H711386   3.693   4.494  14.862 -1.4414 -2.4435  1.6424
  768MPD2     C11387   3.952   3.123  11.249 -0.0329  0.6823  0.2576
  768MPD2    C111388   4.015   3.244  11.221 -0.5645  0.1909  0.2584
  768MPD2    C211389   4.137   3.240  11.154  0.3671  0.6056 -0.5076
  768MPD2    C311390   4.219   3.127  11.150 -1.0070 -0.2461  0.1079
  768MPD2    C411391   4.164   3.015  11.198 -0.0122  0.7773 -0.0884
  768MPD2    C511392   4.032   3.012  11.237 -0.1322 -0.0955  0.7814
  768MPD2     H11393   4.179   3.335  11.123 -0.6100  1.1849 -0.0556
  768MPD2    H111394   4.233   2.932  11.200 -0.3803  0.5018  1.1933
  768MPD2    H211395   3.855   3.121  11.296  0.7832 -1.9397  1.8127
  768MPD2    H311396   3.997   2.919  11.280  0.2398 -1.6501 -2.3141
  768MPD2     N11397   4.354   3.123  11.113 -0.0482 -0.5641 -0.1819
  768MPD2    H511398   4.407   3.037  11.125  0.3320 -0.4699 -1.1584
  768MPD2    N111399   3.961   3.369  11.263  0.2229 -0.5575 -0.1358
  768MPD2    H711400   4.014   3.447  11.226  1.7211 -2.2834 -1.6800
  769MPD2     C11401   0.357   1.372  15.056  0.1545  0.3976 -0.6796
  769MPD2    C111402   0.340   1.263  15.141  0.2416  0.2948  0.4090
  769MPD2    C211403   0.445   1.243  15.236  1.8694  0.2397 -0.4437
  769MPD2    C311404   0.553   1.331  15.252 -0.2406 -0.2929 -0.0670
  769MPD2    C411405   0.567   1.434  15.160 -0.0718 -0.9364  0.7063
  769MPD2    C511406   0.463   1.455  15.071 -0.3385  0.2248 -0.4645
  769MPD2     H11407   0.446   1.152  15.296  1.3709  0.6738  0.2219
  769MPD2    H111408   0.654   1.499  15.157 -1.7478  1.2611 -0.5076
  769MPD2    H211409   0.281   1.391  14.981  0.6721 -0.2567 -1.3741
  769MPD2    H311410   0.464   1.530  14.993  0.1285  0.5946 -0.0979
  769MPD2     N11411   0.649   1.300  15.347  0.4738 -0.0521 -0.5570
  769MPD2    H511412   0.630   1.222  15.410  0.9855  1.4194  1.4205
  769MPD2    N111413   0.223   1.184  15.131 -0.5688  0.1024 -0.1074
  769MPD2    H711414   0.158   1.206  15.056 -0.4733  0.3816 -0.1058
  770MPD2     C11415   4.623   0.299  15.517  0.3687 -0.4476 -1.0420
  770MPD2    C111416   4.729   0.317  15.432 -0.3844 -0.1199 -0.2315
  770MPD2    C211417   0.010   0.441  15.367 -0.1159 -0.6001  0.7255
  770MPD2    C311418   4.656   0.538  15.389  0.1790  0.6346  0.0130
  770MPD2    C411419   4.543   0.524  15.464 -0.2605  0.3346  0.5178
  770MPD2    C511420   4.542   0.408  15.530  0.2194 -0.4583 -0.0049
  770MPD2     H11421   0.089   0.455  15.295 -0.7345 -0.9849 -0.0217
  770MPD2    H111422   4.478   0.607  15.491  0.1774  1.0461 -0.6150
  770MPD2    H211423   4.604   0.202  15.563 -0.0248  0.2759  0.3203
  770MPD2    H311424   4.453   0.400  15.592 -1.4311 -1.4341 -2.5209
  770MPD2     N11425   4.672   0.658  15.316 -0.5570 -0.7384 -0.3504
  770MPD2    H511426   0.019   0.651  15.256  0.1759 -0.3925  0.6036
  770MPD2    N111427   0.083   0.211  15.412 -0.1392 -0.1251 -0.1220
  770MPD2    H711428   0.060   0.126  15.462  0.0496 -1.7697 -2.8335
  771MPD2     C11429   1.928   3.734  13.790  0.2812 -0.4231 -0.2490
  771MPD2    C111430   1.818   3.818  13.770  0.4196  0.3772  0.2932
  771MPD2    C211431   1.705   3.765  13.724 -0.2844 -0.4687 -0.5172
  771MPD2    C311432   1.697   3.634  13.699 -0.7886 -0.1726 -0.0646
  771MPD2    C411433   1.806   3.551  13.706 -0.0339  0.0687 -0.2238
  771MPD2    C511434   1.921   3.597  13.752  0.1758 -0.4455 -0.1998
  771MPD2     H11435   1.620   3.833  13.718  1.0628  1.2942  0.3312
  771MPD2    H111436   1.805   3.452  13.661 -1.0504  0.0444 -0.1446
  771MPD2    H211437   2.025   3.771  13.820 -0.7987  2.0028  0.2601
  771MPD2    H311438   2.008   3.533  13.751 -0.6012 -1.4856 -1.2130
  771MPD2     N11439   1.570   3.592  13.647 -0.5036  0.1606  0.0377
  771MPD2    H511440   1.493   3.655  13.668 -0.7955 -0.0897 -0.2940
  771MPD2    N111441   1.822   3.959  13.801 -0.2258  0.2765 -0.4124
  771MPD2    H711442   1.740   4.011  13.770 -0.1868  0.0289 -0.9353
  772MPD2     C11443   1.425   4.375  13.515 -0.0962 -0.1026  0.3781
  772MPD2    C111444   1.430   4.390  13.652 -0.5020  0.4913  0.0351
  772MPD2    C211445   1.317   4.411  13.721 -0.3846  0.1864  0.0742
  772MPD2    C311446   1.193   4.411  13.655 -0.1291 -0.2022  0.1311
  772MPD2    C411447   1.188   4.412  13.521  0.1355  0.0418 -0.5673
  772MPD2    C511448   1.304   4.394  13.454  0.3361 -0.6742  0.0929
  772MPD2     H11449   1.309   4.407  13.829  0.2286  0.6041  0.1330
  772MPD2    H111450   1.100   4.421  13.460  1.0122  0.4186 -1.7696
  772MPD2    H211451   1.506   4.340  13.453  0.5271  1.7257  0.1475
  772MPD2    H311452   1.285   4.405  13.347 -5.0412 -4.5096  0.6548
  772MPD2     N11453   1.067   4.417  13.726 -0.3689 -0.0207  0.1594
  772MPD2    H511454   0.983   4.440  13.673 -0.6788  1.4798  1.3010
  772MPD2    N111455   1.549   4.381  13.724 -0.2018  0.3260 -0.0612
  772MPD2    H711456   1.545   4.383  13.825  4.3604  0.4913  0.1201
  773MPD2     C11457   0.245   0.467  17.487 -0.3452  0.3848  0.4030
  773MPD2    C111458   0.278   0.331  17.480 -0.1980  0.0977  0.1306
  773MPD2    C211459   0.404   0.297  17.538 -0.2911  0.2274 -0.0199
  773MPD2    C311460   0.476   0.391  17.611 -0.6354  0.3487 -0.4389
  773MPD2    C411461   0.429   0.522  17.622  0.0996 -0.1838  0.9739
  773MPD2    C511462   0.311   0.558  17.558 -0.0882  0.4133  0.3773
  773MPD2     H11463   0.453   0.205  17.508 -0.9221  0.1697 -0.8623
  773MPD2    H111464   0.479   0.600  17.679  0.4171  2.7371 -3.3382
  773MPD2    H211465   0.152   0.494  17.439  0.0605 -1.1130 -1.2299
  773MPD2    H311466   0.271   0.657  17.576 -0.9541  0.0514  0.4458
  773MPD2     N11467   0.597   0.348  17.665 -0.3955  0.3106 -0.0784
  773MPD2    H511468   0.625   0.261  17.621 -2.5615 -0.2932 -0.2800
  773MPD2    N111469   0.190   0.238  17.431 -0.4775  0.0777  0.0892
  773MPD2    H711470   0.094   0.260  17.404 -0.1240 -0.1662 -1.3706
  774MPD2     C11471   4.434   4.181  13.349  0.4224 -0.4660 -0.3080
  774MPD2    C111472   4.449   4.236  13.476 -0.8495  0.3731  0.4808
  774MPD2    C211473   4.574   4.279  13.524 -0.0182 -1.0500  0.2872
  774MPD2    C311474   4.689   4.264  13.451  0.2738 -0.1589 -1.1800
  774MPD2    C411475   4.673   4.208  13.326 -0.2325  0.1838 -0.3711
  774MPD2    C511476   4.555   4.168  13.277  0.2125  0.2224  0.1407
  774MPD2     H11477   4.582   4.334  13.617 -1.4093  2.5226 -1.6880
  774MPD2    H111478   0.023   4.192  13.259 -0.5912 -0.3716 -0.6779
  774MPD2    H211479   4.349   4.129  13.306 -0.2274 -1.2100  1.8708
  774MPD2    H311480   4.550   4.111  13.185 -1.1969 -0.1611  0.4521
  774MPD2     N11481   0.077   4.311  13.508 -0.4136 -0.3952 -0.0403
  774MPD2    H511482   0.071   4.348  13.602 -2.6175  0.7733 -0.6602
  774MPD2    N111483   4.336   4.242  13.554 -0.5187  0.1889  0.5538
  774MPD2    H711484   4.246   4.204  13.524  1.1904 -2.8883 -0.6612
  775MPD2     C11485   0.942   0.951  15.760  0.0413  0.2348 -0.5998
  775MPD2    C111486   0.951   1.009  15.885  0.0492 -0.6646 -0.1035
  775MPD2    C211487   1.064   1.073  15.925 -1.2937  0.2545 -0.3164
  775MPD2    C311488   1.173   1.090  15.839  0.2082 -0.4216 -0.0063
  775MPD2    C411489   1.160   1.051  15.712  0.4036 -1.0829 -0.5108
  775MPD2    C511490   1.041   0.987  15.673 -0.4165  0.0079  0.2482
  775MPD2     H11491   1.068   1.109  16.027  0.5198  0.1406 -0.3482
  775MPD2    H111492   1.235   1.073  15.636 -0.9520 -2.0636 -2.1283
  775MPD2    H211493   0.858   0.890  15.730  1.2604 -2.0436  0.6066
  775MPD2    H311494   1.039   0.950  15.571 -2.0200  0.1200  0.2398
  775MPD2     N11495   1.298   1.151  15.875 -0.5217  0.1424 -0.2276
  775MPD2    H511496   1.368   1.157  15.802 -0.2870 -1.5070 -0.1418
  775MPD2    N111497   0.846   0.981  15.973 -0.0434  0.1336 -0.0106
  775MPD2    H711498   0.773   0.920  15.938  0.3250 -0.7455  0.7440
  776MPD2     C11499   4.557   2.071  11.635  0.5840  0.3413  0.4008
  776MPD2    C111500   4.682   2.027  11.599  0.0812 -0.1619 -0.4067
  776MPD2    C211501   0.024   2.098  11.504 -0.1554 -0.5099 -0.1141
  776MPD2    C311502   4.708   2.208  11.438 -0.4901  0.0422  0.1770
  776MPD2    C411503   4.572   2.237  11.469  0.1060 -0.2850  0.5426
  776MPD2    C511504   4.496   2.175  11.571 -0.1458  0.5090  0.5308
  776MPD2     H11505   0.128   2.079  11.480 -0.2038 -0.9310  0.0060
  776MPD2    H111506   4.522   2.316  11.415 -0.1945  0.2517  1.6061
  776MPD2    H211507   4.485   2.022  11.700 -1.2100  2.1164 -0.2508
  776MPD2    H311508   4.390   2.190  11.582 -0.0732  1.2780  0.1467
  776MPD2     N11509   0.038   2.264  11.325  0.5203  0.0417  0.0328
  776MPD2    H511510   4.720   2.325  11.262  0.4549  0.8456  0.8534
  776MPD2    N111511   4.714   1.894  11.643 -0.2362  0.0211 -0.2780
  776MPD2    H711512   4.655   1.850  11.713  0.4793 -0.0783  0.2523
  777MPD2     C11513   4.574   3.275   0.714  0.0986  0.2718 -0.1178
  777MPD2    C111514   4.646   3.195   0.798 -0.3058  0.7124  0.4133
  777MPD2    C211515   4.644   3.059   0.780  0.5342 -0.3648 -0.0122
  777MPD2    C311516   4.583   3.008   0.666 -0.0827 -0.5871  0.1912
  777MPD2    C411517   4.507   3.090   0.585 -0.1061 -0.1690  0.6890
  777MPD2    C511518   4.504   3.226   0.600 -0.5202  0.2418  0.0750
  777MPD2     H11519   4.691   2.990   0.849  0.1282 -1.6429 -1.0157
  777MPD2    H111520   4.444   3.055   0.504 -0.7291 -1.0011  1.5410
  777MPD2    H211521   4.568   3.378   0.748 -0.4521 -0.2203  1.2783
  777MPD2    H311522   4.438   3.302   0.559 -0.0254 -0.4164 -1.9869
  777MPD2     N11523   4.573   2.864   0.643 -0.2216  0.0902  0.0004
  777MPD2    H511524   4.640   2.814   0.701  0.1405  0.5096 -0.0558
  777MPD2    N111525   4.718   3.257   0.902 -0.1245  0.4337  0.3012
  777MPD2    H711526   4.709   3.357   0.912 -2.4432  0.2778 -0.2935
  778MPD2     C11527   1.789   3.190  14.812 -0.1362 -0.3589 -0.1707
  778MPD2    C111528   1.766   3.326  14.835 -0.0406 -0.3533  0.4682
  778MPD2    C211529   1.818   3.434  14.763 -0.1592 -0.1909 -0.6548
  778MPD2    C311530   1.899   3.404  14.653  0.9890  0.3801 -0.2842
  778MPD2    C411531   1.921   3.269  14.625 -0.1078  0.3186 -0.3238
  778MPD2    C511532   1.863   3.167  14.703  0.6586 -0.1823  0.3901
  778MPD2     H11533   1.798   3.535  14.796  1.5743 -0.1595  0.2966
  778MPD2    H111534   1.991   3.242  14.547  0.1216 -0.6268  0.2021
  778MPD2    H211535   1.749   3.108  14.869 -0.3099 -1.2608 -1.6027
  778MPD2    H311536   1.885   3.065  14.672 -0.3614 -0.0109 -0.8828
  778MPD2     N11537   1.959   3.509  14.581 -0.3264 -0.2351 -0.5636
  778MPD2    H511538   1.970   3.598  14.629 -2.1924 -0.6136  0.5822
  778MPD2    N111539   1.685   3.368  14.944 -0.2046 -0.2263  0.4274
  778MPD2    H711540   1.645   3.461  14.947  4.6972  1.8929  1.8617
  779MPD2     C11541   1.266   2.460  14.653  0.2008  0.4683 -0.4557
  779MPD2    C111542   1.376   2.398  14.587  1.3451  0.9379 -0.0418
  779MPD2    C211543   1.449   2.477  14.498  0.1726  0.3374  0.6576
  779MPD2    C311544   1.427   2.609  14.475 -0.0641 -0.7496  0.0777
  779MPD2    C411545   1.315   2.663  14.542 -0.0812 -0.1540 -0.2810
  779MPD2    C511546   1.243   2.591  14.633  0.1830  0.4027  0.0447
  779MPD2     H11547   1.523   2.440  14.427  0.6895  1.6158  0.5281
  779MPD2    H111548   1.293   2.769  14.535 -0.9182 -0.4536 -2.1419
  779MPD2    H211549   1.198   2.412  14.722  0.1121  1.4802  0.1540
  779MPD2    H311550   1.165   2.638  14.692  1.1277  1.0187  0.8074
  779MPD2     N11551   1.507   2.675  14.378  0.3183 -0.1510 -0.6178
  779MPD2    H511552   1.580   2.620  14.334  0.9042  2.3811 -2.8348
  779MPD2    N111553   1.399   2.260  14.602  0.0543 -0.7748  0.1913
  779MPD2    H711554   1.488   2.231  14.563  0.9266  0.8656  0.9696
  780MPD2     C11555   1.407   1.761   1.290 -0.5130  0.4933 -0.5112
  780MPD2    C111556   1.295   1.791   1.211  0.7592  0.3687 -0.2282
  780MPD2    C211557   1.303   1.887   1.109 -0.7419 -0.2240 -0.7939
  780MPD2    C311558   1.434   1.938   1.084  0.9086  0.2756  0.5915
  780MPD2    C411559   1.549   1.895   1.147  0.0321  0.5501 -1.0616
  780MPD2    C511560   1.528   1.814   1.254  0.1522  0.8661 -0.8406
  780MPD2     H11561   1.216   1.917   1.051 -2.8792  0.1866  2.6511
  780MPD2    H111562   1.653   1.918   1.132 -0.3844  2.4283 -1.0093
  780MPD2    H211563   1.405   1.701   1.380 -0.7076 -0.3101 -1.0514
  780MPD2    H311564   1.607   1.792   1.325 -0.4955  1.2319 -0.0058
  780MPD2     N11565   1.444   2.034   0.983 -0.8126  0.7143 -0.7350
  780MPD2    H511566   1.364   2.049   0.921 -3.3026  0.1986  2.3828
  780MPD2    N111567   1.168   1.743   1.255 -0.0224 -0.4840 -0.0304
  780MPD2    H711568   1.160   1.685   1.338  2.6596 -0.7491  0.0462
  781MPD2     C11569   2.222   4.606  11.934 -0.0257  0.2582 -0.0449
  781MPD2    C111570   2.351   4.552  11.940 -0.7962 -0.6765 -0.2485
  781MPD2    C211571   2.442   4.627  11.867  0.0158 -0.3064  0.1588
  781MPD2    C311572   2.407   0.008  11.798  0.4725 -0.3638 -0.2851
  781MPD2    C411573   2.281   0.063  11.813  0.8046 -1.1575  0.2729
  781MPD2    C511574   2.186   4.726  11.881  1.0577  0.4362 -0.0327
  781MPD2     H11575   2.544   4.591  11.858  0.3773  0.7271  0.1309
  781MPD2    H111576   2.263   0.162  11.774  0.7840 -1.0366  0.5845
  781MPD2    H211577   2.141   4.557  11.986 -1.6603  1.2301 -1.6775
  781MPD2    H311578   2.088   0.031  11.908  0.9688  1.1947 -1.4765
  781MPD2     N11579   2.510   0.087  11.729 -0.0885 -0.2587 -0.4920
  781MPD2    H511580   2.475   0.174  11.691 -0.8701 -0.6692 -0.7230
  781MPD2    N111581   2.379   4.421  11.992 -0.2656  0.2817 -0.4711
  781MPD2    H711582   2.478   4.398  11.992 -0.1879  0.6378  0.7062
  782MPD2     C11583   0.466   0.470   9.903 -0.3967 -0.3513 -0.2812
  782MPD2    C111584   0.511   0.416  10.024  0.8689 -0.3193  0.1627
  782MPD2    C211585   0.621   0.467  10.083  0.6658  0.2837  0.2019
  782MPD2    C311586   0.697   0.567  10.019 -0.7465 -0.0863  0.2614
  782MPD2    C411587   0.658   0.613   9.899  0.5045 -0.5536 -0.2731
  782MPD2    C511588   0.538   0.573   9.850  0.6015  0.4527 -0.1707
  782MPD2     H11589   0.656   0.424  10.176 -0.9891 -1.1054  0.1791
  782MPD2    H111590   0.703   0.696   9.845 -2.7580  0.7930 -0.9317
  782MPD2    H211591   0.376   0.436   9.852 -0.3939 -0.2166 -0.3737
  782MPD2    H311592   0.508   0.619   9.757 -0.5181 -0.2048 -0.1338
  782MPD2     N11593   0.813   0.623  10.079  0.0372 -1.3990 -0.0114
  782MPD2    H511594   0.859   0.694  10.023  1.7561 -1.3551  1.4437
  782MPD2    N111595   0.438   0.325  10.108  0.2109  0.4228 -0.1305
  782MPD2    H711596   0.486   0.299  10.193 -2.9892  1.2792  1.9344
  783MPD2     C11597   0.305   0.837  10.742  0.2919 -0.0357  0.2499
  783MPD2    C111598   0.344   0.719  10.804 -0.1048 -0.4386  0.5375
  783MPD2    C211599   0.307   0.606  10.739  0.5261  0.2685  0.1091
  783MPD2    C311600   0.235   0.601  10.625  0.0573  0.0926 -0.4478
  783MPD2    C411601   0.199   0.715  10.556  0.2295 -0.1891  0.5513
  783MPD2    C511602   0.233   0.833  10.621  0.2296 -0.3900  0.3617
  783MPD2     H11603   0.338   0.511  10.780 -1.6357  0.5715  2.4482
  783MPD2    H111604   0.145   0.717  10.462  1.0802  0.2412  0.0682
  783MPD2    H211605   0.332   0.926  10.799  1.4156 -0.2518  0.0608
  783MPD2    H311606   0.203   0.921  10.565 -1.9226 -1.9552 -0.9525
  783MPD2     N11607   0.217   0.471  10.569 -0.0969  0.2964  0.6210
  783MPD2    H511608   0.255   0.402  10.634  0.8509 -0.7048 -1.0199
  783MPD2    N111609   0.427   0.719  10.921 -0.4806  0.3053 -0.6257
  783MPD2    H711610   0.475   0.807  10.935  0.9716 -0.3231 -1.5909
  784MPD2     C11611   2.800   0.226   0.571 -0.6444 -0.0976  0.0742
  784MPD2    C111612   2.775   0.267   0.702 -0.6506  0.1317  0.5199
  784MPD2    C211613   2.662   0.346   0.726 -0.1708 -0.4047  0.2706
  784MPD2    C311614   2.587   0.399   0.620 -0.2465  0.4111  0.0282
  784MPD2    C411615   2.617   0.357   0.492 -0.2796 -0.1094  0.4583
  784MPD2    C511616   2.713   0.263   0.475 -0.9688  0.5492 -0.5377
  784MPD2     H11617   2.640   0.373   0.828  1.1486  0.5836  0.2900
  784MPD2    H111618   2.554   0.386   0.409 -1.0038  0.8571  1.3353
  784MPD2    H211619   2.888   0.169   0.542  1.3689  2.6763  0.7349
  784MPD2    H311620   2.730   0.243   0.370 -1.5111  1.3021 -0.7694
  784MPD2     N11621   2.477   0.488   0.652  0.3848  0.2663 -1.2049
  784MPD2    H511622   2.446   0.484   0.748  0.1780 -1.4132 -1.3336
  784MPD2    N111623   2.856   0.229   0.816  0.2072 -0.3131 -0.0536
  784MPD2    H711624   2.837   0.252   0.913 -0.9311  0.1864 -0.3909
  785MPD2     C11625   3.188   4.106  11.580  0.1588 -0.4822  0.2320
  785MPD2    C111626   3.129   4.225  11.546  0.7264 -0.3973 -0.4311
  785MPD2    C211627   3.064   4.240  11.427 -0.6280  0.2842 -0.0357
  785MPD2    C311628   3.042   4.133  11.344 -0.5653 -0.5070 -0.1863
  785MPD2    C411629   3.092   4.006  11.381 -0.2679  0.3987  0.2036
  785MPD2    C511630   3.167   4.001  11.494 -0.3216  0.0603 -0.1932
  785MPD2     H11631   3.041   4.341  11.394  0.9112 -0.6531 -3.9674
  785MPD2    H111632   3.078   3.916  11.323 -0.7322  1.6300 -1.6062
  785MPD2    H211633   3.249   4.099  11.670 -1.3210 -2.1569  1.1109
  785MPD2    H311634   3.203   3.901  11.518  1.0375  0.5821 -0.0059
  785MPD2     N11635   2.991   4.158  11.217  0.3457 -0.4830 -0.1192
  785MPD2    H511636   2.980   4.257  11.201  0.3084 -0.7841 -1.9353
  785MPD2    N111637   3.141   4.339  11.626 -0.1958  0.0260 -0.4354
  785MPD2    H711638   3.079   4.418  11.608 -0.9735 -0.3819  0.3981
  786MPD2     C11639   1.529   1.466  14.837 -0.6837  0.2989 -0.2764
  786MPD2    C111640   1.649   1.398  14.848 -0.4644 -0.3337  0.0163
  786MPD2    C211641   1.726   1.410  14.963 -0.9530  0.1411  0.2966
  786MPD2    C311642   1.685   1.494  15.066  0.3500  0.2781 -0.0316
  786MPD2    C411643   1.565   1.561  15.061 -0.2835  1.0366 -0.1491
  786MPD2    C511644   1.489   1.543  14.947  0.6623 -0.3160  0.1865
  786MPD2     H11645   1.807   1.340  14.980 -0.9277 -0.1599 -1.1170
  786MPD2    H111646   1.534   1.636  15.134 -0.1310  0.8154  0.1446
  786MPD2    H211647   1.464   1.476  14.751  0.2469  1.2336 -0.8723
  786MPD2    H311648   1.400   1.604  14.932 -0.0391 -1.2073  0.7350
  786MPD2     N11649   1.782   1.515  15.169 -0.0390  0.9076 -0.5682
  786MPD2    H511650   1.876   1.487  15.142  0.8356  2.0930  1.3118
  786MPD2    N111651   1.690   1.305  14.743  0.0243  0.0513  0.5715
  786MPD2    H711652   1.776   1.253  14.758  0.5150  1.5533  3.1419
  787MPD2     C11653   2.046   0.724  14.704  0.8287  0.7062  0.4113
  787MPD2    C111654   2.077   0.816  14.608  0.3684 -0.3975 -0.0739
  787MPD2    C211655   2.202   0.820  14.558  0.5456  0.2980 -0.3681
  787MPD2    C311656   2.302   0.739  14.608  0.1248  0.4897 -0.0450
  787MPD2    C411657   2.261   0.631  14.683 -0.4510  0.2511 -0.8867
  787MPD2    C511658   2.139   0.633  14.742 -0.2837  0.1748 -0.3246
  787MPD2     H11659   2.240   0.903  14.501  0.4259  0.4838 -0.1776
  787MPD2    H111660   2.333   0.557  14.716  0.1092  1.3425  0.3371
  787MPD2    H211661   1.953   0.739  14.758 -0.6287  0.9256 -2.1392
  787MPD2    H311662   2.130   0.580  14.836  3.5788  1.3934  0.7486
  787MPD2     N11663   2.431   0.762  14.556 -0.4632  0.1256  0.4706
  787MPD2    H511664   2.433   0.831  14.481  2.5391  0.4753  0.8679
  787MPD2    N111665   1.986   0.922  14.582  0.1983 -0.1911 -0.4202
  787MPD2    H711666   1.908   0.933  14.645  0.3485  0.5094 -0.3638
  788MPD2     C11667   3.831   0.045   0.991  0.3058  0.4954 -0.0739
  788MPD2    C111668   3.783   4.691   0.896  0.1370  0.4120 -0.0157
  788MPD2    C211669   3.788   4.726   0.761 -0.3601  0.2010 -0.6685
  788MPD2    C311670   3.839   0.119   0.724 -0.5370  0.2636  0.3571
  788MPD2    C411671   3.880   0.204   0.823  0.0476  0.5592  0.4571
  788MPD2    C511672   3.871   0.165   0.952 -0.2866  0.6253  0.7448
  788MPD2     H11673   3.756   4.657   0.684 -0.4104  1.6195 -1.9078
  788MPD2    H111674   3.903   0.308   0.802  1.2508  0.2538  0.3145
  788MPD2    H211675   3.835   0.008   1.092 -0.8427  0.2146 -0.1348
  788MPD2    H311676   3.916   0.218   1.035 -1.1277 -1.0734  2.2973
  788MPD2     N11677   3.863   0.156   0.588  0.5536 -0.2394  0.0161
  788MPD2    H511678   3.865   0.255   0.566  1.3667 -0.7342 -2.1876
  788MPD2    N111679   3.753   4.557   0.932 -0.0737 -0.0175  0.3273
  788MPD2    H711680   3.697   4.510   0.861  3.6569 -0.7270 -2.1367
  789MPD2     C11681   4.257   4.167  16.642 -0.4186  0.0953  0.3799
  789MPD2    C111682   4.169   4.229  16.553  0.0676  0.0065 -0.4094
  789MPD2    C211683   4.056   4.294  16.605 -0.3163 -0.1582 -0.7060
  789MPD2    C311684   4.033   4.298  16.737  1.4920 -0.1827 -0.4944
  789MPD2    C411685   4.110   4.228  16.829 -0.1192 -0.1425  0.0648
  789MPD2    C511686   4.224   4.160  16.772 -0.4315 -0.4814 -0.2312
  789MPD2     H11687   3.991   4.336  16.529 -0.0453  1.2672 -0.1541
  789MPD2    H111688   4.075   4.216  16.931  1.0951  0.1311  0.5127
  789MPD2    H211689   4.345   4.111  16.613  0.2278  0.1810  2.1823
  789MPD2    H311690   4.281   4.093  16.834 -1.5034  0.6027  1.9171
  789MPD2     N11691   3.926   4.372  16.790 -0.4092  0.1089 -0.1802
  789MPD2    H511692   3.915   4.359  16.890  0.6597 -0.2084 -0.0999
  789MPD2    N111693   4.198   4.237  16.413 -0.4137 -0.1333  0.0304
  789MPD2    H711694   4.130   4.268  16.345  0.0514  0.2373 -0.2561
  790MPD2     C11695   0.834   1.291  13.885  0.2071  0.2905 -0.8913
  790MPD2    C111696   0.720   1.215  13.905 -0.0434 -0.1916  0.2822
  790MPD2    C211697   0.660   1.164  13.788 -0.6762  0.1835  0.0331
  790MPD2    C311698   0.694   1.202  13.660 -0.3433  0.0052 -0.5233
  790MPD2    C411699   0.806   1.277  13.643  0.0242 -0.0539 -0.1655
  790MPD2    C511700   0.872   1.322  13.756 -0.0331  0.4180 -0.1425
  790MPD2     H11701   0.587   1.085  13.800  0.3012 -0.6398  0.5276
  790MPD2    H111702   0.843   1.315  13.548 -3.3159 -0.0396 -1.5033
  790MPD2    H211703   0.886   1.321  13.975  1.2142  0.9378 -1.6863
  790MPD2    H311704   0.961   1.380  13.732  1.3538 -1.4380  0.4833
  790MPD2     N11705   0.614   1.161  13.551  0.6769 -0.4059  0.2568
  790MPD2    H511706   0.548   1.084  13.555  1.8684 -1.3232  1.8193
  790MPD2    N111707   0.685   1.181  14.038  0.5215 -0.0441 -0.2345
  790MPD2    H711708   0.743   1.208  14.117  1.3641 -2.2567 -0.0839
  791MPD2     C11709   0.015   1.213  13.027  0.9908 -0.0896 -0.9777
  791MPD2    C111710   0.046   1.105  13.104  0.4964  0.2730  0.5136
  791MPD2    C211711   4.682   1.017  13.129  0.4119 -0.4690 -0.5506
  791MPD2    C311712   4.555   1.034  13.084  0.5341 -0.1672  0.9264
  791MPD2    C411713   4.521   1.140  13.006 -1.0678  0.3642 -0.3960
  791MPD2    C511714   4.616   1.230  12.978 -0.4213  0.0152  0.2851
  791MPD2     H11715   4.698   0.924  13.183 -1.4458 -2.1677 -2.9535
  791MPD2    H111716   4.423   1.148  12.961 -0.9525  2.0163 -0.3727
  791MPD2    H211717   0.091   1.286  13.002 -0.9522  1.5922 -1.9065
  791MPD2    H311718   4.594   1.325  12.931  1.1782 -0.0957 -0.6781
  791MPD2     N11719   4.458   0.926  13.103  0.6160  0.6128 -0.0875
  791MPD2    H511720   4.478   0.838  13.149 -0.4128 -0.3361 -1.4300
  791MPD2    N111721   0.181   1.098  13.149 -0.0614  0.3841  0.5756
  791MPD2    H711722   0.248   1.162  13.106  0.2405 -1.4101 -1.6464
  792MPD2     C11723   0.435   1.877  10.965  0.1053 -0.5600  0.8804
  792MPD2    C111724   0.335   1.931  10.897  0.6916  0.0196  0.4468
  792MPD2    C211725   0.218   1.944  10.964 -0.4780 -0.4693 -0.0904
  792MPD2    C311726   0.190   1.886  11.083  0.4510  0.2966 -0.1731
  792MPD2    C411727   0.293   1.835  11.147  0.5942 -0.3364  0.3545
  792MPD2    C511728   0.415   1.825  11.088 -0.3901 -0.3864  0.0796
  792MPD2     H11729   0.134   1.999  10.923  0.5856  0.2526 -1.2769
  792MPD2    H111730   0.266   1.800  11.247  0.7700  1.8119  1.1477
  792MPD2    H211731   0.531   1.857  10.919 -0.2499 -1.9746  0.7550
  792MPD2    H311732   0.497   1.789  11.149  1.9399  1.7341 -1.8001
  792MPD2     N11733   0.068   1.893  11.153  0.5105 -0.5362 -0.1604
  792MPD2    H511734   0.068   1.852  11.246  0.3134 -0.6097 -0.1913
  792MPD2    N111735   0.349   1.961  10.757 -0.2540  0.8852  0.0087
  792MPD2    H711736   0.443   1.960  10.718 -1.1531  2.2433 -2.2004
  793MPD2     C11737   3.987   1.907  10.638 -0.1641  0.2090 -0.8665
  793MPD2    C111738   4.108   1.841  10.622  1.1800 -0.4991 -0.0521
  793MPD2    C211739   4.191   1.831  10.732 -0.2335  1.4498  0.1136
  793MPD2    C311740   4.148   1.888  10.852 -1.1308  0.2826  0.1981
  793MPD2    C411741   4.031   1.955  10.862  0.1576 -0.2409 -0.5344
  793MPD2    C511742   3.944   1.949  10.754  0.0065  0.2368  0.3731
  793MPD2     H11743   4.286   1.780  10.722 -0.6425  0.8401 -0.6725
  793MPD2    H111744   3.991   1.998  10.954  0.4559 -1.0535 -0.0238
  793MPD2    H211745   3.918   1.932  10.559 -1.3139 -0.9973 -0.2398
  793MPD2    H311746   3.843   1.989  10.763  0.0774  0.4389  0.2820
  793MPD2     N11747   4.237   1.897  10.960  0.5620 -0.1335  0.4610
  793MPD2    H511748   4.334   1.867  10.949  0.1152 -1.2005 -0.5631
  793MPD2    N111749   4.160   1.791  10.498 -0.5649  0.0833  0.0913
  793MPD2    H711750   4.257   1.762  10.490 -0.2670  0.5474  2.2520
  794MPD2     C11751   4.551   0.109  16.751  0.4885 -0.7228  0.4352
  794MPD2    C111752   4.524   0.184  16.861 -0.9206  0.1471  0.3491
  794MPD2    C211753   4.439   0.295  16.849  0.3373  0.2067 -0.0425
  794MPD2    C311754   4.385   0.329  16.728  0.1139 -0.1364  0.2243
  794MPD2    C411755   4.418   0.252  16.613  0.5362  0.1925  0.2442
  794MPD2    C511756   4.490   0.136  16.629 -0.4671 -0.4298  0.3133
  794MPD2     H11757   4.416   0.354  16.937  1.2628 -1.1562  1.1284
  794MPD2    H111758   4.389   0.271  16.510 -0.9070  0.7307  0.7501
  794MPD2    H211759   4.622   0.029  16.761 -0.4417 -1.7431 -1.0755
  794MPD2    H311760   4.521   0.080  16.542 -0.7243  1.9086 -1.2851
  794MPD2     N11761   4.327   0.457  16.707 -0.7742  0.5151  0.2308
  794MPD2    H511762   4.322   0.486  16.610 -1.7082 -0.6428 -0.0718
  794MPD2    N111763   4.560   0.147  16.995  0.4775 -0.5129  0.0645
  794MPD2    H711764   4.522   0.206  17.068 -0.3539 -0.8307 -0.1035
  795MPD2     C11765   2.764   2.465  14.104 -0.8697 -0.7421 -0.1894
  795MPD2    C111766   2.772   2.415  13.974 -0.7608 -0.3446  0.5928
  795MPD2    C211767   2.850   2.305  13.950  0.1465 -0.3992  0.4775
  795MPD2    C311768   2.918   2.245  14.051  0.7017  0.4088  0.8978
  795MPD2    C411769   2.909   2.285  14.180  0.1725  0.3264 -0.4605
  795MPD2    C511770   2.840   2.399  14.198 -0.1540 -0.2615 -0.0464
  795MPD2     H11771   2.853   2.255  13.854  0.3956  0.0256  0.2634
  795MPD2    H111772   2.953   2.236  14.266  1.8155  1.8802 -0.4026
  795MPD2    H211773   2.704   2.549  14.136 -0.4296 -0.7120  0.5444
  795MPD2    H311774   2.840   2.437  14.300  0.0020 -0.4820  0.0358
  795MPD2     N11775   2.998   2.126  14.016 -0.1986 -0.8070 -0.1812
  795MPD2    H511776   3.005   2.109  13.916  1.4280 -1.9609  0.1341
  795MPD2    N111777   2.691   2.464  13.864 -0.0920 -0.9848  0.4834
  795MPD2    H711778   2.720   2.441  13.770  0.3754  0.3957  0.2916
  796MPD2     C11779   2.083   4.006  16.039  0.4783 -0.2404  0.3083
  796MPD2    C111780   2.162   4.114  16.057 -0.6395 -0.2346 -0.2851
  796MPD2    C211781   2.150   4.221  15.966 -0.0528  0.2886 -1.2369
  796MPD2    C311782   2.039   4.230  15.885  0.5798 -0.0849  0.2942
  796MPD2    C411783   1.955   4.116  15.877  0.5595 -0.0082 -0.2611
  796MPD2    C511784   1.987   3.997  15.946 -0.1392 -0.0589 -0.2019
  796MPD2     H11785   2.216   4.307  15.966 -0.4023  0.5652  0.0374
  796MPD2    H111786   1.878   4.116  15.800  1.5052  1.7001 -1.2040
  796MPD2    H211787   2.099   3.923  16.107  0.7534 -0.5020 -0.0741
  796MPD2    H311788   1.927   3.907  15.942 -0.7775  0.2425  2.1460
  796MPD2     N11789   2.023   4.345  15.802  0.4321 -0.0650  0.1828
  796MPD2    H511790   2.093   4.418  15.811 -2.2368  2.4992 -0.1998
  796MPD2    N111791   2.275   4.098  16.136  0.7579  0.4961  0.5180
  796MPD2    H711792   2.304   4.005  16.163 -2.0868 -0.5594 -0.1679
  797MPD2     C11793   3.306   3.773  17.294 -0.1178 -0.0744 -0.4234
  797MPD2    C111794   3.243   3.833  17.399  0.0404  0.1576 -0.0690
  797MPD2    C211795   3.120   3.887  17.384 -0.0721 -0.1514 -0.0801
  797MPD2    C311796   3.063   3.897  17.265  0.1875  0.0309 -0.2071
  797MPD2    C411797   3.118   3.841  17.152 -0.1177 -0.0719 -0.3092
  797MPD2    C511798   3.237   3.773  17.174  0.1226  0.0018 -0.0028
  797MPD2     H11799   3.082   3.940  17.470  1.7868 -0.0432  0.6713
  797MPD2    H111800   3.072   3.852  17.054 -0.1496  0.9139 -0.1838
  797MPD2    H211801   3.406   3.731  17.296 -0.5745 -1.0906  1.6291
  797MPD2    H311802   3.292   3.732  17.091  2.7951  1.2597  1.1523
  797MPD2     N11803   2.944   3.983  17.242  0.0006 -0.4385 -0.6883
  797MPD2    H511804   2.919   4.002  17.146 -0.2716 -0.7454 -0.6789
  797MPD2    N111805   3.297   3.822  17.535  0.2935  0.0620 -0.6871
  797MPD2    H711806   3.247   3.882  17.601 -0.6744  1.1745 -2.4020
  798MPD2     C11807   3.013   4.416   0.007  0.5501  1.3919  0.0721
  798MPD2    C111808   2.992   4.295  17.679 -0.0979 -0.3157  0.2277
  798MPD2    C211809   3.081   4.193  17.696 -0.1733  0.2386  0.0641
  798MPD2    C311810   3.193   4.211   0.045  1.1245 -0.0688  0.1570
  798MPD2    C411811   3.218   4.337   0.107  0.2997  0.0297 -0.0706
  798MPD2    C511812   3.124   4.436   0.086  0.2424  0.2537 -0.3630
  798MPD2     H11813   3.068   4.092  17.660  1.4842 -0.1272  0.4782
  798MPD2    H111814   3.289   4.343   0.188 -1.7220  0.4817  1.6771
  798MPD2    H211815   2.951   4.503  17.726  0.4004  1.6444  2.0814
  798MPD2    H311816   3.127   4.519   0.156  0.7011 -0.9521  1.0345
  798MPD2     N11817   3.272   4.103   0.064 -0.8692 -0.5336  0.0822
  798MPD2    H511818   3.239   4.015   0.026  0.9039 -1.7416  1.3437
  798MPD2    N111819   2.883   4.274  17.594  0.0972  0.0597  0.0109
  798MPD2    H711820   2.870   4.179  17.561 -1.4411 -0.0214  0.8539
  799MPD2     C11821   2.515   0.412  14.318  0.1046  0.0624  0.8850
  799MPD2    C111822   2.385   0.420  14.367  0.2803 -0.6263 -0.7775
  799MPD2    C211823   2.307   0.522  14.326  0.2628  0.4498  0.6475
  799MPD2    C311824   2.346   0.605  14.217 -0.3246 -0.3487  0.1581
  799MPD2    C411825   2.474   0.590  14.162  0.0607  0.1516  0.3936
  799MPD2    C511826   2.555   0.492  14.218 -0.7982 -0.2850 -0.3182
  799MPD2     H11827   2.206   0.512  14.364  0.5829 -0.0493  1.3557
  799MPD2    H111828   2.507   0.671  14.098 -1.6571 -0.1811 -0.9161
  799MPD2    H211829   2.583   0.332  14.344  1.4146  1.3281  1.3127
  799MPD2    H311830   2.649   0.476  14.167 -0.5058 -1.4933  0.6029
  799MPD2     N11831   2.266   0.701  14.152 -0.8025 -0.6450 -0.4329
  799MPD2    H511832   2.307   0.763  14.083  0.5777 -2.0876 -0.9422
  799MPD2    N111833   2.329   0.336  14.468  0.0380  0.3552  0.4612
  799MPD2    H711834   2.233   0.357  14.494 -0.2863  0.6142 -0.9847
  800MPD2     C11835   2.324   1.791  14.401  0.2242 -0.0771  0.6388
  800MPD2    C111836   2.425   1.759  14.321 -0.2263 -0.0683  0.1074
  800MPD2    C211837   2.391   1.660  14.221  0.1305 -1.1604 -0.0728
  800MPD2    C311838   2.276   1.583  14.222 -0.1457  0.2378 -0.7029
  800MPD2    C411839   2.179   1.609  14.313  0.6792 -0.1590  0.0612
  800MPD2    C511840   2.203   1.720  14.390 -0.0014  0.0813  0.0502
  800MPD2     H11841   2.461   1.653  14.138  1.6440  1.6079  0.9338
  800MPD2    H111842   2.087   1.556  14.332 -1.0765  1.9620 -2.4348
  800MPD2    H211843   2.352   1.855  14.484  1.0583 -1.6329  1.5644
  800MPD2    H311844   2.135   1.720  14.474 -0.1320  0.3647 -0.0568
  800MPD2     N11845   2.258   1.487  14.116 -0.5775 -0.4509 -0.4145
  800MPD2    H511846   2.333   1.477  14.048  1.1438 -0.1452  1.4216
  800MPD2    N111847   2.556   1.817  14.320 -0.0037  0.6593  0.1770
  800MPD2    H711848   2.629   1.776  14.263 -0.6945 -2.6249  1.6466
  801MPD2     C11849   2.668   2.286  14.897 -0.2320  0.0915 -0.9232
  801MPD2    C111850   2.621   2.268  14.768 -0.2761 -0.4868 -0.8844
  801MPD2    C211851   2.493   2.308  14.742  0.1435 -0.1000  0.2691
  801MPD2    C311852   2.414   2.377  14.837 -0.5186 -0.0221  0.0793
  801MPD2    C411853   2.466   2.399  14.960 -0.0337  0.7632 -0.2348
  801MPD2    C511854   2.592   2.356  14.992 -0.0970 -0.1444 -0.1424
  801MPD2     H11855   2.470   2.294  14.637 -1.5631 -0.2063  0.6592
  801MPD2    H111856   2.409   2.453  15.035 -1.1704 -1.8730  0.7989
  801MPD2    H211857   2.766   2.248  14.922 -0.7111 -0.5363  0.0161
  801MPD2    H311858   2.636   2.369  15.090  0.6098  1.2596 -0.6403
  801MPD2     N11859   2.282   2.422  14.807  0.0156 -0.4311 -0.3316
  801MPD2    H511860   2.244   2.487  14.874  0.7367 -0.4762  0.1178
  801MPD2    N111861   2.689   2.211  14.662  0.3705  0.3163 -0.2159
  801MPD2    H711862   2.627   2.184  14.586  1.5880 -0.9575 -0.7798
  802MPD2     C11863   1.505   2.532  17.173  0.2297  0.0752  0.0611
  802MPD2    C111864   1.579   2.565  17.285 -0.2063 -0.0446 -0.3917
  802MPD2    C211865   1.699   2.499  17.310 -0.6863 -0.6762 -0.8282
  802MPD2    C311866   1.750   2.403  17.221 -0.0079  0.2655 -0.8612
  802MPD2    C411867   1.676   2.365  17.110  0.0210 -0.6325 -0.3648
  802MPD2    C511868   1.559   2.437  17.087  0.2229  0.4400  0.6662
  802MPD2     H11869   1.767   2.533  17.387  0.1973  0.6340 -2.1623
  802MPD2    H111870   1.717   2.296  17.037 -1.4795 -2.5587  0.6291
  802MPD2    H211871   1.426   2.597  17.135 -0.5467 -1.5602 -1.1207
  802MPD2    H311872   1.500   2.413  16.999 -1.4396 -0.3822  1.9936
  802MPD2     N11873   1.871   2.340  17.252 -0.4149 -0.1561  0.3176
  802MPD2    H511874   1.908   2.350  17.346  1.1136  0.1199 -0.3046
  802MPD2    N111875   1.547   2.662  17.376 -0.0899 -0.7609 -0.6095
  802MPD2    H711876   1.603   2.661  17.460 -0.6949 -1.9345 -0.2233
  803MPD2     C11877   2.746   0.801  12.113  0.1266 -0.6125 -0.0132
  803MPD2    C111878   2.814   0.917  12.084 -0.2805 -0.1200 -0.5486
  803MPD2    C211879   2.897   0.980  12.178  1.2243 -0.4998 -0.3965
  803MPD2    C311880   2.914   0.921  12.310 -0.2019 -0.9391  0.8287
  803MPD2    C411881   2.848   0.795  12.329  0.1434 -0.4127 -0.6392
  803MPD2    C511882   2.774   0.742  12.236 -0.4424 -0.2662 -0.0029
  803MPD2     H11883   2.936   1.076  12.147 -1.9075  1.0235  0.4030
  803MPD2    H111884   2.853   0.740  12.422 -1.0571 -1.5914 -1.2680
  803MPD2    H211885   2.677   0.751  12.045  0.2630  1.2949 -1.5585
  803MPD2    H311886   2.728   0.646  12.255  0.6987 -0.3225  2.4581
  803MPD2     N11887   3.006   0.965  12.404 -0.1886 -0.3131 -0.5363
  803MPD2    H511888   3.026   0.894  12.473 -2.2197 -0.2176  0.1376
  803MPD2    N111889   2.796   0.978  11.957 -0.5453  0.0266  0.6126
  803MPD2    H711890   2.837   1.070  11.943 -2.2156  0.8294  0.9559
  804MPD2     C11891   2.727   2.322  17.146  0.1476  0.0673 -0.0180
  804MPD2    C111892   2.725   2.310  17.278 -0.1448  0.2099 -0.6063
  804MPD2    C211893   2.768   2.418  17.355  0.4903  0.2687  0.2607
  804MPD2    C311894   2.829   2.530  17.300 -0.4406 -0.4322  0.1838
  804MPD2    C411895   2.820   2.542  17.168  0.1897  0.5834  0.0983
  804MPD2    C511896   2.772   2.438  17.094 -0.3206  0.7160  0.7803
  804MPD2     H11897   2.760   2.423  17.463  2.0820  2.1893  0.2945
  804MPD2    H111898   2.823   2.636  17.114 -2.5540 -0.6184 -2.1731
  804MPD2    H211899   2.681   2.253  17.077 -1.2784  1.8639 -0.8759
  804MPD2    H311900   2.791   2.449  16.987  1.5954  0.4509  1.0915
  804MPD2     N11901   2.901   2.620  17.381  0.6105  0.3799  0.5602
  804MPD2    H511902   2.884   2.609  17.480 -2.4513 -0.4074 -0.0600
  804MPD2    N111903   2.677   2.200  17.351 -0.3303 -0.3693  0.2096
  804MPD2    H711904   2.699   2.193  17.450 -0.0782 -1.3441  0.0866
  805MPD2     C11905   1.549   0.897  16.033  0.1838 -0.3538 -0.7637
  805MPD2    C111906   1.664   0.889  15.960 -0.3189  0.1963  0.2735
  805MPD2    C211907   1.782   0.919  16.025 -0.0630  0.2597  0.2691
  805MPD2    C311908   1.777   0.971  16.156  0.1988 -0.2094 -0.0748
  805MPD2    C411909   1.661   0.979  16.225  0.2620  0.3101 -0.2763
  805MPD2    C511910   1.544   0.949  16.161  0.7249 -0.8595 -0.3970
  805MPD2     H11911   1.882   0.922  15.982  0.2946 -1.7157  0.9060
  805MPD2    H111912   1.644   1.001  16.330  3.1564  0.1899  0.2196
  805MPD2    H211913   1.451   0.876  15.992  0.1473 -1.6656  0.0022
  805MPD2    H311914   1.449   0.955  16.212  2.4819 -0.7640  2.8588
  805MPD2     N11915   1.893   1.022  16.222  0.1606 -0.9698  0.1357
  805MPD2    H511916   1.871   1.061  16.314 -1.1328 -1.4063  0.0040
  805MPD2    N111917   1.664   0.872  15.821 -0.9207 -0.7772 -0.2384
  805MPD2    H711918   1.757   0.860  15.783 -0.8204  0.5116 -0.3769
  806MPD2     C11919   1.902   0.373   0.075  0.5191 -0.1657 -0.3770
  806MPD2    C111920   1.911   0.454   0.186  0.3793  1.0433  0.2271
  806MPD2    C211921   1.988   0.569   0.173 -0.0578  0.0910 -0.0792
  806MPD2    C311922   2.058   0.599   0.058 -0.3626  0.2792 -0.1975
  806MPD2    C411923   2.056   0.515  17.685  0.7478 -0.2617  0.3179
  806MPD2    C511924   1.974   0.408  17.697 -0.0372 -0.4757  0.2967
  806MPD2     H11925   2.011   0.631   0.259  2.0609 -1.8565  0.7814
  806MPD2    H111926   2.111   0.534  17.594 -0.9385  1.5416 -0.2896
  806MPD2    H211927   1.840   0.285   0.068 -0.5891  0.4567  1.7116
  806MPD2    H311928   1.970   0.346  17.608  1.8024 -0.3639  0.1402
  806MPD2     N11929   2.127   0.721   0.061 -0.1204  0.2332 -0.0303
  806MPD2    H511930   2.118   0.785   0.139 -0.9954  0.0731  0.0100
  806MPD2    N111931   1.843   0.416   0.309  0.2478  0.9843 -0.2005
  806MPD2    H711932   1.784   0.334   0.310  0.4047  0.8492 -1.8473
  807MPD2     C11933   1.663   4.475   0.591  0.1290 -0.5229  0.0399
  807MPD2    C111934   1.703   4.543   0.704 -0.1910 -0.0236  0.6959
  807MPD2    C211935   1.709   4.477   0.824 -0.6305 -0.3259 -0.4077
  807MPD2    C311936   1.650   4.359   0.850 -0.6180 -0.0485  0.0110
  807MPD2    C411937   1.593   4.292   0.741 -0.2976 -0.0776  0.0313
  807MPD2    C511938   1.599   4.354   0.614 -0.1397  0.1113 -0.6358
  807MPD2     H11939   1.751   4.517   0.916 -0.3926 -0.2594 -0.5452
  807MPD2    H111940   1.555   4.191   0.746  0.4105 -0.5105 -3.6416
  807MPD2    H211941   1.663   4.520   0.492  0.7167  1.4914  0.9515
  807MPD2    H311942   1.561   4.308   0.524 -0.3436 -0.5382 -0.2180
  807MPD2     N11943   1.671   4.301   0.982 -0.0780 -0.2417 -0.2315
  807MPD2    H511944   1.725   4.358   1.046  1.2202 -1.4907 -0.2155
  807MPD2    N111945   1.751   4.676   0.692 -0.2769 -0.0280  0.6515
  807MPD2    H711946   1.782   4.717   0.780 -2.0002  0.5961  0.9661
  808MPD2     C11947   2.699   1.965   9.785 -0.1193  0.0620  0.4077
  808MPD2    C111948   2.637   2.016   9.668  0.1448 -0.2618 -0.1880
  808MPD2    C211949   2.635   2.153   9.651  0.7232  0.1147  0.6436
  808MPD2    C311950   2.687   2.240   9.751  0.3782 -0.4226 -0.5374
  808MPD2    C411951   2.737   2.191   9.869  0.2771  0.2892 -0.0475
  808MPD2    C511952   2.759   2.053   9.882  0.5260 -0.3153 -0.1663
  808MPD2     H11953   2.582   2.184   9.561  1.4768  0.6053  0.3713
  808MPD2    H111954   2.781   2.252   9.947 -2.0646  0.5363  1.0705
  808MPD2    H211955   2.724   1.860   9.798 -1.2403 -0.1528  0.8509
  808MPD2    H311956   2.825   2.007   9.956  0.8981 -1.4200 -1.1814
  808MPD2     N11957   2.686   2.386   9.739  0.1816 -0.4515  0.3785
  808MPD2    H511958   2.724   2.441   9.815 -0.3121  0.6788 -0.1830
  808MPD2    N111959   2.570   1.930   9.574  0.5715  0.6813  0.7049
  808MPD2    H711960   2.527   1.977   9.494  1.1814  0.6188  0.3411
  809MPD2     C11961   3.244   2.858   9.159  0.6263  0.4934 -0.4574
  809MPD2    C111962   3.239   2.924   9.289  1.1002  0.2680  0.7523
  809MPD2    C211963   3.129   2.906   9.365 -0.4762 -0.2864 -0.2556
  809MPD2    C311964   3.012   2.843   9.314 -0.5164 -0.2263  0.4512
  809MPD2    C411965   3.013   2.790   9.188 -0.2223  0.1341 -0.3639
  809MPD2    C511966   3.135   2.792   9.111  0.0065 -0.3938 -0.0233
  809MPD2     H11967   3.125   2.953   9.463 -0.6194 -0.2377 -0.2854
  809MPD2    H111968   2.924   2.752   9.140 -0.0490 -0.3140 -0.3301
  809MPD2    H211969   3.324   2.865   9.086 -1.0370  1.3330 -2.1862
  809MPD2    H311970   3.127   2.746   9.013 -2.1311 -0.6498  0.2730
  809MPD2     N11971   2.901   2.818   9.401 -0.0026  0.6715 -0.2159
  809MPD2    H511972   2.827   2.764   9.356  1.5788 -0.1643 -1.7888
  809MPD2    N111973   3.340   3.006   9.338 -0.4889  0.2101 -0.3608
  809MPD2    H711974   3.339   3.032   9.436  0.2872 -1.7834  0.1755
  810MPD2     C11975   1.845   1.350  10.609 -0.0235  0.0649 -0.1599
  810MPD2    C111976   1.824   1.379  10.479  0.1563  0.3135  0.6238
  810MPD2    C211977   1.839   1.509  10.430 -0.2870  0.1243  0.2430
  810MPD2    C311978   1.872   1.619  10.515 -0.1134  0.3871 -0.0571
  810MPD2    C411979   1.894   1.584  10.643  0.0275 -0.1834 -0.1808
  810MPD2    C511980   1.878   1.454  10.689 -0.0645  0.2506  0.2285
  810MPD2     H11981   1.822   1.530  10.325 -0.3716  0.2628  0.2850
  810MPD2    H111982   1.903   1.662  10.717  0.1153 -0.7742  0.4303
  810MPD2    H211983   1.836   1.244  10.633  1.2704 -0.3768 -1.6326
  810MPD2    H311984   1.900   1.439  10.794 -0.5409 -2.2631 -0.0292
  810MPD2     N11985   1.859   1.757  10.480  0.2422 -0.8710 -0.4641
  810MPD2    H511986   1.851   1.821  10.559  2.7582 -0.8061 -0.2477
  810MPD2    N111987   1.773   1.273  10.390 -0.0480  0.1344  0.0578
  810MPD2    H711988   1.732   1.198  10.446 -0.2449  1.0097  1.0844
  811MPD2     C11989   1.359   1.341   9.694  0.6526  0.1070 -0.1016
  811MPD2    C111990   1.428   1.388   9.801  0.1308 -0.7413  0.2636
  811MPD2    C211991   1.462   1.522   9.806  0.1033 -0.2841  0.1204
  811MPD2    C311992   1.420   1.605   9.696  0.8006  0.1974 -0.2074
  811MPD2    C411993   1.358   1.548   9.584 -0.0743 -0.3225 -0.2353
  811MPD2    C511994   1.326   1.412   9.587  0.3881 -0.4689  0.0562
  811MPD2     H11995   1.512   1.565   9.891 -1.9864  1.3818  0.5115
  811MPD2    H111996   1.346   1.610   9.496  0.1615  0.2472  0.1251
  811MPD2    H211997   1.346   1.233   9.689  0.2241  0.2568 -2.0943
  811MPD2    H311998   1.278   1.353   9.509 -3.1021  2.4593  0.0206
  811MPD2     N11999   1.451   1.745   9.699  0.0133  0.2857  0.7134
  811MPD2    H512000   1.501   1.794   9.772  1.6596  0.2204 -0.3854
  811MPD2    N112001   1.476   1.305   9.897  0.4614 -0.7142 -0.1845
  811MPD2    H712002   1.525   1.351   9.973  0.4262 -1.0669  0.0477
  812MPD2     C12003   0.982   1.270  11.755 -0.5164  0.6333 -0.0283
  812MPD2    C112004   0.913   1.364  11.829  0.5535 -0.7602  0.0540
  812MPD2    C212005   0.893   1.342  11.965 -0.1367 -0.2395 -0.0890
  812MPD2    C312006   0.942   1.224  12.022 -0.6267  0.0344 -0.1980
  812MPD2    C412007   1.017   1.128  11.944 -0.7137 -0.3034  0.3155
  812MPD2    C512008   1.019   1.149  11.811 -0.1434 -0.6164  0.7183
  812MPD2     H12009   0.837   1.404  12.034  1.5883  1.8546 -0.5808
  812MPD2    H112010   1.070   1.040  11.979  0.2027  0.9678  2.1557
  812MPD2    H212011   0.992   1.284  11.648 -1.0958  1.1358 -0.0172
  812MPD2    H312012   1.073   1.078  11.749  1.3961  0.3752  0.9322
  812MPD2     N12013   0.920   1.206  12.160  0.1733  0.8053 -0.1307
  812MPD2    H512014   0.868   1.278  12.208 -0.5535 -0.1155  0.4641
  812MPD2    N112015   0.868   1.485  11.760  0.3729 -0.7547  0.4488
  812MPD2    H712016   0.902   1.505  11.667  0.5062 -1.0551  0.4342
  813MPD2     C12017   0.809   3.106  12.934 -0.2584 -0.1766 -0.5234
  813MPD2    C112018   0.738   3.225  12.913 -0.0109  0.9871  0.6294
  813MPD2    C212019   0.618   3.239  12.980  0.4835 -0.3261  0.3092
  813MPD2    C312020   0.577   3.146  13.070 -0.2231 -0.3681 -0.0466
  813MPD2    C412021   0.648   3.033  13.093 -0.4526  0.1658  0.6512
  813MPD2    C512022   0.769   3.013  13.027 -0.6206  0.4325 -0.1792
  813MPD2     H12023   0.563   3.333  12.979  0.6169 -0.2404  0.7272
  813MPD2    H112024   0.613   2.955  13.159  0.4447 -0.6395  0.1650
  813MPD2    H212025   0.903   3.084  12.886  0.6149  0.0185  1.0864
  813MPD2    H312026   0.826   2.922  13.046  0.7469  1.1983 -0.5964
  813MPD2     N12027   0.452   3.174  13.139  0.2893 -0.4085 -0.4633
  813MPD2    H512028   0.407   3.263  13.119  0.2088 -0.3022  0.2137
  813MPD2    N112029   0.791   3.318  12.824  0.0552 -0.9296  0.1052
  813MPD2    H712030   0.883   3.298  12.787 -1.3283  0.0073 -3.7680
  814MPD2     C12031   0.875   4.460  12.315  0.6499 -0.0882  0.0610
  814MPD2    C112032   0.808   4.513  12.208 -0.3508 -0.3704 -0.3083
  814MPD2    C212033   0.821   4.648  12.178 -0.2540 -0.3436  0.5303
  814MPD2    C312034   0.893   4.732  12.263  0.2292  0.7181 -0.3617
  814MPD2    C412035   0.964   4.675  12.364  0.6723 -0.2041  0.5913
  814MPD2    C512036   0.953   4.541  12.389  0.0842  0.0560 -0.2480
  814MPD2     H12037   0.759   4.692  12.101  1.7455  0.9822 -0.3231
  814MPD2    H112038   1.018   0.003  12.434  0.6497 -2.0500  2.2292
  814MPD2    H212039   0.871   4.353  12.330 -0.9159  0.2356  2.0284
  814MPD2    H312040   1.006   4.504  12.476  0.3745 -1.1064 -0.9258
  814MPD2     N12041   0.894   0.145  12.257 -0.5111 -0.1345 -0.2768
  814MPD2    H512042   0.950   0.198  12.323 -2.3779 -0.7175  1.7717
  814MPD2    N112043   0.729   4.433  12.116 -0.6761  0.1467  0.0789
  814MPD2    H712044   0.697   4.481  12.033  0.8329  1.0564  0.0079
  815MPD2     C12045   1.214   3.099  11.623  0.1326  0.0286 -0.2093
  815MPD2    C112046   1.124   3.027  11.544  0.5369 -0.7644  0.3716
  815MPD2    C212047   1.007   2.978  11.596 -0.3043  0.4193 -0.5385
  815MPD2    C312048   0.973   3.014  11.726  0.0502 -0.0679 -0.1335
  815MPD2    C412049   1.064   3.089  11.800  0.4397 -0.1226 -0.1857
  815MPD2    C512050   1.181   3.134  11.746  0.6484  0.3119  0.3221
  815MPD2     H12051   0.943   2.910  11.541  0.6566 -0.1268 -0.9967
  815MPD2    H112052   1.041   3.109  11.904 -1.5648 -1.0165 -0.4457
  815MPD2    H212053   1.313   3.132  11.594  0.9215 -2.1535 -0.0210
  815MPD2    H312054   1.256   3.187  11.803 -1.0852  1.0696  1.9351
  815MPD2     N12055   0.858   2.951  11.779 -0.7359 -0.5878  0.1239
  815MPD2    H512056   0.815   2.877  11.725  0.6180 -0.0016 -1.7295
  815MPD2    N112057   1.166   2.994  11.414  0.2507 -0.4016 -0.1749
  815MPD2    H712058   1.256   3.030  11.384  0.7480 -1.7836 -0.3090
  816MPD2     C12059   1.032   1.959  17.396  0.6100  0.2243 -0.0065
  816MPD2    C112060   1.090   2.077  17.433 -0.5513  0.3115 -0.2465
  816MPD2    C212061   1.202   2.109  17.366 -0.5750  0.3338  0.0380
  816MPD2    C312062   1.256   2.035  17.263 -0.0881 -0.2424  0.3982
  816MPD2    C412063   1.193   1.917  17.224 -0.3961 -0.0275 -1.1936
  816MPD2    C512064   1.083   1.876  17.299 -0.0722  0.1916  0.3699
  816MPD2     H12065   1.244   2.207  17.384 -1.8113  1.3383 -2.6615
  816MPD2    H112066   1.238   1.849  17.153  1.6856 -0.7970  0.8936
  816MPD2    H212067   0.947   1.910  17.442 -0.2406  2.1574  0.4944
  816MPD2    H312068   1.035   1.780  17.284 -0.3068  0.4949 -0.8296
  816MPD2     N12069   1.377   2.071  17.205  0.0345 -0.2534  0.6341
  816MPD2    H512070   1.419   2.143  17.263 -0.6377  1.3732 -0.9152
  816MPD2    N112071   1.026   2.163  17.527 -0.4471 -0.5575  0.0621
  816MPD2    H712072   0.927   2.149  17.545 -0.3995  0.1185  0.8159
  817MPD2     C12073   0.598   4.285  10.060 -0.1980  0.0468 -0.6286
  817MPD2    C112074   0.599   4.273   9.921  0.3122  0.5213 -0.0040
  817MPD2    C212075   0.557   4.380   9.847  0.4174  0.0878  0.3598
  817MPD2    C312076   0.517   4.497   9.898  0.3733 -0.4727  0.4333
  817MPD2    C412077   0.508   4.507  10.037 -0.0201  0.3219 -0.5119
  817MPD2    C512078   0.546   4.402  10.110 -0.6202  0.6174  0.1607
  817MPD2     H12079   0.574   4.375   9.739  0.5804 -2.8338  0.5062
  817MPD2    H112080   0.480   4.602  10.081 -2.9787  0.2244 -2.1432
  817MPD2    H212081   0.642   4.210  10.123 -0.7100  0.7240  0.5267
  817MPD2    H312082   0.542   4.407  10.218 -0.4651  0.3786  0.1769
  817MPD2     N12083   0.476   4.602   9.812  0.5573  0.4812 -0.3932
  817MPD2    H512084   0.488   4.574   9.715 -0.5687 -0.4161 -0.2745
  817MPD2    N112085   0.629   4.152   9.854 -0.5293 -0.1833  0.5050
  817MPD2    H712086   0.604   4.143   9.756  0.6508 -2.0068  0.3616
  818MPD2     C12087   4.281   4.254  10.301  0.3985  0.5534 -0.8281
  818MPD2    C112088   4.287   4.194  10.417 -0.3604  0.5519  1.1255
  818MPD2    C212089   4.314   4.061  10.433 -0.1296  0.2093 -0.8007
  818MPD2    C312090   4.312   3.984  10.316 -0.2248  0.5533  0.4218
  818MPD2    C412091   4.305   4.039  10.194  0.3204 -0.4124 -0.0969
  818MPD2    C512092   4.290   4.171  10.190  0.2020 -0.5354 -0.3058
  818MPD2     H12093   4.327   4.022  10.533  2.0718 -0.2033 -1.2325
  818MPD2    H112094   4.296   3.973  10.109 -1.7786 -0.6745  0.3338
  818MPD2    H212095   4.279   4.360  10.283 -0.5083  0.8067  0.8419
  818MPD2    H312096   4.253   4.224  10.103 -0.0733  0.1615  0.2350
  818MPD2     N12097   4.323   3.842  10.316  0.1499 -0.4769 -0.0309
  818MPD2    H512098   4.317   3.797  10.226  3.1142  0.5553 -0.7496
  818MPD2    N112099   4.257   4.263  10.536 -0.2718 -0.2576 -0.2870
  818MPD2    H712100   4.244   4.205  10.619 -0.0717 -0.5692 -0.4721
  819MPD2     C12101   2.533   0.552  15.624  0.9919 -0.3690  0.3706
  819MPD2    C112102   2.561   0.435  15.560 -0.1746 -0.1121 -0.6856
  819MPD2    C212103   2.653   0.349  15.622 -0.3925  0.1760  0.2377
  819MPD2    C312104   2.701   0.374  15.751 -0.2918 -0.3995  0.0967
  819MPD2    C412105   2.659   0.485  15.823 -0.7971  0.3986 -0.0759
  819MPD2    C512106   2.586   0.581  15.747  0.5056 -0.9411 -0.5651
  819MPD2     H12107   2.690   0.260  15.572  1.3952  1.8762 -1.4863
  819MPD2    H112108   2.690   0.517  15.921 -0.9587  2.1967 -0.6172
  819MPD2    H212109   2.468   0.627  15.580 -1.0609 -1.4938  1.4886
  819MPD2    H312110   2.559   0.672  15.800  0.9384 -0.8246 -0.5455
  819MPD2     N12111   2.803   0.291  15.804  0.6390  0.1850  0.5851
  819MPD2    H512112   2.863   0.240  15.739  1.5338 -0.9015  2.2394
  819MPD2    N112113   2.506   0.403  15.434 -0.1205 -0.1613  0.0654
  819MPD2    H712114   2.434   0.467  15.402  1.1954  1.7961  0.9459
  820MPD2     C12115   2.012   0.941  15.073  0.1853  0.2435  0.8221
  820MPD2    C112116   1.970   0.842  15.152 -0.3336 -0.2779 -0.1015
  820MPD2    C212117   2.043   0.719  15.156  0.9183 -0.5069  0.1593
  820MPD2    C312118   2.151   0.700  15.082 -0.9132  0.2065  0.0335
  820MPD2    C412119   2.204   0.806  15.009  0.2486 -0.0670 -0.2124
  820MPD2    C512120   2.135   0.924  15.006 -0.5856 -0.3380 -0.4252
  820MPD2     H12121   2.001   0.649  15.227 -0.1605 -1.0822 -1.0322
  820MPD2    H112122   2.291   0.793  14.945 -0.9983 -1.4134 -1.6244
  820MPD2    H212123   1.968   1.040  15.068 -1.5602 -0.4729  2.0784
  820MPD2    H312124   2.175   1.005  14.946  0.1572  0.2096  0.8046
  820MPD2     N12125   2.217   0.573  15.082 -0.3298 -0.2645  0.4335
  820MPD2    H512126   2.312   0.574  15.046 -1.1043  1.4097 -1.5670
  820MPD2    N112127   1.861   0.874  15.233 -0.1607 -0.2577  0.2190
  820MPD2    H712128   1.805   0.957  15.215 -0.8608 -0.4187  1.6339
  821MPD2     C12129   2.270   1.750  13.448  1.0864  0.4968  0.2582
  821MPD2    C112130   2.371   1.672  13.496 -0.6760  0.1028  1.5511
  821MPD2    C212131   2.495   1.689  13.445 -0.7530 -0.4961  0.0215
  821MPD2    C312132   2.517   1.759  13.328 -0.0198  1.1848 -0.2309
  821MPD2    C412133   2.421   1.840  13.278 -0.2288 -0.2543 -0.1394
  821MPD2    C512134   2.294   1.828  13.335 -0.1058 -0.1293  0.1787
  821MPD2     H12135   2.578   1.635  13.490 -0.6074 -1.5532 -1.5058
  821MPD2    H112136   2.435   1.915  13.200 -0.0241 -0.1950 -0.0467
  821MPD2    H212137   2.168   1.745  13.483  0.5548 -0.6510 -1.4147
  821MPD2    H312138   2.214   1.892  13.299 -0.9448 -0.8721  0.7082
  821MPD2     N12139   2.647   1.763  13.259  0.0637 -0.1337  0.4579
  821MPD2    H512140   2.671   1.834  13.191  1.2630 -0.7469  0.2398
  821MPD2    N112141   2.361   1.588  13.608 -0.2090 -0.7484 -0.1549
  821MPD2    H712142   2.449   1.552  13.644 -1.1225 -1.5189  1.3162
  822MPD2     C12143   3.432   1.835  15.936 -0.4399  0.0722 -0.6175
  822MPD2    C112144   3.450   1.795  16.065 -0.1533 -0.5517 -0.6354
  822MPD2    C212145   3.374   1.854  16.163 -0.3022 -0.4907  0.1867
  822MPD2    C312146   3.273   1.948  16.139  0.0492 -0.2739 -0.3849
  822MPD2    C412147   3.244   1.974  16.008  0.3292 -0.3667 -0.1079
  822MPD2    C512148   3.325   1.924  15.910 -0.7064  0.3080 -0.3471
  822MPD2     H12149   3.397   1.828  16.266 -1.6441  1.7088  1.0380
  822MPD2    H112150   3.176   2.055  15.986 -0.4678 -1.1766 -0.6252
  822MPD2    H212151   3.485   1.796  15.849 -1.2417  0.4360 -1.2618
  822MPD2    H312152   3.313   1.945  15.804 -1.1905  0.1547 -0.3211
  822MPD2     N12153   3.198   1.999  16.244  0.2574  0.3890  0.4831
  822MPD2    H512154   3.194   1.951  16.333  0.6525  0.9915  0.8291
  822MPD2    N112155   3.546   1.707  16.109  0.0967 -0.3478  0.6849
  822MPD2    H712156   3.546   1.687  16.208  0.7603 -0.7861  0.5947
  823MPD2     C12157   2.956   1.989  17.056 -0.6486 -0.3468  0.7604
  823MPD2    C112158   3.004   1.947  16.940 -0.5003  0.6101  0.2102
  823MPD2    C212159   3.045   1.811  16.942 -0.2458 -0.0194 -0.0630
  823MPD2    C312160   3.034   1.734  17.058 -0.7566 -0.3428  0.0063
  823MPD2    C412161   2.988   1.787  17.171 -0.4856  0.1877  0.3795
  823MPD2    C512162   2.949   1.920  17.166  0.1577  0.6622 -0.3870
  823MPD2     H12163   3.074   1.767  16.847 -1.8332 -0.6700 -0.2395
  823MPD2    H112164   2.992   1.739  17.268  1.2541  0.1628  0.2938
  823MPD2    H212165   2.911   2.087  17.060 -0.8758 -0.4303  0.3354
  823MPD2    H312166   2.917   1.962  17.260  0.1520 -0.1167 -0.0397
  823MPD2     N12167   3.079   1.600  17.084  0.2647  0.5803 -0.1386
  823MPD2    H512168   3.065   1.560  17.177  0.2771  0.3501 -0.2360
  823MPD2    N112169   3.009   2.039  16.826 -0.0857 -0.3408 -0.3277
  823MPD2    H712170   3.018   2.133  16.863  0.1633  0.3471 -2.1558
  824MPD2     C12171   3.896   0.929  16.058  0.1349  0.0380 -0.5854
  824MPD2    C112172   3.906   1.027  15.964  0.4555  0.4698 -0.7315
  824MPD2    C212173   3.940   0.994  15.834 -0.5313  0.1341 -0.1468
  824MPD2    C312174   3.970   0.860  15.801  0.6819 -0.0594 -0.1095
  824MPD2    C412175   3.967   0.772  15.901  0.4502 -0.3813 -0.2780
  824MPD2    C512176   3.921   0.801  16.027 -0.1828 -0.0687 -0.1220
  824MPD2     H12177   3.963   1.073  15.764 -0.5437  0.3861  0.1363
  824MPD2    H112178   3.972   0.666  15.880 -0.8415 -0.1026 -2.0076
  824MPD2    H212179   3.866   0.941  16.161  0.2152 -0.7602 -0.4658
  824MPD2    H312180   3.905   0.725  16.102 -0.2005 -1.8688 -1.9645
  824MPD2     N12181   4.000   0.819  15.670  0.0821  0.4749 -0.4092
  824MPD2    H512182   4.018   0.892  15.601  2.0444 -1.3913 -1.8807
  824MPD2    N112183   3.871   1.160  16.004  0.1040 -0.4404 -0.1094
  824MPD2    H712184   3.870   1.227  15.927 -1.4149 -0.5204 -0.1493
  825MPD2     C12185   4.206   0.948  14.868 -0.0400 -0.2263  0.7254
  825MPD2    C112186   4.228   0.995  14.993  0.0915  0.2195 -0.1212
  825MPD2    C212187   4.261   1.129  15.016 -0.1577  0.1742 -0.4634
  825MPD2    C312188   4.256   1.215  14.911 -0.1165  0.2316  0.2946
  825MPD2    C412189   4.237   1.170  14.785  0.0408  0.0873 -0.0700
  825MPD2    C512190   4.220   1.038  14.765  0.9324 -0.9743  0.3247
  825MPD2     H12191   4.277   1.158  15.119  1.4953 -1.0922 -0.3647
  825MPD2    H112192   4.224   1.241  14.704 -1.3548 -0.7793 -0.6204
  825MPD2    H212193   4.190   0.842  14.849  0.8602 -0.4193  1.0687
  825MPD2    H312194   4.209   0.983  14.672  0.4941  1.2286 -0.9545
  825MPD2     N12195   4.258   1.356  14.933  0.1586  0.3512  0.8178
  825MPD2    H512196   4.256   1.405  14.844 -1.4579 -0.9466  0.1412
  825MPD2    N112197   4.203   0.899  15.090  0.4669 -0.1769 -0.2592
  825MPD2    H712198   4.185   0.805  15.056  0.0015 -0.5794  1.0819
  826MPD2     C12199   4.052   0.331  13.796 -0.6511 -0.2146 -0.3814
  826MPD2    C112200   4.102   0.459  13.831 -0.5076  0.2062 -0.2641
  826MPD2    C212201   4.011   0.562  13.855 -0.2946 -0.8799  0.0946
  826MPD2    C312202   3.878   0.536  13.856  0.2120  0.3004 -0.2262
  826MPD2    C412203   3.831   0.408  13.828  0.0059  0.0793  1.2902
  826MPD2    C512204   3.919   0.309  13.800 -0.3845 -0.4210  0.0606
  826MPD2     H12205   4.039   0.661  13.890 -1.1859 -0.3754 -0.6237
  826MPD2    H112206   3.723   0.397  13.824 -0.0083  0.2978  1.0250
  826MPD2    H212207   4.121   0.253  13.765  0.9276  2.2829 -3.1545
  826MPD2    H312208   3.873   0.222  13.755 -0.2652 -0.4286 -0.0462
  826MPD2     N12209   3.781   0.638  13.867  0.0436  0.2539 -0.3093
  826MPD2    H512210   3.683   0.612  13.873  0.3317 -0.6880  0.2438
  826MPD2    N112211   4.240   0.488  13.827  0.0296  0.4276 -0.0746
  826MPD2    H712212   4.311   0.417  13.810  0.0803  0.7460 -1.1721
  827MPD2     C12213   4.573   2.736   9.902 -0.0225  0.3973  0.0301
  827MPD2    C112214   4.471   2.697   9.990 -0.1499 -0.1271  0.7478
  827MPD2    C212215   4.337   2.706   9.951  0.0215  0.1071 -0.6912
  827MPD2    C312216   4.307   2.737   9.825  0.4523  0.8055  0.6451
  827MPD2    C412217   4.409   2.772   9.735  0.0107  0.4395  0.0240
  827MPD2    C512218   4.537   2.777   9.776 -0.7518 -0.7342 -0.0616
  827MPD2     H12219   4.252   2.700  10.018 -0.3326 -0.1015 -1.1576
  827MPD2    H112220   4.382   2.811   9.638 -1.3074 -0.3421  0.0806
  827MPD2    H212221   4.679   2.745   9.922  0.1352 -0.0587 -0.6149
  827MPD2    H312222   4.616   2.795   9.704 -1.9191 -1.4853 -1.5358
  827MPD2     N12223   4.172   2.735   9.790  0.1388 -0.1442 -0.4365
  827MPD2    H512224   4.113   2.712   9.869  0.9733 -1.9707 -0.3405
  827MPD2    N112225   4.511   2.651  10.118  0.7198  0.4301  0.3170
  827MPD2    H712226   4.612   2.657  10.130  1.1939 -0.7798 -2.9567
  828MPD2     C12227   3.190   1.941  12.228 -0.5599  0.0904  0.2134
  828MPD2    C112228   3.108   2.020  12.152  0.8445 -0.2399 -0.0334
  828MPD2    C212229   3.068   1.973  12.026 -0.9235  0.0898  0.0049
  828MPD2    C312230   3.115   1.859  11.970  0.5620  0.0070  0.2746
  828MPD2    C412231   3.194   1.778  12.047  0.3680  0.3453  0.6612
  828MPD2    C512232   3.233   1.827  12.168  0.0568  0.2057  0.3186
  828MPD2     H12233   2.993   2.028  11.970 -0.7550 -0.5118 -0.8111
  828MPD2    H112234   3.241   1.688  12.013 -0.9526  0.0947 -0.4997
  828MPD2    H212235   3.226   1.967  12.327 -0.4673  1.0219 -0.0682
  828MPD2    H312236   3.289   1.765  12.238  1.1076  1.5144  0.6321
  828MPD2     N12237   3.078   1.810  11.840 -0.4481 -0.4415  0.3425
  828MPD2    H512238   3.098   1.717  11.805 -0.8204 -0.5875  0.5109
  828MPD2    N112239   3.053   2.145  12.198 -0.1022 -0.0677 -0.6184
  828MPD2    H712240   2.999   2.198  12.131 -1.7167 -0.4823  0.3676
  829MPD2     C12241   2.727   2.794  11.738  0.4859 -0.0998  0.1571
  829MPD2    C112242   2.688   2.837  11.859  0.4923  0.4176 -0.6813
  829MPD2    C212243   2.739   2.774  11.969  0.3497  0.2554  0.5587
  829MPD2    C312244   2.826   2.664  11.959  0.2821 -0.0516 -0.3370
  829MPD2    C412245   2.848   2.611  11.831  0.0657  0.5218 -0.1745
  829MPD2    C512246   2.805   2.683  11.727  0.3468 -0.0972  0.2692
  829MPD2     H12247   2.711   2.804  12.069 -0.2014  1.4156  0.0573
  829MPD2    H112248   2.904   2.519  11.817 -2.3231 -0.8493 -0.8735
  829MPD2    H212249   2.703   2.847  11.647 -1.0808 -0.8880  0.0999
  829MPD2    H312250   2.818   2.648  11.625  1.9611  1.1051  0.0772
  829MPD2     N12251   2.866   2.578  12.058  0.0584 -0.0308 -0.1876
  829MPD2    H512252   2.888   2.484  12.026  0.4480 -0.3968  1.1596
  829MPD2    N112253   2.597   2.942  11.852  0.6553  0.2656  0.1112
  829MPD2    H712254   2.548   2.963  11.765  1.2736 -1.0285 -0.5536
  830MPD2     C12255   3.659   0.434  15.777  0.5342  0.1560 -0.1326
  830MPD2    C112256   3.534   0.417  15.726  0.3841  0.1954  0.1611
  830MPD2    C212257   3.505   0.490  15.613 -0.5846 -0.6314 -0.1132
  830MPD2    C312258   3.588   0.587  15.566 -0.3084 -0.8467  0.8222
  830MPD2    C412259   3.710   0.598  15.616 -0.3170  0.1707  0.5279
  830MPD2    C512260   3.748   0.519  15.722  0.2048  0.2534 -0.5041
  830MPD2     H12261   3.406   0.488  15.567 -0.5683  0.7735 -0.2089
  830MPD2    H112262   3.779   0.667  15.568 -0.3452  1.3611  2.1778
  830MPD2    H212263   3.679   0.383  15.871  2.8656  0.3695 -0.5214
  830MPD2    H312264   3.851   0.510  15.754  0.4892 -1.3658 -1.8609
  830MPD2     N12265   3.549   0.673  15.458  0.4181 -0.1639  0.3595
  830MPD2    H512266   3.605   0.757  15.449 -0.7990  0.6511  0.4259
  830MPD2    N112267   3.439   0.343  15.802  0.2356  0.4585 -0.0063
  830MPD2    H712268   3.471   0.283  15.878  0.7180  0.7552  0.0285
  831MPD2     C12269   3.503   2.058  16.829  0.3592 -0.6451 -0.3696
  831MPD2    C112270   3.485   2.054  16.691  0.1427 -0.8512  0.5868
  831MPD2    C212271   3.406   1.955  16.633 -0.0968  0.7430  0.0120
  831MPD2    C312272   3.356   1.854  16.716 -0.3487 -0.2740 -0.0340
  831MPD2    C412273   3.381   1.855  16.854 -0.4452 -0.1365 -0.5118
  831MPD2    C512274   3.451   1.959  16.913  0.5819 -0.3273 -0.5034
  831MPD2     H12275   3.382   1.950  16.527 -0.1391 -0.4244  0.0794
  831MPD2    H112276   3.360   1.769  16.916 -0.0916  0.0904 -0.0844
  831MPD2    H212277   3.554   2.137  16.882  2.9610 -2.1130 -0.7095
  831MPD2    H312278   3.464   1.967  17.020 -2.0543  0.7276 -0.2744
  831MPD2     N12279   3.278   1.747  16.662 -0.1228  0.1551  0.4937
  831MPD2    H512280   3.268   1.668  16.724 -3.6800 -0.4176 -0.7994
  831MPD2    N112281   3.544   2.143  16.602  0.0931  0.2929  0.9466
  831MPD2    H712282   3.525   2.117  16.506  0.6592 -0.8696  1.1461
  832MPD2     C12283   2.032   2.724  17.203  0.3076  0.9081 -0.2040
  832MPD2    C112284   1.964   2.832  17.258 -0.4368 -0.3399  0.7217
  832MPD2    C212285   1.835   2.868  17.213  0.2309 -0.0780  0.3512
  832MPD2    C312286   1.773   2.796  17.113  0.7849 -0.0660  0.0499
  832MPD2    C412287   1.837   2.688  17.053 -0.4558  0.0002  0.7659
  832MPD2    C512288   1.963   2.657  17.100 -0.1261  0.4904  0.0822
  832MPD2     H12289   1.790   2.959  17.249 -0.0249 -0.7795  1.8388
  832MPD2    H112290   1.791   2.635  16.971  0.0593 -0.0566  0.5135
  832MPD2    H212291   2.126   2.683  17.238 -0.7838 -0.6871  0.8316
  832MPD2    H312292   2.003   2.569  17.051  2.0135  1.7967 -0.5412
  832MPD2     N12293   1.646   2.840  17.058  0.7730  0.0811 -0.2145
  832MPD2    H512294   1.609   2.793  16.976  2.7436  0.1697 -1.1636
  832MPD2    N112295   2.029   2.902  17.359  0.3777 -0.7408 -0.0319
  832MPD2    H712296   2.127   2.881  17.376  0.5582 -0.4553 -0.6884
  833MPD2     C12297   4.147   4.582  12.711  0.2233  0.3083 -0.0209
  833MPD2    C112298   4.153   4.705  12.773 -0.5574  0.1379 -0.4561
  833MPD2    C212299   4.260   0.054  12.744 -0.1328  1.0165  0.6921
  833MPD2    C312300   4.348   0.022  12.645 -0.0863  0.5594  0.2008
  833MPD2    C412301   4.345   4.633  12.581 -0.7289  0.5997  0.6988
  833MPD2    C512302   4.243   4.549  12.620 -1.1532  0.1170 -0.6841
  833MPD2     H12303   4.265   0.150  12.794  1.4415  1.4256 -0.2639
  833MPD2    H112304   4.410   4.594  12.503 -2.7814  0.8583 -1.1445
  833MPD2    H212305   4.068   4.511  12.730  1.1632 -0.5190  0.8053
  833MPD2    H312306   4.238   4.449  12.578  2.8377  0.3963 -1.8386
  833MPD2     N12307   4.455   0.112  12.616  0.1648 -0.6295  0.0336
  833MPD2    H512308   4.500   0.105  12.525 -0.6863 -0.2044 -0.4168
  833MPD2    N112309   4.057   0.018  12.864 -0.0379 -0.0042  0.2045
  833MPD2    H712310   4.078   0.110  12.902  0.6087  0.9974 -2.5950
  834MPD2     C12311   4.167   0.658  11.903  0.2472  0.7556 -0.6157
  834MPD2    C112312   4.153   0.534  11.961  0.6250  0.6696  0.4198
  834MPD2    C212313   4.228   0.503  12.075 -0.2898  0.0766  0.7246
  834MPD2    C312314   4.310   0.597  12.134 -0.2207  0.6253  0.0606
  834MPD2    C412315   4.323   0.721  12.071  0.3613 -0.3322  0.2532
  834MPD2    C512316   4.249   0.751  11.958  0.1324  0.0187 -0.2956
  834MPD2     H12317   4.219   0.406  12.122  3.6883 -0.0022  1.3854
  834MPD2    H112318   4.392   0.800  12.097  0.1450  0.6880 -2.2903
  834MPD2    H212319   4.122   0.684  11.807 -2.4933 -0.0626  0.4762
  834MPD2    H312320   4.260   0.848  11.910 -1.8669  0.0772 -0.6602
  834MPD2     N12321   4.385   0.585  12.252 -0.2440 -0.3469 -0.5041
  834MPD2    H512322   4.448   0.662  12.273 -0.2796 -0.8198  1.3633
  834MPD2    N112323   4.061   0.444  11.897  0.9267  0.0696 -0.8326
  834MPD2    H712324   4.033   0.468  11.802  1.2026 -1.9434 -1.4040
  835MPD2     C12325   3.368   3.255  11.490  0.2606 -0.1762 -0.2059
  835MPD2    C112326   3.301   3.140  11.456 -0.1902  0.0670 -0.0271
  835MPD2    C212327   3.374   3.024  11.460  0.0941  0.4545 -0.5165
  835MPD2    C312328   3.511   3.023  11.504 -0.2004  0.1589 -0.0634
  835MPD2    C412329   3.567   3.147  11.538 -0.2304 -0.3176  0.5405
  835MPD2    C512330   3.498   3.263  11.521  0.0390  0.3386 -0.0742
  835MPD2     H12331   3.324   2.936  11.424  1.9089 -1.4684  1.5948
  835MPD2    H112332   3.672   3.157  11.564 -0.6095  1.8139  1.2169
  835MPD2    H212333   3.316   3.349  11.476 -0.3068 -0.5458 -0.6288
  835MPD2    H312334   3.540   3.363  11.522 -1.8035  1.0812  2.6763
  835MPD2     N12335   3.583   2.904  11.513 -0.6402 -0.1983  0.7222
  835MPD2    H512336   3.681   2.916  11.536 -0.8604 -1.4512  2.3089
  835MPD2    N112337   3.160   3.145  11.425 -0.1426 -0.0009 -0.3765
  835MPD2    H712338   3.117   3.234  11.445 -0.4280 -0.2042 -0.0905
  836MPD2     C12339   3.527   2.208  11.917  0.2157 -0.7524 -0.4925
  836MPD2    C112340   3.527   2.347  11.915  0.5000  0.1371  0.1541
  836MPD2    C212341   3.479   2.411  12.032 -0.0333 -0.7138 -0.1860
  836MPD2    C312342   3.437   2.334  12.143  0.5107  0.1257  0.1828
  836MPD2    C412343   3.426   2.196  12.132  0.5517 -0.0910 -0.5577
  836MPD2    C512344   3.470   2.135  12.018 -0.1182 -0.0211 -0.7636
  836MPD2     H12345   3.480   2.520  12.037  2.5081 -0.6495 -1.8264
  836MPD2    H112346   3.393   2.137  12.217 -0.7502  0.9142 -0.3701
  836MPD2    H212347   3.567   2.149  11.835  0.3134  0.0259 -1.0030
  836MPD2    H312348   3.476   2.026  12.019  1.7637  0.0822 -1.0800
  836MPD2     N12349   3.386   2.394  12.256 -0.0958  0.2428 -0.3473
  836MPD2    H512350   3.376   2.329  12.334 -0.8695  1.1813  0.3417
  836MPD2    N112351   3.578   2.422  11.810  0.9450  0.1620 -0.1824
  836MPD2    H712352   3.575   2.523  11.822 -0.6962  0.3551 -2.0837
  837MPD2     C12353   1.986   2.137  10.032  1.1436  0.2598  0.6102
  837MPD2    C112354   1.943   2.216   9.927  0.6807  0.4538  0.2657
  837MPD2    C212355   1.962   2.350   9.928 -0.1121  0.4781  0.9287
  837MPD2    C312356   2.007   2.417  10.039 -0.4649  0.6635 -0.5744
  837MPD2    C412357   2.048   2.345  10.143 -0.7867  0.1771 -0.0993
  837MPD2    C512358   2.043   2.201  10.134 -0.5263 -1.1015  0.6352
  837MPD2     H12359   1.916   2.405   9.847 -2.1811 -1.3807  0.8381
  837MPD2    H112360   2.109   2.388  10.222  0.5198  1.0029 -1.5595
  837MPD2    H212361   1.992   2.029  10.031  1.2615  0.2737 -0.1929
  837MPD2    H312362   2.100   2.145  10.207 -0.6802  0.5617  2.0254
  837MPD2     N12363   2.007   2.557  10.036 -0.2948 -0.4091  0.2648
  837MPD2    H512364   1.975   2.595   9.948 -0.2601  0.1238  0.4872
  837MPD2    N112365   1.853   2.180   9.827  0.0232 -0.0845  0.2965
  837MPD2    H712366   1.828   2.249   9.757 -2.7221 -0.4252  0.9505
  838MPD2     C12367   0.690   1.023  11.751  0.4824  0.9922 -0.2356
  838MPD2    C112368   0.683   0.891  11.705 -0.0717  0.3157  0.3540
  838MPD2    C212369   0.583   0.801  11.733  0.1463  0.3261 -0.1957
  838MPD2    C312370   0.483   0.842  11.822 -0.0233  0.3269  0.9038
  838MPD2    C412371   0.486   0.970  11.875  0.4446  1.1419 -0.3880
  838MPD2    C512372   0.581   1.057  11.832  0.0356  0.0980 -0.4870
  838MPD2     H12373   0.590   0.698  11.698  1.4247  0.4732 -0.3593
  838MPD2    H112374   0.415   1.004  11.950  0.6821  1.3812 -0.2711
  838MPD2    H212375   0.767   1.095  11.728  0.8045  0.8951  0.5338
  838MPD2    H312376   0.576   1.161  11.861  0.2236 -0.8968  3.0324
  838MPD2     N12377   0.381   0.745  11.856 -0.7166 -0.1976 -0.7299
  838MPD2    H512378   0.392   0.652  11.817  0.0610 -0.5859  0.4322
  838MPD2    N112379   0.791   0.839  11.624 -0.1701  0.0588 -0.5444
  838MPD2    H712380   0.802   0.739  11.606  0.9075  0.5236 -2.4988
  839MPD2     C12381   0.476   0.371  11.784 -0.6452 -0.5375 -0.1970
  839MPD2    C112382   0.473   0.348  11.650 -0.1635  0.9821 -0.1463
  839MPD2    C212383   0.590   0.383  11.586 -0.3208  0.3837  0.2642
  839MPD2    C312384   0.695   0.453  11.645 -0.1103  0.6254 -0.2107
  839MPD2    C412385   0.695   0.467  11.782 -0.3892  0.4999  0.4876
  839MPD2    C512386   0.581   0.430  11.847  0.7411 -0.0284  0.0768
  839MPD2     H12387   0.595   0.356  11.481  1.2073  1.1285  0.1412
  839MPD2    H112388   0.775   0.512  11.838  1.4671 -2.7942  0.4604
  839MPD2    H212389   0.401   0.338  11.855  0.2090  0.6392  1.2419
  839MPD2    H312390   0.583   0.443  11.954  2.3451 -0.0494  0.0478
  839MPD2     N12391   0.804   0.497  11.581 -0.2527 -0.3523  0.3739
  839MPD2    H512392   0.883   0.521  11.639  1.0503  0.2985 -1.6851
  839MPD2    N112393   0.367   0.270  11.591 -0.6802  0.3112 -0.2178
  839MPD2    H712394   0.377   0.228  11.500 -0.8148 -0.2899  0.0456
  840MPD2     C12395   0.280   2.874  10.135  0.5822  0.9080 -0.4686
  840MPD2    C112396   0.263   2.849  10.274 -0.1940 -0.5531 -0.3060
  840MPD2    C212397   0.341   2.912  10.369  0.3216 -0.6995  0.8868
  840MPD2    C312398   0.440   2.999  10.330  0.4571  0.6957 -0.0431
  840MPD2    C412399   0.465   3.015  10.197  0.0237  0.2865  0.6525
  840MPD2    C512400   0.378   2.963  10.102  0.9014 -0.0354 -0.0582
  840MPD2     H12401   0.317   2.897  10.474 -2.4083 -2.5549  0.0088
  840MPD2    H112402   0.546   3.084  10.175 -0.9968  0.7715 -1.6462
  840MPD2    H212403   0.214   2.832  10.061 -2.0802  0.6738  2.0105
  840MPD2    H312404   0.403   2.993  10.001  2.4838  0.4595  0.4803
  840MPD2     N12405   0.520   3.075  10.423  0.9401 -0.1710 -0.0616
  840MPD2    H512406   0.572   3.152  10.383 -0.6548  1.8285  1.7800
  840MPD2    N112407   0.150   2.779  10.311 -0.1130  0.3877  0.9188
  840MPD2    H712408   0.092   2.742  10.236  1.2166 -1.3381  0.7486
  841MPD2     C12409   0.065   3.170  14.112 -0.6044  0.0590  0.0613
  841MPD2    C112410   0.151   3.073  14.167  0.2644  0.2847  0.0721
  841MPD2    C212411   0.199   3.094  14.295 -0.3716 -0.0518 -0.0578
  841MPD2    C312412   0.145   3.193  14.375 -0.1319  0.1319  0.1671
  841MPD2    C412413   0.043   3.272  14.330 -0.3131  0.7928 -0.1403
  841MPD2    C512414   0.009   3.265  14.197  0.9457 -0.5109 -0.5061
  841MPD2     H12415   0.258   3.016  14.342 -0.5751  0.0540  0.3811
  841MPD2    H112416   4.729   3.337  14.402 -0.6946  0.6500 -0.2671
  841MPD2    H212417   0.030   3.158  14.010 -0.8710  1.2226  0.0167
  841MPD2    H312418   4.662   3.322  14.153  1.3411  0.8179  0.4954
  841MPD2     N12419   0.194   3.206  14.513  0.2638  0.5324 -0.0349
  841MPD2    H512420   0.271   3.147  14.542  2.3431  1.9490 -2.6789
  841MPD2    N112421   0.192   2.956  14.102  0.7361 -0.1013 -0.1643
  841MPD2    H712422   0.277   2.914  14.139  0.6360  0.3990  0.6339
  842MPD2     C12423   0.845   3.157  17.096 -0.2089  0.4129 -0.5051
  842MPD2    C112424   0.718   3.106  17.075 -0.3975  0.1000  0.0400
  842MPD2    C212425   0.649   3.047  17.183 -0.2550  0.3358 -0.2641
  842MPD2    C312426   0.715   3.035  17.303 -0.2104  0.5237  0.2768
  842MPD2    C412427   0.843   3.097  17.324 -0.4175  0.2432  0.6562
  842MPD2    C512428   0.908   3.153  17.217  0.5157  0.9312 -0.5330
  842MPD2     H12429   0.555   2.997  17.165  0.6411 -1.1577 -0.8035
  842MPD2    H112430   0.897   3.098  17.418  1.0328 -0.0879 -0.1743
  842MPD2    H212431   0.907   3.204  17.021 -0.6624 -0.1320 -1.2264
  842MPD2    H312432   0.999   3.208  17.237  0.9563  0.8604 -2.3260
  842MPD2     N12433   0.651   2.966  17.405  0.9325 -0.5889  0.6564
  842MPD2    H512434   0.568   2.913  17.380  0.1591  1.3599 -0.8126
  842MPD2    N112435   0.656   3.113  16.947  0.2541 -0.7468 -0.0058
  842MPD2    H712436   0.716   3.147  16.873 -0.3739  0.3729  0.0003
  843MPD2     C12437   2.799   4.120   0.188  0.0142  0.2674 -0.5194
  843MPD2    C112438   2.911   4.036   0.187 -1.0269  0.1337 -0.1311
  843MPD2    C212439   3.025   4.065   0.264  0.2522  0.5138  0.0676
  843MPD2    C312440   3.039   4.181   0.335  0.2801 -0.3701 -0.1001
  843MPD2    C412441   2.938   4.271   0.317 -0.6350  0.3996  0.8990
  843MPD2    C512442   2.815   4.235   0.251  0.2537  0.5253 -0.0514
  843MPD2     H12443   3.105   3.993   0.274 -1.1185 -0.9206  0.6927
  843MPD2    H112444   2.936   4.370   0.361 -0.9550  1.3376 -1.2510
  843MPD2    H212445   2.705   4.095   0.141  0.8371 -2.3494 -0.7962
  843MPD2    H312446   2.736   4.310   0.244 -0.1271  0.1363  0.0645
  843MPD2     N12447   3.145   4.205   0.426 -0.3525 -0.4703 -0.2714
  843MPD2    H512448   3.156   4.298   0.465  0.9426 -0.2203 -1.2204
  843MPD2    N112449   2.901   3.916   0.121  0.4003  0.1624 -0.2598
  843MPD2    H712450   2.805   3.887   0.109  0.6675 -0.0803 -1.7595
  844MPD2     C12451   1.633   2.998  16.599  0.0551  0.0134  0.4649
  844MPD2    C112452   1.734   2.912  16.624  0.4345 -0.0953 -0.4229
  844MPD2    C212453   1.825   2.946  16.725 -0.8714 -0.4386 -0.0927
  844MPD2    C312454   1.824   3.070  16.787 -0.4183 -0.5226  0.2860
  844MPD2    C412455   1.716   3.154  16.760  0.0980  0.1148 -0.0799
  844MPD2    C512456   1.625   3.115  16.670 -0.4732  0.4214  0.3315
  844MPD2     H12457   1.913   2.885  16.743  0.5348  1.6536  0.2561
  844MPD2    H112458   1.697   3.244  16.818  0.3436  0.8639 -1.1555
  844MPD2    H212459   1.562   2.974  16.520 -0.3528  1.2845  0.4459
  844MPD2    H312460   1.540   3.178  16.648 -0.3855  0.9070  1.3809
  844MPD2     N12461   1.924   3.099  16.879  0.3229  0.0080  0.2456
  844MPD2    H512462   2.009   3.042  16.882  2.4519  3.0274 -2.9354
  844MPD2    N112463   1.768   2.800  16.546 -0.0098 -1.2369  0.2145
  844MPD2    H712464   1.862   2.768  16.562  0.9153  2.2084  1.7082
  845MPD2     C12465   2.405   3.905  16.792 -0.0567 -0.2481 -0.1466
  845MPD2    C112466   2.319   3.918  16.896 -0.6188  0.0002 -0.5486
  845MPD2    C212467   2.277   3.807  16.969 -0.0232 -0.2559  0.3132
  845MPD2    C312468   2.341   3.683  16.937  0.0212 -0.0108 -0.1536
  845MPD2    C412469   2.437   3.675  16.844 -0.1759 -0.0830  0.8259
  845MPD2    C512470   2.466   3.786  16.770 -0.4914 -0.3413 -0.0204
  845MPD2     H12471   2.203   3.805  17.048 -0.3106  0.9929  0.0822
  845MPD2    H112472   2.475   3.580  16.808 -1.0071 -1.1721  2.8114
  845MPD2    H212473   2.414   3.993  16.730 -0.1547 -0.5516 -0.5876
  845MPD2    H312474   2.543   3.777  16.695  0.3844 -2.9546  1.1756
  845MPD2     N12475   2.280   3.567  16.983  0.3114 -0.7114  0.1712
  845MPD2    H512476   2.192   3.573  17.034  0.8988  1.6789  0.9100
  845MPD2    N112477   2.255   4.046  16.910 -0.4287 -0.1993  0.6286
  845MPD2    H712478   2.284   4.128  16.858  0.3301 -1.1159 -0.4168
  846MPD2     C12479   2.981   3.847  13.276  0.1753 -0.3007  0.1403
  846MPD2    C112480   2.958   3.967  13.339  0.6571 -0.1343  0.4623
  846MPD2    C212481   2.952   3.969  13.478  0.8264  0.5521 -0.0956
  846MPD2    C312482   2.960   3.856  13.561 -1.3736  0.4102 -0.5570
  846MPD2    C412483   2.987   3.733  13.497  0.6121 -0.7125  0.5965
  846MPD2    C512484   2.994   3.738  13.358  0.1167  0.1383 -0.3002
  846MPD2     H12485   2.938   4.067  13.522 -1.9630  0.5097 -0.8906
  846MPD2    H112486   2.999   3.634  13.538  1.2954 -0.5452  0.7925
  846MPD2    H212487   2.990   3.833  13.169 -1.4167 -0.6026  0.0416
  846MPD2    H312488   3.025   3.641  13.321  0.8735  0.4811 -0.5593
  846MPD2     N12489   2.959   3.875  13.703  0.2990 -0.1236 -0.1865
  846MPD2    H512490   2.939   3.968  13.738  0.4388  0.1714 -0.8838
  846MPD2    N112491   2.963   4.082  13.264 -0.5893 -0.0273  0.0184
  846MPD2    H712492   2.974   4.160  13.328 -0.1720 -1.6742  1.9450
  847MPD2     C12493   2.604   1.089  14.932  0.2382  0.0711  0.2460
  847MPD2    C112494   2.730   1.146  14.935  0.3285  0.0302 -0.1557
  847MPD2    C212495   2.839   1.073  14.891 -0.4172 -0.2317  0.2557
  847MPD2    C312496   2.827   0.956  14.822  0.1499  0.3669 -0.4033
  847MPD2    C412497   2.707   0.895  14.828  0.3679  0.0871  0.3679
  847MPD2    C512498   2.596   0.963  14.879 -0.3509 -0.1702  1.0953
  847MPD2     H12499   2.935   1.123  14.897 -0.4214 -0.3752  1.5082
  847MPD2    H112500   2.699   0.796  14.785 -1.2383 -0.0377  0.9302
  847MPD2    H212501   2.512   1.133  14.969 -0.1363  2.8086 -3.8883
  847MPD2    H312502   2.508   0.899  14.885  0.3892 -1.4741 -2.2561
  847MPD2     N12503   2.952   0.896  14.778 -0.2487  0.2374  0.7472
  847MPD2    H512504   3.039   0.948  14.778 -1.0000  1.5251 -0.2527
  847MPD2    N112505   2.759   1.273  14.985  1.1455 -0.2834  0.6243
  847MPD2    H712506   2.858   1.289  14.995  0.9833  0.8395  0.4362
  848MPD2     C12507   1.252   3.076  16.452 -0.0762  0.5014 -0.0483
  848MPD2    C112508   1.277   3.177  16.546 -0.1942  0.3870 -0.1429
  848MPD2    C212509   1.296   3.308  16.496 -0.2570  0.6891 -0.6942
  848MPD2    C312510   1.294   3.338  16.362  0.1389  0.3223  0.6506
  848MPD2    C412511   1.269   3.238  16.272  0.0374  0.2327 -0.4668
  848MPD2    C512512   1.258   3.107  16.317  0.0561 -0.9838  0.0571
  848MPD2     H12513   1.307   3.391  16.566 -1.4028  0.4989 -0.2805
  848MPD2    H112514   1.249   3.261  16.168  1.3251 -0.9761 -0.9909
  848MPD2    H212515   1.243   2.970  16.475 -0.4539  0.8232  1.2971
  848MPD2    H312516   1.230   3.034  16.242  1.4443  0.1563 -1.5883
  848MPD2     N12517   1.302   3.473  16.314 -0.1030 -0.3021 -0.2899
  848MPD2    H512518   1.293   3.484  16.213 -0.7434 -2.2659 -0.4380
  848MPD2    N112519   1.279   3.134  16.682  0.7752 -0.5584  0.1266
  848MPD2    H712520   1.266   3.034  16.693 -0.5032 -0.4304 -0.2810
  849MPD2     C12521   0.378   3.248  13.876  0.6998  0.4259  0.1751
  849MPD2    C112522   0.454   3.347  13.927  0.3314 -0.1956 -0.2157
  849MPD2    C212523   0.558   3.318  14.009  0.1498 -0.1110 -0.1371
  849MPD2    C312524   0.583   3.186  14.036  0.7779  0.6081  0.3981
  849MPD2    C412525   0.505   3.085  13.984  0.4389  0.1920 -0.4397
  849MPD2    C512526   0.403   3.116  13.909 -0.3875 -0.4825  0.7891
  849MPD2     H12527   0.619   3.400  14.045  0.2763 -0.4929  0.5247
  849MPD2    H112528   0.542   2.983  13.986  0.8796  0.3446 -0.7624
  849MPD2    H212529   0.311   3.280  13.797 -0.0040 -0.0102  0.5891
  849MPD2    H312530   0.351   3.036  13.857 -0.9859  0.3120  0.1593
  849MPD2     N12531   0.700   3.145  14.104  0.0448  0.1408  0.1740
  849MPD2    H512532   0.735   3.051  14.093 -0.7975 -0.1178 -0.2902
  849MPD2    N112533   0.437   3.478  13.871  0.3357 -0.6853 -0.3309
  849MPD2    H712534   0.386   3.490  13.783 -1.0865  0.1490  0.6041
  850MPD2     C12535   3.334   2.301  15.258 -0.1060 -0.3763  0.3742
  850MPD2    C112536   3.349   2.162  15.266  0.2271  0.4156 -0.6059
  850MPD2    C212537   3.476   2.108  15.256  0.8671  0.1640  0.7166
  850MPD2    C312538   3.584   2.187  15.238 -0.2859  0.3073  0.1690
  850MPD2    C412539   3.568   2.324  15.226 -0.6671 -0.7993  0.1117
  850MPD2    C512540   3.444   2.385  15.239 -0.3940 -0.0917  0.1526
  850MPD2     H12541   3.495   2.001  15.266 -0.4262 -0.0353  1.0322
  850MPD2    H112542   3.654   2.389  15.215  0.7426 -2.7470 -0.4811
  850MPD2    H212543   3.239   2.351  15.272  0.2615 -0.0158  1.6106
  850MPD2    H312544   3.422   2.491  15.237  0.8405  0.1622 -0.4130
  850MPD2     N12545   3.716   2.129  15.232  0.5016  0.5506 -0.0552
  850MPD2    H512546   3.791   2.195  15.253  0.2038  1.6431 -2.4048
  850MPD2    N112547   3.234   2.093  15.302 -0.7702  0.4617 -0.1299
  850MPD2    H712548   3.149   2.146  15.284 -0.5302  0.7165 -0.5147
  851MPD2     C12549   3.465   1.589  15.307  0.3368 -0.7203 -0.8566
  851MPD2    C112550   3.344   1.535  15.328  0.1862  0.5570 -0.0112
  851MPD2    C212551   3.321   1.403  15.295  0.1411 -0.2604 -0.1609
  851MPD2    C312552   3.423   1.318  15.239 -0.2013 -0.2751 -0.0961
  851MPD2    C412553   3.541   1.384  15.214 -0.1185  0.4055 -0.5825
  851MPD2    C512554   3.565   1.518  15.242 -0.3351  0.4658 -0.3684
  851MPD2     H12555   3.226   1.352  15.306 -1.1410  1.7317 -1.9943
  851MPD2    H112556   3.612   1.322  15.159  0.0980  0.3070 -0.1970
  851MPD2    H212557   3.479   1.695  15.327  0.5957 -0.6936 -1.1755
  851MPD2    H312558   3.653   1.569  15.204 -1.9545  2.8881 -0.8810
  851MPD2     N12559   3.399   1.180  15.219  0.2163 -0.3497  0.1252
  851MPD2    H512560   3.304   1.144  15.218 -0.9063  2.5914  0.7671
  851MPD2    N112561   3.249   1.623  15.383 -0.1645 -0.4298  0.2813
  851MPD2    H712562   3.286   1.717  15.393 -0.0814 -0.5034  0.6577
  852MPD2     C12563   3.510   4.345  10.701  0.4732 -0.3045  0.2699
  852MPD2    C112564   3.464   4.409  10.812 -0.2178 -0.5300 -0.2237
  852MPD2    C212565   3.530   4.518  10.866 -0.0304 -0.4514  0.3512
  852MPD2    C312566   3.654   4.555  10.807  0.0161 -0.5008 -1.1993
  852MPD2    C412567   3.703   4.486  10.699  0.1642  0.5476 -0.0075
  852MPD2    C512568   3.622   4.388  10.641  0.7166  0.4832  0.4034
  852MPD2     H12569   3.492   4.571  10.953 -0.7230 -0.1471 -0.1343
  852MPD2    H112570   3.797   4.498  10.646 -1.2658 -0.3612 -2.7921
  852MPD2    H212571   3.447   4.269  10.656  1.5917 -1.9449  1.4444
  852MPD2    H312572   3.653   4.330  10.555  1.2212 -0.3136  1.1233
  852MPD2     N12573   3.724   4.664  10.866  0.0232  0.6961 -0.2324
  852MPD2    H512574   3.682   4.708  10.948 -0.3781 -0.1249  0.0096
  852MPD2    N112575   3.336   4.379  10.872 -0.0580 -0.1684  0.2882
  852MPD2    H712576   3.314   4.431  10.957 -1.0400  1.2148 -0.8038
  853MPD2     C12577   0.606   3.734  12.251  0.3524  0.0109 -0.0293
  853MPD2    C112578   0.497   3.822  12.259  0.4101  0.7033 -0.1971
  853MPD2    C212579   0.421   3.829  12.148 -0.0889 -0.2370  0.0444
  853MPD2    C312580   0.450   3.758  12.034  0.0116 -0.8732  0.3326
  853MPD2    C412581   0.564   3.681  12.026 -0.0019 -0.3224  0.7982
  853MPD2    C512582   0.641   3.667  12.139  0.3912 -0.1714  0.2275
  853MPD2     H12583   0.329   3.885  12.155 -0.7238 -1.1587 -0.9480
  853MPD2    H112584   0.598   3.637  11.933 -0.0039 -2.7121  1.9246
  853MPD2    H212585   0.667   3.703  12.336 -2.7246 -2.3016  1.3196
  853MPD2    H312586   0.728   3.603  12.151  0.8005  0.1302 -1.0426
  853MPD2     N12587   0.369   3.764  11.915 -0.6488  0.1877 -0.0936
  853MPD2    H512588   0.413   3.710  11.841  1.2664  2.6567 -0.7272
  853MPD2    N112589   0.468   3.877  12.391 -0.4772 -0.0189  0.3821
  853MPD2    H712590   0.526   3.848  12.469  4.5935 -1.5107 -3.9047
  854MPD2     C12591   2.356   3.876  12.682  0.0246  0.4624 -0.6940
  854MPD2    C112592   2.258   3.800  12.741 -0.2363  0.2214  0.1823
  854MPD2    C212593   2.287   3.690  12.817 -0.4006 -0.3512 -0.1986
  854MPD2    C312594   2.412   3.646  12.830  0.0694 -0.4426 -0.8597
  854MPD2    C412595   2.511   3.718  12.771 -0.5571  0.0707  0.4368
  854MPD2    C512596   2.483   3.829  12.701  0.2510  0.2044 -0.1556
  854MPD2     H12597   2.210   3.616  12.840 -1.7910  1.1668  0.0311
  854MPD2    H112598   2.616   3.691  12.771 -0.8396 -1.0427 -0.0267
  854MPD2    H212599   2.339   3.970  12.631  0.6322  1.4399  0.9083
  854MPD2    H312600   2.574   3.880  12.670  0.0831  0.1056 -0.8080
  854MPD2     N12601   2.440   3.528  12.903  0.5762 -0.0545  0.1896
  854MPD2    H512602   2.530   3.483  12.885  1.3370  0.7461  1.9818
  854MPD2    N112603   2.120   3.841  12.728 -0.1201  0.8776 -0.1678
  854MPD2    H712604   2.052   3.798  12.789 -0.4791  1.5618 -0.0879
  855MPD2     C12605   2.302   3.429  13.854 -0.8557 -0.1680  0.1670
  855MPD2    C112606   2.324   3.304  13.818  0.2039  0.1272  0.0460
  855MPD2    C212607   2.341   3.272  13.687 -0.6786 -0.3630 -0.0601
  855MPD2    C312608   2.347   3.367  13.583  0.0879  0.0832 -0.2461
  855MPD2    C412609   2.324   3.495  13.626  0.2948 -1.4860 -0.3315
  855MPD2    C512610   2.310   3.526  13.756  0.1972  0.4581  0.2597
  855MPD2     H12611   2.376   3.172  13.663  2.4816  0.9957 -1.1007
  855MPD2    H112612   2.308   3.570  13.550 -0.8804  0.3190  1.6975
  855MPD2    H212613   2.278   3.465  13.953  2.3354 -1.5796  1.4692
  855MPD2    H312614   2.288   3.629  13.779  0.5313  1.3568 -3.3982
  855MPD2     N12615   2.362   3.343  13.444  0.0578 -0.2281 -0.3402
  855MPD2    H512616   2.345   3.421  13.381 -0.4211 -2.4980 -3.0049
  855MPD2    N112617   2.318   3.192  13.912  0.0090 -0.5899 -0.5339
  855MPD2    H712618   2.315   3.094  13.884 -0.8209 -0.2989 -1.4555
  856MPD2     C12619   4.362   4.316  14.223  0.4196 -0.5456 -0.0598
  856MPD2    C112620   4.324   4.445  14.240 -0.2153  0.6312  0.1994
  856MPD2    C212621   4.207   4.484  14.174 -0.4811 -0.4145  0.3095
  856MPD2    C312622   4.134   4.400  14.092 -0.6880 -0.3192 -0.2078
  856MPD2    C412623   4.165   4.269  14.089  0.0886 -0.2902  0.0664
  856MPD2    C512624   4.284   4.234  14.150 -0.4155  0.2845 -0.4815
  856MPD2     H12625   4.174   4.586  14.193  0.0018 -0.2062  0.0081
  856MPD2    H112626   4.122   4.189  14.030  1.1553 -0.5832 -0.3062
  856MPD2    H212627   4.437   4.262  14.280 -0.6429 -2.8735 -0.8700
  856MPD2    H312628   4.316   4.130  14.147  1.8126  0.9430  0.0974
  856MPD2     N12629   4.024   4.444  14.019  0.4594  0.0274 -0.4798
  856MPD2    H512630   3.964   4.375  13.975 -0.7506  1.1957 -0.6598
  856MPD2    N112631   4.407   4.544  14.304 -0.0674 -0.2749 -0.3875
  856MPD2    H712632   4.377   4.641  14.313 -1.0719 -0.5842 -0.3829
  857MPD2     C12633   0.925   1.919  12.933 -0.1451 -0.5859 -0.2767
  857MPD2    C112634   1.033   1.930  12.841  0.0100 -0.1647 -0.0823
  857MPD2    C212635   1.143   2.012  12.867  1.1322  0.8059 -0.3713
  857MPD2    C312636   1.149   2.085  12.984  0.0631  0.1172 -0.0440
  857MPD2    C412637   1.042   2.072  13.072 -0.9647 -0.8697  0.1221
  857MPD2    C512638   0.942   1.988  13.048  0.3012 -0.0470  0.1869
  857MPD2     H12639   1.219   2.024  12.791  0.7709  2.3244 -0.4865
  857MPD2    H112640   1.026   2.134  13.159 -0.8688 -0.7696  0.0695
  857MPD2    H212641   0.832   1.864  12.917 -0.3489 -0.0282 -0.9720
  857MPD2    H312642   0.862   1.994  13.121  1.1722 -0.2278  1.1564
  857MPD2     N12643   1.251   2.183  13.004  0.1937  0.2484  0.4909
  857MPD2    H512644   1.334   2.170  12.946  0.2002 -0.3933  0.6444
  857MPD2    N112645   1.011   1.866  12.720  0.1267  0.5424  0.1010
  857MPD2    H712646   0.928   1.809  12.706  0.2623  0.0772  1.2002
  858MPD2     C12647   2.127   0.697  16.438  0.6252  0.2249  0.3598
  858MPD2    C112648   1.990   0.724  16.430  0.1670 -0.7326  0.2615
  858MPD2    C212649   1.929   0.793  16.532  0.3172  0.4275 -0.2100
  858MPD2    C312650   1.997   0.834  16.646 -0.8566  0.3576  0.5248
  858MPD2    C412651   2.130   0.797  16.654 -0.0901  0.4052 -0.2530
  858MPD2    C512652   2.199   0.731  16.552  0.7754 -0.7773 -0.1290
  858MPD2     H12653   1.828   0.829  16.523  0.2361  0.2685  0.0601
  858MPD2    H112654   2.181   0.831  16.744 -0.4435  2.3085 -0.7729
  858MPD2    H212655   2.175   0.625  16.373 -0.6119 -0.6237  0.4063
  858MPD2    H312656   2.297   0.691  16.574  1.1730 -0.1316 -0.7547
  858MPD2     N12657   1.944   0.906  16.752 -0.2196  0.1315 -0.0304
  858MPD2    H512658   1.986   0.894  16.844 -2.4055  1.9210  1.2237
  858MPD2    N112659   1.924   0.674  16.312  0.2536 -0.0882  0.0105
  858MPD2    H712660   1.981   0.624  16.245  2.6190  1.7385  0.6819
  859MPD2     C12661   0.624   3.515  15.781  0.4265 -0.7339  0.3952
  859MPD2    C112662   0.526   3.511  15.686  0.2921 -0.2435  0.5676
  859MPD2    C212663   0.406   3.449  15.719 -0.8276 -0.4823  0.2740
  859MPD2    C312664   0.374   3.422  15.848 -0.7460  0.0594  0.4638
  859MPD2    C412665   0.474   3.433  15.945 -0.9239  0.6037 -0.4146
  859MPD2    C512666   0.598   3.476  15.910 -0.6545 -0.9621  0.6318
  859MPD2     H12667   0.326   3.460  15.647 -0.7208  0.1694  0.2552
  859MPD2    H112668   0.454   3.397  16.045 -0.8140  2.3593  0.2328
  859MPD2    H212669   0.722   3.555  15.759 -0.6465  1.5647 -0.1848
  859MPD2    H312670   0.671   3.473  15.990  1.5570  2.0594 -1.3011
  859MPD2     N12671   0.245   3.369  15.881 -0.1693  0.0043 -0.9746
  859MPD2    H512672   0.236   3.341  15.978  0.5874 -1.5951 -1.3644
  859MPD2    N112673   0.563   3.552  15.557  0.2260  0.7311  0.4105
  859MPD2    H712674   0.659   3.582  15.550  0.0795  0.7943 -1.3204
  860MPD2     C12675   3.490   4.037  12.327 -0.1930  0.1648  0.0540
  860MPD2    C112676   3.553   3.922  12.357 -0.0299 -0.6224 -0.0904
  860MPD2    C212677   3.491   3.804  12.346  0.7153  0.2584  0.2193
  860MPD2    C312678   3.364   3.795  12.296 -0.2404 -0.0843  0.1705
  860MPD2    C412679   3.297   3.912  12.262 -0.8854 -0.5183  0.9183
  860MPD2    C512680   3.365   4.027  12.276 -0.4063 -0.3597 -0.1945
  860MPD2     H12681   3.540   3.708  12.355 -0.9496 -0.4658  1.4689
  860MPD2    H112682   3.191   3.914  12.241 -0.7366 -0.6141  0.1463
  860MPD2    H212683   3.527   4.137  12.346  2.0687 -0.7893  0.6754
  860MPD2    H312684   3.319   4.121  12.247  0.0180  0.0584  0.4619
  860MPD2     N12685   3.314   3.663  12.274 -0.1800 -0.0398  0.1998
  860MPD2    H512686   3.379   3.590  12.301 -0.8070 -0.6242  0.1245
  860MPD2    N112687   3.681   3.922  12.404  0.1631 -0.8221  0.1539
  860MPD2    H712688   3.708   3.825  12.420  2.1804 -0.4434 -0.9578
  861MPD2     C12689   1.535   1.614  10.674 -0.2211  0.4836  0.2474
  861MPD2    C112690   1.544   1.737  10.739 -0.5667 -0.2783  0.9471
  861MPD2    C212691   1.517   1.841  10.647 -0.1590 -0.5410  0.6107
  861MPD2    C312692   1.476   1.829  10.514  0.2885  0.0230 -0.5120
  861MPD2    C412693   1.473   1.702  10.455  0.0267 -0.4027  0.3075
  861MPD2    C512694   1.505   1.600  10.538  0.1516 -0.0586 -0.5861
  861MPD2     H12695   1.514   1.945  10.677  2.2979 -0.1534 -0.5001
  861MPD2    H112696   1.432   1.680  10.357 -0.9053 -0.8950  0.8128
  861MPD2    H212697   1.569   1.524  10.724 -0.7309  0.4750  0.5797
  861MPD2    H312698   1.497   1.498  10.504  1.9375 -0.0131 -1.1309
  861MPD2     N12699   1.424   1.945  10.438  0.2298  0.5036  0.3597
  861MPD2    H512700   1.422   2.032  10.490  0.2016  0.8473 -0.2193
  861MPD2    N112701   1.559   1.749  10.879  0.3597 -0.2051 -0.3804
  861MPD2    H712702   1.577   1.838  10.924  1.2712 -0.7677  0.3669
  862MPD2     C12703   0.762   2.047   9.924  0.0494 -0.0988  0.1153
  862MPD2    C112704   0.834   1.976  10.013  0.5277  0.3389 -0.0857
  862MPD2    C212705   0.803   1.846  10.019  0.0193  0.4267 -0.0739
  862MPD2    C312706   0.702   1.785   9.947  0.1333  0.2465  0.5700
  862MPD2    C412707   0.621   1.861   9.860  0.3676 -0.1006 -1.3117
  862MPD2    C512708   0.651   1.993   9.859  0.9033 -0.2239 -0.1134
  862MPD2     H12709   0.872   1.788  10.080  1.3851  0.8599 -1.2063
  862MPD2    H112710   0.542   1.814   9.803 -0.5616  2.3704 -2.0291
  862MPD2    H212711   0.792   2.150   9.906  1.2977 -0.6298 -0.7982
  862MPD2    H312712   0.592   2.055   9.791  0.5500 -0.0144  0.3831
  862MPD2     N12713   0.670   1.644   9.957 -0.5064  0.2102 -0.2242
  862MPD2    H512714   0.585   1.617   9.908 -0.5032  0.6200 -0.4548
  862MPD2    N112715   0.945   2.023  10.083  0.1193 -0.1657  0.3811
  862MPD2    H712716   0.991   1.951  10.138 -1.1045 -0.6563  0.7754
  863MPD2     C12717   4.393   4.458  17.412 -0.2213 -0.1711  0.3387
  863MPD2    C112718   4.483   4.458  17.306 -0.5340 -0.1961 -0.8010
  863MPD2    C212719   4.619   4.458  17.342 -0.2486 -0.1973 -0.1360
  863MPD2    C312720   4.665   4.439  17.474 -0.1192  0.1157 -0.4147
  863MPD2    C412721   4.577   4.435  17.571 -0.5693  0.3394  0.1503
  863MPD2    C512722   4.445   4.445  17.541  0.2633  0.4654 -0.3989
  863MPD2     H12723   4.692   4.467  17.262  0.1613 -0.6009  0.1923
  863MPD2    H112724   4.601   4.424  17.676 -1.4438 -2.0385  0.1066
  863MPD2    H212725   4.288   4.438  17.396 -0.3303  2.4070 -2.1840
  863MPD2    H312726   4.376   4.434  17.624  0.2687 -0.5981 -0.5327
  863MPD2     N12727   0.067   4.437  17.519 -0.4513 -0.7967 -0.2697
  863MPD2    H512728   0.083   4.458  17.617  1.1663 -1.2288 -0.4408
  863MPD2    N112729   4.428   4.465  17.176  0.9486 -0.1833 -0.0276
  863MPD2    H712730   4.327   4.475  17.172  0.8373 -0.6869  1.9014
  864MPD2     C12731   0.579   0.040  17.051 -0.3737  0.4238  0.4270
  864MPD2    C112732   0.672   0.059  16.953 -0.0701  1.1511  0.2636
  864MPD2    C212733   0.725   0.189  16.944  0.1681 -0.7400  0.0658
  864MPD2    C312734   0.689   0.286  17.029  0.7610  0.4489  0.1536
  864MPD2    C412735   0.609   0.260  17.136  0.1632  0.5216  1.1443
  864MPD2    C512736   0.553   0.137  17.149  0.4701 -0.0377  0.3253
  864MPD2     H12737   0.804   0.212  16.873  0.9799 -1.3443  0.7743
  864MPD2    H112738   0.589   0.342  17.205  0.2698  1.8615 -0.3984
  864MPD2    H212739   0.528   4.680  17.073  0.9185 -0.3848 -0.0542
  864MPD2    H312740   0.489   0.127  17.235  2.3467 -2.1746  1.4837
  864MPD2     N12741   0.738   0.419  17.014 -0.2707 -0.3448  0.3480
  864MPD2    H512742   0.706   0.487  17.082 -0.6085 -0.9680  0.8049
  864MPD2    N112743   0.720   4.674  16.892 -0.1116 -0.4986  0.1762
  864MPD2    H712744   0.660   4.594  16.906  2.6431 -2.4407  0.9957
  865MPD2     C12745   0.661   1.213  16.692  0.3353 -0.0775  0.5681
  865MPD2    C112746   0.661   1.073  16.696  0.5678  0.0204 -0.1490
  865MPD2    C212747   0.655   1.004  16.820 -0.4510  0.6184  0.6650
  865MPD2    C312748   0.659   1.081  16.936 -0.2591  0.8247 -0.5788
  865MPD2    C412749   0.655   1.214  16.931 -0.0395  0.0137  0.4759
  865MPD2    C512750   0.652   1.283  16.809  0.1324 -0.0093 -0.3186
  865MPD2     H12751   0.647   0.896  16.824  0.7986  0.4949 -0.2008
  865MPD2    H112752   0.663   1.279  17.018 -0.4555  0.1906  0.3840
  865MPD2    H212753   0.673   1.275  16.604 -2.4333 -0.8368 -0.3617
  865MPD2    H312754   0.647   1.391  16.802 -0.4669  0.1472  2.3142
  865MPD2     N12755   0.672   1.023  17.067 -0.0231  0.2535  0.3211
  865MPD2    H512756   0.634   1.080  17.142 -2.0422 -1.4044  0.5517
  865MPD2    N112757   0.671   1.014  16.569 -0.8493  0.2920 -0.2998
  865MPD2    H712758   0.694   1.078  16.494 -0.8301 -0.9458 -1.3422
  866MPD2     C12759   2.089   2.078  11.202  0.7496 -0.0064 -0.7810
  866MPD2    C112760   2.015   1.985  11.134 -0.0408  0.1720 -0.3839
  866MPD2    C212761   1.895   2.027  11.079  0.0527 -0.3695  0.6405
  866MPD2    C312762   1.858   2.153  11.079 -0.5321 -0.2495  0.7160
  866MPD2    C412763   1.926   2.239  11.148  0.1669  0.3223  0.1242
  866MPD2    C512764   2.037   2.204  11.215 -0.2615 -1.1241  0.2586
  866MPD2     H12765   1.820   1.957  11.046 -1.3123  1.1703  0.5306
  866MPD2    H112766   1.895   2.342  11.158 -0.2292  0.5677 -3.7706
  866MPD2    H212767   2.182   2.056  11.253  0.4531 -0.8362 -0.5968
  866MPD2    H312768   2.090   2.275  11.277  1.4832 -1.5203 -0.7687
  866MPD2     N12769   1.741   2.209  11.018 -0.4275  0.2240  0.0241
  866MPD2    H512770   1.712   2.302  11.047 -0.0808  1.2566 -3.0067
  866MPD2    N112771   2.050   1.854  11.155  0.1651  0.0947 -0.8522
  866MPD2    H712772   2.130   1.840  11.216 -0.4236  1.1799  0.1742
  867MPD2     C12773   4.237   0.939  17.310  0.9185  0.3105  0.2384
  867MPD2    C112774   4.251   1.015  17.194  0.3491  0.3323 -0.0646
  867MPD2    C212775   4.271   1.153  17.201  0.3874 -0.0243  0.6433
  867MPD2    C312776   4.282   1.208  17.325  0.4644 -0.1287  0.4686
  867MPD2    C412777   4.272   1.127  17.433 -0.1873 -0.0751  0.4367
  867MPD2    C512778   4.236   0.999  17.429 -0.6567 -0.4832 -0.6155
  867MPD2     H12779   4.292   1.211  17.112 -2.3754 -0.9563 -0.6127
  867MPD2    H112780   4.293   1.173  17.529 -1.3365  0.4936  0.4228
  867MPD2    H212781   4.210   0.835  17.302 -0.6931  0.6113  1.8961
  867MPD2    H312782   4.211   0.940  17.516 -2.0426  0.2686 -0.4999
  867MPD2     N12783   4.303   1.344  17.354  0.2197 -0.2495 -0.4120
  867MPD2    H512784   4.326   1.372  17.449 -1.4083  1.1315 -0.4388
  867MPD2    N112785   4.246   0.949  17.075 -0.0333  0.1243  0.7045
  867MPD2    H712786   4.237   0.849  17.087  0.3730 -0.1072 -0.9723
  868MPD2     C12787   1.476   0.538  13.206  0.4275  0.7706  0.0654
  868MPD2    C112788   1.467   0.402  13.215 -0.0499 -0.4164  0.2516
  868MPD2    C212789   1.397   0.347  13.320 -0.0713  0.3905  0.2139
  868MPD2    C312790   1.338   0.421  13.418 -0.3862  1.3934  0.2894
  868MPD2    C412791   1.347   0.557  13.403  0.4590 -0.4590 -0.4796
  868MPD2    C512792   1.407   0.613  13.293 -0.0384  0.5322 -0.1273
  868MPD2     H12793   1.396   0.239  13.329 -1.2014  0.4126  0.4003
  868MPD2    H112794   1.308   0.619  13.482  0.9813  0.5772 -1.0292
  868MPD2    H212795   1.531   0.579  13.123 -0.3059 -1.7332 -1.6766
  868MPD2    H312796   1.418   0.721  13.293 -1.0131  0.6425  1.2536
  868MPD2     N12797   1.262   0.349  13.517 -0.3739 -0.1264  0.4599
  868MPD2    H512798   1.264   0.248  13.526 -2.1055 -0.1973 -0.0154
  868MPD2    N112799   1.534   0.329  13.112 -0.0787 -0.2083  0.2300
  868MPD2    H712800   1.584   0.394  13.052 -2.0701 -0.2177 -1.4389
  869MPD2     C12801   1.674   3.475   0.773  0.4667 -0.5408  0.1554
  869MPD2    C112802   1.632   3.340   0.776 -0.7539 -0.0267 -0.3864
  869MPD2    C212803   1.734   3.242   0.755 -0.2189  0.7809  0.1563
  869MPD2    C312804   1.859   3.281   0.733 -0.3096  0.5782 -0.0957
  869MPD2    C412805   1.893   3.413   0.719  0.3477 -0.2275 -0.8676
  869MPD2    C512806   1.801   3.512   0.739  0.2474  0.5546 -0.0246
  869MPD2     H12807   1.713   3.137   0.770 -1.4774  1.3830  2.5868
  869MPD2    H112808   1.993   3.451   0.698 -0.1444  1.4966 -0.1000
  869MPD2    H212809   1.604   3.556   0.790  1.4621  0.4747 -0.6121
  869MPD2    H312810   1.833   3.615   0.735  2.5514 -0.1855 -0.7409
  869MPD2     N12811   1.962   3.188   0.697 -0.7490  0.0990  0.0050
  869MPD2    H512812   2.049   3.232   0.669 -1.1726 -0.7943 -2.7151
  869MPD2    N112813   1.499   3.307   0.814  0.3826  0.2327 -0.7116
  869MPD2    H712814   1.432   3.383   0.818 -0.6681 -0.8723  2.3095
  870MPD2     C12815   2.286   1.353   2.026  0.3107 -0.2859  0.6736
  870MPD2    C112816   2.287   1.344   1.893  1.0517  0.5454  0.9889
  870MPD2    C212817   2.213   1.430   1.812  0.0651 -0.2468 -0.3662
  870MPD2    C312818   2.126   1.518   1.873  0.7769  0.7588  0.9210
  870MPD2    C412819   2.124   1.532   2.006  0.7586 -0.0248  0.3093
  870MPD2    C512820   2.196   1.446   2.083 -0.1089  0.6095 -0.0986
  870MPD2     H12821   2.207   1.410   1.706  2.7403 -0.8461 -0.4186
  870MPD2    H112822   2.065   1.610   2.053  0.2631  0.4710 -1.1196
  870MPD2    H212823   2.362   1.309   2.089  1.9480  1.7718  0.1372
  870MPD2    H312824   2.189   1.457   2.190  0.6670  1.0694 -0.0965
  870MPD2     N12825   2.034   1.589   1.798 -0.1359  0.2038 -0.3604
  870MPD2    H512826   2.045   1.587   1.697 -2.7203  2.2342 -0.7013
  870MPD2    N112827   2.366   1.231   1.845  0.3162  0.0539 -0.0733
  870MPD2    H712828   2.422   1.183   1.915  1.2892  1.7304  0.2969
  871MPD2     C12829   3.406   1.371  16.495  0.3325 -0.4639 -0.4600
  871MPD2    C112830   3.407   1.258  16.571 -0.1572  0.2468  0.1446
  871MPD2    C212831   3.445   1.137  16.517  0.2608  0.0400  0.8352
  871MPD2    C312832   3.498   1.130  16.389  0.4746 -0.1235  0.4002
  871MPD2    C412833   3.502   1.245  16.311 -0.4552  0.8801  0.0596
  871MPD2    C512834   3.449   1.359  16.366  0.6154 -0.2280 -0.6045
  871MPD2     H12835   3.437   1.039  16.564  0.3773 -1.2338 -1.7560
  871MPD2    H112836   3.552   1.261  16.216 -0.9880 -0.3750 -0.4212
  871MPD2    H212837   3.374   1.465  16.539  0.1362 -0.9837  0.5009
  871MPD2    H312838   3.447   1.443  16.298 -0.2187 -0.1801 -0.5178
  871MPD2     N12839   3.529   0.999  16.336 -0.5100  0.3832  0.5175
  871MPD2    H512840   3.543   0.926  16.406 -0.9341  1.1823  1.4470
  871MPD2    N112841   3.348   1.274  16.703  0.2671  0.5978 -0.3568
  871MPD2    H712842   3.321   1.368  16.730 -2.7651 -0.4796  0.3368
  872MPD2     C12843   4.172   3.613  13.558  0.6081 -0.1306  0.5997
  872MPD2    C112844   4.115   3.703  13.646 -0.3343  0.2138  0.2671
  872MPD2    C212845   3.975   3.692  13.672 -0.8062 -0.6352 -0.6991
  872MPD2    C312846   3.907   3.582  13.616 -0.5560  0.4752 -0.2592
  872MPD2    C412847   3.968   3.488  13.537 -0.1548 -0.3961 -0.3696
  872MPD2    C512848   4.096   3.511  13.504  0.4162  0.7201  0.1036
  872MPD2     H12849   3.925   3.761  13.738  2.0156  3.8129 -3.2702
  872MPD2    H112850   3.918   3.399  13.499  0.7876 -1.5369  1.0981
  872MPD2    H212851   4.278   3.622  13.537  0.6138 -2.2923 -0.3160
  872MPD2    H312852   4.144   3.441  13.438 -0.8424 -0.3459  0.3298
  872MPD2     N12853   3.772   3.574  13.661  0.6930 -0.5962 -0.0641
  872MPD2    H512854   3.729   3.654  13.704  0.0282 -1.6786  1.2806
  872MPD2    N112855   4.178   3.808  13.709 -0.1963 -0.1209 -0.0187
  872MPD2    H712856   4.117   3.879  13.748 -0.2466  1.4384 -2.9442
  873MPD2     C12857   0.440   3.461   0.884 -0.3911  0.6474  0.8552
  873MPD2    C112858   0.548   3.442   0.962 -0.0484  0.2729 -0.4174
  873MPD2    C212859   0.590   3.317   0.977  0.0969 -0.5447 -0.6038
  873MPD2    C312860   0.525   3.207   0.930  0.4424  0.6149 -0.0683
  873MPD2    C412861   0.414   3.228   0.860  0.0181  0.4986  0.3044
  873MPD2    C512862   0.372   3.355   0.828  0.8428 -0.2853  0.6239
  873MPD2     H12863   0.661   3.305   1.058 -2.2559  0.3832  1.6180
  873MPD2    H112864   0.363   3.150   0.804 -1.2863  1.0311  0.7570
  873MPD2    H212865   0.409   3.564   0.867  0.0953  0.5607 -0.5457
  873MPD2    H312866   0.292   3.367   0.756  0.6538 -0.8686  0.7353
  873MPD2     N12867   0.575   3.077   0.945 -0.2493 -0.1511 -0.2208
  873MPD2    H512868   0.508   3.007   0.918  0.9203 -1.5491  0.5171
  873MPD2    N112869   0.624   3.550   1.021 -0.7454 -0.0691 -0.1056
  873MPD2    H712870   0.689   3.524   1.093 -0.6894  0.5721  0.0777
  874MPD2     C12871   0.464   3.562  16.262  0.1929  0.4929  0.3915
  874MPD2    C112872   0.547   3.512  16.361  0.9718  0.7326  0.4265
  874MPD2    C212873   0.674   3.555  16.379 -0.6165  0.0457  0.1379
  874MPD2    C312874   0.720   3.651  16.295  0.1184 -0.7140 -0.3997
  874MPD2    C412875   0.636   3.704  16.201 -0.0150 -0.6487  0.3701
  874MPD2    C512876   0.502   3.660  16.181 -0.2859  0.3542 -0.4648
  874MPD2     H12877   0.745   3.506  16.445 -2.1444 -0.7144  1.1912
  874MPD2    H112878   0.662   3.798  16.154 -1.5921 -0.5288 -0.2831
  874MPD2    H212879   0.363   3.524  16.261  0.4453 -0.0814 -3.2230
  874MPD2    H312880   0.425   3.706  16.120 -0.5830 -1.5050 -1.4996
  874MPD2     N12881   0.857   3.697  16.316  0.4649 -1.0062  0.1081
  874MPD2    H512882   0.901   3.670  16.404  0.9452 -0.1614  0.1252
  874MPD2    N112883   0.493   3.416  16.450 -0.4715  0.6614  0.6869
  874MPD2    H712884   0.393   3.400  16.440  0.2496 -2.3084 -1.7892
  875MPD2     C12885   1.970   2.064  14.800  0.7922 -0.3205  0.4467
  875MPD2    C112886   1.854   2.073  14.872 -0.1329  0.5337  0.4336
  875MPD2    C212887   1.858   2.114  15.001  0.5161 -0.1457  0.2160
  875MPD2    C312888   1.976   2.141  15.063 -0.6033 -0.4369  0.6373
  875MPD2    C412889   2.092   2.133  14.994  0.1908  0.3449  0.2670
  875MPD2    C512890   2.089   2.108  14.862  0.2592 -0.2353 -0.0210
  875MPD2     H12891   1.764   2.099  15.054 -0.4537  0.2371 -1.3997
  875MPD2    H112892   2.182   2.152  15.052  0.7039 -0.3711 -0.3052
  875MPD2    H212893   1.975   2.032  14.697 -1.2152  1.7998 -0.3097
  875MPD2    H312894   2.184   2.087  14.813  0.8671  1.0544  0.6140
  875MPD2     N12895   1.980   2.172  15.205 -0.8305  0.1570  0.5151
  875MPD2    H512896   2.064   2.216  15.241 -0.4836  0.5999 -0.8517
  875MPD2    N112897   1.730   2.019  14.835 -0.4523  0.4621  0.6500
  875MPD2    H712898   1.644   2.040  14.886 -1.1521  0.1774 -0.3963
  876MPD2     C12899   0.905   3.386  16.095  0.0407  0.4880 -0.4064
  876MPD2    C112900   0.978   3.326  15.996  0.2364 -0.1114  0.0722
  876MPD2    C212901   0.990   3.186  16.010 -0.6993 -0.2026  0.0982
  876MPD2    C312902   0.936   3.114  16.110 -0.3532  0.2292 -0.1253
  876MPD2    C412903   0.861   3.182  16.203 -0.5215 -0.2152  0.1098
  876MPD2    C512904   0.853   3.309  16.197 -0.0710 -0.1086 -0.2950
  876MPD2     H12905   1.054   3.130  15.942  2.8629  2.1038  1.5302
  876MPD2    H112906   0.827   3.134  16.294  2.1040  0.4880  1.4547
  876MPD2    H212907   0.885   3.492  16.101 -1.2973  0.1678  0.7994
  876MPD2    H312908   0.806   3.359  16.281 -0.6430 -1.7691  0.3791
  876MPD2     N12909   0.969   2.971  16.123  0.5482  0.7708  0.4930
  876MPD2    H512910   1.034   2.937  16.052 -1.2441 -1.0385 -0.2775
  876MPD2    N112911   1.021   3.403  15.889 -0.0639  0.2737  0.6783
  876MPD2    H712912   0.978   3.493  15.870 -0.0532  0.1639  0.1105
  877MPD2     C12913   0.755   3.880  15.359 -0.1536  0.0438 -0.2975
  877MPD2    C112914   0.894   3.892  15.350 -0.2441 -0.0430 -0.2033
  877MPD2    C212915   0.956   3.956  15.241 -0.3296  0.0233 -0.2650
  877MPD2    C312916   0.873   4.012  15.144  0.4034 -0.2892 -0.6019
  877MPD2    C412917   0.738   4.001  15.154  0.2966  0.0115  0.5339
  877MPD2    C512918   0.676   3.940  15.260  0.3250 -0.3730  0.5972
  877MPD2     H12919   1.064   3.953  15.227 -0.4854  0.1133 -1.5312
  877MPD2    H112920   0.678   4.037  15.070 -3.2273 -2.2790  2.0533
  877MPD2    H212921   0.707   3.823  15.438  0.6304 -2.6816 -1.7906
  877MPD2    H312922   0.570   3.917  15.257  0.4016 -0.7278  0.5594
  877MPD2     N12923   0.923   4.068  15.025 -0.7308  0.3424 -0.4565
  877MPD2    H512924   0.853   4.072  14.951 -1.8818  1.5960  0.7093
  877MPD2    N112925   0.978   3.818  15.428 -0.0717 -0.3268 -0.9294
  877MPD2    H712926   1.076   3.834  15.405 -0.4338  0.6112 -1.8212
  878MPD2     C12927   0.878   3.325  13.283  0.2168  0.2527  1.0388
  878MPD2    C112928   0.867   3.448  13.230  0.2209 -0.1951 -0.3663
  878MPD2    C212929   0.760   3.528  13.276 -0.7242  0.1769 -0.7741
  878MPD2    C312930   0.665   3.484  13.372 -0.1909  0.2694  0.0622
  878MPD2    C412931   0.680   3.357  13.417 -0.0381 -0.0795 -0.1328
  878MPD2    C512932   0.789   3.278  13.376 -0.4619 -0.3436 -0.0739
  878MPD2     H12933   0.743   3.626  13.233  2.9104  0.6571 -1.1002
  878MPD2    H112934   0.620   3.329  13.503 -0.9671  0.4533 -0.5993
  878MPD2    H212935   0.960   3.266  13.243 -1.9990 -2.5309  0.5968
  878MPD2    H312936   0.818   3.188  13.428 -3.5077  0.1645  2.5119
  878MPD2     N12937   0.575   3.584  13.407 -0.4724  0.7893  0.8168
  878MPD2    H512938   0.583   3.677  13.368  3.9962 -0.6514 -1.6135
  878MPD2    N112939   0.958   3.486  13.130 -0.6181 -1.1555  0.1960
  878MPD2    H712940   1.023   3.417  13.094 -0.4944 -1.3083  0.7163
  879MPD2     C12941   0.983   3.711  17.453  0.5525 -0.1779 -0.2422
  879MPD2    C112942   1.018   3.759  17.328 -0.6220 -0.5843  0.2136
  879MPD2    C212943   0.968   3.694  17.223 -0.7060  1.0975  0.1751
  879MPD2    C312944   0.900   3.575  17.241 -0.1571 -0.2608  0.1445
  879MPD2    C412945   0.882   3.518  17.365 -0.0727  0.3638 -0.1385
  879MPD2    C512946   0.921   3.593  17.473 -0.3788 -0.2849 -0.4376
  879MPD2     H12947   0.969   3.737  17.124  0.8266 -0.8929 -0.6761
  879MPD2    H112948   0.821   3.429  17.373  1.5869 -0.9271 -1.7189
  879MPD2    H212949   1.007   3.771  17.541  0.4668 -0.6867  0.1271
  879MPD2    H312950   0.880   3.564  17.569 -1.8254 -0.7344 -1.1950
  879MPD2     N12951   0.833   3.514  17.137 -0.0878 -0.0511  0.7128
  879MPD2    H512952   0.763   3.443  17.156 -0.5287  0.2962  0.3934
  879MPD2    N112953   1.085   3.882  17.317 -0.2320  0.2520 -0.4608
  879MPD2    H712954   1.092   3.938  17.401 -3.4858  0.3022 -0.1994
  880MPD2     C12955   1.893   1.297   0.259 -0.0687  0.5979  0.0480
  880MPD2    C112956   1.938   1.319   0.385  0.1672 -0.8878  0.9675
  880MPD2    C212957   1.984   1.208   0.456  0.5118 -0.2636  0.4849
  880MPD2    C312958   1.986   1.083   0.405 -0.0611  0.2597 -0.6879
  880MPD2    C412959   1.945   1.068   0.274 -0.0635 -0.7078  0.5538
  880MPD2    C512960   1.900   1.172   0.199 -0.2637 -0.2500 -0.0487
  880MPD2     H12961   2.012   1.217   0.561  0.0766  0.7032  0.5253
  880MPD2    H112962   1.940   0.965   0.240 -4.0112  0.1762 -1.4935
  880MPD2    H212963   1.837   1.371   0.204  0.1353  0.2139 -0.6874
  880MPD2    H312964   1.855   1.153   0.102  0.1905  0.1533 -0.3406
  880MPD2     N12965   2.030   0.974   0.480  0.1172 -0.2931  0.0771
  880MPD2    H512966   2.036   0.983   0.581  2.9018  0.4735 -0.1640
  880MPD2    N112967   1.930   1.445   0.433  0.4428  0.5481  0.3897
  880MPD2    H712968   1.901   1.517   0.367 -0.5374  0.0012  0.2328
  881MPD2     C12969   2.540   2.133   0.205 -0.1354  0.1086 -0.8240
  881MPD2    C112970   2.524   2.002   0.166 -0.1918 -0.9555 -0.3461
  881MPD2    C212971   2.445   1.916   0.248 -0.3909 -0.1977  0.5397
  881MPD2    C312972   2.399   1.974   0.370 -0.2701  0.5401 -0.9308
  881MPD2    C412973   2.426   2.106   0.406 -0.1326 -1.0212 -0.3909
  881MPD2    C512974   2.495   2.186   0.321 -0.6245  0.0337  1.1214
  881MPD2     H12975   2.417   1.814   0.227  2.0497 -1.0536  1.4455
  881MPD2    H112976   2.383   2.140   0.500 -0.1870  0.4786 -0.9605
  881MPD2    H212977   2.580   2.201   0.132 -2.1700 -0.1506 -2.1884
  881MPD2    H312978   2.511   2.292   0.334  1.7873  0.0628 -2.0261
  881MPD2     N12979   2.309   1.911   0.459 -0.3747 -0.6637  0.3761
  881MPD2    H512980   2.256   1.975   0.518 -0.2762  0.0779 -0.3397
  881MPD2    N112981   2.554   1.963   0.032  0.5880 -0.2278 -0.6599
  881MPD2    H712982   2.595   2.039  17.713  0.5131  1.3184  1.4559
  882MPD2     C12983   0.966   4.101  14.159  0.4936  0.0086 -0.0579
  882MPD2    C112984   0.905   4.095  14.279 -0.4929  1.0043  0.1070
  882MPD2    C212985   0.779   4.039  14.288 -0.5580  0.1288 -0.7387
  882MPD2    C312986   0.705   4.005  14.175  0.2729 -0.5343  0.1433
  882MPD2    C412987   0.759   4.026  14.049  0.9919  0.4740 -0.2283
  882MPD2    C512988   0.897   4.065  14.044  0.8648  0.1184 -0.3604
  882MPD2     H12989   0.722   4.025  14.379 -0.0501 -1.5079 -0.6750
  882MPD2    H112990   0.705   4.006  13.957 -1.9305  2.5009  1.0482
  882MPD2    H212991   1.071   4.128  14.156  0.4390  0.2010 -0.2815
  882MPD2    H312992   0.952   4.081  13.952  2.8311  1.7799  1.0965
  882MPD2     N12993   0.572   3.960  14.173  0.2765  0.7491 -0.2099
  882MPD2    H512994   0.524   3.935  14.087 -0.4089 -1.1135  0.7315
  882MPD2    N112995   0.972   4.146  14.392 -0.7566 -0.0037 -0.0122
  882MPD2    H712996   1.072   4.162  14.384 -0.7103 -0.7402 -0.9748
  883MPD2     C12997   2.473   4.019  15.794  0.1190 -0.1864 -0.0755
  883MPD2    C112998   2.582   3.935  15.769  0.5265  0.1885 -0.3504
  883MPD2    C212999   2.705   3.996  15.796  0.1495  0.3906  0.0167
  883MPD2    C313000   2.718   4.103  15.878 -0.5329  0.7493 -0.3879
  883MPD2    C413001   2.605   4.166  15.921  0.7806 -0.5446  0.2764
  883MPD2    C513002   2.487   4.131  15.868  0.2329  0.2163  0.2096
  883MPD2     H13003   2.791   3.932  15.777  0.1362  0.5031 -0.4081
  883MPD2    H113004   2.614   4.257  15.981 -0.4829 -0.0356 -0.2959
  883MPD2    H213005   2.371   3.993  15.768  0.4165 -0.2459 -1.1837
  883MPD2    H313006   2.402   4.194  15.891  0.2939  0.3279  0.1316
  883MPD2     N13007   2.844   4.147  15.917 -0.3783 -0.0007 -0.6170
  883MPD2    H513008   2.922   4.100  15.872 -1.1885 -0.9428 -1.0265
  883MPD2    N113009   2.578   3.823  15.689 -0.0388 -0.7181  0.1547
  883MPD2    H713010   2.660   3.780  15.646 -1.0128 -0.3444 -2.0981
  884MPD2     C13011   4.694   4.269  15.130  0.2656 -0.4442 -0.4373
  884MPD2    C113012   4.677   4.406  15.116 -0.3199  0.8907  0.5200
  884MPD2    C213013   4.553   4.451  15.079  0.4816  0.0581  0.5385
  884MPD2    C313014   4.449   4.362  15.069  0.0004 -0.9711 -0.4649
  884MPD2    C413015   4.468   4.228  15.078  0.5423  0.5247 -0.3572
  884MPD2    C513016   4.587   4.184  15.115  0.4031 -0.2422  0.4313
  884MPD2     H13017   4.520   4.551  15.053  1.0322  0.0480 -0.2343
  884MPD2    H113018   4.390   4.159  15.047 -0.6737 -0.0712  3.9935
  884MPD2    H213019   0.060   4.227  15.134  0.0956 -0.8944 -0.9478
  884MPD2    H313020   4.621   4.082  15.112 -0.4674 -0.5220  0.1760
  884MPD2     N13021   4.325   4.420  15.031  0.5199  0.2090  0.3799
  884MPD2    H513022   4.319   4.522  15.027  0.1754  0.2087  0.9197
  884MPD2    N113023   0.046   4.506  15.130 -0.8171 -0.4961  0.6800
  884MPD2    H713024   0.024   4.600  15.097 -0.8851 -1.3087 -1.5807
  885MPD2     C13025   2.414   4.613   0.227  0.0773 -0.4581  0.3757
  885MPD2    C113026   2.548   4.612   0.221 -0.2105  0.4831 -0.2874
  885MPD2    C213027   2.607   4.633   0.094 -0.8310  0.2293 -0.1650
  885MPD2    C313028   2.534   4.651  17.708 -0.1765  0.2559 -0.3538
  885MPD2    C413029   2.400   4.632  17.715 -0.9794 -0.5021  0.6677
  885MPD2    C513030   2.342   4.623   0.106  0.4414  0.0755  0.6659
  885MPD2     H13031   2.715   4.639   0.092 -1.0133  3.2508 -0.1598
  885MPD2    H113032   2.337   4.637  17.626 -1.3217 -1.0847  0.8729
  885MPD2    H213033   2.365   4.600   0.323 -0.0906  0.2431  0.3861
  885MPD2    H313034   2.235   4.623   0.119  0.3160 -2.1112 -0.4216
  885MPD2     N13035   2.604   4.695  17.591  0.0717 -0.2382  0.4745
  885MPD2    H513036   2.704   4.679  17.595 -0.0305 -0.0202  3.5092
  885MPD2    N113037   2.622   4.604   0.336 -0.4212  0.0375  0.2245
  885MPD2    H713038   2.564   4.588   0.418 -1.8119  0.3341 -0.7062
  886MPD2     C13039   3.817   3.121  15.289  0.1118 -0.4191 -0.2860
  886MPD2    C113040   3.948   3.142  15.323 -0.4309  0.0606 -0.1148
  886MPD2    C213041   4.023   3.242  15.256 -0.7934  0.0804 -0.2094
  886MPD2    C313042   3.972   3.313  15.145 -0.1239  0.2492 -0.1336
  886MPD2    C413043   3.840   3.294  15.122  0.6083 -0.2512 -0.1856
  886MPD2    C513044   3.767   3.201  15.193 -0.1815 -0.3289  0.2742
  886MPD2     H13045   4.123   3.255  15.295 -0.3817  0.9142 -1.5614
  886MPD2    H113046   3.782   3.340  15.043  0.1933  0.3172  0.4442
  886MPD2    H213047   3.758   3.037  15.324 -1.7790  1.0912  0.1432
  886MPD2    H313048   3.664   3.199  15.157 -0.3111 -1.8061  0.7151
  886MPD2     N13049   4.042   3.395  15.058  0.2062 -0.3189 -0.2079
  886MPD2    H513050   3.992   3.431  14.977  1.1855  0.9022 -0.2715
  886MPD2    N113051   4.016   3.072  15.427 -0.2379 -0.5126 -0.1621
  886MPD2    H713052   4.112   3.098  15.448 -0.4831  0.4310 -0.1821
  887MPD2     C13053   4.365   3.269  16.051 -0.0863 -0.4940  0.2554
  887MPD2    C113054   4.369   3.277  15.912  0.0274 -0.2649 -0.5708
  887MPD2    C213055   4.443   3.375  15.852  0.4955  0.3666  1.0664
  887MPD2    C313056   4.514   3.466  15.923  0.5517 -0.1860 -0.6192
  887MPD2    C413057   4.499   3.467  16.063 -0.1262 -0.5634  0.0510
  887MPD2    C513058   4.424   3.367  16.122  0.2008  0.8104 -0.2311
  887MPD2     H13059   4.443   3.375  15.744  1.5347 -0.4667  1.0651
  887MPD2    H113060   4.532   3.538  16.138  0.0613 -1.0743  0.4508
  887MPD2    H213061   4.299   3.200  16.103 -0.8371  0.0234 -0.0216
  887MPD2    H313062   4.430   3.362  16.230  0.2368 -0.2807 -0.2842
  887MPD2     N13063   4.600   3.554  15.859 -0.4992 -0.2633  0.1344
  887MPD2    H513064   4.602   3.559  15.758  2.2537 -0.9082  0.1521
  887MPD2    N113065   4.292   3.191  15.832  0.0399 -0.0649 -0.6260
  887MPD2    H713066   4.295   3.216  15.733  0.7529 -1.2781 -0.9054
  888MPD2     C13067   2.113   3.028  15.089 -0.1939 -0.7025 -0.9870
  888MPD2    C113068   1.997   3.105  15.105  0.5774  0.3210  0.5957
  888MPD2    C213069   1.995   3.235  15.053  0.9495  0.3385  0.0468
  888MPD2    C313070   2.099   3.282  14.974 -0.1618 -0.0146  0.2291
  888MPD2    C413071   2.201   3.196  14.945  0.8801 -0.1761  0.1613
  888MPD2    C513072   2.200   3.069  14.996 -0.1681  0.3004  0.8167
  888MPD2     H13073   1.914   3.301  15.080  0.2212  0.0411 -1.4459
  888MPD2    H113074   2.281   3.214  14.874  1.2475 -0.2510  0.5554
  888MPD2    H213075   2.113   2.925  15.123  0.7628 -0.5909 -0.6468
  888MPD2    H313076   2.280   3.002  14.970 -1.0382 -0.9212  1.2847
  888MPD2     N13077   2.108   3.416  14.929  0.5524 -0.5793  0.3125
  888MPD2    H513078   2.024   3.471  14.937  0.5899 -0.9604  3.2024
  888MPD2    N113079   1.887   3.055  15.179  0.4448 -0.1131  0.0364
  888MPD2    H713080   1.797   3.103  15.173  0.8769  0.4776 -1.8559
  889MPD2     C13081   1.232   2.862  12.962  0.3647  0.0848  0.1214
  889MPD2    C113082   1.345   2.859  13.049 -0.3515 -0.1503 -0.7701
  889MPD2    C213083   1.382   2.969  13.130 -0.0975  0.7537  0.7092
  889MPD2    C313084   1.315   3.087  13.105 -0.6702  0.5938 -0.3995
  889MPD2    C413085   1.206   3.092  13.020 -0.5153 -0.0664  0.1720
  889MPD2    C513086   1.176   2.986  12.936 -0.1363 -0.7413  0.1248
  889MPD2     H13087   1.475   2.964  13.185  0.2856 -0.7843 -0.0660
  889MPD2    H113088   1.144   3.179  13.001 -0.4354  0.2737  1.4931
  889MPD2    H213089   1.205   2.784  12.891 -0.3586  0.7813 -0.3660
  889MPD2    H313090   1.094   2.988  12.865 -0.1132 -0.5401  0.1048
  889MPD2     N13091   1.347   3.192  13.189  0.6525 -0.1037 -0.6996
  889MPD2    H513092   1.409   3.170  13.265 -0.8259 -0.6753  0.3371
  889MPD2    N113093   1.391   2.733  13.066 -0.4417 -0.1685  0.2547
  889MPD2    H713094   1.354   2.663  13.001 -0.6894 -0.0816  0.3021
  890MPD2     C13095   0.592   0.005  14.781  0.9357 -0.5126  0.1800
  890MPD2    C113096   0.707   0.055  14.838 -0.3516  0.3986  0.7244
  890MPD2    C213097   0.771   4.720  14.936  0.0735 -0.3090 -0.6363
  890MPD2    C313098   0.719   4.609  14.987 -0.0506 -0.1419 -0.0715
  890MPD2    C413099   0.598   4.556  14.937  0.0532  0.0267  0.0334
  890MPD2    C513100   0.539   4.620  14.832  0.4163 -0.0750  0.4624
  890MPD2     H13101   0.854   0.031  14.989  1.3647 -1.0932 -2.0128
  890MPD2    H113102   0.531   4.481  14.976 -1.0180  1.1934  0.4263
  890MPD2    H213103   0.533   0.059  14.708  0.4030 -0.0186  0.9742
  890MPD2    H313104   0.444   4.581  14.798 -1.0463  1.7171  2.5316
  890MPD2     N13105   0.795   4.546  15.083  0.1516  0.1714  0.3990
  890MPD2    H513106   0.891   4.575  15.098  0.2332 -0.4298  1.0644
  890MPD2    N113107   0.758   0.178  14.788  0.0212 -0.6358  0.1509
  890MPD2    H713108   0.735   0.207  14.694  0.3574 -1.2577 -0.1259
  891MPD2     C13109   3.714   3.168  16.501 -0.6095  0.3471 -0.2319
  891MPD2    C113110   3.700   3.270  16.590  0.5617  0.0118  0.8786
  891MPD2    C213111   3.761   3.269  16.718  0.5640  0.5946 -0.0313
  891MPD2    C313112   3.847   3.164  16.753 -0.7653  0.8763 -0.0899
  891MPD2    C413113   3.850   3.058  16.663 -0.5091 -0.4398 -0.2445
  891MPD2    C513114   3.791   3.059  16.544 -0.7460  0.0620 -0.0922
  891MPD2     H13115   3.737   3.349  16.787  1.3571  0.0789  0.8322
  891MPD2    H113116   3.891   2.964  16.699  2.2559 -0.0278 -2.3393
  891MPD2    H213117   3.675   3.164  16.400  1.1268 -2.2742 -0.8143
  891MPD2    H313118   3.786   2.967  16.486  0.4035 -1.4591  2.2382
  891MPD2     N13119   3.914   3.160  16.878  0.0020 -1.3180 -0.4064
  891MPD2    H513120   3.885   3.219  16.956  0.6558 -1.9826  0.3359
  891MPD2    N113121   3.613   3.372  16.547  0.3447  0.6088  0.0151
  891MPD2    H713122   3.588   3.352  16.451  0.0882  1.4631 -0.0946
  892MPD2     C13123   4.512   3.967  14.833  0.8405  0.1466  0.3455
  892MPD2    C113124   4.480   3.992  14.706 -0.5154  1.0249 -0.2467
  892MPD2    C213125   4.581   3.998  14.609  0.4278 -0.1408 -0.0001
  892MPD2    C313126   4.711   3.959  14.638  0.1526  1.0842 -0.2482
  892MPD2    C413127   0.006   3.944  14.771  0.1132 -0.0648  0.1553
  892MPD2    C513128   4.645   3.943  14.872 -0.7158 -0.0824  1.0441
  892MPD2     H13129   4.559   4.019  14.505  0.9609  0.0773 -0.0692
  892MPD2    H113130   0.109   3.932  14.804  0.3368 -0.2528 -0.6137
  892MPD2    H213131   4.438   3.967  14.912  1.0256 -2.0792  0.4953
  892MPD2    H313132   4.676   3.928  14.974  0.8906 -1.1856  0.3847
  892MPD2     N13133   0.072   3.957  14.534  0.1794  0.4155  0.3394
  892MPD2    H513134   0.168   3.980  14.555  0.4040 -1.8738  1.8422
  892MPD2    N113135   4.347   4.026  14.672  0.1932  0.1371  0.7075
  892MPD2    H713136   4.283   4.034  14.751  1.8501 -1.2507  2.1688
  893MPD2     C13137   1.170   1.782   1.639  0.6004  0.6513  0.0590
  893MPD2    C113138   1.109   1.882   1.570 -0.5223  0.0081 -0.6753
  893MPD2    C213139   0.973   1.910   1.597  0.5475 -0.3724  0.1624
  893MPD2    C313140   0.902   1.831   1.678  0.9356 -0.9465 -0.7787
  893MPD2    C413141   0.967   1.725   1.742 -0.0519 -0.0100  0.1681
  893MPD2    C513142   1.097   1.697   1.715 -0.3369 -0.3199  0.5774
  893MPD2     H13143   0.925   1.997   1.553  2.9126  1.2008  0.7310
  893MPD2    H113144   0.915   1.665   1.815  0.2210  0.7695  0.9978
  893MPD2    H213145   1.271   1.746   1.623  0.4962 -0.4134  1.8285
  893MPD2    H313146   1.150   1.613   1.759 -0.0555 -0.2292  0.4138
  893MPD2     N13147   0.757   1.840   1.701 -0.0452 -0.6277 -0.0296
  893MPD2    H513148   0.705   1.777   1.760  0.4022 -0.4251  0.5884
  893MPD2    N113149   1.196   1.967   1.499 -0.0678  0.3292 -0.3659
  893MPD2    H713150   1.297   1.958   1.505 -0.1575  0.5445  1.4318
  894MPD2     C13151   4.142   0.027   1.098 -0.1565 -1.2837 -0.5292
  894MPD2    C113152   4.198   0.007   1.225  0.2556 -0.5995 -0.3354
  894MPD2    C213153   4.295   0.097   1.268 -0.1896  0.1671 -0.4870
  894MPD2    C313154   4.346   0.194   1.185 -0.4092 -0.1644  0.0876
  894MPD2    C413155   4.306   0.199   1.048  0.4226  0.5581  0.8376
  894MPD2    C513156   4.210   0.110   1.010  0.0405  0.3047  0.3658
  894MPD2     H13157   4.325   0.100   1.372 -0.8512  0.3295 -0.3027
  894MPD2    H113158   4.351   0.263   0.972 -0.3790 -0.3432 -0.4055
  894MPD2    H213159   4.069   4.691   1.057 -0.8878 -1.2980  0.8236
  894MPD2    H313160   4.173   0.127   0.910 -0.3794  0.2074  0.5051
  894MPD2     N13161   4.431   0.292   1.234 -0.0305 -0.0571  0.5122
  894MPD2    H513162   4.452   0.288   1.333  1.5617 -0.4326  0.1542
  894MPD2    N113163   4.132   4.645   1.311 -0.2615  0.3825  0.5358
  894MPD2    H713164   4.060   4.585   1.269  1.1121  0.4295 -1.8546
  895MPD2     C13165   4.339   2.810  13.603  0.1888 -0.0335  0.3865
  895MPD2    C113166   4.229   2.753  13.558  0.2115  0.2616 -0.0535
  895MPD2    C213167   4.194   2.623  13.583  0.2631 -0.3684 -0.2087
  895MPD2    C313168   4.284   2.536  13.646 -0.2339  0.1177  0.5510
  895MPD2    C413169   4.400   2.599  13.700 -0.5274  0.1058 -0.5864
  895MPD2    C513170   4.426   2.734  13.681 -0.8801 -0.3387 -0.1501
  895MPD2     H13171   4.107   2.580  13.534 -0.9871  1.4361  0.4668
  895MPD2    H113172   4.470   2.533  13.752 -1.2020  1.9850  2.7197
  895MPD2    H213173   4.365   2.915  13.588 -2.8146  0.9270  1.9074
  895MPD2    H313174   4.519   2.773  13.722 -0.3600 -2.0865  0.3625
  895MPD2     N13175   4.265   2.403  13.661  0.2133  0.3090  0.3282
  895MPD2    H513176   4.322   2.354  13.729  1.0592 -0.2448 -0.7806
  895MPD2    N113177   4.136   2.816  13.477  0.0262 -0.1364  0.3417
  895MPD2    H713178   4.048   2.767  13.468  0.7969 -1.4636 -0.1049
  896MPD2     C13179   1.413   0.422   1.518  0.7383  0.3148 -0.5508
  896MPD2    C113180   1.389   0.415   1.382  0.4477  0.1230  1.0613
  896MPD2    C213181   1.256   0.410   1.336  0.4132  0.1137  0.7769
  896MPD2    C313182   1.153   0.398   1.422  0.1227  0.2992  0.5641
  896MPD2    C413183   1.172   0.409   1.557  0.0200  0.4668  0.1119
  896MPD2    C513184   1.305   0.415   1.601 -0.0120 -0.7339  0.0218
  896MPD2     H13185   1.238   0.395   1.230  0.2166  1.2653  0.6555
  896MPD2    H113186   1.092   0.411   1.631 -0.4886 -0.8308 -0.4228
  896MPD2    H213187   1.506   0.455   1.562 -1.4187 -0.2737  4.3939
  896MPD2    H313188   1.324   0.426   1.707  1.1908 -0.7694 -0.1950
  896MPD2     N13189   1.025   0.379   1.368  0.0172  0.0935  0.4314
  896MPD2    H513190   1.018   0.374   1.267 -0.7662 -1.2712  0.5600
  896MPD2    N113191   1.502   0.443   1.306 -0.2552  0.3677 -0.4249
  896MPD2    H713192   1.584   0.478   1.355  0.8555 -0.4153 -1.7520
  897MPD2     C13193   2.238   2.686  10.512  0.2407 -0.2237 -0.7292
  897MPD2    C113194   2.229   2.823  10.525  0.0803  0.1347  0.3407
  897MPD2    C213195   2.145   2.873  10.626 -0.1503 -0.2982  0.3395
  897MPD2    C313196   2.090   2.786  10.716  0.1161 -0.1565 -0.7049
  897MPD2    C413197   2.120   2.645  10.717  0.2226 -0.1503 -0.1925
  897MPD2    C513198   2.184   2.601  10.607 -0.9182  0.0386  0.4421
  897MPD2     H13199   2.112   2.975  10.610 -1.6810 -0.6110  1.4659
  897MPD2    H113200   2.069   2.580  10.787  1.7620 -0.8073  0.3295
  897MPD2    H213201   2.277   2.638  10.423  0.1181  1.2426 -1.5650
  897MPD2    H313202   2.185   2.493  10.594  2.3058 -0.0372  1.4434
  897MPD2     N13203   2.004   2.842  10.813  0.0631  0.3589 -0.2457
  897MPD2    H513204   1.964   2.934  10.799 -1.8558 -0.3711  0.4943
  897MPD2    N113205   2.274   2.905  10.423 -0.1717 -0.2436 -0.8286
  897MPD2    H713206   2.307   2.857  10.340  0.6922  1.9929 -1.7694
  898MPD2     C13207   4.665   3.138  17.559  0.6840 -0.0864  0.0474
  898MPD2    C113208   4.547   3.069  17.552  0.3293 -0.1231  0.6280
  898MPD2    C213209   4.429   3.139  17.532  0.0540  0.1930  0.8641
  898MPD2    C313210   4.432   3.278  17.511 -0.0425 -0.0657  0.0648
  898MPD2    C413211   4.554   3.345  17.517  0.0258  0.0489  0.2818
  898MPD2    C513212   4.668   3.274  17.547  0.2670  0.8448 -0.0048
  898MPD2     H13213   4.338   3.080  17.538 -0.2774  0.7986  1.7707
  898MPD2    H113214   4.563   3.448  17.484 -2.5641  0.2209  0.0584
  898MPD2    H213215   0.022   3.086  17.587  0.0501 -0.6810  0.9689
  898MPD2    H313216   0.022   3.334  17.570  0.0312  0.9998  0.5068
  898MPD2     N13217   4.311   3.344  17.472  0.0550  0.2302  0.3836
  898MPD2    H513218   4.232   3.282  17.456  1.2481 -0.6714 -2.1457
  898MPD2    N113219   4.543   2.924  17.547  0.0721 -0.5828  0.6805
  898MPD2    H713220   4.449   2.886  17.551 -0.3450  0.4502  0.6254
  899MPD2     C13221   0.578   4.532   0.438 -0.4809 -0.6171  0.4420
  899MPD2    C113222   0.466   4.538   0.358 -0.0268  0.0362 -0.2472
  899MPD2    C213223   0.350   4.576   0.418 -0.0784  0.2314  0.5720
  899MPD2    C313224   0.337   4.613   0.549  0.4140 -0.7104 -0.4582
  899MPD2    C413225   0.451   4.596   0.628 -0.2437 -0.0944 -0.2122
  899MPD2    C513226   0.576   4.566   0.573 -0.2175 -0.4922  0.5285
  899MPD2     H13227   0.260   4.575   0.358  1.3718 -0.0426 -1.5976
  899MPD2    H113228   0.445   4.618   0.733 -0.4732 -1.5202  0.0751
  899MPD2    H213229   0.676   4.511   0.396 -1.1948 -3.0062 -0.0209
  899MPD2    H313230   0.667   4.575   0.630 -1.2156 -1.8373  2.3302
  899MPD2     N13231   0.218   4.635   0.612  0.0281 -0.5422  0.0558
  899MPD2    H513232   0.212   4.642   0.713 -0.2819 -2.2516  0.1614
  899MPD2    N113233   0.476   4.507   0.222  0.2770 -0.8910  0.0066
  899MPD2    H713234   0.572   4.494   0.189 -0.0652 -1.8983 -0.6184
  900MPD2     C13235   4.549   1.367  12.531  0.1015  0.1736 -0.5334
  900MPD2    C113236   4.486   1.248  12.547 -0.4910  0.1785  0.0353
  900MPD2    C213237   4.343   1.231  12.529  0.1163 -0.4325 -0.0807
  900MPD2    C313238   4.278   1.346  12.489 -0.3786 -0.8316  0.2507
  900MPD2    C413239   4.345   1.464  12.468 -0.3113 -0.1826 -0.3020
  900MPD2    C513240   4.481   1.475  12.482  0.4802 -0.0402 -0.5477
  900MPD2     H13241   4.295   1.135  12.545 -0.1375 -0.1534  0.8456
  900MPD2    H113242   4.291   1.556  12.452  1.3570  0.9422  0.5573
  900MPD2    H213243   4.655   1.383  12.545  0.0860 -1.5721  1.3885
  900MPD2    H313244   4.538   1.567  12.479 -0.7380  0.7420  0.4275
  900MPD2     N13245   4.132   1.332  12.481  0.0328  0.8447 -0.4630
  900MPD2    H513246   4.096   1.247  12.525  0.8977 -0.0949 -1.5770
  900MPD2    N113247   4.565   1.138  12.587 -0.0913 -0.0120 -0.2568
  900MPD2    H713248   4.665   1.150  12.576 -0.1461  0.3104 -0.4147
  901MPD2     C13249   0.206   0.238  13.098  0.0592  0.2275  0.5593
  901MPD2    C113250   0.280   0.261  12.981 -1.5779  0.0825 -0.7319
  901MPD2    C213251   0.252   0.380  12.906 -0.7388  0.1913 -1.0012
  901MPD2    C313252   0.142   0.459  12.948  0.1185  0.0348  0.5061
  901MPD2    C413253   0.085   0.438  13.073 -0.2869  0.4990  0.4039
  901MPD2    C513254   0.112   0.327  13.144 -0.3591 -0.0154  0.3618
  901MPD2     H13255   0.307   0.402  12.815 -0.2631 -0.1950 -0.8059
  901MPD2    H113256   0.016   0.510  13.118  1.0574  0.9850  1.7104
  901MPD2    H213257   0.229   0.152  13.160 -1.4358  0.1363  0.9842
  901MPD2    H313258   0.060   0.312  13.238 -2.5340  1.2831 -0.6228
  901MPD2     N13259   0.110   0.565  12.861 -0.0872  0.3453  0.6589
  901MPD2    H513260   0.170   0.566  12.779 -0.4405  3.3233  0.4436
  901MPD2    N113261   0.382   0.173  12.948  0.6475 -0.5294  0.4427
  901MPD2    H713262   0.375   0.083  12.995 -0.5076 -0.3565  0.6210
  902MPD2     C13263   4.303   3.417  12.759 -0.4917  1.0428 -0.5408
  902MPD2    C113264   4.356   3.539  12.754  0.4471  0.1718 -0.1836
  902MPD2    C213265   4.479   3.548  12.690 -0.5404  1.0796 -0.0346
  902MPD2    C313266   4.552   3.437  12.643 -0.3131  0.1202  0.3955
  902MPD2    C413267   4.498   3.317  12.661 -0.7997  0.0909 -1.0899
  902MPD2    C513268   4.369   3.309  12.712  0.8598 -0.2509  0.2536
  902MPD2     H13269   4.514   3.649  12.671  0.7927  0.6714  0.2442
  902MPD2    H113270   4.549   3.229  12.624 -1.2980  0.3194 -2.3164
  902MPD2    H213271   4.206   3.388  12.797 -0.1462  0.2507 -0.2597
  902MPD2    H313272   4.329   3.211  12.731  2.0700 -0.6482  0.7505
  902MPD2     N13273   4.673   3.447  12.570 -0.0741  0.3356  0.2520
  902MPD2    H513274   4.694   3.359  12.525 -1.8734 -0.5701  1.1753
  902MPD2    N113275   4.283   3.644  12.817  0.6529  0.2613 -0.1632
  902MPD2    H713276   4.212   3.612  12.881  0.4737  1.1470  0.0733
  903MPD2     C13277   4.711   4.180  12.292  0.6282 -0.9712 -0.3129
  903MPD2    C113278   4.676   4.045  12.279 -0.0752 -0.1102 -0.4186
  903MPD2    C213279   4.538   4.015  12.273  0.3837  0.4236 -0.5396
  903MPD2    C313280   4.442   4.109  12.296  0.7092 -0.6247 -0.6754
  903MPD2    C413281   4.483   4.236  12.332  0.0013  0.3392  0.0275
  903MPD2    C513282   4.613   4.273  12.311  0.0061 -0.3327  0.1649
  903MPD2     H13283   4.500   3.914  12.264  0.1974  0.4245  0.1849
  903MPD2    H113284   4.420   4.321  12.357 -1.3449 -1.2772  2.1076
  903MPD2    H213285   0.080   4.214  12.293 -0.1255  1.3570 -0.9508
  903MPD2    H313286   4.644   4.373  12.340  3.2698 -1.7550  1.5694
  903MPD2     N13287   4.309   4.056  12.296  0.0878 -0.1368  0.3152
  903MPD2    H513288   4.291   3.958  12.274 -1.6537  0.3634 -0.4579
  903MPD2    N113289   0.042   3.951  12.279  0.5759 -0.1448  0.2341
  903MPD2    H713290   0.141   3.975  12.285  0.5670  0.1179 -0.8404
  904MPD2     C13291   3.799   2.392  14.358 -0.5935 -0.3898  0.7977
  904MPD2    C113292   3.790   2.491  14.263 -0.1507  0.1444 -0.6287
  904MPD2    C213293   3.905   2.570  14.243 -0.0444 -0.5834  0.6646
  904MPD2    C313294   4.021   2.542  14.317  0.2084 -0.1640  0.5365
  904MPD2    C413295   4.022   2.463  14.422  0.4994  0.0188  0.1430
  904MPD2    C513296   3.913   2.389  14.439  0.4020  0.0469  0.1619
  904MPD2     H13297   3.910   2.655  14.175  0.1716 -1.4711 -0.4187
  904MPD2    H113298   4.108   2.441  14.484  1.6035  0.9294 -1.0624
  904MPD2    H213299   3.720   2.319  14.369 -2.5590  1.2140 -2.9103
  904MPD2    H313300   3.914   2.315  14.517 -1.9872  1.5485  1.6315
  904MPD2     N13301   4.129   2.621  14.275  0.0018  0.2550  0.2850
  904MPD2    H513302   4.115   2.682  14.195 -1.8036  0.7606  0.9840
  904MPD2    N113303   3.677   2.506  14.188  1.1528  0.3429 -0.5010
  904MPD2    H713304   3.605   2.435  14.183  0.9679  0.5057 -0.1779
  905MPD2     C13305   3.552   2.357  13.348 -0.0677 -0.6848  0.0828
  905MPD2    C113306   3.588   2.322  13.474 -0.6496  0.3633  0.8980
  905MPD2    C213307   3.669   2.211  13.501 -0.0500 -0.4053 -0.1271
  905MPD2    C313308   3.739   2.160  13.393  0.8334 -0.0042 -0.5815
  905MPD2    C413309   3.713   2.206  13.270  0.1566 -0.2493 -0.2144
  905MPD2    C513310   3.619   2.304  13.244 -0.4393  0.1867 -0.3260
  905MPD2     H13311   3.707   2.193  13.600  3.3702  4.0857 -0.6223
  905MPD2    H113312   3.761   2.164  13.181 -1.0362  1.2195 -1.5439
  905MPD2    H213313   3.472   2.428  13.329 -0.3424 -0.7826  0.8883
  905MPD2    H313314   3.597   2.331  13.142 -0.3590 -1.6750 -0.8407
  905MPD2     N13315   3.855   2.077  13.411  0.4186 -0.6863  0.0519
  905MPD2    H513316   3.913   2.066  13.328  0.8343  1.3119  0.0827
  905MPD2    N113317   3.527   2.393  13.582  0.4720 -0.2715 -0.1825
  905MPD2    H713318   3.453   2.457  13.558  0.7202  0.6655  1.5664
  906MPD2     C13319   0.761   3.155  11.243 -0.1561  0.9395 -0.8249
  906MPD2    C113320   0.677   3.102  11.148 -0.0502 -0.3231 -0.8059
  906MPD2    C213321   0.582   3.013  11.183 -0.1502  0.2859 -0.2258
  906MPD2    C313322   0.583   2.963  11.311 -0.0780 -0.3087  0.5724
  906MPD2    C413323   0.661   3.011  11.407 -1.2466  0.6378 -0.4463
  906MPD2    C513324   0.748   3.106  11.371 -0.8157  0.3531  0.1484
  906MPD2     H13325   0.525   2.964  11.105  0.0628  1.9499 -1.4510
  906MPD2    H113326   0.668   2.967  11.506 -1.2837 -1.3438 -1.3333
  906MPD2    H213327   0.829   3.237  11.223  1.4292 -0.7411 -2.2867
  906MPD2    H313328   0.820   3.143  11.443  0.1026 -0.9084 -0.1338
  906MPD2     N13329   0.490   2.863  11.330  0.0692 -0.1510  1.1062
  906MPD2    H513330   0.434   2.840  11.248  1.0981 -1.8799  0.8850
  906MPD2    N113331   0.675   3.135  11.010  0.3158  0.9199 -0.0620
  906MPD2    H713332   0.609   3.091  10.947  1.2849  1.4157 -1.4376
  907MPD2     C13333   4.612   2.035  15.418 -0.0396 -0.2678  0.1919
  907MPD2    C113334   4.592   1.895  15.434  0.4009  0.0829 -0.5695
  907MPD2    C213335   4.635   1.831  15.553  0.3392 -0.2635  0.1641
  907MPD2    C313336   4.683   1.910  15.663 -0.8643  0.1149 -0.2442
  907MPD2    C413337   4.709   2.047  15.641  0.0010  0.4603 -0.5792
  907MPD2    C513338   4.672   2.106  15.524 -0.2948 -0.2089 -0.4797
  907MPD2     H13339   4.611   1.730  15.584 -0.1718  0.4609  2.1475
  907MPD2    H113340   0.035   2.104  15.711 -1.0727 -0.6894  1.2856
  907MPD2    H213341   4.583   2.088  15.328 -1.3271 -0.5213  0.4473
  907MPD2    H313342   4.685   2.212  15.505 -0.1625  0.0823  1.2436
  907MPD2     N13343   4.720   1.844  15.782  0.0728  0.3083  0.3725
  907MPD2    H513344   4.728   1.743  15.767 -1.5128  0.1446  0.5488
  907MPD2    N113345   4.528   1.817  15.335 -0.1019  0.5162  0.2397
  907MPD2    H713346   4.565   1.722  15.339 -2.2940 -0.2521  2.0181
  908MPD2     C13347   2.307   2.691   9.605 -0.4410 -0.1447 -0.3402
  908MPD2    C113348   2.309   2.629   9.724  0.8197 -0.7873 -0.5522
  908MPD2    C213349   2.308   2.712   9.836  0.1424  0.2212  0.8913
  908MPD2    C313350   2.315   2.852   9.822 -0.0137  0.5203 -0.1515
  908MPD2    C413351   2.328   2.911   9.692 -0.4505 -0.2164 -0.0251
  908MPD2    C513352   2.321   2.822   9.588 -0.2278 -0.1580  0.5801
  908MPD2     H13353   2.290   2.675   9.936 -2.5312 -1.4027 -0.1593
  908MPD2    H113354   2.334   3.017   9.673  2.8217 -0.7740 -2.0272
  908MPD2    H213355   2.310   2.626   9.518  0.4905  0.0790 -0.4763
  908MPD2    H313356   2.313   2.854   9.485 -2.7372 -1.5006  0.3651
  908MPD2     N13357   2.305   2.926   9.947  0.3987  0.8427  0.5268
  908MPD2    H513358   2.316   2.881  10.037 -1.4377  1.8968  1.2734
  908MPD2    N113359   2.306   2.489   9.732 -0.4988 -0.1363  0.2401
  908MPD2    H713360   2.297   2.434   9.647  2.0755 -0.1197 -0.0318
  909MPD2     C13361   2.454   0.884  11.464 -0.6303 -0.7353 -0.2454
  909MPD2    C113362   2.452   1.012  11.411  0.3274 -0.3884  0.7342
  909MPD2    C213363   2.409   1.111  11.494  0.3841 -0.2011 -0.1322
  909MPD2    C313364   2.377   1.091  11.626  0.4017  0.0654 -1.0077
  909MPD2    C413365   2.380   0.960  11.675  0.7417  0.4950  0.1937
  909MPD2    C513366   2.409   0.856  11.588  0.6605 -0.5132 -0.2429
  909MPD2     H13367   2.391   1.212  11.460  0.3340 -0.3844 -0.6510
  909MPD2    H113368   2.358   0.943  11.780  0.1073 -0.2161 -0.0547
  909MPD2    H213369   2.492   0.802  11.404  0.6771  0.4033 -0.9734
  909MPD2    H313370   2.413   0.753  11.620  0.3220 -0.1681  0.9085
  909MPD2     N13371   2.360   1.208  11.704 -0.0149 -0.3766 -0.8411
  909MPD2    H513372   2.348   1.295  11.654 -1.6693  1.4475  2.7431
  909MPD2    N113373   2.492   1.050  11.283 -0.2787 -0.3096  0.2069
  909MPD2    H713374   2.486   1.144  11.246  1.3626  0.1736  1.2074
  910MPD2     C13375   3.750   2.375  15.760  0.3087 -0.3907  0.1255
  910MPD2    C113376   3.868   2.396  15.694  0.2098 -0.2529  0.5428
  910MPD2    C213377   3.865   2.469  15.573 -0.4623  0.0427  0.1802
  910MPD2    C313378   3.745   2.519  15.525  0.3921 -0.4476  0.1734
  910MPD2    C413379   3.626   2.498  15.589  0.0044  0.1235  0.5047
  910MPD2    C513380   3.627   2.425  15.708  0.2918 -0.6081 -0.3461
  910MPD2     H13381   3.962   2.501  15.535 -0.5804 -1.1428 -1.1005
  910MPD2    H113382   3.529   2.526  15.549  0.3713  1.3671  0.4751
  910MPD2    H213383   3.744   2.309  15.845  1.9286  1.8188  1.9561
  910MPD2    H313384   3.536   2.403  15.764 -1.0463  1.4828 -1.6995
  910MPD2     N13385   3.735   2.595  15.406  0.1359  0.1037 -0.2319
  910MPD2    H513386   3.645   2.640  15.395  0.9520  1.9759  0.6769
  910MPD2    N113387   3.989   2.345  15.738  0.1096 -0.5053 -0.5579
  910MPD2    H713388   4.067   2.350  15.673  0.9807 -1.9465  0.3829
  911MPD2     C13389   2.123   2.917  16.441  0.6371 -0.3694  0.0318
  911MPD2    C113390   2.156   3.016  16.531 -0.2162 -0.5354  0.8532
  911MPD2    C213391   2.087   3.139  16.536 -0.4734  0.9606  0.5644
  911MPD2    C313392   1.980   3.154  16.450 -0.2093 -0.4983 -0.0240
  911MPD2    C413393   1.959   3.061  16.349  0.4769  0.2864 -0.5384
  911MPD2    C513394   2.025   2.942  16.347  0.1956 -0.3857  0.4917
  911MPD2     H13395   2.104   3.211  16.615 -1.2630  3.3701 -1.4672
  911MPD2    H113396   1.885   3.074  16.270 -1.1106 -1.4820  0.6627
  911MPD2    H213397   2.177   2.824  16.453 -1.9008 -1.6034  1.7502
  911MPD2    H313398   2.016   2.869  16.267  2.2790  0.5608 -0.6181
  911MPD2     N13399   1.891   3.259  16.450 -0.0029 -0.0627  0.8004
  911MPD2    H513400   1.812   3.253  16.387  1.3750 -2.9656 -0.6801
  911MPD2    N113401   2.269   2.984  16.615  0.1752 -1.0043 -0.9063
  911MPD2    H713402   2.321   2.904  16.581  3.9020  0.4053  1.4433
  912MPD2     C13403   1.828   3.250  15.889 -0.0620 -0.4815 -0.0812
  912MPD2    C113404   1.745   3.233  15.995 -0.3123  0.5718  0.3439
  912MPD2    C213405   1.707   3.103  16.033  0.0183 -0.6131 -0.1658
  912MPD2    C313406   1.771   2.990  15.975  0.2276  0.2204 -0.0805
  912MPD2    C413407   1.867   3.016  15.879 -0.0208 -0.3365  0.2248
  912MPD2    C513408   1.893   3.143  15.836 -0.0011  0.4411 -0.3479
  912MPD2     H13409   1.632   3.074  16.105 -1.6501  0.6467 -1.3904
  912MPD2    H113410   1.913   2.936  15.823  0.6835  0.6006 -0.5306
  912MPD2    H213411   1.855   3.346  15.848 -2.3645 -0.5182 -1.6639
  912MPD2    H313412   1.956   3.165  15.751 -0.0646 -0.9870 -0.7763
  912MPD2     N13413   1.751   2.865  16.039  1.0573 -0.2689 -0.4044
  912MPD2    H513414   1.676   2.856  16.107  0.6386  0.4153 -0.7743
  912MPD2    N113415   1.703   3.342  16.070 -0.4621  0.4281 -0.3126
  912MPD2    H713416   1.728   3.437  16.044  1.6408  0.8939  3.4406
  913MPD2     C13417   1.800   4.013  10.427 -0.1207  0.3785 -0.3974
  913MPD2    C113418   1.855   4.115  10.497 -0.5025 -0.5506  0.2865
  913MPD2    C213419   1.822   4.247  10.464  0.1109  0.4025  0.0823
  913MPD2    C313420   1.736   4.265  10.347  0.1632  0.0503 -0.2724
  913MPD2    C413421   1.690   4.160  10.275 -0.8874  0.1571 -0.2515
  913MPD2    C513422   1.719   4.039  10.319 -0.0618 -0.1787 -1.2433
  913MPD2     H13423   1.878   4.322  10.517 -1.6332  1.5613  0.2877
  913MPD2    H113424   1.635   4.164  10.181 -1.1181  1.1802 -0.0765
  913MPD2    H213425   1.797   3.910  10.459  2.4734  0.2924 -0.4583
  913MPD2    H313426   1.676   3.958  10.261 -0.1483  0.4513 -2.0683
  913MPD2     N13427   1.706   4.392  10.298  0.0609  0.1238 -0.4271
  913MPD2    H513428   1.644   4.384  10.218 -1.7983 -0.8440  1.1019
  913MPD2    N113429   1.921   4.073  10.615  0.0634 -0.0094 -0.1093
  913MPD2    H713430   1.944   3.974  10.610  0.6716  0.0856  0.6916
  914MPD2     C13431   0.341   0.060  12.063  0.4697 -0.8402  0.0422
  914MPD2    C113432   0.344   0.171  12.144  0.8573  0.1647 -0.1058
  914MPD2    C213433   0.408   0.157  12.265  0.0832 -0.4766  0.3651
  914MPD2    C313434   0.463   0.041  12.305 -0.2766 -0.5342 -0.2853
  914MPD2    C413435   0.478   4.669  12.216  0.1672  0.4375 -0.8208
  914MPD2    C513436   0.420   4.684  12.097  0.5467 -0.4187 -0.2652
  914MPD2     H13437   0.430   0.240  12.330 -0.1231  1.2417 -1.7629
  914MPD2    H113438   0.520   4.576  12.253  0.0422  0.6252 -0.1993
  914MPD2    H213439   0.311   0.046  11.959  2.5912  2.4289 -1.0182
  914MPD2    H313440   0.429   4.609  12.020  1.4339 -1.0818  0.4882
  914MPD2     N13441   0.521   0.037  12.434 -0.5384  0.4400 -0.5321
  914MPD2    H513442   0.497   0.118  12.491 -2.3625 -1.1011  0.9066
  914MPD2    N113443   0.278   0.288  12.110 -0.8574  0.4380 -0.7364
  914MPD2    H713444   0.233   0.303  12.020 -0.4611 -0.9572 -1.1552
  915MPD2     C13445   2.998   4.427  15.753  0.3696 -0.4773  0.6378
  915MPD2    C113446   2.872   4.404  15.707  0.4657  0.0624  0.4203
  915MPD2    C213447   2.764   4.475  15.754  0.0388 -0.0984 -0.1537
  915MPD2    C313448   2.774   4.570  15.858 -0.1788  0.2893  0.2526
  915MPD2    C413449   2.907   4.593  15.904 -0.0734  0.1119 -0.9567
  915MPD2    C513450   3.014   4.524  15.843 -0.2662 -0.1590 -0.1923
  915MPD2     H13451   2.660   4.452  15.734  0.8426 -2.0288 -2.0874
  915MPD2    H113452   2.937   4.662  15.982 -0.7316 -0.3042 -0.3404
  915MPD2    H213453   3.083   4.368  15.723 -0.2739 -0.8276 -0.4905
  915MPD2    H313454   3.112   4.568  15.862 -0.4504 -0.1984  0.8489
  915MPD2     N13455   2.661   4.632  15.908  1.0717 -0.7303  0.0083
  915MPD2    H513456   2.572   4.606  15.866  0.4898  0.7130  0.3400
  915MPD2    N113457   2.854   4.298  15.612 -0.3292 -0.1603 -0.2323
  915MPD2    H713458   2.935   4.246  15.580 -1.2649 -2.7756  1.6997
  916MPD2     C13459   1.135   2.708  15.621 -0.7735 -0.4273 -0.6153
  916MPD2    C113460   1.183   2.613  15.717 -0.2938 -0.4305  0.2717
  916MPD2    C213461   1.250   2.502  15.668  0.2021 -0.6468 -0.1911
  916MPD2    C313462   1.271   2.475  15.538  0.1476 -0.2855 -0.2120
  916MPD2    C413463   1.240   2.579  15.449 -0.5158 -0.1084  0.6030
  916MPD2    C513464   1.172   2.689  15.490  0.5170  0.5531 -0.2805
  916MPD2     H13465   1.289   2.426  15.736 -1.5575  0.4453  2.0460
  916MPD2    H113466   1.263   2.561  15.345 -0.5957  2.1875  0.1923
  916MPD2    H213467   1.080   2.794  15.656  1.1496  0.5611 -0.0289
  916MPD2    H313468   1.127   2.761  15.423 -0.9341 -0.3175 -0.2296
  916MPD2     N13469   1.321   2.348  15.503 -0.2247  0.2890  0.4593
  916MPD2    H513470   1.370   2.311  15.584  1.5041  2.0007  0.1899
  916MPD2    N113471   1.134   2.627  15.854 -0.3599  0.1514  0.0482
  916MPD2    H713472   1.085   2.713  15.874 -0.3101  0.5680 -1.5683
  917MPD2     C13473   0.969   0.344  11.007 -0.3019  0.1248  0.3929
  917MPD2    C113474   1.064   0.391  11.088 -0.0782 -0.3615  0.7312
  917MPD2    C213475   1.121   0.516  11.065  0.1020  0.0724 -0.5790
  917MPD2    C313476   1.102   0.582  10.944 -0.2382 -0.4919 -0.1402
  917MPD2    C413477   1.027   0.522  10.846  0.2669 -0.9023 -0.2423
  917MPD2    C513478   0.956   0.411  10.882 -0.2334  0.0328 -0.3792
  917MPD2     H13479   1.174   0.562  11.147  0.4713  0.4126 -1.0122
  917MPD2    H113480   1.017   0.562  10.746  1.2237  0.5531  0.2395
  917MPD2    H213481   0.903   0.264  11.038  0.4122  0.5257  2.9304
  917MPD2    H313482   0.886   0.373  10.809  0.6492 -1.8844 -0.2192
  917MPD2     N13483   1.147   0.717  10.917  0.3705  0.0432 -0.3816
  917MPD2    H513484   1.122   0.756  10.826 -0.6370 -1.2477 -0.6653
  917MPD2    N113485   1.090   0.321  11.212 -0.1022 -0.3422  0.4298
  917MPD2    H713486   1.033   0.237  11.218  1.6976 -1.6033  0.0546
  918MPD2     C13487   1.312   0.768  12.079 -0.0156 -0.3685  0.4030
  918MPD2    C113488   1.414   0.698  12.029  0.1719 -0.3188  0.3080
  918MPD2    C213489   1.380   0.594  11.947 -0.2827 -0.4988  0.2801
  918MPD2    C313490   1.255   0.573  11.906 -0.0154 -0.5083 -0.4703
  918MPD2    C413491   1.150   0.648  11.953  0.3343  0.0360 -0.5746
  918MPD2    C513492   1.179   0.744  12.047  0.3036  0.6913 -0.1926
  918MPD2     H13493   1.455   0.523  11.913  1.0243  0.5532  0.9454
  918MPD2    H113494   1.045   0.642  11.929 -0.0477 -1.1193  1.3931
  918MPD2    H213495   1.332   0.849  12.149  1.0244  0.0209 -0.3458
  918MPD2    H313496   1.093   0.791  12.094 -0.8255 -0.6360 -0.8992
  918MPD2     N13497   1.235   0.465  11.814 -0.0826 -0.0863  0.4372
  918MPD2    H513498   1.320   0.412  11.797  0.8938  1.0509  1.8002
  918MPD2    N113499   1.549   0.718  12.059 -0.2401  0.9806  0.1316
  918MPD2    H713500   1.614   0.652  12.020  0.1648  1.7154 -0.4344
  919MPD2     C13501   1.859   4.354  11.587 -0.6049 -0.4854  0.8580
  919MPD2    C113502   1.855   4.223  11.540 -0.1072  0.1536  0.5226
  919MPD2    C213503   1.828   4.198  11.406  0.3695 -0.5461  0.0836
  919MPD2    C313504   1.792   4.302  11.318 -0.0536 -0.0982 -0.2466
  919MPD2    C413505   1.796   4.428  11.364  0.4280  0.1323  0.3173
  919MPD2    C513506   1.840   4.455  11.491  0.2275 -0.6599  0.1364
  919MPD2     H13507   1.845   4.096  11.373 -0.6215 -1.0604  1.1964
  919MPD2    H113508   1.771   4.506  11.293 -0.0748 -1.3038 -1.0751
  919MPD2    H213509   1.882   4.377  11.690 -1.7188  1.5135  0.6511
  919MPD2    H313510   1.831   4.559  11.522  1.9231 -0.4680 -0.0086
  919MPD2     N13511   1.741   4.290  11.188 -0.2319  0.1573 -0.0921
  919MPD2    H513512   1.714   4.377  11.144  2.2140 -0.4836 -2.8297
  919MPD2    N113513   1.882   4.110  11.630  0.2297  0.6337  0.1663
  919MPD2    H713514   1.906   4.019  11.592  3.2184  1.9143 -1.0446
  920MPD2     C13515   1.405   0.058  10.437  0.4675 -0.2281  0.1197
  920MPD2    C113516   1.303   4.705  10.469  0.0873 -0.4047 -0.4298
  920MPD2    C213517   1.332   4.595  10.545 -0.5000 -0.6569  0.5707
  920MPD2    C313518   1.455   4.572  10.590  0.6329 -0.5409  0.6993
  920MPD2    C413519   1.557   4.668  10.566 -0.9152 -0.0944 -0.4273
  920MPD2    C513520   1.526   0.046  10.493  0.2643  0.4802 -0.4129
  920MPD2     H13521   1.254   4.521  10.562 -3.8301  2.7866  0.2054
  920MPD2    H113522   1.663   4.655  10.587 -0.3341  2.6807 -1.5472
  920MPD2    H213523   1.372   0.147  10.386 -2.1551 -1.8268 -0.9878
  920MPD2    H313524   1.599   0.123  10.472 -0.4776  0.6537 -2.3718
  920MPD2     N13525   1.480   4.450  10.663  0.3657 -0.0587 -0.1252
  920MPD2    H513526   1.408   4.379  10.663  0.5910 -0.2758 -2.2045
  920MPD2    N113527   1.170   4.717  10.424  0.1145  0.0250  0.4571
  920MPD2    H713528   1.106   4.648  10.459 -0.5247  0.2060 -0.3516
  921MPD2     C13529   2.923   3.713  16.877 -0.4534  0.8604  0.1360
  921MPD2    C113530   2.989   3.615  16.813 -0.4828 -0.3142 -0.0012
  921MPD2    C213531   2.922   3.495  16.811  0.0696  0.1468 -0.4565
  921MPD2    C313532   2.801   3.467  16.866 -0.8405  0.0726  0.1735
  921MPD2    C413533   2.743   3.564  16.941 -0.2202  0.5248 -0.5765
  921MPD2    C513534   2.801   3.687  16.941 -0.0898 -0.7029  0.4659
  921MPD2     H13535   2.974   3.423  16.749 -0.6305 -1.0663  0.3752
  921MPD2    H113536   2.654   3.544  16.998  0.9849  0.8365  1.4010
  921MPD2    H213537   2.968   3.811  16.880  0.3375  0.5390 -1.1573
  921MPD2    H313538   2.756   3.772  16.991  2.0873  0.8446 -0.2021
  921MPD2     N13539   2.726   3.339  16.851 -0.5274 -0.7810 -0.1348
  921MPD2    H513540   2.642   3.322  16.905  0.8392  1.4766  2.6957
  921MPD2    N113541   3.101   3.639  16.735  0.4067 -0.2421 -0.1731
  921MPD2    H713542   3.154   3.725  16.746  1.4664 -1.1784  2.0961
  922MPD2     C13543   3.428   1.024  17.307 -0.3565 -0.3519  0.5311
  922MPD2    C113544   3.326   0.944  17.356  0.0640 -0.7368  1.2724
  922MPD2    C213545   3.264   0.850  17.274  0.3647  0.7428 -0.2570
  922MPD2    C313546   3.313   0.832  17.144 -0.7268 -0.3163  0.3275
  922MPD2    C413547   3.417   0.914  17.098  0.8958 -0.8890  1.0327
  922MPD2    C513548   3.471   1.008  17.178  0.1238  0.2450  0.5824
  922MPD2     H13549   3.189   0.781  17.310  1.8492 -1.2495 -0.9917
  922MPD2    H113550   3.453   0.914  16.996  0.5134  0.4224  0.9041
  922MPD2    H213551   3.481   1.099  17.365  1.1090 -0.8405 -0.1746
  922MPD2    H313552   3.555   1.062  17.134 -0.8030  1.3576  0.1562
  922MPD2     N13553   3.251   0.734  17.067 -0.4685  0.0962  0.5569
  922MPD2    H513554   3.162   0.694  17.094 -2.3232  2.4641 -2.1446
  922MPD2    N113555   3.280   0.950  17.490  0.0023 -0.0813  0.1969
  922MPD2    H713556   3.211   0.882  17.521 -0.8101  0.3684 -0.6103
  923MPD2     C13557   4.090   3.420   9.519  0.2035 -0.8621  0.7017
  923MPD2    C113558   4.145   3.436   9.646  0.7352  0.6900 -0.4073
  923MPD2    C213559   4.276   3.449   9.673  0.4313  0.1353  0.4438
  923MPD2    C313560   4.359   3.434   9.564 -0.2463 -0.6832  0.2158
  923MPD2    C413561   4.315   3.406   9.433  0.8127 -0.4747  0.4493
  923MPD2    C513562   4.177   3.395   9.417 -0.5639 -0.1391 -0.1476
  923MPD2     H13563   4.310   3.447   9.776  3.4664  3.7715 -0.4890
  923MPD2    H113564   4.376   3.383   9.346  0.9455 -0.1965  0.4720
  923MPD2    H213565   3.985   3.400   9.501 -0.2782  1.7627  0.5357
  923MPD2    H313566   4.136   3.373   9.320  0.6360  1.7752 -1.0916
  923MPD2     N13567   4.498   3.438   9.573 -0.0173 -0.3734 -0.7362
  923MPD2    H513568   4.553   3.406   9.494  0.8389  0.6516 -0.5534
  923MPD2    N113569   4.048   3.437   9.751  0.4103 -0.1070 -0.6102
  923MPD2    H713570   3.950   3.437   9.721 -0.1105  0.7513  1.0932
  924MPD2     C13571   0.445   1.537  15.806 -0.8376  0.1035 -0.0133
  924MPD2    C113572   0.360   1.491  15.901 -0.1523 -0.0927  0.8938
  924MPD2    C213573   0.354   1.570  16.021  0.6790 -0.1125 -0.0695
  924MPD2    C313574   0.438   1.682  16.049  0.3853  0.3920 -0.2423
  924MPD2    C413575   0.540   1.707  15.959  1.3166 -0.2218  0.4449
  924MPD2    C513576   0.536   1.640  15.840 -0.5137 -0.1925  0.3858
  924MPD2     H13577   0.279   1.550  16.096  0.5488 -0.8705 -0.4073
  924MPD2    H113578   0.607   1.792  15.960 -1.7024  2.1740  0.9779
  924MPD2    H213579   0.450   1.491  15.708 -1.4894 -1.1742  0.5454
  924MPD2    H313580   0.603   1.674  15.762 -1.1149  0.0960 -0.0007
  924MPD2     N13581   0.422   1.759  16.176  0.2891  0.8486  0.3082
  924MPD2    H513582   0.505   1.803  16.214 -0.1419  2.0189 -0.1180
  924MPD2    N113583   0.283   1.372  15.872  0.3199  0.3517  0.2915
  924MPD2    H713584   0.289   1.338  15.777  0.4194  1.8923 -0.2483
  925MPD2     C13585   3.643   3.368  14.334  0.0158  0.0847 -0.1233
  925MPD2    C113586   3.551   3.465  14.317  0.2634 -0.9737  0.5891
  925MPD2    C213587   3.511   3.540  14.424  0.2973  0.0490  1.0500
  925MPD2    C313588   3.562   3.522  14.551  0.1216  0.8958 -1.3645
  925MPD2    C413589   3.648   3.415  14.567  0.3222  0.4099  0.0833
  925MPD2    C513590   3.685   3.341  14.464  0.1463 -0.8377 -0.1762
  925MPD2     H13591   3.437   3.618  14.408  0.4971  0.1568  0.6678
  925MPD2    H113592   3.693   3.388  14.662  0.5339  0.2107 -0.0749
  925MPD2    H213593   3.686   3.305  14.256  1.6818 -0.9745  1.6528
  925MPD2    H313594   3.734   3.246  14.478  3.1801  0.8832  0.7786
  925MPD2     N13595   3.530   3.607  14.661 -0.1341  0.0157  0.2502
  925MPD2    H513596   3.565   3.588  14.755  0.8609 -0.2830 -0.1782
  925MPD2    N113597   3.499   3.496  14.196 -0.1482 -0.1188  0.7146
  925MPD2    H713598   3.416   3.555  14.192  0.0569  0.2001  1.0954
  926MPD2     C13599   2.770   1.948  13.669  0.2021 -0.4994  0.5696
  926MPD2    C113600   2.663   2.034  13.647 -0.7315  0.2917 -0.5890
  926MPD2    C213601   2.687   2.149  13.570 -0.4330 -0.3887  0.3471
  926MPD2    C313602   2.804   2.174  13.510 -0.2518  1.1263  0.2114
  926MPD2    C413603   2.916   2.102  13.552 -0.1769  0.6294 -0.6779
  926MPD2    C513604   2.897   1.980  13.623 -0.1625  0.0405  0.2379
  926MPD2     H13605   2.601   2.213  13.551 -2.4736 -2.5651  2.1119
  926MPD2    H113606   3.009   2.136  13.510  0.1470  1.4014  0.6892
  926MPD2    H213607   2.758   1.859  13.730 -2.1311  0.2602  1.1962
  926MPD2    H313608   2.981   1.923  13.663 -1.6441 -1.6339  0.9495
  926MPD2     N13609   2.815   2.281  13.419 -0.1289  0.0421  0.3622
  926MPD2    H513610   2.910   2.302  13.387 -0.3242  1.4401  0.6897
  926MPD2    N113611   2.530   2.011  13.707  0.4195 -0.4090  0.2855
  926MPD2    H713612   2.450   2.067  13.681 -0.2819 -1.8149 -0.5842
  927MPD2     C13613   1.676   4.411   0.005 -0.2253  0.5834  0.4171
  927MPD2    C113614   1.740   4.319   0.077 -0.3197 -0.0301  0.5919
  927MPD2    C213615   1.874   4.293   0.055 -0.3711 -0.4232 -0.3939
  927MPD2    C313616   1.947   4.358  17.699  0.0805  0.0813  0.6560
  927MPD2    C413617   1.880   4.453  17.622  0.1542  0.8248  0.0532
  927MPD2    C513618   1.747   4.485  17.648 -0.2176  0.1175 -0.3007
  927MPD2     H13619   1.926   4.219   0.114  0.2721 -0.6145 -1.2030
  927MPD2    H113620   1.923   4.502  17.535  1.1297  0.5591  0.3882
  927MPD2    H213621   1.574   4.432   0.035 -1.1548 -2.9127 -0.2674
  927MPD2    H313622   1.693   4.563  17.596  1.6641 -0.3907 -3.0156
  927MPD2     N13623   2.084   4.326  17.680  0.7487  0.5778 -0.2977
  927MPD2    H513624   2.110   4.239  17.726  1.9200  1.4604  0.6958
  927MPD2    N113625   1.657   4.254   0.180  0.2759  0.1865  0.3295
  927MPD2    H713626   1.560   4.283   0.187  0.5691  1.1552  0.4005
  928MPD2     C13627   4.644   2.043   1.194 -0.5131 -0.7077  0.0114
  928MPD2    C113628   4.620   2.181   1.223  0.2415 -0.2331  0.2103
  928MPD2    C213629   4.604   2.261   1.110  0.1226 -0.0704  0.9296
  928MPD2    C313630   4.586   2.208   0.982 -0.0349 -0.0378  1.1818
  928MPD2    C413631   4.602   2.071   0.954  0.3512 -0.2814  0.3357
  928MPD2    C513632   4.634   1.998   1.065  0.6038 -0.0873  0.0544
  928MPD2     H13633   4.611   2.369   1.115  0.1450 -0.0673  0.8211
  928MPD2    H113634   4.602   2.021   0.858 -2.9662  1.4543 -0.5636
  928MPD2    H213635   4.664   1.971   1.273 -1.1488 -0.4092  0.4526
  928MPD2    H313636   4.657   1.894   1.046 -0.2703  0.0899 -2.0265
  928MPD2     N13637   4.555   2.292   0.867 -0.3843 -0.4252 -0.5838
  928MPD2    H513638   4.539   2.247   0.777 -1.6581  0.8044 -0.9825
  928MPD2    N113639   4.638   2.226   1.353 -0.6237  0.0752 -0.6181
  928MPD2    H713640   4.669   2.165   1.428  0.3526  0.6528 -0.5493
  929MPD2     C13641   0.168   3.266  10.301  0.0111 -0.0768  0.2380
  929MPD2    C113642   0.058   3.220  10.366  0.2017  0.7959  0.3264
  929MPD2    C213643   4.663   3.259  10.326 -0.4771  0.3934 -0.0288
  929MPD2    C313644   4.643   3.346  10.216  1.0109  0.6437  0.1257
  929MPD2    C413645   0.020   3.395  10.154 -0.1141  0.5797  0.0491
  929MPD2    C513646   0.144   3.350  10.190  0.3199  0.1684  0.2835
  929MPD2     H13647   4.580   3.233  10.391  1.2969  1.7394  2.7317
  929MPD2    H113648   0.022   3.468  10.074  0.3049 -0.3540 -0.8116
  929MPD2    H213649   0.270   3.245  10.332  0.3273 -1.2073 -1.6003
  929MPD2    H313650   0.234   3.396  10.151  0.3219  1.6528  2.0559
  929MPD2     N13651   4.519   3.400  10.183 -0.3850 -0.1244  0.1554
  929MPD2    H513652   4.515   3.484  10.125 -1.9181 -0.6128 -0.4561
  929MPD2    N113653   0.081   3.151  10.488 -0.0685 -0.2602  0.2086
  929MPD2    H713654   0.171   3.161  10.532 -1.0443 -1.2571  2.3970
  930MPD2     C13655   1.661   4.733  13.995 -0.0809 -0.5059 -0.2637
  930MPD2    C113656   1.798   4.727  13.971  0.3677  0.0890 -0.2217
  930MPD2    C213657   1.836   4.733  13.839 -0.2473  0.3275 -0.1997
  930MPD2    C313658   1.748   0.009  13.733 -0.1046 -0.8073 -0.3357
  930MPD2    C413659   1.611   0.007  13.758  0.2554  0.0324 -0.2493
  930MPD2    C513660   1.572   4.731  13.890  0.1077 -0.5271  0.2687
  930MPD2     H13661   1.941   0.014  13.813  0.1461 -3.4180 -0.7611
  930MPD2    H113662   1.544   0.013  13.673 -0.1446  2.8061  0.2518
  930MPD2    H213663   1.618   0.015  14.093 -2.8778  1.6552 -1.8432
  930MPD2    H313664   1.471   4.699  13.914  0.4139 -1.6001  0.1300
  930MPD2     N13665   1.781   0.033  13.597  0.4357 -0.2959  0.6530
  930MPD2    H513666   1.703   0.055  13.536  1.0444  1.4223  0.4908
  930MPD2    N113667   1.883   0.023  14.076 -0.1508 -1.1068  0.5784
  930MPD2    H713668   1.856   0.082  14.154  0.4165  0.7547 -0.6192
  931MPD2     C13669   1.893   4.002   0.896 -0.0471 -0.3664 -0.3570
  931MPD2    C113670   1.798   3.922   0.843  0.4619  0.3690  0.1295
  931MPD2    C213671   1.766   3.811   0.913 -0.1818  0.3855 -0.2329
  931MPD2    C313672   1.860   3.753   0.999 -0.7123 -0.0220 -0.0699
  931MPD2    C413673   1.969   3.828   1.043 -0.4740 -0.0349  0.4182
  931MPD2    C513674   1.988   3.953   0.983 -0.2606  0.5049  0.6819
  931MPD2     H13675   1.691   3.744   0.872 -0.6936  1.1697 -0.5574
  931MPD2    H113676   2.052   3.800   1.106 -1.4870 -1.0305  1.3098
  931MPD2    H213677   1.900   4.101   0.853  0.8607 -0.9161 -1.4524
  931MPD2    H313678   2.073   4.015   1.006  0.6372 -1.0019  1.4155
  931MPD2     N13679   1.837   3.626   1.035  0.0676  0.5041 -0.1855
  931MPD2    H513680   1.746   3.590   1.009 -0.2029  0.1354  1.2492
  931MPD2    N113681   1.724   3.974   0.737  0.2619 -0.6623  0.4538
  931MPD2    H713682   1.756   4.063   0.700 -0.7591 -0.2144  0.6218
  932MPD2     C13683   3.540   4.501  12.047 -0.0450  0.4121  0.0667
  932MPD2    C113684   3.670   4.481  12.014 -0.0572  0.3850  0.0753
  932MPD2    C213685   3.722   4.352  12.020 -0.4274 -0.6793  0.3057
  932MPD2    C313686   3.644   4.235  12.049  0.1955  0.0314  0.2130
  932MPD2    C413687   3.513   4.261  12.065 -0.2997  0.2120 -0.1557
  932MPD2    C513688   3.470   4.387  12.062 -0.1677  0.7367  0.1615
  932MPD2     H13689   3.827   4.337  12.000 -0.3328 -2.0483  1.8328
  932MPD2    H113690   3.451   4.173  12.069 -0.1754  0.1735  0.9023
  932MPD2    H213691   3.493   4.598  12.036 -0.7488  0.1123  0.4651
  932MPD2    H313692   3.362   4.401  12.068 -0.2018  0.9603 -0.8677
  932MPD2     N13693   3.689   4.103  12.075 -1.1522  0.2770 -0.0047
  932MPD2    H513694   3.615   4.036  12.058 -1.5612  1.0659 -1.2848
  932MPD2    N113695   3.749   4.586  11.961  0.2385 -0.4209  0.3721
  932MPD2    H713696   3.839   4.555  11.926  0.0308  1.6939 -1.9838
  933MPD2     C13697   0.364   2.932   1.636  0.2941  0.2530 -0.2654
  933MPD2    C113698   0.229   2.907   1.640 -0.0869 -0.0150  0.3581
  933MPD2    C213699   0.137   3.015   1.624  0.1861 -0.3245 -0.6230
  933MPD2    C313700   0.187   3.144   1.606  0.0950  0.2908  0.8729
  933MPD2    C413701   0.326   3.167   1.612 -0.6898 -0.2709 -0.6486
  933MPD2    C513702   0.409   3.065   1.629 -0.1972  0.2836  0.4380
  933MPD2     H13703   0.032   2.994   1.609 -0.1486  1.2424 -0.4764
  933MPD2    H113704   0.364   3.266   1.594  0.7244 -1.2060 -2.7708
  933MPD2    H213705   0.441   2.856   1.645 -0.1270 -0.1411  0.0503
  933MPD2    H313706   0.515   3.087   1.638  0.3991 -1.9250 -0.9652
  933MPD2     N13707   0.089   3.239   1.568 -0.6965  0.1058  0.0434
  933MPD2    H513708   4.724   3.214   1.567 -0.4122 -1.0234  0.5635
  933MPD2    N113709   0.191   2.775   1.648  0.3329 -0.1127 -0.4387
  933MPD2    H713710   0.265   2.706   1.658  0.0272 -0.4128 -0.2680
  934MPD2     C13711   1.277   0.289   2.001 -0.1521 -0.5284 -0.5047
  934MPD2    C113712   1.334   0.225   1.894  0.6418 -0.0098 -0.4645
  934MPD2    C213713   1.249   0.162   1.800  0.2343 -0.3372 -0.5661
  934MPD2    C313714   1.116   0.152   1.819  0.5865  0.1363 -0.3273
  934MPD2    C413715   1.060   0.204   1.935 -0.0742 -0.4439  0.1356
  934MPD2    C513716   1.146   0.254   2.034  0.3182  0.1301  0.3857
  934MPD2     H13717   1.294   0.124   1.709 -0.3076 -0.1550 -0.9050
  934MPD2    H113718   0.956   0.185   1.961 -0.3401 -0.5718 -1.0246
  934MPD2    H213719   1.337   0.343   2.073 -0.5298  0.9589 -1.2999
  934MPD2    H313720   1.102   0.293   2.125  1.1855 -1.1152  1.3321
  934MPD2     N13721   1.022   0.097   1.727  0.5684  0.1288 -0.4480
  934MPD2    H513722   0.924   0.117   1.745  1.0447  1.7895  0.3312
  934MPD2    N113723   1.473   0.218   1.874 -0.6265 -0.2443  0.2509
  934MPD2    H713724   1.508   0.186   1.784  0.1277 -1.9102  1.1499
  935MPD2     C13725   1.188   4.315   0.859  0.3102  0.2211  0.1724
  935MPD2    C113726   1.055   4.302   0.894  0.1251 -0.2087 -0.2684
  935MPD2    C213727   1.004   4.384   0.996 -0.7218 -0.4286  0.0169
  935MPD2    C313728   1.082   4.482   1.051  0.5743  0.1072  0.5528
  935MPD2    C413729   1.211   4.493   1.024 -0.4342  0.0198 -0.3347
  935MPD2    C513730   1.264   4.411   0.921 -0.4440  1.1297 -0.4333
  935MPD2     H13731   0.903   4.371   1.033 -0.0753 -0.1629  1.8801
  935MPD2    H113732   1.271   4.572   1.068 -1.8205  0.7530  0.2331
  935MPD2    H213733   1.238   4.248   0.790  1.0886  0.2373  0.7207
  935MPD2    H313734   1.365   4.422   0.881 -0.7276 -0.3327 -1.5537
  935MPD2     N13735   1.033   4.562   1.155  0.1109  0.0862 -0.2827
  935MPD2    H513736   1.102   4.621   1.199  2.1126 -1.1573 -1.7395
  935MPD2    N113737   0.966   4.202   0.848 -0.6609 -0.2756 -0.5458
  935MPD2    H713738   0.866   4.206   0.867 -0.8325  0.6307 -1.6081
  936MPD2     C13739   4.025   1.881  12.365  0.5448  0.4038  0.3264
  936MPD2    C113740   4.048   1.956  12.478  0.3854 -0.7758 -0.1028
  936MPD2    C213741   4.096   2.083  12.471 -0.3739 -0.0157 -0.0785
  936MPD2    C313742   4.137   2.140  12.349  0.1121 -0.1852  0.1903
  936MPD2    C413743   4.100   2.069  12.235 -0.1869 -0.3615  0.6382
  936MPD2    C513744   4.047   1.942  12.239  0.4837  0.2491  0.4592
  936MPD2     H13745   4.120   2.140  12.560 -2.0539 -0.7833  0.8619
  936MPD2    H113746   4.130   2.109  12.139 -2.3478 -1.6224 -0.5767
  936MPD2    H213747   4.012   1.774  12.360 -0.9173  0.5326  1.3989
  936MPD2    H313748   4.029   1.891  12.146 -2.3329  1.1981  0.4643
  936MPD2     N13749   4.183   2.280  12.350  0.8736  0.3324 -0.4092
  936MPD2    H513750   4.177   2.327  12.440  1.0969 -0.8462  0.2163
  936MPD2    N113751   4.014   1.920  12.618  0.1770 -0.2318  0.6506
  936MPD2    H713752   4.031   1.991  12.689  0.3290 -0.8328  1.2065
  937MPD2     C13753   2.299   3.562  11.567  0.0821  0.4088  0.4114
  937MPD2    C113754   2.276   3.698  11.578  0.0045  0.7249  0.0521
  937MPD2    C213755   2.306   3.783  11.471 -0.1459  0.1957 -0.2238
  937MPD2    C313756   2.377   3.738  11.363 -0.3687 -0.1991 -0.0678
  937MPD2    C413757   2.415   3.606  11.353  0.1174 -0.0777 -0.6157
  937MPD2    C513758   2.377   3.521  11.456 -0.0335 -0.2866  0.1641
  937MPD2     H13759   2.279   3.887  11.480  2.8661  0.8637  0.9633
  937MPD2    H113760   2.468   3.560  11.271 -0.3687  0.3915 -1.1878
  937MPD2    H213761   2.271   3.486  11.639 -0.4164  0.5352  0.3511
  937MPD2    H313762   2.401   3.416  11.439  2.2788  0.2679 -0.0251
  937MPD2     N13763   2.405   3.833  11.261  0.6681 -0.2032  0.0165
  937MPD2    H513764   2.373   3.930  11.265  1.1720 -0.0361  0.0277
  937MPD2    N113765   2.178   3.746  11.670  0.2140  0.4335 -0.2604
  937MPD2    H713766   2.163   3.846  11.670  0.4212  0.4878 -3.8036
  938MPD2     C13767   4.278   0.119   0.617 -0.5504 -0.3553 -0.1949
  938MPD2    C113768   4.407   0.144   0.675  0.1822  0.2739 -0.1689
  938MPD2    C213769   4.456   0.066   0.779  0.0035  0.0930 -0.1705
  938MPD2    C313770   4.384   4.681   0.811 -0.5873 -0.3766 -0.0342
  938MPD2    C413771   4.260   4.658   0.752  0.7978  0.4429  0.0545
  938MPD2    C513772   4.210   0.009   0.656 -0.1998 -0.3485 -1.4483
  938MPD2     H13773   4.541   0.107   0.833  0.3271 -2.1771  1.0201
  938MPD2    H113774   4.208   4.564   0.768 -0.2864  1.0345  0.0155
  938MPD2    H213775   4.234   0.182   0.540 -0.3302 -1.8789 -1.5769
  938MPD2    H313776   4.115   4.719   0.609  0.0460 -2.7352 -0.7478
  938MPD2     N13777   4.415   4.594   0.914 -0.3360 -0.0468 -0.3370
  938MPD2    H513778   4.362   4.508   0.927  2.1204 -1.3706  0.9721
  938MPD2    N113779   4.475   0.264   0.643 -0.1848 -0.5066 -0.1777
  938MPD2    H713780   4.559   0.278   0.698 -0.8931  1.7706  0.3177
  939MPD2     C13781   0.701   0.615   0.681  0.8201 -0.4421 -0.5207
  939MPD2    C113782   0.833   0.637   0.672  0.1859  0.4182 -0.1192
  939MPD2    C213783   0.885   0.682   0.552  0.4336 -0.0351 -0.3139
  939MPD2    C313784   0.796   0.698   0.443  0.2200  0.2836 -0.2640
  939MPD2    C413785   0.659   0.671   0.461 -0.0690  0.0786 -0.4104
  939MPD2    C513786   0.611   0.626   0.580  0.1963 -0.7697 -0.6517
  939MPD2     H13787   0.989   0.707   0.536  0.4704 -0.6398 -1.0159
  939MPD2    H113788   0.588   0.697   0.384 -0.4818 -1.7837 -0.6509
  939MPD2    H213789   0.666   0.587   0.780  1.7953  1.2118  0.2925
  939MPD2    H313790   0.505   0.608   0.596  0.5831 -0.7135  2.0101
  939MPD2     N13791   0.847   0.748   0.321  0.4852 -0.1107  0.0438
  939MPD2    H513792   0.938   0.724   0.284 -1.0675 -2.2490 -2.3915
  939MPD2    N113793   0.908   0.641   0.791 -1.0072  0.0240 -0.7010
  939MPD2    H713794   0.856   0.630   0.878  0.0469 -1.4019 -0.2445
  940MPD2     C13795   0.610   2.223  13.288  0.0374  0.0228  0.9618
  940MPD2    C113796   0.740   2.253  13.258  0.3641  0.0328  0.8307
  940MPD2    C213797   0.778   2.289  13.136 -0.5911  0.2716 -0.3088
  940MPD2    C313798   0.695   2.280  13.028 -0.6370 -0.5268  0.5401
  940MPD2    C413799   0.569   2.236  13.052  0.5060  0.1942  0.2267
  940MPD2    C513800   0.529   2.214  13.180 -0.0956 -0.0486  0.2344
  940MPD2     H13801   0.883   2.315  13.128 -0.5225  0.1925  0.3240
  940MPD2    H113802   0.496   2.225  12.972  0.1988  1.3942  0.3514
  940MPD2    H213803   0.573   2.195  13.386  1.9686 -2.2889  1.0366
  940MPD2    H313804   0.424   2.185  13.190 -0.4579  0.8566 -0.9074
  940MPD2     N13805   0.741   2.287  12.895 -0.0789 -1.0592 -0.3445
  940MPD2    H513806   0.674   2.250  12.827 -2.1834  1.5518  0.2815
  940MPD2    N113807   0.841   2.249  13.358 -0.0239 -0.2066 -0.9210
  940MPD2    H713808   0.937   2.252  13.325  0.6171  1.0579  1.0390
  941MPD2     C13809   3.286   2.094   9.884 -1.0087 -1.2796  0.0918
  941MPD2    C113810   3.399   2.021   9.917 -0.4663 -0.0353 -0.3093
  941MPD2    C213811   3.379   1.903   9.992  0.2056  0.4084  0.3542
  941MPD2    C313812   3.254   1.851  10.007 -0.1298 -0.2375 -1.0393
  941MPD2    C413813   3.143   1.923   9.975 -0.0179  0.0060  0.1384
  941MPD2    C513814   3.166   2.048   9.924 -0.0868 -0.2251  0.9393
  941MPD2     H13815   3.470   1.855  10.026  0.9247  0.4760 -1.4756
  941MPD2    H113816   3.046   1.893  10.011 -0.6886  2.3279  0.2517
  941MPD2    H213817   3.287   2.188   9.831 -0.4419 -0.2742  1.9012
  941MPD2    H313818   3.077   2.103   9.898  0.5686  1.0041  1.2651
  941MPD2     N13819   3.228   1.726  10.065  0.1067 -0.1375 -0.3406
  941MPD2    H513820   3.129   1.700  10.063  0.3406 -1.1242  1.0349
  941MPD2    N113821   3.534   2.046   9.872 -0.3412  0.2867  0.5708
  941MPD2    H713822   3.605   2.008   9.934  0.1650  1.2454  0.5658
  942MPD2     C13823   3.081   3.521   9.862  0.4395 -0.0473  0.6326
  942MPD2    C113824   3.210   3.552   9.819 -0.0334 -0.1683 -0.1313
  942MPD2    C213825   3.325   3.493   9.875 -0.1791 -0.1294 -0.4739
  942MPD2    C313826   3.309   3.406   9.974 -0.6434  0.3475 -0.1187
  942MPD2    C413827   3.182   3.377  10.021 -0.8332  0.2396 -0.1124
  942MPD2    C513828   3.073   3.438   9.968 -0.5513  0.7039 -0.9875
  942MPD2     H13829   3.424   3.517   9.839  0.0798 -0.0893  0.2549
  942MPD2    H113830   3.172   3.312  10.107  0.6147  0.7739  0.4521
  942MPD2    H213831   2.986   3.551   9.819  0.3091  1.6833  2.1299
  942MPD2    H313832   2.974   3.413  10.004  0.3038 -1.1013  0.0962
  942MPD2     N13833   3.422   3.335  10.031 -0.7785 -0.3883  0.0665
  942MPD2    H513834   3.412   3.287  10.120  0.0562 -1.5534 -0.4744
  942MPD2    N113835   3.226   3.646   9.712  0.5335 -0.0035 -0.2037
  942MPD2    H713836   3.320   3.652   9.674 -0.2625 -0.0957 -2.1323
  943MPD2     C13837   2.545   1.154   9.499 -0.5120  0.7133 -0.2474
  943MPD2    C113838   2.466   1.141   9.610 -1.4603  0.6169 -0.1415
  943MPD2    C213839   2.479   1.234   9.711 -0.2332  0.2078  0.9102
  943MPD2    C313840   2.559   1.340   9.701 -0.8517 -0.4372 -0.2651
  943MPD2    C413841   2.637   1.352   9.584 -0.5988 -0.0782  0.1339
  943MPD2    C513842   2.631   1.258   9.484 -0.0552  0.1221  0.5685
  943MPD2     H13843   2.406   1.225   9.791 -0.5416  1.1853  0.7380
  943MPD2    H113844   2.699   1.438   9.565  0.6341 -0.0354  4.2541
  943MPD2    H213845   2.547   1.078   9.423 -0.5942  0.2743  0.1927
  943MPD2    H313846   2.699   1.259   9.399 -0.4908 -1.7396  0.1912
  943MPD2     N13847   2.560   1.447   9.795 -0.6625 -0.5112  0.6065
  943MPD2    H513848   2.614   1.531   9.778 -1.1913  0.4730  3.6903
  943MPD2    N113849   2.379   1.029   9.612  0.0375  0.1217 -0.5839
  943MPD2    H713850   2.392   0.965   9.535  0.0879  0.2006 -0.6417
  944MPD2     C13851   2.257   4.606  10.773 -0.4130  0.0814 -0.1660
  944MPD2    C113852   2.254   4.732  10.723 -0.1239  0.3016 -0.9756
  944MPD2    C213853   2.287   0.104  10.809  0.0866  0.3855  0.0479
  944MPD2    C313854   2.283   0.097  10.946 -0.1052 -0.1093 -0.0010
  944MPD2    C413855   2.246   4.707  10.998 -0.5406  0.1103 -0.8252
  944MPD2    C513856   2.244   4.600  10.910  0.0412 -0.3243  0.3684
  944MPD2     H13857   2.307   0.203  10.770  0.8550  0.0965 -0.2820
  944MPD2    H113858   2.225   4.687  11.103  0.4218  1.2074 -0.4292
  944MPD2    H213859   2.254   4.516  10.714 -0.7907 -0.2013  0.2831
  944MPD2    H313860   2.230   4.506  10.961  3.4803 -0.3143  1.3177
  944MPD2     N13861   2.312   0.218  11.017 -0.0062  0.0979 -0.5838
  944MPD2    H513862   2.313   0.309  10.971  0.4612  0.0792 -0.6058
  944MPD2    N113863   2.235   0.014  10.581 -0.3430 -0.1508  0.2420
  944MPD2    H713864   2.212   4.666  10.525 -0.0124 -1.7849  2.4777
    1TMC1    C113865   0.861   2.023  16.038  0.7601  0.0462 -0.4720
    1TMC1    C213866   0.812   1.977  16.156  0.2380  0.4863  0.3406
    1TMC1    C313867   0.725   2.055  16.220  0.5017  0.3745  0.8070
    1TMC1    C413868   0.810   2.141  15.987 -0.0329 -0.1446 -0.3941
    1TMC1    C513869   0.717   2.216  16.058  0.2990  0.0417 -0.0967
    1TMC1    C613870   0.679   2.179  16.181 -0.1452 -0.2091 -0.2985
    1TMC1     C13871   0.878   1.911  15.944  0.3813  0.1799 -0.7963
    1TMC1     O13872   0.850   1.801  15.990  0.2334  0.6623  0.2225
    1TMC1     H13873   0.856   1.893  16.210 -1.5191 -0.7201 -0.1061
    1TMC1    H113874   0.864   2.179  15.901 -1.0319  1.2966 -0.3852
    1TMC1    H213875   0.602   2.232  16.235  0.9571 -0.9138  1.9448
    1TMC1    C713876   0.689   2.354  16.024 -0.5933 -0.1075 -0.1973
    1TMC1    C813877   0.656   2.003  16.336  0.4139 -0.0372  0.8225
    1TMC1    O113878   0.673   2.449  16.097 -0.6621 -0.0370 -0.3432
    1TMC1    O213879   0.692   1.908  16.405 -0.7490  0.1705  0.0012
    1TMC1    O313880   0.717   2.378  15.897 -0.1810  0.0584 -0.0779
    1TMC1    H313881   0.719   2.293  15.848  1.4930 -0.0717  0.2467
    1TMC1    O513882   0.524   2.016  16.317  0.0322 -0.5636  0.3675
    1TMC1    H513883   0.483   2.076  16.250 -3.6470 -0.4323  2.7207
    2MPD2     C13884   0.876   1.738  15.466  0.0408 -0.1446  0.4052
    2MPD2    C113885   0.945   1.855  15.460 -0.0741 -0.0711  0.5329
    2MPD2    C213886   0.960   1.924  15.582  0.3031 -0.0490 -0.3542
    2MPD2    C313887   0.922   1.865  15.705 -0.0660  0.0014 -0.2467
    2MPD2    C413888   0.854   1.744  15.702 -0.1479  0.2019 -0.3208
    2MPD2    C513889   0.830   1.682  15.581  0.1674 -0.1325  0.6945
    2MPD2     H13890   1.020   2.013  15.571 -0.4030  0.4678  0.0589
    2MPD2    H113891   0.827   1.690  15.792 -0.1680 -1.1332 -1.1198
    2MPD2    H213892   0.845   1.682  15.378  0.7693  0.1648 -0.0409
    2MPD2    H313893   0.784   1.584  15.583 -2.3066  1.0059 -0.1665
    2MPD2     N13894   0.931   1.949  15.820 -0.3032 -0.0711 -0.0284
    2MPD2    H513895   0.965   2.044  15.813 -0.7345  0.1827  1.3315
    2MPD2    N113896   0.979   1.902  15.333  0.2212  0.4285  0.0511
    2MPD2    H713897   0.959   1.842  15.254 -0.5321  2.1727 -1.0722
    3TMC2    C113898   1.020   2.066  15.162 -0.2511 -0.3581  0.3325
    3TMC2    C213899   1.042   1.969  15.073  0.1051  0.6772 -0.6166
    3TMC2    C313900   1.052   2.001  14.944 -0.2274  0.5322  0.3613
    3TMC2    C413901   1.004   2.198  15.127  0.8068 -0.3424 -0.1522
    3TMC2    C513902   1.010   2.219  14.990 -1.3439  0.8311  0.0462
    3TMC2    C613903   1.026   2.122  14.891 -0.4371 -0.0538 -0.6554
    3TMC2     C13904   1.013   2.034  15.304  0.5243  0.0845  0.2084
    3TMC2     O13905   1.049   2.126  15.374 -0.3861 -0.0302  0.0798
    3TMC2     H13906   1.059   1.868  15.111 -0.9870  1.2588  1.4068
    3TMC2    H113907   0.988   2.276  15.200  0.5005 -1.6546  1.1712
    3TMC2    H213908   1.017   2.140  14.785  1.8479  0.9225 -0.6677
    3TMC2    C713909   0.952   2.342  14.944  0.1733  0.3331  0.2511
    3TMC2    C813910   1.066   1.896  14.843 -0.1441 -0.2659 -0.5205
    3TMC2    O113911   0.899   2.413  15.031 -0.3583 -0.4262  0.3269
    3TMC2    O213912   1.025   1.888  14.731  0.2468  0.4420  0.0777
    3TMC2    O513913   1.178   1.835  14.891 -1.1018 -0.0663  0.0977
    3TMC2    H513914   1.212   1.868  14.977 -1.2781  0.9184 -0.2107
    4TMC2    C113915   0.989   2.733  13.999  0.4252 -0.1856  0.4254
    4TMC2    C213916   1.088   2.671  13.936 -0.0037 -1.3355 -0.1440
    4TMC2    C313917   1.177   2.594  14.005 -0.1052 -0.5387 -0.8711
    4TMC2    C413918   0.973   2.713  14.131  0.5577 -0.8836 -0.2322
    4TMC2    C513919   1.063   2.627  14.192 -0.5369  0.5550  0.8691
    4TMC2    C613920   1.172   2.576  14.134  0.0064  0.2187 -0.0331
    4TMC2     C13921   0.896   2.826  13.936 -0.6749 -0.1578 -0.0052
    4TMC2     O13922   0.832   2.901  14.010 -0.3226  0.8500 -0.1345
    4TMC2     H13923   1.107   2.682  13.830  0.9839 -0.4956  0.1188
    4TMC2    H113924   0.878   2.740  14.176  1.0492  0.3087  0.0883
    4TMC2    H213925   1.247   2.526  14.195  0.0624 -0.0702 -0.3394
    4TMC2    C713926   1.023   2.568  14.323 -0.2694 -0.4267 -0.1157
    4TMC2    C813927   1.303   2.575  13.940 -0.4270  0.1022  0.8794
    4TMC2    O113928   1.083   2.464  14.352  0.2433  1.0770  0.3564
    4TMC2    O213929   1.337   2.670  13.866 -0.8193 -0.1252  0.3013
    4TMC2    O513930   1.387   2.513  14.026  0.3272 -0.0587  0.0013
    4TMC2    H513931   1.347   2.447  14.087 -0.1847  1.3487  1.1913
    5MPD2     C13932   0.607   2.999  13.568  0.1099 -0.5974 -0.5780
    5MPD2    C113933   0.651   2.877  13.535 -0.5859  0.0280  0.4665
    5MPD2    C213934   0.745   2.806  13.608  0.2516 -0.4186  0.2601
    5MPD2    C313935   0.795   2.868  13.720  0.1120  0.2617 -0.2379
    5MPD2    C413936   0.759   2.992  13.751  0.0786 -0.6612  0.5121
    5MPD2    C513937   0.670   3.064  13.676  0.3924 -0.5347  0.7145
    5MPD2     H13938   0.771   2.703  13.584  0.1092 -0.6761  1.1955
    5MPD2    H113939   0.809   3.043  13.833 -1.2439 -1.5208  1.8610
    5MPD2    H213940   0.538   3.061  13.511  0.9142  0.5266 -0.3457
    5MPD2    H313941   0.640   3.167  13.695  2.3831 -0.0854  1.4184
    5MPD2     N13942   0.893   2.803  13.798  0.9102 -0.4776 -1.0655
    5MPD2    H513943   0.929   2.712  13.771 -0.7795 -1.3998 -0.1422
    5MPD2    N113944   0.581   2.817  13.426  0.2523 -0.1002  0.2499
    5MPD2    H713945   0.514   2.874  13.374 -0.2050 -1.4795 -0.6777
    6MPD1     C13946   4.722   4.233  12.764  0.4309 -0.2497 -0.6009
    6MPD1    C113947   4.692   4.187  12.892 -0.3350 -0.4850  0.1802
    6MPD1    C213948   4.705   4.052  12.929 -0.1540 -0.4333  0.3939
    6MPD1    C313949   4.732   3.959  12.830 -0.3676 -0.7664 -1.4257
    6MPD1    C413950   0.022   3.997  12.699 -0.0663  0.0554  0.1599
    6MPD1    C513951   0.026   4.133  12.676 -0.2659 -0.4824  0.2263
    6MPD1     H13952   4.683   4.018  13.029 -1.1823 -1.9348 -0.3213
    6MPD1    H113953   0.047   3.933  12.615  2.3759  1.7616 -0.4169
    6MPD1    H213954   4.717   4.337  12.735 -1.2549  0.2235  1.4130
    6MPD1    H313955   0.057   4.157  12.575  1.6090 -0.1662  0.8616
    6MPD1     N13956   0.010   3.824  12.855 -0.3783  1.0552 -0.1002
    6MPD1    H513957   0.043   3.766  12.779  0.7346 -1.3038  2.1756
    6MPD1    N113958   4.667   4.281  12.995  0.3577 -0.0659  0.1075
    6MPD1    H613959   4.656   4.241  13.088  0.0351 -0.9768 -0.3233
    6MPD1    H713960   4.603   4.360  12.986 -0.4612 -0.6801  0.5208
    7MPD2     C13961   4.573   3.081  13.295  0.0569 -1.0007  0.1252
    7MPD2    C113962   4.646   3.075  13.187  0.1264  0.2660  0.5344
    7MPD2    C213963   0.001   2.972  13.171  0.3779  0.0739  0.0105
    7MPD2    C313964   0.023   2.884  13.275  0.9453 -0.3735 -0.4988
    7MPD2    C413965   4.679   2.882  13.392  0.2319  0.3551  0.0487
    7MPD2    C513966   4.582   2.977  13.396  0.0513  0.6974  0.0485
    7MPD2     H13967   0.067   2.980  13.086  0.9613 -3.4104  0.1287
    7MPD2    H113968   4.688   2.810  13.472  1.6537 -0.5837 -0.9672
    7MPD2    H213969   4.487   3.144  13.316  2.7300  1.9247  2.3960
    7MPD2    H313970   4.510   2.974  13.477  0.3676  2.8376  0.4210
    7MPD2     N13971   0.134   2.790  13.268 -0.2105  0.6001 -0.3023
    7MPD2    H513972   0.155   2.731  13.348  1.3443  0.9748 -0.4312
    7MPD2    N113973   4.636   3.173  13.086 -0.1251  0.5811  0.1379
    7MPD2    H713974   4.680   3.153  12.996 -1.0636  0.1127 -0.2071
    8TMC3    C113975   0.316   2.670  13.165  0.3000  0.0763 -0.7812
    8TMC3    C213976   0.398   2.693  13.276 -0.2786  1.2185 -0.3398
    8TMC3    C313977   0.527   2.663  13.251  0.1658 -0.3259  0.6228
    8TMC3    C413978   0.364   2.635  13.039  0.3580 -0.3957  0.4936
    8TMC3    C513979   0.496   2.640  13.021  0.3137 -0.1360  0.0856
    8TMC3    C613980   0.584   2.634  13.129  0.2418 -0.1700  0.6841
    8TMC3     C13981   0.203   2.759  13.154 -0.2378  0.0534  0.4598
    8TMC3     O13982   0.185   2.789  13.039  0.5336  0.3405  0.2463
    8TMC3     H13983   0.364   2.726  13.373  1.9082 -0.7143  1.0532
    8TMC3    H113984   0.298   2.613  12.956  0.0798  1.7007  0.1340
    8TMC3    H213985   0.692   2.624  13.123  0.3719 -0.0140  2.6156
    8TMC3    C713986   0.527   2.741  12.929  0.2985 -0.5192  0.3013
    8TMC3    C813987   0.620   2.698  13.365 -0.7434 -0.4319  1.0242
    8TMC3    O113988   0.638   2.741  12.881 -0.4289  0.1665  0.0300
    8TMC3    O213989   0.718   2.622  13.381  0.2012 -0.0808 -0.7928
    9TMC3    C113990   0.000   3.613  12.980  0.4395 -0.0750  0.0450
    9TMC3    C213991   0.094   3.562  12.893 -0.3203  0.2616 -0.4784
    9TMC3    C313992   0.080   3.430  12.862  0.9103  0.7590 -0.0908
    9TMC3    C413993   4.635   3.530  13.037 -0.1762 -0.3186 -0.1493
    9TMC3    C513994   4.625   3.396  12.998  0.0223 -0.4020  0.2714
    9TMC3    C613995   4.720   3.344  12.910  0.5281 -0.0696 -0.1163
    9TMC3     C13996   4.693   3.754  12.968  0.1186  0.8744 -0.0689
    9TMC3     O13997   4.631   3.794  13.065  0.2516 -0.4427  0.6329
    9TMC3     H13998   0.168   3.631  12.855 -0.7485 -0.6292 -2.9936
    9TMC3    H113999   4.570   3.582  13.106 -0.7639 -0.6230 -0.4612
    9TMC3    H214000   4.693   3.257  12.850 -0.3520 -0.1116  0.3364
    9TMC3    C714001   4.577   3.302  13.100  0.3307 -0.2344 -0.0400
    9TMC3    C814002   0.192   3.377  12.801 -0.1498 -0.3848  0.3046
    9TMC3    O114003   4.538   3.344  13.206 -0.3626 -0.1758 -0.2252
    9TMC3    O214004   0.267   3.449  12.735 -0.3735  0.3247  0.0696
   10MPD2     C14005   0.523   2.989  12.754  0.0528 -0.0829  0.3175
   10MPD2    C114006   0.425   2.953  12.842  0.6014  0.1078 -0.6464
   10MPD2    C214007   0.313   3.029  12.859  0.3895 -0.2376 -0.0409
   10MPD2    C314008   0.316   3.158  12.809  1.3381  0.3555  0.4436
   10MPD2    C414009   0.412   3.192  12.724 -0.1428 -0.5256  0.0673
   10MPD2    C514010   0.509   3.107  12.687  0.3536 -0.5544  0.2323
   10MPD2     H14011   0.228   2.990  12.914  1.2777 -0.2033  1.3630
   10MPD2    H114012   0.421   3.284  12.668  0.5828 -1.7914 -1.9184
   10MPD2    H214013   0.615   2.932  12.756 -0.5919 -1.1576 -0.1114
   10MPD2    H314014   0.578   3.144  12.612  1.7425 -0.8046  1.3989
   10MPD2     N14015   0.203   3.242  12.828 -0.0822  0.0087  0.1980
   10MPD2    H514016   0.125   3.200  12.877 -0.3527  1.1840  0.7770
   10MPD2    N114017   0.427   2.835  12.918 -0.4004  0.1685 -0.3617
   10MPD2    H714018   0.347   2.822  12.979 -0.1202  0.5089  0.0789
   11MPD2     C14019   0.836   2.580  14.803  0.1243  0.3835  0.9033
   11MPD2    C114020   0.909   2.482  14.742  0.3804 -0.1101 -0.1053
   11MPD2    C214021   0.940   2.506  14.606 -0.4572  0.0246  1.0632
   11MPD2    C314022   0.901   2.615  14.532 -0.5335  0.0762 -0.3696
   11MPD2    C414023   0.826   2.708  14.596 -0.1897 -0.2780 -0.2005
   11MPD2    C514024   0.779   2.689  14.727  0.1556 -0.1993  1.0240
   11MPD2     H14025   0.995   2.429  14.554 -0.8018  0.1914  0.4444
   11MPD2    H114026   0.776   2.785  14.538  3.2815  1.2064 -1.1875
   11MPD2    H214027   0.810   2.575  14.908  1.9530 -2.3190  1.2221
   11MPD2    H314028   0.716   2.765  14.771 -2.8436 -2.3720  0.5330
   11MPD2     N14029   0.934   2.643  14.398  0.2522  0.1314  1.0047
   11MPD2    H514030   0.887   2.721  14.355 -0.1957 -0.7847 -0.1896
   11MPD2    N114031   0.956   2.363  14.810 -0.2477  0.8457 -0.4168
   11MPD2    H714032   0.994   2.288  14.753  2.2142  2.3695 -0.7396
    1MPD1     C14033   4.138   3.778  16.032 -0.0123 -0.1941 -0.0630
    1MPD1    C114034   4.010   3.824  16.037 -1.2297 -0.2184 -0.0096
    1MPD1    C214035   3.957   3.868  16.157  0.6400  0.5999  0.0630
    1MPD1    C314036   4.042   3.883  16.269 -0.5764 -0.4733  0.1288
    1MPD1    C414037   4.172   3.841  16.259 -0.1822 -0.9022  0.6149
    1MPD1    C514038   4.220   3.786  16.145 -0.4500 -0.7601  0.0925
    1MPD1     H14039   3.851   3.892  16.153  0.5238  0.1933  0.5985
    1MPD1    H114040   4.243   3.861  16.338  0.6320 -2.3967  0.2628
    1MPD1    H214041   4.190   3.736  15.947 -0.8156 -0.1336 -0.5834
    1MPD1    H314042   4.324   3.759  16.156  0.0215  1.8570  2.1688
    1MPD1     N14043   3.998   3.928  16.393 -0.6913 -0.1442  0.1969
    1MPD1    H514044   4.060   3.914  16.472 -2.6005 -1.7655  1.3977
    1MPD1    N114045   3.933   3.806  15.916  0.0913  0.7717  0.0273
    1MPD1    H614046   3.838   3.841  15.925  0.2975  1.2533  0.3183
    1MPD1    H714047   3.988   3.830  15.833  2.7662  0.2250  1.6175
    2MPD1     C14048   3.112   4.413  16.853 -0.1719 -0.8536 -0.1809
    2MPD1    C114049   3.164   4.328  16.949  0.1429  0.8499  0.2427
    2MPD1    C214050   3.275   4.259  16.907 -0.1274  0.0225  0.1387
    2MPD1    C314051   3.336   4.270  16.782  0.1408 -0.4003 -0.2336
    2MPD1    C414052   3.281   4.368  16.694 -0.5680  0.6050 -0.3523
    2MPD1    C514053   3.167   4.435  16.733  0.1427  0.3158  0.1897
    2MPD1     H14054   3.316   4.193  16.983  0.0829 -1.4051 -1.2166
    2MPD1    H114055   3.299   4.384  16.589  2.9573 -0.3817  0.1152
    2MPD1    H214056   3.016   4.459  16.875  0.7365  0.5356  0.9242
    2MPD1    H314057   3.126   4.508  16.663 -0.6776 -1.4590 -1.1791
    2MPD1     N14058   3.459   4.202  16.753 -0.6609  0.0042  0.2390
    2MPD1    H514059   3.480   4.121  16.812  1.3629  0.2323 -0.1641
    2MPD1    N114060   3.091   4.291  17.065  0.0006 -0.0280 -0.1557
    2MPD1    H614061   3.021   4.360  17.090  0.1947 -0.0841  0.5460
    2MPD1    H714062   3.153   4.289  17.145  1.0425 -0.5215 -0.9633
    3TMC3    C114063   3.669   4.156  16.666  0.6210 -0.2006  0.3408
    3TMC3    C214064   3.714   4.102  16.785  0.1739 -0.0230 -0.0726
    3TMC3    C314065   3.816   4.009  16.773 -0.1779 -0.8355 -0.3484
    3TMC3    C414066   3.730   4.125  16.542  0.5847  0.1163 -0.3168
    3TMC3    C514067   3.834   4.032  16.534  0.1560  0.5924 -0.7093
    3TMC3    C614068   3.884   3.980  16.653 -0.2764 -0.3736 -1.1056
    3TMC3     C14069   3.551   4.239  16.657 -0.2084 -0.0236 -0.0552
    3TMC3     O14070   3.553   4.333  16.583  0.3135 -0.3445 -0.2354
    3TMC3     H14071   3.674   4.131  16.881 -0.0315 -2.4573  0.5877
    3TMC3    H114072   3.693   4.168  16.450 -0.1017  0.8560  0.3044
    3TMC3    H214073   3.948   3.893  16.646  1.9330  0.9276  2.9064
    3TMC3    C714074   3.883   3.996  16.404  0.0158 -0.2089 -0.1287
    3TMC3    C814075   3.872   3.974  16.903 -0.0788  0.3228  0.7244
    3TMC3    O114076   3.812   4.039  16.315  1.0258  0.2326 -0.5105
    3TMC3    O214077   3.810   4.004  17.005 -0.0578 -0.1329 -0.3090
    4MPD1     C14078   4.247   3.804  17.204 -0.0183  0.0263 -0.3539
    4MPD1    C114079   4.265   3.757  17.074  0.2891  0.5307 -0.3659
    4MPD1    C214080   4.175   3.803  16.978 -0.1099 -0.1275 -0.2132
    4MPD1    C314081   4.063   3.867  17.013  0.4638  0.6053 -0.4729
    4MPD1    C414082   4.042   3.901  17.142 -0.0373 -0.0759  0.2626
    4MPD1    C514083   4.135   3.871  17.236  0.0000 -0.6242 -0.3620
    4MPD1     H14084   4.192   3.786  16.873  0.0785 -1.0267 -0.0418
    4MPD1    H114085   3.954   3.959  17.166  0.0150  0.6961 -1.3950
    4MPD1    H214086   4.317   3.795  17.286  0.6751  0.4066 -0.8971
    4MPD1    H314087   4.132   3.904  17.339  0.3281  0.1883 -0.6099
    4MPD1     N14088   3.992   3.915  16.899  0.5239  0.3511  0.2693
    4MPD1    H514089   4.028   3.899  16.806 -2.9415 -2.5871 -0.5982
    4MPD1    N114090   4.386   3.708  17.028  0.4050  0.4834  0.2743
    4MPD1    H614091   4.419   3.634  17.090  1.7813 -0.0370 -1.0759
    4MPD1    H714092   4.378   3.661  16.938 -2.4775 -0.8335  1.2284
    1TCq1    O114093   4.286   2.765  12.123 -0.1031  0.5203 -0.7078
    1TCq1    C114094   4.411   2.773  12.072 -0.3635 -0.5532 -0.2923
    1TCq1    O214095   4.445   2.697  11.984 -0.4378  0.0017 -0.3021
    1TCq1    C214096   4.495   2.842  12.171 -0.1043 -0.1035  0.0685
    1TCq1    C314097   4.462   2.862  12.300 -0.5185 -0.2740  0.3790
    1TCq1    C414098   4.557   2.914  12.384  0.5224  0.2010  0.1830
    1TCq1    C514099   4.682   2.936  12.343  0.3623  0.6732 -0.7112
    1TCq1    C614100   4.712   2.926  12.210  0.1774 -0.3602 -0.0248
    1TCq1    C714101   4.611   2.892  12.125 -0.1245 -0.2420 -0.3908
    1TCq1    C814102   0.090   2.996  12.147  0.3151  0.2943 -0.2767
    1TCq1    O414103   0.106   2.966  12.030  0.0915  0.1893  0.1161
    1TCq1    C914104   4.543   2.934  12.530 -0.6530  0.3116  0.4182
    1TCq1    O514105   4.452   2.870  12.585 -0.0368  0.2197  0.2308
    1TCq1    O614106   4.626   3.012  12.583 -0.2188 -0.0348 -0.0711
    1TCq1    H114107   4.273   2.847  12.176  0.7085 -0.5723  1.2132
    1TCq1    H214108   4.378   2.807  12.341  0.0802 -2.6709 -1.5633
    1TCq1    H314109   0.021   2.980  12.410  1.0474  0.3050 -1.2095
    1TCq1    H414110   4.613   2.897  12.016 -0.4186 -1.0467 -0.4334
    2MPD1     C14111   0.534   3.234  12.162 -0.2294 -0.6599 -0.6111
    2MPD1    C114112   0.468   3.264  12.283 -0.6074 -0.2851 -0.5407
    2MPD1    C214113   0.342   3.210  12.300  0.2288 -0.1099  0.2263
    2MPD1    C314114   0.280   3.133  12.199 -0.5743 -0.1668  0.3635
    2MPD1    C414115   0.336   3.126  12.067  0.1130 -0.0336  0.0575
    2MPD1    C514116   0.459   3.177  12.061  0.1379 -0.5900  0.2020
    2MPD1     H14117   0.286   3.221  12.392  1.1031  1.0905  0.6102
    2MPD1    H114118   0.291   3.082  11.979 -1.2196 -0.3516  0.8972
    2MPD1    H214119   0.637   3.246  12.131 -0.9593  1.8418 -2.0552
    2MPD1    H314120   0.514   3.156  11.970 -0.0917 -2.3206  0.4644
    2MPD1     N14121   0.161   3.069  12.232 -0.9976 -0.5881 -0.4144
    2MPD1    H514122   0.114   3.087  12.321 -0.9619 -1.0817 -0.2979
    2MPD1    N114123   0.534   3.331  12.394 -0.2169 -0.3027 -0.5798
    2MPD1    H614124   0.474   3.359  12.472 -0.5502  1.5853 -1.5159
    2MPD1    H714125   0.597   3.402  12.359  1.2421 -1.4493 -0.2717
    1TMC1    C114126   1.362   0.760   1.706 -0.3468  0.7001 -0.7809
    1TMC1    C214127   1.388   0.856   1.618  0.5353  0.0789 -0.1254
    1TMC1    C314128   1.274   0.922   1.567 -0.6047  0.4357  0.3225
    1TMC1    C414129   1.239   0.730   1.756  1.1577  0.2389  0.9876
    1TMC1    C514130   1.133   0.796   1.711 -0.8736 -0.5778  0.3645
    1TMC1    C614131   1.146   0.886   1.609 -0.4107 -0.6586 -0.8037
    1TMC1     C14132   1.474   0.682   1.769 -0.2897 -0.2968 -0.6786
    1TMC1     O14133   1.458   0.611   1.869  0.1235  0.5896  0.3304
    1TMC1     H14134   1.487   0.888   1.589  0.6263  0.0728  0.1722
    1TMC1    H114135   1.221   0.657   1.834 -0.1227 -2.7053 -2.0489
    1TMC1    H214136   1.059   0.930   1.561  0.0015  0.9808 -0.0657
    1TMC1    C714137   1.009   0.734   1.734 -0.1366  0.5385 -0.0918
    1TMC1    C814138   1.279   1.018   1.460  0.3279 -0.8194  0.1675
    1TMC1    O114139   0.995   0.617   1.768  0.5845 -0.2079  0.2658
    1TMC1    O214140   1.208   1.014   1.361  0.2393  0.4500 -0.1428
    1TMC1    O314141   0.914   0.825   1.746  0.0270  0.0489 -0.1271
    1TMC1    H314142   0.944   0.918   1.738 -0.7322  0.1977 -1.1554
    1TMC1    O514143   1.374   1.111   1.498 -0.5196  0.2046  0.2335
    1TMC1    H514144   1.409   1.100   1.589 -1.4473  1.2175  0.7065
    2MPD1     C14145   1.960   0.530   1.825 -0.2964  0.2043 -0.2055
    2MPD1    C114146   1.934   0.546   1.694 -0.3501 -0.6604 -0.2656
    2MPD1    C214147   1.822   0.606   1.644  0.1975  0.1858 -0.4069
    2MPD1    C314148   1.716   0.630   1.733  0.2469  0.0314  0.5691
    2MPD1    C414149   1.745   0.606   1.869  0.1178  0.5371 -0.2991
    2MPD1    C514150   1.861   0.553   1.916  0.5773  0.1095 -0.1945
    2MPD1     H14151   1.822   0.622   1.537  1.4211  3.5404  0.1111
    2MPD1    H114152   1.669   0.619   1.946  0.2111 -0.6312 -0.0034
    2MPD1    H214153   2.052   0.487   1.860 -1.1621 -0.5599  1.1120
    2MPD1    H314154   1.880   0.538   2.022 -0.5353 -2.6600 -0.3885
    2MPD1     N14155   1.587   0.682   1.691 -0.0656  0.0385 -0.2310
    2MPD1    H514156   1.592   0.724   1.599  0.3246 -0.7741 -0.5769
    2MPD1    N114157   2.047   0.533   1.610  0.2111  0.5453 -0.6451
    2MPD1    H614158   2.028   0.516   1.511 -1.2186 -3.5599  0.3424
    2MPD1    H714159   2.091   0.447   1.643  2.1734  1.7386 -0.1680
    1MPD1     C14160   0.798   3.436  11.612 -0.0698 -0.6624 -0.1398
    1MPD1    C114161   0.857   3.553  11.595 -0.1313  0.1057  0.2280
    1MPD1    C214162   0.931   3.612  11.699 -1.0030 -0.1586 -0.2656
    1MPD1    C314163   0.945   3.553  11.821  0.6998 -0.5620  0.5217
    1MPD1    C414164   0.870   3.440  11.846  0.0834  0.6328 -0.5014
    1MPD1    C514165   0.805   3.384  11.742  0.4189  0.0267  0.3021
    1MPD1     H14166   0.975   3.708  11.672 -1.7270 -1.0096 -4.5490
    1MPD1    H114167   0.852   3.389  11.940  1.1327  0.9588 -0.1203
    1MPD1    H214168   0.739   3.380  11.540  0.1897 -2.2708  0.8881
    1MPD1    H314169   0.746   3.296  11.766 -0.0093  0.0212 -0.7948
    1MPD1     N14170   1.031   3.607  11.922 -0.2584 -0.2404  0.0847
    1MPD1    H514171   1.074   3.698  11.906  0.3986 -0.4363  0.7708
    1MPD1    N114172   0.834   3.619  11.481  0.8542 -0.0819 -0.3008
    1MPD1    H614173   0.827   3.553  11.404  3.3088  1.0609 -1.5078
    1MPD1    H714174   0.904   3.688  11.453 -1.5161  1.2921 -2.7992
    2MPD1     C14175   1.476   4.467  11.299 -0.2697 -0.4193  0.4959
    2MPD1    C114176   1.479   4.480  11.165 -0.1696  0.0470 -0.2095
    2MPD1    C214177   1.398   4.401  11.090  0.3660  0.4628 -0.0053
    2MPD1    C314178   1.322   4.302  11.149 -0.2259 -0.7109 -1.0186
    2MPD1    C414179   1.325   4.290  11.288 -0.2371  0.4829 -0.0731
    2MPD1    C514180   1.402   4.369  11.364  0.7759  0.2065 -0.2866
    2MPD1     H14181   1.405   4.396  10.982 -0.1788 -1.2524  0.0313
    2MPD1    H114182   1.272   4.217  11.348 -1.3973  0.6463 -0.8950
    2MPD1    H214183   1.538   4.530  11.362 -2.6335  0.6092  1.8338
    2MPD1    H314184   1.400   4.347  11.470  1.2836 -2.1101 -0.7527
    2MPD1     N14185   1.252   4.201  11.076 -0.1494  0.4928 -0.4516
    2MPD1    H514186   1.196   4.134  11.129  1.3719  1.2681  2.1545
    2MPD1    N114187   1.574   4.568  11.113  0.1562  0.1641 -0.1335
    2MPD1    H614188   1.599   4.634  11.186 -0.5978 -0.3261  0.5639
    2MPD1    H714189   1.535   4.632  11.043  1.1565 -0.3294 -1.1532
    3MPD1     C14190   0.837   3.642  10.203 -0.5697 -0.0206  0.2737
    3MPD1    C114191   0.907   3.553  10.291 -0.4840  0.2514  0.4979
    3MPD1    C214192   0.958   3.616  10.407 -0.1360  0.3680  0.0379
    3MPD1    C314193   0.958   3.754  10.432 -0.7608 -0.6568  0.2669
    3MPD1    C414194   0.901   3.832  10.336  0.0048  0.2603  0.7372
    3MPD1    C514195   0.852   3.779  10.220  0.5896  0.1458  0.5683
    3MPD1     H14196   0.999   3.553  10.485 -1.1074  2.2096  2.0201
    3MPD1    H114197   0.890   3.940  10.343 -1.5931  0.0761  1.0927
    3MPD1    H214198   0.778   3.609  10.118  0.6807  1.2610 -1.1014
    3MPD1    H314199   0.787   3.850  10.169  0.7002 -0.1836 -0.0266
    3MPD1     N14200   1.016   3.797  10.559 -0.6715  0.2638  0.0397
    3MPD1    H514201   1.055   3.726  10.620 -2.1917 -2.4557 -2.1525
    3MPD1    N114202   0.883   3.418  10.297  0.2841 -0.2219 -0.0309
    3MPD1    H614203   0.944   3.369  10.362 -0.1493  0.4694  0.8991
    3MPD1    H714204   0.864   3.379  10.205 -2.1325  2.6473 -0.7313
    4MPD2     C14205   1.568   3.847  11.787 -0.1839  0.5556 -0.1826
    4MPD2    C114206   1.572   3.725  11.851  0.2760 -0.0852 -0.2859
    4MPD2    C214207   1.631   3.614  11.796 -0.0745  0.1082  0.0465
    4MPD2    C314208   1.701   3.620  11.673  0.1337  0.3690  0.1194
    4MPD2    C414209   1.714   3.747  11.619  0.4144  0.2098 -0.1072
    4MPD2    C514210   1.639   3.853  11.669  0.3070  0.0049  0.4782
    4MPD2     H14211   1.637   3.526  11.860  0.6929 -0.2184 -0.4789
    4MPD2    H114212   1.767   3.762  11.526  0.1862 -4.6387 -0.9921
    4MPD2    H214213   1.521   3.936  11.826  1.3848  0.0130  2.9454
    4MPD2    H314214   1.634   3.947  11.615 -1.1589 -0.9809 -1.0664
    4MPD2     N14215   1.744   3.500  11.621 -0.1671 -0.1972 -0.0742
    4MPD2    H514216   1.722   3.411  11.665  0.9078  0.0721  1.0262
    4MPD2    N114217   1.504   3.711  11.976  0.0020  0.2220 -0.6835
    4MPD2    H714218   1.515   3.622  12.024 -0.3929  1.2081  1.2245
    5TMC3    C114219   1.340   3.731  12.142 -0.3470 -0.3256 -0.7115
    5TMC3    C214220   1.211   3.722  12.101  0.3079 -0.9837  0.0608
    5TMC3    C314221   1.151   3.596  12.125 -0.5161  0.1213  0.0280
    5TMC3    C414222   1.414   3.623  12.192 -0.6393 -0.0583 -0.0056
    5TMC3    C514223   1.354   3.502  12.212  0.6416  0.3604  0.0073
    5TMC3    C614224   1.220   3.496  12.182  0.1083 -0.6405 -0.4493
    5TMC3     C14225   1.413   3.797  12.033  0.0383 -0.4266  0.2596
    5TMC3     O14226   1.375   3.906  11.997 -0.4735  0.4604 -0.1124
    5TMC3     H14227   1.154   3.801  12.053  0.0966 -0.9358  0.3895
    5TMC3    H114228   1.519   3.634  12.217 -0.7777  0.3669  0.3857
    5TMC3    H214229   1.160   3.410  12.209  1.7272 -2.2677 -2.0871
    5TMC3    C714230   1.439   3.395  12.161  0.0395  0.6733 -0.1548
    5TMC3    C814231   1.038   3.555  12.049 -1.2418 -0.2788 -0.6021
    5TMC3    O114232   1.539   3.438  12.105  0.5880 -0.3131 -0.4634
    5TMC3    O214233   0.962   3.478  12.106  0.2511  0.0311 -0.3278
    6TMC3    C114234   1.171   4.072  10.910  0.0097 -0.2690  0.3845
    6TMC3    C214235   1.118   4.065  10.784  0.3721 -0.0830 -0.4020
    6TMC3    C314236   1.106   3.939  10.719 -0.6637  0.0257  0.4112
    6TMC3    C414237   1.212   3.964  10.981  0.0426 -0.1590  0.5625
    6TMC3    C514238   1.193   3.842  10.916  0.0430 -0.4316  0.1280
    6TMC3    C614239   1.148   3.828  10.788 -0.3080  0.2518 -0.1404
    6TMC3     C14240   1.227   4.199  10.944  0.3351  0.3646 -0.5012
    6TMC3     O14241   1.243   4.284  10.855 -0.2311  0.4107  0.0185
    6TMC3     H14242   1.098   4.154  10.725  2.2909  0.0900 -0.7926
    6TMC3    H114243   1.273   3.972  11.070  0.1169  0.4151  0.4615
    6TMC3    H214244   1.161   3.730  10.743  1.6210  0.5646 -0.2588
    6TMC3    C714245   1.251   3.725  10.980  0.4633  0.3596  0.6032
    6TMC3    C814246   1.039   3.930  10.590  0.2333 -0.0662  0.1985
    6TMC3    O114247   1.334   3.750  11.064  0.6587 -0.1047 -0.0791
    6TMC3    O214248   0.994   4.028  10.539  0.5883  0.1553 -0.9976
    7MPD2     C14249   1.433   2.933  11.913  0.6702 -0.1055 -0.5678
    7MPD2    C114250   1.502   3.052  11.885 -0.6752  0.0729 -0.5622
    7MPD2    C214251   1.488   3.164  11.967 -0.3363 -0.1971  0.3529
    7MPD2    C314252   1.406   3.153  12.079  0.0249 -0.8771  0.8551
    7MPD2    C414253   1.333   3.043  12.100 -0.1076 -0.3953 -0.0330
    7MPD2    C514254   1.359   2.933  12.027 -0.5799  0.5587  0.3126
    7MPD2     H14255   1.540   3.257  11.949 -2.2111  0.0122 -3.9437
    7MPD2    H114256   1.265   3.036  12.184 -1.8896 -1.5546 -1.5825
    7MPD2    H214257   1.436   2.846  11.847 -1.6885 -0.9399  0.4267
    7MPD2    H314258   1.306   2.840  12.044  0.3967  0.1918  1.2990
    7MPD2     N14259   1.378   3.268  12.163 -0.0088 -0.2096 -0.0136
    7MPD2    H514260   1.296   3.254  12.221 -0.8472  2.5877 -0.5295
    7MPD2    N114261   1.577   3.062  11.768  0.5090  0.0732  0.5961
    7MPD2    H714262   1.574   2.983  11.705 -0.7750  0.8247 -0.2902
    8TMC3    C114263   1.703   3.165  11.597  0.4786  0.1146  0.5429
    8TMC3    C214264   1.609   3.147  11.500 -0.7051 -0.1294 -0.9307
    8TMC3    C314265   1.610   3.218  11.383 -0.6291 -0.0638  0.3492
    8TMC3    C414266   1.800   3.258  11.569  0.0357 -0.6679  0.2137
    8TMC3    C514267   1.788   3.340  11.462 -1.0299 -0.4355  0.1978
    8TMC3    C614268   1.698   3.321  11.361  0.3717  0.1351  0.0125
    8TMC3     C14269   1.663   3.164  11.735 -0.2486 -0.4550  0.7426
    8TMC3     O14270   1.695   3.269  11.791 -0.4697 -0.4095  0.5002
    8TMC3     H14271   1.534   3.071  11.518  0.5678 -0.9563  0.8665
    8TMC3    H114272   1.876   3.281  11.643 -1.0068  2.8597  0.1920
    8TMC3    H214273   1.697   3.393  11.280 -1.5848 -0.0505 -0.1194
    8TMC3    C714274   1.797   3.476  11.500 -0.0767 -0.9557  0.4440
    8TMC3    C814275   1.495   3.208  11.304  0.6599  0.6315  0.1366
    8TMC3    O114276   1.821   3.545  11.405  0.2649 -0.4711  0.6901
    8TMC3    O214277   1.429   3.102  11.312  0.3093 -0.0536  0.0245
    9MPD2     C14278   1.298   3.226  11.079 -0.0742 -0.2169  0.7422
    9MPD2    C114279   1.381   3.329  11.118 -0.2308  0.2625 -0.0010
    9MPD2    C214280   1.361   3.460  11.063  0.4172  0.0776 -0.4004
    9MPD2    C314281   1.267   3.475  10.963  0.7529 -0.0625  0.6646
    9MPD2    C414282   1.195   3.371  10.917  0.9557  0.6635  0.0091
    9MPD2    C514283   1.204   3.258  10.988 -0.9003 -0.7777  0.2505
    9MPD2     H14284   1.412   3.545  11.106  0.8844 -1.6691  2.5088
    9MPD2    H114285   1.106   3.396  10.860  2.4618  0.8103 -2.3047
    9MPD2    H214286   1.318   3.125  11.113  0.0390  0.6893  3.3541
    9MPD2    H314287   1.145   3.174  10.955 -0.5659 -0.0306 -2.2557
    9MPD2     N14288   1.218   3.601  10.924 -0.1167 -0.0509 -0.4664
    9MPD2    H514289   1.143   3.593  10.856 -0.5767  1.1347 -0.1083
    9MPD2    N114290   1.482   3.313  11.215 -0.0779 -0.0469 -0.0325
    9MPD2    H714291   1.545   3.390  11.235  0.3475 -0.4175  0.0715
    1MPD1     C14292   0.354   2.717  16.636 -0.5343  0.4624  0.5851
    1MPD1    C114293   0.467   2.707  16.558 -0.0199 -0.2782 -0.3094
    1MPD1    C214294   0.587   2.658  16.606  0.0629  0.6809 -0.4922
    1MPD1    C314295   0.589   2.598  16.727 -0.7074 -0.2111  1.0767
    1MPD1    C414296   0.476   2.593  16.802 -0.4702  0.7174  0.0462
    1MPD1    C514297   0.363   2.666  16.767  0.2746 -0.2431 -0.1507
    1MPD1     H14298   0.668   2.661  16.534  1.5068 -3.0405  0.9736
    1MPD1    H114299   0.479   2.538  16.895 -0.3885  0.9951  0.2080
    1MPD1    H214300   0.256   2.753  16.605 -0.4556  1.3034  1.3321
    1MPD1    H314301   0.288   2.675  16.845  0.4368 -0.6257  0.0465
    1MPD1     N14302   0.707   2.529  16.770 -0.0846  0.3684 -0.1470
    1MPD1    H514303   0.700   2.465  16.849 -1.7118  1.1015  0.2973
    1MPD1    N114304   0.464   2.763  16.427 -0.0648  0.0549 -0.1612
    1MPD1    H614305   0.374   2.776  16.381  0.1159 -1.1277 -0.8259
    1MPD1    H714306   0.529   2.729  16.356  2.3145  2.8273  0.6750
    2TMC2    C114307   1.161   2.424  16.776  0.0461 -0.1234  0.4116
    2TMC2    C214308   1.160   2.403  16.911 -0.4327 -0.5990  0.7189
    2TMC2    C314309   1.043   2.432  16.976  0.3220 -0.1377  0.2582
    2TMC2    C414310   1.055   2.480  16.708 -0.1656 -0.3692  0.4432
    2TMC2    C514311   0.940   2.502  16.782  0.2689 -0.1047  0.9566
    2TMC2    C614312   0.930   2.479  16.917  0.4465  0.3036  0.4680
    2TMC2     C14313   1.290   2.391  16.713 -1.1918  0.3747  0.5617
    2TMC2     O14314   1.389   2.353  16.775  0.8877  0.4887 -0.9063
    2TMC2     H14315   1.245   2.357  16.961  1.0399  0.0237 -1.2468
    2TMC2    H114316   1.050   2.483  16.599  0.1369  0.1576  0.4490
    2TMC2    H214317   0.842   2.506  16.975 -0.1535  0.1537 -0.3685
    2TMC2    C714318   0.831   2.565  16.718  0.4595  0.0761  0.3665
    2TMC2    C814319   1.033   2.407  17.112 -0.4509 -0.3845  0.5506
    2TMC2    O114320   0.873   2.643  16.639 -0.4593 -0.2746  0.1590
    2TMC2    O214321   0.985   2.299  17.146  0.1832 -0.5921 -0.1859
    2TMC2    O514322   1.148   2.457  17.147  0.3852 -0.2568 -0.1461
    2TMC2    H514323   1.158   2.546  17.107 -0.9236  0.4920  1.1886
    3MPD1     C14324   1.583   2.303  16.292 -0.4895  0.5683 -0.6339
    3MPD1    C114325   1.459   2.342  16.248  0.1010 -0.3943 -0.7160
    3MPD1    C214326   1.359   2.369  16.340 -1.1134 -0.7121 -0.1438
    3MPD1    C314327   1.383   2.377  16.478  0.6413 -0.2346  0.1029
    3MPD1    C414328   1.512   2.338  16.518 -0.1565  0.1557  0.3951
    3MPD1    C514329   1.606   2.309  16.427 -0.4107 -0.2699  0.0256
    3MPD1     H14330   1.259   2.384  16.301 -0.3241  0.7583 -1.6405
    3MPD1    H114331   1.542   2.327  16.622  0.3425  2.0714  0.4623
    3MPD1    H214332   1.656   2.269  16.219 -1.0948 -1.1486 -0.4542
    3MPD1    H314333   1.706   2.279  16.456 -0.0976  0.6172 -0.1584
    3MPD1     N14334   1.280   2.404  16.573 -0.2008 -0.1537 -0.4298
    3MPD1    H514335   1.187   2.431  16.541  0.3045  1.4940 -0.5377
    3MPD1    N114336   1.428   2.313  16.114 -0.2900  0.9692 -0.2507
    3MPD1    H614337   1.510   2.320  16.054  0.2595 -2.1138  0.1520
    3MPD1    H714338   1.355   2.371  16.071 -0.1604  1.1530 -0.2232
    1TMC1    C114339   4.375   1.485  13.099  0.0732  0.6762 -0.0698
    1TMC1    C214340   4.316   1.395  13.177  0.8107  0.2380  0.4260
    1TMC1    C314341   4.213   1.327  13.120  0.3964  0.5207  0.2586
    1TMC1    C414342   4.328   1.518  12.975 -0.1275  0.2864 -0.1732
    1TMC1    C514343   4.221   1.463  12.924 -0.1626  0.0235 -0.8094
    1TMC1    C614344   4.156   1.367  13.003  0.2610 -0.2924  0.3161
    1TMC1     C14345   4.474   1.574  13.151  0.4328 -0.7060 -0.8307
    1TMC1     O14346   4.509   1.662  13.076  0.0248 -0.0640  0.0626
    1TMC1     H14347   4.351   1.363  13.274  1.8130  1.8460  0.5843
    1TMC1    H114348   4.382   1.586  12.910  1.8760 -1.0103  0.1482
    1TMC1    H214349   4.084   1.306  12.949 -0.0773  0.1374  0.2826
    1TMC1    C714350   4.157   1.518  12.797  0.1834 -0.0176 -0.1476
    1TMC1    C814351   4.145   1.232  13.203  0.4156  0.1248 -0.2255
    1TMC1    O114352   4.217   1.607  12.735 -0.0275  0.4721  0.6260
    1TMC1    O214353   4.214   1.159  13.272  0.2310  0.1377 -0.3804
    1TMC1    O314354   4.029   1.502  12.795  0.1857  0.0859 -0.3138
    1TMC1    H314355   3.994   1.460  12.876 -2.5364  0.4812 -1.2666
    1TMC1    O514356   4.016   1.267  13.218 -0.8046  0.3469 -0.2514
    1TMC1    H514357   3.992   1.338  13.154 -0.0167 -0.1441 -1.0914
    2MPD2     C14358   4.647   1.732  13.329 -0.2359 -0.4552 -0.1594
    2MPD2    C114359   4.601   1.610  13.368  0.7594 -0.5417  0.3885
    2MPD2    C214360   4.642   1.559  13.493  0.6694 -0.2869  0.3054
    2MPD2    C314361   4.718   1.630  13.583 -0.2846  0.7450 -0.5591
    2MPD2    C414362   0.034   1.759  13.544  0.0378 -0.1979 -0.2619
    2MPD2    C514363   4.721   1.809  13.421 -0.6506 -0.3406 -0.2617
    2MPD2     H14364   4.599   1.464  13.523  0.3819  0.6907  3.0229
    2MPD2    H114365   0.094   1.825  13.605 -0.0268  0.7392 -1.2195
    2MPD2    H214366   4.623   1.779  13.235  3.5264  1.8197  0.0556
    2MPD2    H314367   0.033   1.902  13.390 -0.3165  0.1786  1.8210
    2MPD2     N14368   0.020   1.580  13.708  0.1868 -0.3686 -0.2342
    2MPD2    H514369   4.723   1.484  13.722  2.2166 -1.0217 -0.2635
    2MPD2    N114370   4.518   1.534  13.279 -0.0111 -0.7031  0.2330
    2MPD2    H714371   4.483   1.446  13.313  1.8037 -1.8587 -0.8604
    3TCq1    O114372   4.611   1.292  14.245  0.1059  0.0169  0.2876
    3TCq1    C114373   4.595   1.335  14.122  0.4120 -0.7530 -0.9447
    3TCq1    O214374   4.541   1.270  14.037 -0.1305  0.3011 -0.3974
    3TCq1    C214375   4.709   1.417  14.080 -0.3122  0.3648  1.1368
    3TCq1    C314376   0.082   1.438  14.174 -1.0876  0.4226 -0.0970
    3TCq1    C414377   0.183   1.519  14.140 -0.4346  0.0731 -0.2752
    3TCq1    C514378   0.174   1.581  14.017 -0.2907 -0.6160  0.1147
    3TCq1    C614379   0.075   1.561  13.927  0.0450  0.3918 -0.0023
    3TCq1    C714380   4.706   1.475  13.958 -0.0439  0.4520  0.5247
    3TCq1    C814381   0.077   1.647  13.809  0.2387  0.5582  0.0428
    3TCq1    O414382   0.130   1.759  13.817  0.5356 -0.7957  0.2618
    3TCq1    C914383   0.302   1.519  14.222 -0.2127  0.2448  0.2262
    3TCq1    O514384   0.397   1.595  14.194 -0.5233 -0.6666  0.6368
    3TCq1    O614385   0.293   1.448  14.328 -0.1254  0.2635 -0.2592
    3TCq1    H114386   4.642   1.374  14.289  0.5277  0.0235 -0.0200
    3TCq1    H214387   0.087   1.374  14.262  0.0938  0.2522 -0.2870
    3TCq1    H314388   0.261   1.638  13.985 -1.2510  0.8685  0.1631
    3TCq1    H414389   4.614   1.460  13.902 -1.9881  1.8156  3.3740
    1MPD2     C14390   3.848   2.814  14.487 -0.6943  0.5612 -0.0551
    1MPD2    C114391   3.872   2.770  14.618  0.5726 -0.8634 -0.8775
    1MPD2    C214392   3.996   2.786  14.675 -0.1262  0.4530  0.1083
    1MPD2    C314393   4.098   2.847  14.597  0.8963  0.4643 -0.4466
    1MPD2    C414394   4.067   2.899  14.473 -1.3826 -0.6544  1.0777
    1MPD2    C514395   3.943   2.878  14.416 -0.4850 -0.0232  0.2040
    1MPD2     H14396   4.017   2.752  14.775  0.8513 -1.7882 -0.8483
    1MPD2    H114397   4.143   2.942  14.408 -0.4281 -0.8905  2.0261
    1MPD2    H214398   3.760   2.786  14.431  0.7934 -0.3565 -1.9513
    1MPD2    H314399   3.944   2.898  14.309  1.0253  1.6295  0.5278
    1MPD2     N14400   4.223   2.834  14.653  0.8286 -0.1986  0.6043
    1MPD2    H514401   4.233   2.786  14.742 -2.7308 -0.6183  0.7892
    1MPD2    N114402   3.779   2.685  14.678  0.2660 -0.1288 -0.1034
    1MPD2    H714403   3.689   2.678  14.631  0.0200 -3.3571  0.8416
    2TMC3    C114404   3.705   2.504  14.818 -0.6598 -0.2541 -0.0470
    2TMC3    C214405   3.757   2.419  14.905  0.5486 -0.9277 -0.0337
    2TMC3    C314406   3.736   2.284  14.888 -0.4896 -0.5416  0.4743
    2TMC3    C414407   3.616   2.470  14.721  0.0338  0.7712 -0.2567
    2TMC3    C514408   3.595   2.334  14.707  0.4109  0.4890  0.0005
    2TMC3    C614409   3.651   2.239  14.791  0.5546  0.5766 -0.3329
    2TMC3     C14410   3.808   2.601  14.789 -0.0373 -0.0859  0.1171
    2TMC3     O14411   3.917   2.586  14.848 -0.4069 -0.1097  0.4348
    2TMC3     H14412   3.806   2.457  14.994 -1.5735  2.5517 -0.3488
    2TMC3    H114413   3.582   2.545  14.650  2.9947  1.1231 -1.2737
    2TMC3    H214414   3.636   2.133  14.774  0.6747  0.4086  0.6175
    2TMC3    C714415   3.558   2.281  14.578 -0.1856 -0.1256  0.4830
    2TMC3    C814416   3.863   2.216  14.893 -0.1789  0.0956 -0.5172
    2TMC3    O114417   3.579   2.164  14.554  0.2589  0.4406 -0.2961
    2TMC3    O214418   3.876   2.099  14.924  0.3202 -0.0701  0.0269
    3TCq1    O114419   2.712   2.791  14.172 -0.0910 -0.1088 -0.6008
    3TCq1    C114420   2.838   2.821  14.214 -0.0385  0.2770  0.0377
    3TCq1    O214421   2.881   2.817  14.331  0.2759 -0.1230  0.4557
    3TCq1    C214422   2.909   2.780  14.093  0.2204  0.2576 -0.8657
    3TCq1    C314423   2.862   2.818  13.971 -0.2120 -0.0579 -0.0954
    3TCq1    C414424   2.919   2.762  13.859 -0.2201 -0.1776 -0.3245
    3TCq1    C514425   3.021   2.670  13.866  0.0703 -0.2929  0.7006
    3TCq1    C614426   3.075   2.646  13.993 -0.3081 -0.5836  0.1240
    3TCq1    C714427   3.017   2.691  14.105  0.5126 -0.6796 -0.1819
    3TCq1    C814428   3.172   2.537  14.002 -1.0676 -0.0812  0.0520
    3TCq1    O414429   3.192   2.472  13.900 -0.6372  0.0632  1.2016
    3TCq1    C914430   2.879   2.810  13.722 -0.2755 -0.0449  0.1729
    3TCq1    O514431   2.773   2.878  13.720  0.2169 -0.7765  0.1457
    3TCq1    O614432   2.945   2.765  13.624 -0.3117 -0.0202 -0.4699
    3TCq1    H114433   2.702   2.771  14.076 -1.0524  2.7848 -1.1355
    3TCq1    H214434   2.789   2.896  13.956 -0.5244  0.0772  2.0939
    3TCq1    H314435   3.076   2.649  13.774 -0.3968 -0.1965  0.4008
    3TCq1    H414436   3.057   2.678  14.205 -0.0005  1.2477  0.2766
    4MPD2     C14437   3.341   2.318  14.100  0.0308  0.3890 -0.9777
    4MPD2    C114438   3.313   2.433  14.176  0.3543  0.2251  0.3744
    4MPD2    C214439   3.363   2.454  14.307 -0.2374  0.7687  0.4004
    4MPD2    C314440   3.433   2.348  14.370 -0.5644 -0.1463  0.2488
    4MPD2    C414441   3.473   2.241  14.287 -0.4260  0.0176  0.0440
    4MPD2    C514442   3.433   2.227  14.155  0.5578 -0.1270  0.5138
    4MPD2     H14443   3.334   2.545  14.358  1.3447  0.9761  0.9285
    4MPD2    H114444   3.542   2.165  14.321 -0.5774 -1.1175 -2.2222
    4MPD2    H214445   3.287   2.304  14.007  1.6363  1.4042 -2.0657
    4MPD2    H314446   3.474   2.150  14.090  0.1558  1.1906 -1.3231
    4MPD2     N14447   3.494   2.373  14.496  0.2830 -0.3253 -0.4096
    4MPD2    H514448   3.475   2.463  14.539  0.9339 -0.4743  0.2000
    4MPD2    N114449   3.227   2.532  14.127 -0.2386 -0.1802  0.2624
    4MPD2    H714450   3.212   2.609  14.192 -1.3227  1.6771 -2.1720
    5TMC2    C114451   4.551   2.616  14.721  0.3157 -0.2870 -0.1488
    5TMC2    C214452   4.669   2.683  14.766 -0.0562  0.0478 -0.0618
    5TMC2    C314453   4.660   2.819  14.754 -0.2977  0.4917  0.2540
    5TMC2    C414454   4.443   2.678  14.660  0.5637 -0.0499 -0.4171
    5TMC2    C514455   4.453   2.815  14.647  0.1096 -0.2186 -0.1484
    5TMC2    C614456   4.551   2.884  14.705 -0.0670 -0.2948  0.2815
    5TMC2     C14457   4.522   2.477  14.761  0.2328  0.1479 -0.0646
    5TMC2     O14458   4.612   2.409  14.809  0.1516  0.4683 -0.3951
    5TMC2     H14459   0.018   2.625  14.803 -2.1846 -2.2509  1.0447
    5TMC2    H114460   4.384   2.622  14.588  0.9703 -1.1287  0.0826
    5TMC2    H214461   4.550   2.989  14.678 -0.6892 -0.7989 -1.6608
    5TMC2    C714462   4.338   2.884  14.593  0.8998  0.2510 -0.3613
    5TMC2    C814463   0.040   2.905  14.778 -0.2790 -0.5879 -0.2688
    5TMC2    O114464   4.351   2.968  14.506  0.3020  0.0244 -0.4502
    5TMC2    O214465   0.026   3.020  14.812 -0.1625  0.3211  0.3108
    5TMC2    O514466   0.155   2.845  14.736  0.6582 -0.1389  0.3897
    5TMC2    H514467   0.146   2.759  14.689 -0.7020 -0.3713  1.0497
    6MPD2     C14468   4.155   2.158  14.926 -0.2786 -0.4705  0.3631
    6MPD2    C114469   4.101   2.276  14.885 -0.4518 -0.3546 -0.4467
    6MPD2    C214470   4.180   2.376  14.839 -0.2171 -0.1123 -0.5639
    6MPD2    C314471   4.316   2.361  14.834 -0.2024 -1.0519 -0.2193
    6MPD2    C414472   4.372   2.242  14.868  0.4101 -0.0807  0.2951
    6MPD2    C514473   4.291   2.147  14.925 -0.3652 -0.5877  0.2261
    6MPD2     H14474   4.124   2.465  14.812 -1.0464 -0.4421  0.0901
    6MPD2    H114475   4.478   2.219  14.870  0.5641  0.8185  2.2931
    6MPD2    H214476   4.087   2.076  14.945 -3.0820  1.6271 -0.4022
    6MPD2    H314477   4.331   2.047  14.941  0.8977 -0.2948 -1.0962
    6MPD2     N14478   4.384   2.472  14.780 -0.0169 -0.1378  0.1429
    6MPD2    H514479   4.325   2.549  14.748 -0.2923 -0.6554 -0.5870
    6MPD2    N114480   3.967   2.311  14.891  1.1586 -0.1505  0.3417
    6MPD2    H714481   3.943   2.407  14.864  1.4046 -0.6264 -1.5880
  945NH4     N114482   0.131   0.178  16.033 -0.8407 -0.0532 -0.5194
  945NH4     H214483   0.163   0.273  16.060  0.7313 -0.7444  0.1002
  945NH4     H314484   0.047   0.150  16.087  0.3113  1.2093  1.8961
  945NH4     H414485   0.205   0.109  16.059  0.6434  0.7908 -2.4778
  945NH4     H514486   0.108   0.168  15.932 -0.7384  0.5722 -0.6031
  946SOD     NA14487   3.518   4.158  11.763 -0.5102 -0.0556 -0.1188
  947SOD     NA14488   0.586   1.618  14.115 -0.4973 -0.0314  0.2296
  948SOD     NA14489   1.396   2.667  13.643  0.4571  0.3522 -0.1512
  949SOD     NA14490   0.125   4.110  16.637  0.2166  0.1389  0.4201
  950SOD     NA14491   0.471   2.426  17.445  0.0383  0.2580  0.2929
  951SOD     NA14492   2.153   3.909  13.337 -0.3300 -0.3641  0.2781
  952SOD     NA14493   4.001   3.994   6.123 -0.1451  0.0411  0.1114
  953SOL     OW14494   4.241   2.869   8.060  0.2075 -0.0988 -0.1748
  953SOL    HW114495   4.237   2.948   8.007 -0.7578 -0.2809 -0.3699
  953SOL    HW214496   4.154   2.870   8.099  0.1497  0.3804 -0.3197
  954SOL     OW14497   2.680   4.440   5.169 -0.3590 -0.2733 -0.0658
  954SOL    HW114498   2.630   4.399   5.239  0.7955 -0.5404  0.6000
  954SOL    HW214499   2.693   4.364   5.113  1.4012 -0.1091  0.1383
  955SOL     OW14500   3.147   2.655   1.820  0.4540  0.2147 -0.4517
  955SOL    HW114501   3.198   2.709   1.880  1.6996 -1.4454 -0.0122
  955SOL    HW214502   3.218   2.597   1.789 -0.9610 -1.1224 -1.2028
  956SOL     OW14503   3.429   1.633   0.349  0.1622 -0.2568  0.2318
  956SOL    HW114504   3.385   1.553   0.321  0.6426 -0.1307 -0.8799
  956SOL    HW214505   3.502   1.637   0.288 -0.5954 -2.2654 -0.7940
  957SOL     OW14506   3.918   2.577   7.852  0.0720 -0.3125 -0.3332
  957SOL    HW114507   3.832   2.547   7.883  0.9367 -0.0139  2.3629
  957SOL    HW214508   3.964   2.498   7.882  0.1795 -0.0090  0.2943
  958SOL     OW14509   3.468   2.649   0.994  0.6040  0.2322 -0.1819
  958SOL    HW114510   3.562   2.639   1.011  0.5007  0.9316  0.8180
  958SOL    HW214511   3.456   2.558   0.967 -1.4012  0.6386 -0.6685
  959SOL     OW14512   2.137   0.732  15.972 -0.8500  0.9071  0.5127
  959SOL    HW114513   2.230   0.751  15.987 -0.5962  0.0141  0.0781
  959SOL    HW214514   2.097   0.809  16.012 -0.8709  1.0456  0.2249
  960SOL     OW14515   3.040   1.948  14.919 -0.1858 -1.2644  0.1809
  960SOL    HW114516   2.950   1.959  14.949 -0.4615  2.1683 -1.8522
  960SOL    HW214517   3.072   2.038  14.929 -0.4219 -0.9975 -1.3457
  961SOL     OW14518   0.380   1.401   4.340  0.1460 -0.4113  0.4107
  961SOL    HW114519   0.333   1.484   4.349  0.5638 -0.2231  0.8818
  961SOL    HW214520   0.470   1.431   4.324  0.3163 -1.0975  0.0582
  962SOL     OW14521   2.677   4.674   1.855  0.4757 -0.3564  0.5137
  962SOL    HW114522   2.633   4.590   1.840 -0.6167  0.2807  0.1063
  962SOL    HW214523   2.683   4.656   1.949 -1.8191  0.4822  0.8276
  963SOL     OW14524   4.602   2.237   8.271 -0.0033 -0.1128 -0.3047
  963SOL    HW114525   4.582   2.186   8.349  0.0560 -0.4776 -0.5302
  963SOL    HW214526   4.693   2.215   8.256 -0.1052 -0.7320 -0.0226
  964SOL     OW14527   2.653   4.195   6.422 -0.1102 -0.4962 -0.9010
  964SOL    HW114528   2.719   4.186   6.490  0.4471 -0.4727 -1.4343
  964SOL    HW214529   2.617   4.107   6.434 -0.6136 -0.2485 -0.5524
  965SOL     OW14530   0.181   2.220  14.291  0.1381  0.1480  0.2994
  965SOL    HW114531   0.257   2.204  14.347  0.5805  2.3493  0.3232
  965SOL    HW214532   0.222   2.208  14.206  0.6457  0.4121  0.5095
  966SOL     OW14533   0.631   3.076   4.888 -0.3087 -0.2769 -0.0326
  966SOL    HW114534   0.676   3.160   4.891  0.5919 -0.8052  0.9637
  966SOL    HW214535   0.640   3.052   4.795  1.2110  0.1959 -0.0035
  967SOL     OW14536   4.100   1.065   2.568 -0.6777  0.2524 -0.2091
  967SOL    HW114537   4.115   0.979   2.529 -0.7026  0.1197  0.0829
  967SOL    HW214538   4.127   1.125   2.498  1.9379 -1.8224 -0.9673
  968SOL     OW14539   2.954   4.070  16.955 -0.1673  0.0480 -0.2926
  968SOL    HW114540   3.013   4.136  16.992 -0.3517 -0.2021  0.4407
  968SOL    HW214541   2.968   4.080  16.861 -2.6155 -2.2823 -0.8997
  969SOL     OW14542   1.553   2.838   2.938  0.5059  0.3506  0.3344
  969SOL    HW114543   1.509   2.923   2.937  3.0169  1.6189 -0.1268
  969SOL    HW214544   1.484   2.776   2.965  1.2717 -0.8338 -0.4396
  970SOL     OW14545   1.563   0.853   2.955  0.1848  0.0078  0.1092
  970SOL    HW114546   1.645   0.891   2.923  0.6053 -0.8114  0.2277
  970SOL    HW214547   1.599   0.795   3.022 -1.2377  0.0017  0.8677
  971SOL     OW14548   1.637   3.319  12.710 -0.4857 -0.2002  0.2677
  971SOL    HW114549   1.606   3.296  12.623 -0.1475  0.5575 -0.0540
  971SOL    HW214550   1.681   3.237  12.731 -1.8085 -1.4852 -2.1255
  972SOL     OW14551   2.943   3.761   7.895 -0.1995  0.5072 -0.1852
  972SOL    HW114552   3.018   3.819   7.882 -0.5613  1.0316  0.0608
  972SOL    HW214553   2.987   3.677   7.905 -0.0236  0.5914 -0.2377
  973SOL     OW14554   0.794   1.127   2.323  0.1112  0.4537 -0.5708
  973SOL    HW114555   0.874   1.139   2.374 -0.6350  0.8842  0.4948
  973SOL    HW214556   0.747   1.061   2.374  1.3712  1.2627  1.6660
  974SOL     OW14557   1.001   2.444   2.112 -0.0303  0.7514  0.1879
  974SOL    HW114558   1.038   2.524   2.077  0.9196  1.3986  2.6469
  974SOL    HW214559   0.965   2.470   2.197 -0.5726 -0.8373  0.4421
  975SOL     OW14560   3.948   0.371   6.961  0.1499 -0.3059 -0.6693
  975SOL    HW114561   3.861   0.356   6.999  0.7968  0.4028  1.1260
  975SOL    HW214562   3.949   0.314   6.885 -0.7401 -1.8077  0.4374
  976SOL     OW14563   2.179   3.956   5.385  0.1762 -0.6459  0.3332
  976SOL    HW114564   2.242   3.958   5.313  1.4088 -1.7553  1.3973
  976SOL    HW214565   2.179   3.864   5.408 -1.5671 -0.5865  0.5701
  977SOL     OW14566   3.356   2.095  13.373 -0.1616  0.0208  0.8295
  977SOL    HW114567   3.438   2.067  13.414  1.0382  2.0279 -0.1844
  977SOL    HW214568   3.318   2.137  13.450 -0.3158  2.2293 -0.4512
  978SOL     OW14569   4.376   4.156   6.219  0.0542  0.1280  0.4198
  978SOL    HW114570   4.383   4.074   6.267 -0.5625  0.3563  0.8920
  978SOL    HW214571   4.302   4.131   6.164 -0.4411  1.4522  0.4794
  979SOL     OW14572   1.613   2.547   1.032  0.3531 -0.9345  0.2454
  979SOL    HW114573   1.525   2.513   1.044 -0.0627 -0.6119 -1.9318
  979SOL    HW214574   1.630   2.552   0.938 -0.3575 -0.2852  0.1551
  980SOL     OW14575   4.337   0.310   8.274  0.7820  0.2036 -0.5277
  980SOL    HW114576   4.403   0.341   8.212 -0.2065  0.3605 -1.4970
  980SOL    HW214577   4.269   0.284   8.212 -1.5669  1.1827  1.6003
  981SOL     OW14578   2.932   1.635   4.264 -0.0570 -0.0040 -0.6880
  981SOL    HW114579   2.878   1.714   4.258 -1.1841 -0.6543  0.7873
  981SOL    HW214580   3.012   1.665   4.308 -0.2313  0.5924 -0.7713
  982SOL     OW14581   1.516   2.151   2.819  0.0954  0.7060  0.2778
  982SOL    HW114582   1.535   2.072   2.768  2.6236  2.7008 -1.8288
  982SOL    HW214583   1.452   2.106   2.874 -0.4262  0.6200 -0.3973
  983SOL     OW14584   3.107   2.028   7.162 -0.1435  0.2505  0.1488
  983SOL    HW114585   3.172   1.977   7.210  0.7238  1.4951  0.3082
  983SOL    HW214586   3.025   1.983   7.181 -0.3041  1.3049  1.9325
  984SOL     OW14587   3.470   0.725   6.567  0.1341 -0.3152 -0.1283
  984SOL    HW114588   3.540   0.763   6.621  0.5051 -0.6522 -0.3641
  984SOL    HW214589   3.390   0.774   6.584 -1.1105 -1.8314 -1.6201
  985SOL     OW14590   0.651   2.996  14.842  0.0358  0.3189 -0.0026
  985SOL    HW114591   0.565   2.956  14.834  1.1748 -2.1040 -0.1939
  985SOL    HW214592   0.658   3.012  14.936  0.7082 -0.6429  0.1135
  986SOL     OW14593   2.405   2.705   8.125 -0.3076  0.0009 -0.6714
  986SOL    HW114594   2.346   2.654   8.180 -1.3696  0.7003 -1.1728
  986SOL    HW214595   2.369   2.699   8.037 -1.2541 -0.1867 -0.2657
  987SOL     OW14596   2.136   0.901   2.843  0.4254 -0.0673 -0.3454
  987SOL    HW114597   2.228   0.900   2.818  0.5602  0.4803  0.1252
  987SOL    HW214598   2.130   0.855   2.927  2.6032 -1.2658 -0.8511
  988SOL     OW14599   1.430   1.743  12.022 -0.1173  0.0788  0.1008
  988SOL    HW114600   1.435   1.656  12.061  1.1906 -1.3596 -3.3328
  988SOL    HW214601   1.339   1.740  11.993 -1.0259  3.1729  2.5920
  989SOL     OW14602   4.202   1.817   4.180  0.1171  0.4326  0.0740
  989SOL    HW114603   4.178   1.776   4.097  3.4411  2.4888 -1.9094
  989SOL    HW214604   4.170   1.904   4.158 -0.2763 -0.1125 -1.4709
  990SOL     OW14605   2.164   1.804   7.536  0.7635  0.2848  0.0502
  990SOL    HW114606   2.234   1.752   7.577  1.1039  1.1091  0.5211
  990SOL    HW214607   2.168   1.778   7.444  1.2994  0.0994  0.1279
  991SOL     OW14608   3.745   4.531   8.262  0.3277 -0.6796  0.0934
  991SOL    HW114609   3.761   4.471   8.189 -1.0875 -0.7814 -0.1491
  991SOL    HW214610   3.658   4.564   8.238  1.0198  0.7976 -0.4031
  992SOL     OW14611   1.956   4.315   5.133  0.0519  0.0524  0.2061
  992SOL    HW114612   1.940   4.402   5.170 -0.4797  0.3396 -0.6817
  992SOL    HW214613   1.875   4.304   5.083 -1.1869  0.8127  2.0606
  993SOL     OW14614   0.602   1.728  14.779 -0.3430 -0.5918  0.0040
  993SOL    HW114615   0.673   1.691  14.832  0.6250  2.0635  0.5796
  993SOL    HW214616   0.555   1.644  14.781  1.8257 -1.7815  0.9843
  994SOL     OW14617   0.329   3.592   5.525  0.3590 -0.1015  0.2674
  994SOL    HW114618   0.337   3.503   5.489  0.2504 -0.0816  0.1947
  994SOL    HW214619   0.308   3.566   5.614  2.9338 -0.8674  0.6712
  995SOL     OW14620   0.030   0.312  11.933  0.2381 -0.2580 -0.2812
  995SOL    HW114621   4.679   0.276  11.910  0.1193  0.8579 -1.6318
  995SOL    HW214622   0.073   0.324  11.848 -0.9847  0.2674 -0.8234
  996SOL     OW14623   3.047   2.813  10.498 -0.2652  0.3315  0.3522
  996SOL    HW114624   3.020   2.903  10.518  0.6516  1.0057 -1.4561
  996SOL    HW214625   3.098   2.807  10.579  0.7486 -0.8410 -0.3777
  997SOL     OW14626   3.282   1.116   8.728 -0.3252 -0.1414 -0.3026
  997SOL    HW114627   3.260   1.037   8.679 -2.6292  0.6889 -0.5933
  997SOL    HW214628   3.221   1.121   8.801  0.6116 -0.1352  0.4745
  998SOL     OW14629   2.315   3.458   8.401 -0.4873  0.3248 -0.4495
  998SOL    HW114630   2.391   3.497   8.359  1.4269 -2.6416  0.3426
  998SOL    HW214631   2.354   3.480   8.485 -0.3343 -0.1368 -0.4036
  999SOL     OW14632   0.598   1.799   2.464 -0.0873  0.4866  0.2193
  999SOL    HW114633   0.536   1.748   2.411 -1.0970  1.1411  0.7815
  999SOL    HW214634   0.617   1.872   2.404  0.3523  1.6059  1.7319
 1000SOL     OW14635   1.380   2.573  12.825  0.2692  0.3192 -0.3146
 1000SOL    HW114636   1.288   2.575  12.799  0.2532 -1.6111 -0.4265
 1000SOL    HW214637   1.404   2.496  12.773 -2.0707  1.3773 -2.9817
 1001SOL     OW14638   3.973   0.518   7.877 -0.0646 -0.4306 -0.1052
 1001SOL    HW114639   3.963   0.587   7.811 -3.0785  0.6226  1.4674
 1001SOL    HW214640   4.046   0.552   7.928  0.1959 -2.9166  1.2101
 1002SOL     OW14641   1.491   0.339  13.861 -0.3738  0.2501  0.1175
 1002SOL    HW114642   1.483   0.435  13.863  0.5272  0.3736 -2.9469
 1002SOL    HW214643   1.554   0.330  13.791 -0.0747  3.5113 -0.0460
 1003SOL     OW14644   3.081   0.715  13.850  0.0245  0.0959 -0.4782
 1003SOL    HW114645   3.158   0.694  13.903 -1.1720  0.4106  1.3659
 1003SOL    HW214646   3.120   0.734  13.764  1.1444 -0.2590 -0.0449
 1004SOL     OW14647   2.888   2.912   4.106  0.3688  0.4180 -0.1260
 1004SOL    HW114648   2.832   2.835   4.121 -0.9303  1.4852  0.5348
 1004SOL    HW214649   2.850   2.976   4.166 -0.2482 -1.1977  1.2228
 1005SOL     OW14650   4.656   2.917   4.784  0.2294  0.1815 -0.2001
 1005SOL    HW114651   4.588   2.884   4.725 -2.6328  0.4816  2.9001
 1005SOL    HW214652   4.643   2.864   4.862 -1.4308  1.0605  0.1389
 1006SOL     OW14653   3.080   3.391   3.425 -0.0654  0.3195  0.3930
 1006SOL    HW114654   3.011   3.437   3.378  0.9141 -0.4087 -1.7595
 1006SOL    HW214655   3.042   3.372   3.511  1.6779  0.4817  1.2191
 1007SOL     OW14656   3.730   1.437   9.572  0.9524  0.2148 -0.4178
 1007SOL    HW114657   3.803   1.497   9.557  0.8494  0.7567  1.2477
 1007SOL    HW214658   3.789   1.369   9.606  1.6359  1.3588  0.6911
 1008SOL     OW14659   3.779   3.461   3.726  0.0059 -0.1906 -0.0347
 1008SOL    HW114660   3.868   3.428   3.741 -0.7219 -1.7485  0.9289
 1008SOL    HW214661   3.738   3.466   3.812  0.5756  1.1348  0.1569
 1009SOL     OW14662   0.667   3.851   7.808  0.2469 -0.4399  0.5652
 1009SOL    HW114663   0.664   3.940   7.773  1.2249 -0.1276  1.2773
 1009SOL    HW214664   0.575   3.841   7.829  0.9754 -0.9946  3.5151
 1010SOL     OW14665   3.765   3.005   4.266  0.4790 -0.7156  0.5236
 1010SOL    HW114666   3.718   3.044   4.193 -1.6333 -1.7024  1.3250
 1010SOL    HW214667   3.689   2.965   4.310 -0.5620 -0.5605 -1.1295
 1011SOL     OW14668   1.414   3.071   2.877 -0.4647 -0.4541 -0.0492
 1011SOL    HW114669   1.414   3.065   2.973 -1.6518 -1.3438 -0.1119
 1011SOL    HW214670   1.395   3.165   2.870  0.1840 -0.1421  2.1409
 1012SOL     OW14671   0.971   0.589   8.938  0.3000  0.5180  0.2673
 1012SOL    HW114672   0.961   0.659   8.874  2.8186 -0.5319 -1.2686
 1012SOL    HW214673   0.944   0.637   9.017  0.9188  0.6022  0.4324
 1013SOL     OW14674   3.448   2.048   4.720 -0.1661  0.6495  0.1027
 1013SOL    HW114675   3.391   2.034   4.645 -1.0670  0.7729  0.7549
 1013SOL    HW214676   3.398   2.118   4.763 -1.0032  0.1439 -0.0298
 1014SOL     OW14677   1.068   1.683  16.311 -0.4343  0.0460  0.6052
 1014SOL    HW114678   1.056   1.778  16.308 -0.5719 -0.0183 -0.8478
 1014SOL    HW214679   1.154   1.677  16.353 -0.0257 -1.4283 -0.4522
 1015SOL     OW14680   0.931   0.982   3.626  0.4553 -0.1141 -0.4669
 1015SOL    HW114681   0.967   1.060   3.670  0.2429  1.1019 -2.4559
 1015SOL    HW214682   0.945   1.009   3.535  0.6528  2.6658  0.3834
 1016SOL     OW14683   0.512   1.476  11.706  0.1585 -0.0839  0.1112
 1016SOL    HW114684   0.497   1.550  11.647 -0.6953 -0.9101 -0.7115
 1016SOL    HW214685   0.606   1.481  11.724  0.0278 -0.7288  0.9500
 1017SOL     OW14686   3.649   4.149   7.127 -0.2361 -0.0239 -0.7091
 1017SOL    HW114687   3.718   4.125   7.188 -0.5914 -0.6907 -0.5706
 1017SOL    HW214688   3.649   4.068   7.077 -0.8442  0.0301 -0.8080
 1018SOL     OW14689   2.106   1.589   2.464 -0.6554 -0.0348  0.0623
 1018SOL    HW114690   2.049   1.598   2.388  0.5703  0.9049 -0.7472
 1018SOL    HW214691   2.185   1.630   2.427 -0.4112 -0.9096 -0.3735
 1019SOL     OW14692   0.187   2.293   3.822 -0.0736  0.0296 -0.1029
 1019SOL    HW114693   0.097   2.322   3.837 -0.6943 -1.2398 -1.3100
 1019SOL    HW214694   0.211   2.255   3.906  1.0437 -0.6632 -0.7220
 1020SOL     OW14695   2.412   4.638   1.351 -0.3043  0.0704 -0.0718
 1020SOL    HW114696   2.349   4.625   1.279  0.2521 -1.9715 -0.1772
 1020SOL    HW214697   2.392   4.566   1.410 -0.8753  1.2924  1.2160
 1021SOL     OW14698   1.264   3.715   8.120 -0.1819 -0.1675 -0.2645
 1021SOL    HW114699   1.207   3.792   8.105  1.7223  1.4548  0.8638
 1021SOL    HW214700   1.261   3.676   8.032  0.0875 -2.4599  0.7654
 1022SOL     OW14701   2.684   2.907   4.704  0.3204  0.0596  0.5504
 1022SOL    HW114702   2.630   2.956   4.642  0.3478  0.4092  0.7994
 1022SOL    HW214703   2.664   2.821   4.667  0.7235  0.3510 -0.3633
 1023SOL     OW14704   0.464   3.458   0.306 -0.3290  0.2815  0.2152
 1023SOL    HW114705   0.458   3.460   0.402  3.5828 -1.3714  0.4572
 1023SOL    HW214706   0.445   3.551   0.293  3.2208  1.1682  1.2459
 1024SOL     OW14707   1.269   4.180  13.991  0.3251 -0.3508  0.3457
 1024SOL    HW114708   1.202   4.160  13.926 -0.0469 -1.2402  1.0066
 1024SOL    HW214709   1.276   4.275  13.979  0.9816 -0.3016  1.1136
 1025SOL     OW14710   2.729   3.220   8.765 -0.3285 -0.2646 -0.1777
 1025SOL    HW114711   2.727   3.136   8.719  1.1627  1.2284 -3.0092
 1025SOL    HW214712   2.642   3.255   8.742 -0.1482  0.6273  0.4983
 1026SOL     OW14713   4.022   1.777   8.511 -0.7293 -0.6387 -0.1069
 1026SOL    HW114714   4.110   1.793   8.475 -0.8919 -0.9466 -0.6482
 1026SOL    HW214715   4.001   1.694   8.468 -0.7846  0.3301 -1.9679
 1027SOL     OW14716   2.455   2.298   2.671 -0.4426 -0.7591  0.3024
 1027SOL    HW114717   2.366   2.316   2.639 -0.2060 -1.1062 -0.5509
 1027SOL    HW214718   2.467   2.212   2.630 -0.8241  0.3680 -2.1544
 1028SOL     OW14719   1.656   3.134   3.456 -0.0988 -0.3106  0.2563
 1028SOL    HW114720   1.584   3.188   3.424  0.1191  0.8780  1.8196
 1028SOL    HW214721   1.611   3.107   3.536 -0.0496 -1.1845 -0.0096
 1029SOL     OW14722   1.686   0.223   5.064 -0.1112  0.1237 -0.0012
 1029SOL    HW114723   1.681   0.253   4.973  1.6758 -0.9062 -0.4455
 1029SOL    HW214724   1.728   0.299   5.103 -0.5955 -0.7425  2.2103
 1030SOL     OW14725   4.002   2.432   1.597 -0.2264 -0.4110  0.0816
 1030SOL    HW114726   3.936   2.431   1.528 -2.2291 -1.2883  2.0151
 1030SOL    HW214727   4.081   2.421   1.544 -1.6904 -0.7655 -2.0241
 1031SOL     OW14728   1.427   2.265   4.567  0.2717  0.2149  0.0581
 1031SOL    HW114729   1.427   2.306   4.654  1.0378 -0.5409  0.4078
 1031SOL    HW214730   1.437   2.347   4.518  2.1842 -0.5454 -0.7978
 1032SOL     OW14731   2.605   1.411   8.251 -0.3676 -0.4812  0.2355
 1032SOL    HW114732   2.630   1.500   8.277  1.9805 -1.8409  2.6509
 1032SOL    HW214733   2.549   1.390   8.325  1.4000 -1.0594  1.3942
 1033SOL     OW14734   2.775   0.438  10.972 -0.1785  0.5283  0.0296
 1033SOL    HW114735   2.811   0.504  11.031  1.5211 -1.7216  1.5155
 1033SOL    HW214736   2.750   0.367  11.031  3.3166 -0.9321 -0.2879
 1034SOL     OW14737   0.454   0.678   3.273 -0.3786  0.6943  0.5833
 1034SOL    HW114738   0.464   0.585   3.251 -2.2158  0.4816  0.6615
 1034SOL    HW214739   0.374   0.661   3.323 -1.4382  1.8062 -0.7553
 1035SOL     OW14740   2.771   4.015   1.396 -0.5505  0.5338 -0.5335
 1035SOL    HW114741   2.753   3.939   1.452  0.2971  1.5337  1.1044
 1035SOL    HW214742   2.691   4.067   1.407 -1.4133 -0.9382  0.0632
 1036SOL     OW14743   3.617   3.971   5.028 -0.1002  0.4456 -0.1884
 1036SOL    HW114744   3.664   3.889   5.015 -1.1186  0.0838 -1.5535
 1036SOL    HW214745   3.582   3.987   4.940  1.1908  3.0894 -0.2475
 1037SOL     OW14746   0.471   0.412   3.196 -0.2361 -0.1711  0.3016
 1037SOL    HW114747   0.538   0.401   3.264  0.6700  0.0348 -0.5451
 1037SOL    HW214748   0.436   0.323   3.189 -1.0289  0.0795  1.0622
 1038SOL     OW14749   2.476   2.959   8.853 -0.5069 -0.9818  0.1958
 1038SOL    HW114750   2.560   2.918   8.876 -0.0845  1.5460  3.1064
 1038SOL    HW214751   2.436   2.960   8.940 -0.4763  0.9352  0.1814
 1039SOL     OW14752   1.892   0.115  10.456  0.0361  0.4279  0.6684
 1039SOL    HW114753   1.826   0.046  10.465 -2.0644  2.3525 -0.2280
 1039SOL    HW214754   1.921   0.131  10.546  0.1876  0.4571  0.6140
 1040SOL     OW14755   2.892   1.129   7.452  0.3729  0.8171 -0.1420
 1040SOL    HW114756   2.932   1.143   7.537  1.1821  0.1518 -0.4193
 1040SOL    HW214757   2.967   1.154   7.398 -0.2254 -1.1350 -1.8955
 1041SOL     OW14758   4.584   4.235   5.612 -0.5583 -0.2171 -0.3718
 1041SOL    HW114759   4.599   4.159   5.556 -3.3736 -1.7531  0.9562
 1041SOL    HW214760   4.547   4.290   5.542  0.6899 -2.6574 -2.9742
 1042SOL     OW14761   2.287   3.927   8.981 -0.2359  0.6657  0.5989
 1042SOL    HW114762   2.199   3.949   9.012 -0.1906 -1.2351  2.0467
 1042SOL    HW214763   2.264   3.899   8.893 -0.9577  1.0934  0.6527
 1043SOL     OW14764   1.677   1.389   8.441 -0.4187  0.4419  0.0642
 1043SOL    HW114765   1.701   1.359   8.353 -1.5788 -0.9590  0.2270
 1043SOL    HW214766   1.654   1.481   8.432  0.7378  0.7416  0.0828
 1044SOL     OW14767   3.137   1.781  11.191 -0.0022 -0.0052 -0.0085
 1044SOL    HW114768   3.195   1.767  11.266  0.7177  1.0289 -0.3839
 1044SOL    HW214769   3.146   1.877  11.187 -1.2655  0.1443  0.6129
 1045SOL     OW14770   2.943   1.321  17.473 -0.2662 -0.6488 -0.2889
 1045SOL    HW114771   2.948   1.260  17.400 -0.4543  1.1610 -1.8045
 1045SOL    HW214772   3.006   1.392  17.459 -1.6196  0.4436 -0.8686
 1046SOL     OW14773   4.663   0.355  17.368 -0.0942  0.5888 -0.5197
 1046SOL    HW114774   4.672   0.348  17.273 -0.4105  0.0245 -0.5104
 1046SOL    HW214775   4.603   0.430  17.377 -0.3392  0.6645 -2.5608
 1047SOL     OW14776   4.282   2.458   6.208  0.2911 -0.0731 -0.6163
 1047SOL    HW114777   4.253   2.498   6.290 -0.8331 -0.5864 -0.7575
 1047SOL    HW214778   4.292   2.369   6.242 -1.2389 -0.5285 -1.3581
 1048SOL     OW14779   2.967   0.954  10.104  0.8112  0.4169 -0.3783
 1048SOL    HW114780   2.926   0.891  10.163  0.9503 -1.0437 -1.8301
 1048SOL    HW214781   3.024   0.991  10.171  1.0349 -0.1959 -0.2280
 1049SOL     OW14782   2.069   1.006   8.353 -0.6377 -0.7096  0.2171
 1049SOL    HW114783   2.029   1.030   8.268 -0.7922 -3.4930 -0.4816
 1049SOL    HW214784   2.038   0.916   8.341 -0.6368 -1.0845  3.1385
 1050SOL     OW14785   3.700   2.622   8.520 -0.0201 -1.2021  0.3063
 1050SOL    HW114786   3.764   2.613   8.449  0.3124  3.4288  0.0205
 1050SOL    HW214787   3.631   2.670   8.475  0.5587  1.2984  2.0688
 1051SOL     OW14788   1.923   3.106  11.245 -0.1022 -0.3235 -0.3844
 1051SOL    HW114789   1.931   3.120  11.151 -0.3403  0.4170 -0.2940
 1051SOL    HW214790   1.972   3.184  11.271 -0.9526 -0.0405  0.3725
 1052SOL     OW14791   4.193   2.865  12.562  0.6784  0.1107 -0.2788
 1052SOL    HW114792   4.281   2.872  12.601 -0.2034  0.9123  1.5609
 1052SOL    HW214793   4.207   2.916  12.482  1.9116 -0.6747 -0.5564
 1053SOL     OW14794   2.682   0.338   5.172 -0.5325  0.0425 -0.6753
 1053SOL    HW114795   2.722   0.253   5.190 -0.1637  0.0894 -1.2721
 1053SOL    HW214796   2.714   0.395   5.242  1.5244 -0.4307 -1.2168
 1054SOL     OW14797   3.692   1.507   3.024  0.0515 -0.3528  0.2975
 1054SOL    HW114798   3.688   1.417   3.056 -3.3201 -0.3746 -0.1802
 1054SOL    HW214799   3.662   1.561   3.097  1.5023  0.3502  0.3722
 1055SOL     OW14800   0.352   4.677   5.769  0.3755  0.0780  0.0258
 1055SOL    HW114801   0.356   4.608   5.835  1.9635  0.6927  0.5583
 1055SOL    HW214802   0.444   4.703   5.761  0.2309  0.0236 -1.8295
 1056SOL     OW14803   1.906   4.675   2.891  0.1778  0.5612  0.6229
 1056SOL    HW114804   1.920   0.035   2.902  0.2751  0.4942  1.0741
 1056SOL    HW214805   1.938   4.657   2.802  1.0180 -0.5706  1.1520
 1057SOL     OW14806   2.875   3.630   6.580  0.1030  0.0945 -0.4018
 1057SOL    HW114807   2.922   3.555   6.544 -0.4148 -0.4360  0.0336
 1057SOL    HW214808   2.944   3.697   6.586  0.3487 -0.0657 -1.3922
 1058SOL     OW14809   1.724   2.026   4.075 -0.8971  0.7336  0.2156
 1058SOL    HW114810   1.732   2.069   4.160  1.2141  1.0943 -0.1678
 1058SOL    HW214811   1.735   2.101   4.016  1.6460 -0.7559 -1.2091
 1059SOL     OW14812   2.700   0.166  10.505  0.6780 -0.2357  0.5695
 1059SOL    HW114813   2.727   0.186  10.415 -0.0084 -0.0607  0.4043
 1059SOL    HW214814   2.664   0.248  10.541 -0.4584 -0.2209 -0.6234
 1060SOL     OW14815   2.997   1.208   5.681  0.2274 -0.4801 -0.2273
 1060SOL    HW114816   3.068   1.207   5.617  0.0478 -0.5495 -0.4253
 1060SOL    HW214817   3.038   1.236   5.763  0.5043 -0.4732 -0.3650
 1061SOL     OW14818   0.423   2.186   0.750 -0.3301  0.4949 -0.5238
 1061SOL    HW114819   0.344   2.239   0.740 -0.0086  1.3582  1.5994
 1061SOL    HW214820   0.488   2.256   0.740 -0.6093  0.8990  0.4487
 1062SOL     OW14821   2.699   4.378  12.032  0.2539  0.2330 -0.1090
 1062SOL    HW114822   2.761   4.410  11.966 -0.8395 -0.1142 -1.2978
 1062SOL    HW214823   2.738   4.294  12.053 -1.0226 -0.9538 -2.5089
 1063SOL     OW14824   0.042   1.109   6.565 -0.4367 -0.3984 -0.4417
 1063SOL    HW114825   4.729   1.045   6.512  1.2373 -1.6803 -0.3695
 1063SOL    HW214826   0.073   1.062   6.642 -0.9526 -1.1806 -0.7107
 1064SOL     OW14827   2.742   3.257   1.354 -0.0230 -0.0227  0.7411
 1064SOL    HW114828   2.693   3.338   1.347 -0.5391 -0.1115  3.4549
 1064SOL    HW214829   2.821   3.283   1.307 -1.3618 -0.0826 -1.5798
 1065SOL     OW14830   2.494   4.102  10.220  0.0921  0.8968  0.2252
 1065SOL    HW114831   2.479   4.161  10.146  2.5133 -1.6320 -2.2646
 1065SOL    HW214832   2.472   4.163  10.291 -0.3068  1.3361 -0.2749
 1066SOL     OW14833   4.638   3.512   9.001 -0.3503 -0.0743  0.2500
 1066SOL    HW114834   4.544   3.529   9.008 -0.5196 -1.4448  1.4927
 1066SOL    HW214835   4.630   3.422   8.970  2.3586  0.0165 -0.7314
 1067SOL     OW14836   0.988   2.554  13.665  0.0587 -0.3298  0.0270
 1067SOL    HW114837   1.063   2.577  13.610  0.5212 -0.8826  0.4308
 1067SOL    HW214838   0.919   2.529  13.604  1.2690 -0.9546 -1.0990
 1068SOL     OW14839   2.361   3.946   9.908 -0.1763 -0.3491 -0.0425
 1068SOL    HW114840   2.273   3.983   9.918  0.3262  0.7831  0.1587
 1068SOL    HW214841   2.400   4.022   9.866  0.1422 -1.4005 -1.6358
 1069SOL     OW14842   0.272   0.633   5.787  0.3284  0.1342  0.5438
 1069SOL    HW114843   0.193   0.663   5.743  2.3348  0.9058 -2.5194
 1069SOL    HW214844   0.228   0.612   5.870  0.3214  0.6273  0.6676
 1070SOL     OW14845   2.953   2.440   9.201  0.8471 -0.4964  0.3971
 1070SOL    HW114846   2.976   2.475   9.115 -2.5476  2.0560  0.5606
 1070SOL    HW214847   3.037   2.397   9.221  1.1230  1.4606  3.4824
 1071SOL     OW14848   3.352   3.898  16.171  0.5092  0.7598 -0.4943
 1071SOL    HW114849   3.417   3.846  16.217 -1.1725 -0.2884  0.7125
 1071SOL    HW214850   3.357   3.874  16.078 -1.4194  0.7785 -0.5997
 1072SOL     OW14851   1.578   0.070   3.922  0.1983 -0.5941 -0.7181
 1072SOL    HW114852   1.499   0.025   3.953  0.7583 -1.1863 -0.1575
 1072SOL    HW214853   1.543   0.158   3.910  0.7418 -0.3568 -0.5666
 1073SOL     OW14854   1.689   4.350   5.945 -0.0441 -0.3375 -0.2720
 1073SOL    HW114855   1.758   4.303   5.992  1.1887  0.3747 -1.3628
 1073SOL    HW214856   1.636   4.278   5.910 -1.3059  1.2914 -1.7277
 1074SOL     OW14857   0.101   0.273   0.408  0.0109 -0.0203 -0.4011
 1074SOL    HW114858   0.118   0.187   0.372 -2.6993  0.5909 -3.1303
 1074SOL    HW214859   0.018   0.294   0.364 -0.3497 -0.6516 -0.0136
 1075SOL     OW14860   0.864   4.503  13.538  0.4419 -0.3834 -0.0861
 1075SOL    HW114861   0.892   4.566  13.472 -3.4317  1.2317 -0.1996
 1075SOL    HW214862   0.775   4.505  13.503  0.9171  1.4593 -1.1867
 1076SOL     OW14863   0.498   4.158   8.636 -0.3126 -0.5343 -0.5961
 1076SOL    HW114864   0.566   4.220   8.610 -1.5473  2.5240  3.4189
 1076SOL    HW214865   0.482   4.184   8.727 -0.1238  0.3868 -0.8308
 1077SOL     OW14866   3.258   4.404   7.848  0.3248 -0.2877  0.0313
 1077SOL    HW114867   3.236   4.327   7.796 -0.2918 -0.1290  0.0612
 1077SOL    HW214868   3.344   4.427   7.813 -1.4458  3.1889 -1.9815
 1078SOL     OW14869   2.195   2.048   6.593  0.3405 -0.1911  0.0719
 1078SOL    HW114870   2.225   2.040   6.684  0.5350 -2.1104 -0.1563
 1078SOL    HW214871   2.120   1.989   6.602 -0.1687  0.3111 -1.0179
 1079SOL     OW14872   4.370   2.398   7.887 -0.8380 -0.7718 -0.4315
 1079SOL    HW114873   4.424   2.359   7.819 -1.5570  0.6205 -1.7981
 1079SOL    HW214874   4.397   2.355   7.968  0.9587  0.5299 -0.3490
 1080SOL     OW14875   0.563   3.080   8.267 -0.5346  0.8478  0.5104
 1080SOL    HW114876   0.498   3.052   8.203 -0.4971  0.2566  0.7361
 1080SOL    HW214877   0.626   3.010   8.250 -1.7622 -0.2397  0.4532
 1081SOL     OW14878   4.085   0.204   1.672  0.5985  0.6442  0.3181
 1081SOL    HW114879   4.045   0.202   1.759 -0.0802  1.1328  0.0131
 1081SOL    HW214880   4.171   0.167   1.692  0.3023 -1.0849 -1.6363
 1082SOL     OW14881   0.079   3.312   4.575  0.2263 -0.1238 -0.2668
 1082SOL    HW114882   0.162   3.263   4.570 -1.6114 -3.5394  2.3302
 1082SOL    HW214883   0.056   3.286   4.664  0.9353 -2.8309 -0.8749
 1083SOL     OW14884   2.466   1.776   8.501  0.1022  0.3814  0.0098
 1083SOL    HW114885   2.423   1.849   8.456 -0.9925 -1.0995 -1.3545
 1083SOL    HW214886   2.455   1.813   8.589  2.0310 -0.9020  0.7923
 1084SOL     OW14887   4.198   3.160   7.741  0.0559 -0.2182  0.2337
 1084SOL    HW114888   4.234   3.084   7.696  2.0354  0.5156  0.5740
 1084SOL    HW214889   4.272   3.204   7.783  1.1856 -0.9810 -0.9534
 1085SOL     OW14890   4.590   1.254   7.299  0.1061 -0.2462 -0.4469
 1085SOL    HW114891   4.614   1.347   7.298  0.8348 -0.4300  1.8688
 1085SOL    HW214892   4.528   1.253   7.372  2.7917 -1.6847  1.8057
 1086SOL     OW14893   2.035   3.771   1.425 -0.6442  0.1899 -0.3246
 1086SOL    HW114894   2.041   3.797   1.517 -1.5432  0.1547 -0.2552
 1086SOL    HW214895   2.124   3.736   1.411  0.1932  2.2428 -0.0529
 1087SOL     OW14896   2.659   3.209   9.504  0.6220 -0.4502  0.0848
 1087SOL    HW114897   2.672   3.303   9.499  2.4375 -0.6834  0.6032
 1087SOL    HW214898   2.732   3.182   9.448  0.1944 -2.4756  0.4826
 1088SOL     OW14899   4.198   1.637   3.315  0.6024  0.4462 -0.2266
 1088SOL    HW114900   4.221   1.727   3.338  1.9516 -0.0336  0.2579
 1088SOL    HW214901   4.242   1.587   3.383  1.1705 -1.6148 -2.1283
 1089SOL     OW14902   3.913   4.458   2.472 -0.2656  0.1088  0.8317
 1089SOL    HW114903   4.003   4.487   2.462  0.8691 -2.6601  3.1543
 1089SOL    HW214904   3.927   4.405   2.550  0.2947  0.2467  0.8223
 1090SOL     OW14905   1.583   1.414   4.926 -0.3725  0.1696  0.0124
 1090SOL    HW114906   1.601   1.356   4.852  1.8341  0.6476  0.1900
 1090SOL    HW214907   1.588   1.500   4.883 -0.0306  0.9901  1.6828
 1091SOL     OW14908   3.364   3.721   6.612  0.3713 -0.3504  0.2094
 1091SOL    HW114909   3.422   3.669   6.667 -0.1497  1.7046  2.7571
 1091SOL    HW214910   3.425   3.795   6.607 -0.3208  0.0803 -1.8401
 1092SOL     OW14911   3.560   1.392   4.843  0.0085 -0.1277  0.3909
 1092SOL    HW114912   3.636   1.355   4.887 -0.5299  0.2798  1.6568
 1092SOL    HW214913   3.583   1.412   4.752 -2.8486 -0.1808 -0.3488
 1093SOL     OW14914   2.543   4.006   6.100  0.1952  0.2946 -0.5347
 1093SOL    HW114915   2.543   3.960   6.183 -0.3552  0.9949 -0.1438
 1093SOL    HW214916   2.449   4.010   6.081  0.1850  3.0777  0.0494
 1094SOL     OW14917   2.872   0.485  13.034  0.1002  0.1927  0.2165
 1094SOL    HW114918   2.886   0.413  13.095  0.0802  0.4063  0.4720
 1094SOL    HW214919   2.779   0.504  13.048 -0.3195 -0.4062 -1.7184
 1095SOL     OW14920   3.871   1.199   4.806 -0.3381 -0.1613 -0.2138
 1095SOL    HW114921   3.800   1.189   4.870 -0.5078 -2.6577 -0.7735
 1095SOL    HW214922   3.827   1.153   4.735  1.9939 -1.8098 -0.5783
 1096SOL     OW14923   0.007   1.652   3.014 -0.0735  0.3074 -0.1260
 1096SOL    HW114924   0.060   1.632   3.091  0.4251 -1.0041 -0.8120
 1096SOL    HW214925   4.698   1.567   3.002 -2.1425  1.3811 -0.3677
 1097SOL     OW14926   3.452   0.400   9.425  0.0137 -0.1452 -0.2158
 1097SOL    HW114927   3.499   0.325   9.388  1.4024  0.3667  0.5040
 1097SOL    HW214928   3.512   0.426   9.495  1.5664 -2.4245 -0.6811
 1098SOL     OW14929   2.304   0.688  12.270 -0.2351  0.1117 -0.2689
 1098SOL    HW114930   2.354   0.692  12.189  1.9549  2.6420  1.1889
 1098SOL    HW214931   2.368   0.729  12.329 -3.2477  2.3620  1.4771
 1099SOL     OW14932   2.560   2.288   2.132  0.3426 -0.0004  0.4481
 1099SOL    HW114933   2.572   2.336   2.214  1.9845  2.0649 -1.0104
 1099SOL    HW214934   2.551   2.360   2.070  0.2015 -0.8933 -0.5706
 1100SOL     OW14935   2.854   0.826   8.153 -0.4435  0.2769 -0.6575
 1100SOL    HW114936   2.781   0.765   8.155  0.4526 -0.7419  0.3034
 1100SOL    HW214937   2.833   0.877   8.074  1.3762  2.8208  0.4886
 1101SOL     OW14938   2.054   0.395   3.322 -0.1071  0.5274 -0.2665
 1101SOL    HW114939   2.146   0.404   3.299  0.2521  1.0565  1.3832
 1101SOL    HW214940   2.044   0.455   3.396 -0.6202  0.0021  0.0937
 1102SOL     OW14941   2.855   1.537   9.738 -0.2782 -0.4162 -0.1560
 1102SOL    HW114942   2.948   1.556   9.750 -0.3233  0.4399 -1.1569
 1102SOL    HW214943   2.850   1.442   9.750  2.0608 -0.5719 -0.3546
 1103SOL     OW14944   3.779   1.761   7.626  0.5020  0.1417  0.1723
 1103SOL    HW114945   3.825   1.775   7.543  1.0885 -0.1960  0.4403
 1103SOL    HW214946   3.701   1.817   7.628  0.0611 -0.3897 -2.5901
 1104SOL     OW14947   0.083   0.904   7.120 -0.1168 -0.4615 -0.1355
 1104SOL    HW114948   0.136   0.967   7.169 -0.9404  0.7648 -0.8380
 1104SOL    HW214949   0.057   0.967   7.053  0.1323  1.1009  1.2366
 1105SOL     OW14950   2.348   3.824   5.187 -0.7616 -0.1977  0.6444
 1105SOL    HW114951   2.354   3.763   5.113  1.3826  2.3427 -1.2463
 1105SOL    HW214952   2.325   3.900   5.133  1.9189  0.4466  0.4205
 1106SOL     OW14953   4.375   4.004   6.467  0.0473 -0.6923  0.0804
 1106SOL    HW114954   4.465   3.970   6.466 -0.0185 -0.8371 -0.7354
 1106SOL    HW214955   4.333   3.948   6.533  0.2347 -2.5203 -1.3598
 1107SOL     OW14956   2.618   3.723   6.589  0.0194 -0.5462  0.5838
 1107SOL    HW114957   2.710   3.704   6.571 -0.1151 -0.4851 -0.1828
 1107SOL    HW214958   2.613   3.716   6.684  1.4143  3.3431  0.9220
 1108SOL     OW14959   0.383   1.583   7.424  0.4021  0.4815 -0.0641
 1108SOL    HW114960   0.460   1.633   7.395  0.7820  1.4746  2.6390
 1108SOL    HW214961   0.321   1.655   7.418  1.0665  0.8685 -2.4441
 1109SOL     OW14962   3.478   2.701   5.385  0.2233  0.2392  0.0069
 1109SOL    HW114963   3.515   2.720   5.299  1.0669  1.4249  0.6426
 1109SOL    HW214964   3.517   2.775   5.431 -0.1447  0.2063  0.3732
 1110SOL     OW14965   3.784   3.030   2.518 -0.0565  0.0636  0.3505
 1110SOL    HW114966   3.701   2.985   2.502  0.4482 -1.0534  0.8940
 1110SOL    HW214967   3.847   2.962   2.493 -0.2278 -0.9101  2.6149
 1111SOL     OW14968   2.444   3.970   4.011 -0.8000  0.4815  0.9415
 1111SOL    HW114969   2.524   3.994   4.056 -0.9312  1.3142  0.7285
 1111SOL    HW214970   2.459   3.880   3.980 -1.9590  0.3417  0.7530
 1112SOL     OW14971   4.657   2.753  12.964 -0.0777  0.1270  0.2563
 1112SOL    HW114972   4.677   2.660  12.948  0.4462  0.3708 -0.5150
 1112SOL    HW214973   4.693   2.763  13.052  0.8498 -0.3851 -0.0625
 1113SOL     OW14974   4.287   1.133   3.261  0.2414  0.7475  0.1259
 1113SOL    HW114975   4.255   1.042   3.261 -0.8760  1.1442  0.2566
 1113SOL    HW214976   4.348   1.129   3.188  1.3283 -0.5436  1.0956
 1114SOL     OW14977   3.725   0.283  17.454  0.2881 -0.5789 -0.3357
 1114SOL    HW114978   3.692   0.210  17.402 -1.5145 -0.6525  0.9295
 1114SOL    HW214979   3.742   0.244  17.540 -0.7802 -0.2464  0.0258
 1115SOL     OW14980   4.311   1.039   2.989  0.2534  0.5779 -0.1589
 1115SOL    HW114981   4.296   1.080   2.904  1.4477  0.7566 -0.2793
 1115SOL    HW214982   4.293   0.948   2.963 -1.1732  1.5037 -2.4174
 1116SOL     OW14983   4.626   1.318   0.172 -0.0539  0.9503 -0.3876
 1116SOL    HW114984   4.590   1.310   0.083 -0.1468 -0.3071 -0.2419
 1116SOL    HW214985   4.720   1.324   0.157 -0.1384 -1.3707 -1.7652
 1117SOL     OW14986   0.602   2.309  17.677  0.4211  0.0292  0.3904
 1117SOL    HW114987   0.676   2.249  17.667  0.9228  0.4846  1.4290
 1117SOL    HW214988   0.539   2.255  17.725 -2.4652  3.0028 -0.0995
 1118SOL     OW14989   4.705   0.943   5.850  0.4034 -0.6968  0.6084
 1118SOL    HW114990   0.005   0.855   5.867 -1.3015 -2.0338 -2.9381
 1118SOL    HW214991   0.039   0.995   5.807 -0.0709 -0.6638 -0.1172
 1119SOL     OW14992   0.476   2.720   1.882 -0.4285  0.1021 -0.9347
 1119SOL    HW114993   0.462   2.659   1.810 -0.8976 -1.3976  0.4503
 1119SOL    HW214994   0.566   2.700   1.908 -0.7915 -0.1221  0.1251
 1120SOL     OW14995   4.444   2.680   2.178  0.0653  0.0573  0.7027
 1120SOL    HW114996   4.408   2.747   2.237  0.2969  1.1083 -0.3343
 1120SOL    HW214997   4.365   2.640   2.142 -1.2744  1.9709  1.4734
 1121SOL     OW14998   0.488   3.430   6.231  0.7888  0.4771  1.2838
 1121SOL    HW114999   0.501   3.347   6.185 -3.3691  0.9194 -0.7606
 1121SOL    HW215000   0.482   3.488   6.155 -0.9189  1.0553  1.8382
 1122SOL     OW15001   3.670   4.528  12.734 -0.1954  0.0347 -0.6532
 1122SOL    HW115002   3.738   4.517  12.800 -0.2811  1.4653 -0.3413
 1122SOL    HW215003   3.726   4.525  12.656  0.7615 -0.0624  0.0412
 1123SOL     OW15004   1.835   0.483  16.613 -0.2678 -0.6346  0.1737
 1123SOL    HW115005   1.803   0.538  16.541 -2.6001  0.0963  1.7712
 1123SOL    HW215006   1.804   0.520  16.696 -1.6545  0.3156 -0.7601
 1124SOL     OW15007   0.736   0.105   2.275  0.1227  0.0464 -0.1641
 1124SOL    HW115008   0.790   0.046   2.328 -1.7653  0.9507  2.7282
 1124SOL    HW215009   0.799   0.177   2.277  1.1945 -0.9140  0.5333
 1125SOL     OW15010   3.358   1.453   8.093 -0.0809 -0.2950  0.4522
 1125SOL    HW115011   3.289   1.419   8.150  0.8461 -1.5739  0.8125
 1125SOL    HW215012   3.314   1.450   8.008  0.0906  0.9963  0.3190
 1126SOL     OW15013   4.567   0.119  14.791 -0.1270  0.7944  0.1674
 1126SOL    HW115014   4.519   0.046  14.753  1.0156  0.6712 -1.0428
 1126SOL    HW215015   4.525   0.198  14.757  0.2671  0.8050 -0.3078
 1127SOL     OW15016   0.174   0.850   3.171 -0.2902  0.1370 -0.2855
 1127SOL    HW115017   0.152   0.785   3.238 -0.4340 -0.6052 -1.0469
 1127SOL    HW215018   0.140   0.924   3.220  1.0582  0.5398  0.0228
 1128SOL     OW15019   3.954   1.226  12.746  0.2688 -0.2559  0.0232
 1128SOL    HW115020   3.921   1.209  12.834  0.5317  0.1618  0.2050
 1128SOL    HW215021   4.037   1.179  12.752  0.4224  0.1374  0.9470
 1129SOL     OW15022   1.002   3.981   2.510  0.4136 -0.1981  0.0253
 1129SOL    HW115023   0.937   3.930   2.460  0.2637 -0.7031  0.7439
 1129SOL    HW215024   0.954   4.048   2.558 -1.1020  0.1874 -2.0290
 1130SOL     OW15025   1.198   0.770  15.885  0.0057 -0.0829  0.0757
 1130SOL    HW115026   1.267   0.724  15.837 -0.7217  1.5073 -2.4958
 1130SOL    HW215027   1.213   0.859  15.851  0.2844 -0.2346 -0.2010
 1131SOL     OW15028   0.524   0.625  13.378  0.0069 -0.0722 -0.1733
 1131SOL    HW115029   0.483   0.591  13.298  3.5541  0.3272 -2.1296
 1131SOL    HW215030   0.447   0.660  13.423 -0.2584 -1.7313  0.6461
 1132SOL     OW15031   1.853   4.404   6.955  0.5104  0.0196 -0.4170
 1132SOL    HW115032   1.926   4.364   7.001  2.2696  1.9120 -1.5393
 1132SOL    HW215033   1.906   4.479   6.927  2.5693 -0.5875  1.8386
 1133SOL     OW15034   3.633   0.531   3.030 -0.4166 -0.7677 -0.2616
 1133SOL    HW115035   3.571   0.586   2.983 -0.1696  0.1433  0.4806
 1133SOL    HW215036   3.597   0.548   3.118  2.2781  1.8008  0.3564
 1134SOL     OW15037   4.410   1.311   7.486  0.4600 -0.5471 -0.0565
 1134SOL    HW115038   4.323   1.331   7.451  0.0664 -1.1634  0.5684
 1134SOL    HW215039   4.398   1.219   7.507 -0.4523 -0.2197  0.8663
 1135SOL     OW15040   2.557   0.714   5.199  0.3096  0.1854 -0.7802
 1135SOL    HW115041   2.602   0.632   5.215  1.3489  0.8618 -0.2396
 1135SOL    HW215042   2.499   0.689   5.127 -0.1356 -0.3465 -0.2401
 1136SOL     OW15043   0.159   0.541   1.018  0.4385 -0.1364  0.2554
 1136SOL    HW115044   0.131   0.632   1.026  2.5091  0.4124  1.3923
 1136SOL    HW215045   0.171   0.536   0.923  1.2019 -0.7244  0.3769
 1137SOL     OW15046   0.216   2.313  13.105 -0.5064 -0.5915 -0.1413
 1137SOL    HW115047   0.187   2.232  13.146 -3.4838  1.8589  2.5577
 1137SOL    HW215048   0.181   2.381  13.162  0.0513  0.4002 -0.9711
 1138SOL     OW15049   3.540   4.342   8.527  0.3058 -0.2281 -0.0584
 1138SOL    HW115050   3.634   4.360   8.533  0.0739  0.9897  0.0828
 1138SOL    HW215051   3.530   4.272   8.592  1.3293 -1.6171 -1.4123
 1139SOL     OW15052   1.287   0.701  11.388  0.4456  0.0302  0.2134
 1139SOL    HW115053   1.268   0.727  11.299 -0.9292  1.6149  0.9815
 1139SOL    HW215054   1.284   0.606  11.379 -0.0792  0.1310 -0.5824
 1140SOL     OW15055   2.137   1.090  13.259  0.3980  0.6022 -0.2002
 1140SOL    HW115056   2.223   1.130  13.253 -0.1473  1.6365 -1.0849
 1140SOL    HW215057   2.097   1.176  13.270  0.0603  0.1912  1.7169
 1141SOL     OW15058   2.578   0.489   7.892 -0.2133  0.7679  0.2850
 1141SOL    HW115059   2.614   0.411   7.934  0.3883  1.0524  0.3021
 1141SOL    HW215060   2.661   0.530   7.868 -0.5214 -0.3412 -2.7323
 1142SOL     OW15061   4.130   4.590   9.558 -0.0220  0.2278  0.1721
 1142SOL    HW115062   4.138   4.551   9.471 -2.1283  0.2720 -0.0331
 1142SOL    HW215063   4.221   4.612   9.577 -0.0192  2.5261 -2.4916
 1143SOL     OW15064   3.970   3.873   3.492  0.0153 -0.1514  0.7890
 1143SOL    HW115065   4.051   3.922   3.508  0.8668 -2.7502  4.5272
 1143SOL    HW215066   4.004   3.790   3.459  1.5295  0.8291 -0.1195
 1144SOL     OW15067   3.674   0.259   3.068 -0.0807  0.0511 -0.1730
 1144SOL    HW115068   3.602   0.218   3.020  1.4214 -1.1146 -1.4317
 1144SOL    HW215069   3.643   0.349   3.066 -1.2416 -0.3853 -1.5879
 1145SOL     OW15070   2.043   0.898   7.161  0.0922 -0.4890 -0.2085
 1145SOL    HW115071   1.989   0.872   7.086 -2.6659  0.0199  1.5949
 1145SOL    HW215072   2.011   0.985   7.186  0.7793  0.5486 -2.8037
 1146SOL     OW15073   1.364   1.308   2.306  0.0786 -0.1513 -0.6908
 1146SOL    HW115074   1.419   1.230   2.300  0.9652  0.4253 -0.1575
 1146SOL    HW215075   1.415   1.365   2.249  3.7474 -0.3107  2.4359
 1147SOL     OW15076   4.301   3.003  15.424 -0.1378  0.3862  0.0716
 1147SOL    HW115077   4.350   2.948  15.486  0.0377  0.9471  0.4237
 1147SOL    HW215078   4.371   3.062  15.397 -0.2224  1.1759  1.6177
 1148SOL     OW15079   1.107   0.958   6.128 -0.3100  0.1424  0.3409
 1148SOL    HW115080   1.032   0.915   6.088  0.7844 -2.2274  0.8380
 1148SOL    HW215081   1.114   1.043   6.083  0.3983  0.0773  0.3234
 1149SOL     OW15082   2.658   0.400   8.482 -0.1963 -0.0519  0.6089
 1149SOL    HW115083   2.602   0.388   8.405 -2.5590  0.9816  2.1779
 1149SOL    HW215084   2.596   0.402   8.555  0.3486  2.3903  0.9817
 1150SOL     OW15085   0.065   3.597   3.053  0.3675  0.3623 -0.2595
 1150SOL    HW115086   0.061   3.552   2.969  0.3495 -0.2526  0.0709
 1150SOL    HW215087   0.091   3.680   3.014 -2.2924  0.9122 -0.8985
 1151SOL     OW15088   3.337   1.552   3.907 -0.1236  0.0560 -0.6479
 1151SOL    HW115089   3.419   1.550   3.858  1.1345  3.6124  1.3189
 1151SOL    HW215090   3.275   1.493   3.864 -1.8833 -0.3308  2.3884
 1152SOL     OW15091   2.734   2.852   2.562 -0.1022  0.2479 -0.6338
 1152SOL    HW115092   2.687   2.868   2.644  1.5056 -1.4633  0.6186
 1152SOL    HW215093   2.778   2.773   2.593  0.2909  1.5953  2.3103
 1153SOL     OW15094   1.438   3.864   8.764  0.1217 -0.2849 -0.1508
 1153SOL    HW115095   1.439   3.895   8.854 -2.2105  0.5325 -0.3954
 1153SOL    HW215096   1.393   3.937   8.721  1.0827  0.7463  0.6049
 1154SOL     OW15097   0.840   1.939   3.332 -0.0166 -0.3715  0.6194
 1154SOL    HW115098   0.920   1.970   3.374  0.7261  0.3712 -1.3069
 1154SOL    HW215099   0.777   1.936   3.404  1.0254 -0.9238  1.4980
 1155SOL     OW15100   3.816   2.233  11.021 -0.2715  0.0390  0.2147
 1155SOL    HW115101   3.868   2.288  10.963 -0.2129 -1.2109 -0.9154
 1155SOL    HW215102   3.855   2.254  11.106  0.6721  2.8609 -0.9105
 1156SOL     OW15103   0.435   2.209   5.786 -0.2354 -0.4909 -0.4238
 1156SOL    HW115104   0.482   2.268   5.727 -0.8159 -1.2232 -1.6329
 1156SOL    HW215105   0.412   2.150   5.714  1.2172 -0.8137 -0.6196
 1157SOL     OW15106   3.784   3.241   4.447 -0.0153  0.6786 -0.2169
 1157SOL    HW115107   3.742   3.272   4.527 -1.6986 -1.2322 -0.3469
 1157SOL    HW215108   3.742   3.155   4.440 -0.4123  0.8639 -0.1599
 1158SOL     OW15109   0.318   2.892   0.930  0.4213 -0.3319  0.1383
 1158SOL    HW115110   0.263   2.968   0.909 -0.1914 -0.0238  2.9517
 1158SOL    HW215111   0.257   2.827   0.964 -0.4361  0.3605 -0.0815
 1159SOL     OW15112   1.973   1.236  13.714  0.2893  0.1058 -0.8148
 1159SOL    HW115113   1.944   1.310  13.766  0.7137 -2.2930  2.8316
 1159SOL    HW215114   1.886   1.196  13.704  1.0472 -1.8266  0.2300
 1160SOL     OW15115   2.286   2.965   1.744  0.0797  0.4992  0.5668
 1160SOL    HW115116   2.257   2.971   1.653  3.4900  0.2997 -0.5283
 1160SOL    HW215117   2.370   3.011   1.747 -0.7399  2.1157 -1.0641
 1161SOL     OW15118   4.521   2.765   1.815  0.3822 -0.2981  0.5114
 1161SOL    HW115119   4.574   2.805   1.745  1.4885 -2.4269  0.1233
 1161SOL    HW215120   4.580   2.699   1.852 -2.5505 -2.0392  2.0755
 1162SOL     OW15121   2.378   3.831  15.084  0.2995  0.2027 -0.0251
 1162SOL    HW115122   2.374   3.870  15.171 -0.5325 -1.1287  0.5450
 1162SOL    HW215123   2.360   3.911  15.035  2.1250  1.5878  1.5962
 1163SOL     OW15124   1.292   1.128  16.768  0.2484  0.5124  0.3202
 1163SOL    HW115125   1.224   1.064  16.748  0.7304 -0.0341  0.4250
 1163SOL    HW215126   1.365   1.096  16.715  1.6803  3.0222  0.7833
 1164SOL     OW15127   0.816   2.971   8.956  0.0744 -0.1072  0.2707
 1164SOL    HW115128   0.771   2.992   9.038  1.5731  1.5536  0.6647
 1164SOL    HW215129   0.901   3.007   8.984 -0.9521  2.0050  0.6769
 1165SOL     OW15130   1.182   2.563   7.727 -0.5039  0.0759 -0.7841
 1165SOL    HW115131   1.152   2.632   7.668 -2.8968 -0.9901 -0.8173
 1165SOL    HW215132   1.152   2.590   7.814  0.2435  1.5368 -0.9753
 1166SOL     OW15133   4.067   0.950  11.774  0.0992  0.0673 -0.3046
 1166SOL    HW115134   4.040   0.865  11.738  0.1198 -0.0617 -0.0219
 1166SOL    HW215135   3.993   1.008  11.789  0.4580  0.1980  0.9773
 1167SOL     OW15136   1.968   3.910   0.546  0.3634 -0.0126  0.0792
 1167SOL    HW115137   1.991   3.819   0.562  0.4217  0.0625  0.4080
 1167SOL    HW215138   2.003   3.954   0.623  0.4692  0.7897 -0.4173
 1168SOL     OW15139   1.621   1.239   5.819  0.0203 -0.9710  0.3777
 1168SOL    HW115140   1.706   1.266   5.784 -0.0810 -0.9724  0.1340
 1168SOL    HW215141   1.640   1.147   5.835 -0.7980 -1.2218 -0.0985
 1169SOL     OW15142   2.474   2.585   3.070 -0.0553 -0.8214 -0.1376
 1169SOL    HW115143   2.494   2.497   3.037 -0.5878  0.1875 -3.1010
 1169SOL    HW215144   2.553   2.631   3.042  1.1289 -2.9702 -0.3637
 1170SOL     OW15145   1.355   1.108   7.885  0.5206 -0.6783 -0.3778
 1170SOL    HW115146   1.379   1.049   7.956 -3.9078 -0.2421  1.4970
 1170SOL    HW215147   1.398   1.068   7.809  2.1266 -0.5903  0.5047
 1171SOL     OW15148   3.030   1.992   6.885 -0.0091  0.0858 -0.4345
 1171SOL    HW115149   2.973   1.932   6.933  0.2587 -0.2661 -0.5565
 1171SOL    HW215150   3.020   2.077   6.927  2.1001  0.2175 -0.1874
 1172SOL     OW15151   3.195   1.164   2.522  0.1613 -0.3542 -0.5496
 1172SOL    HW115152   3.215   1.110   2.599  2.4661  0.6104 -0.4543
 1172SOL    HW215153   3.247   1.243   2.538 -2.4223  1.5332 -1.5661
 1173SOL     OW15154   3.320   1.719  14.656 -0.1205  0.6439  0.2519
 1173SOL    HW115155   3.251   1.765  14.608  0.8488 -1.0662 -2.8181
 1173SOL    HW215156   3.307   1.756  14.743  2.2538  1.4134  0.2775
 1174SOL     OW15157   0.682   3.295   4.677 -0.4097  0.2978  0.8135
 1174SOL    HW115158   0.694   3.203   4.654 -2.3722  0.1208  0.4715
 1174SOL    HW215159   0.769   3.335   4.667  0.4308 -1.9850 -1.1017
 1175SOL     OW15160   2.074   0.817  17.012 -0.1969 -0.0680 -0.3715
 1175SOL    HW115161   2.164   0.796  17.036 -0.6318 -2.0084 -0.4585
 1175SOL    HW215162   2.031   0.829  17.097 -0.5074  0.6664 -0.6308
 1176SOL     OW15163   1.041   0.134   8.696  0.4005 -0.1870  0.6739
 1176SOL    HW115164   1.015   0.105   8.609 -0.1958 -0.4941  0.9546
 1176SOL    HW215165   1.037   0.050   8.742  1.0590 -0.0144  1.0419
 1177SOL     OW15166   2.835   1.379   9.215 -0.1534  0.0376 -0.0836
 1177SOL    HW115167   2.865   1.368   9.305 -0.2425  0.4127 -0.0077
 1177SOL    HW215168   2.893   1.448   9.182  1.1379 -0.7212  0.6094
 1178SOL     OW15169   3.373   0.322  13.742 -0.0509  0.3827  0.2445
 1178SOL    HW115170   3.435   0.311  13.670 -0.4256 -2.2662  0.3265
 1178SOL    HW215171   3.405   0.250  13.795 -1.0301 -0.9452 -0.9813
 1179SOL     OW15172   1.178   4.077  13.708  0.3272  0.0033  0.0321
 1179SOL    HW115173   1.168   4.000  13.764 -0.8457  0.6488  0.7168
 1179SOL    HW215174   1.087   4.081  13.677  1.0082 -1.4292 -2.1338
 1180SOL     OW15175   4.521   0.225   3.692 -0.0115  0.4504  0.2551
 1180SOL    HW115176   4.445   0.220   3.750 -0.2317 -1.0918 -0.1679
 1180SOL    HW215177   4.579   0.162   3.734 -0.7497 -0.7739 -0.5692
 1181SOL     OW15178   1.466   0.516   2.485  0.0709 -0.4713  0.5794
 1181SOL    HW115179   1.407   0.485   2.554 -0.1106 -1.3862  0.0135
 1181SOL    HW215180   1.397   0.570   2.448  0.8810 -0.2030 -0.5308
 1182SOL     OW15181   0.854   0.261   5.852  0.6735  0.6514  0.3354
 1182SOL    HW115182   0.834   0.171   5.878  2.1245 -0.0364 -0.8880
 1182SOL    HW215183   0.767   0.300   5.857 -0.6380 -2.0347 -1.5991
 1183SOL     OW15184   0.928   3.584   6.899  0.3150  0.0412 -0.5905
 1183SOL    HW115185   0.993   3.654   6.889 -1.3023  1.1879 -3.0231
 1183SOL    HW215186   0.895   3.589   6.809  0.9835  0.4255 -0.8087
 1184SOL     OW15187   0.323   4.063   3.116 -0.4849 -0.3805  0.3868
 1184SOL    HW115188   0.401   4.083   3.168 -0.5356  0.1111  0.2811
 1184SOL    HW215189   0.252   4.089   3.175  0.6222 -0.2619  1.6621
 1185SOL     OW15190   3.796   1.859  16.583  0.2248 -0.0705  0.3757
 1185SOL    HW115191   3.823   1.906  16.504  0.5934 -0.7037  0.1323
 1185SOL    HW215192   3.734   1.792  16.554  2.4091 -2.1027  0.4117
 1186SOL     OW15193   3.786   0.699   0.856 -0.1188  0.3250 -0.2281
 1186SOL    HW115194   3.792   0.691   0.951  0.1388 -1.2964 -0.3643
 1186SOL    HW215195   3.873   0.737   0.848 -0.8151  2.0374  0.4576
 1187SOL     OW15196   4.313   3.980   7.726 -0.0015  0.0526 -0.4729
 1187SOL    HW115197   4.314   4.012   7.816  0.5983 -0.6185 -0.2417
 1187SOL    HW215198   4.405   3.954   7.717  0.1502  0.7079 -0.8670
 1188SOL     OW15199   3.678   1.080  12.789 -0.9376  0.3566 -0.2355
 1188SOL    HW115200   3.744   1.134  12.832 -1.2161 -0.0569  0.7125
 1188SOL    HW215201   3.726   1.058  12.709 -2.6328  0.3845 -1.2566
 1189SOL     OW15202   2.981   4.604  15.429  0.2724  0.8758 -0.8358
 1189SOL    HW115203   3.033   4.656  15.490  1.5614 -1.7747  0.3099
 1189SOL    HW215204   2.895   4.646  15.441  0.8973  1.2649  2.1558
 1190SOL     OW15205   2.346   3.651   6.540 -0.0563  0.6898  0.1329
 1190SOL    HW115206   2.309   3.587   6.601 -0.3290  1.1891  0.4945
 1190SOL    HW215207   2.437   3.664   6.565  0.5981  1.8938 -2.8383
 1191SOL     OW15208   3.159   3.792   8.351 -0.1770  0.6929  0.4217
 1191SOL    HW115209   3.208   3.744   8.284 -0.3750  0.7286  0.2504
 1191SOL    HW215210   3.148   3.720   8.412 -0.9921  0.0219 -0.5161
 1192SOL     OW15211   0.527   1.745  12.524 -0.8615  0.2995 -0.5523
 1192SOL    HW115212   0.495   1.747  12.614 -0.4713 -2.0679 -0.3575
 1192SOL    HW215213   0.458   1.797  12.482 -0.7553  1.4054  0.6542
 1193SOL     OW15214   2.411   1.149  13.129  0.3464 -0.4615 -0.0950
 1193SOL    HW115215   2.501   1.123  13.110  0.4661  0.0079 -0.1784
 1193SOL    HW215216   2.376   1.062  13.150  0.0887  0.0082  1.4102
 1194SOL     OW15217   4.376   0.627   4.104 -0.5561  0.3902 -0.5665
 1194SOL    HW115218   4.443   0.684   4.067  2.2853 -1.8763  1.0774
 1194SOL    HW215219   4.386   0.545   4.056 -1.7280 -0.5765  0.8347
 1195SOL     OW15220   4.105   3.670   8.575 -0.0208 -0.1966 -0.2510
 1195SOL    HW115221   4.092   3.712   8.490  0.7880  3.0954  1.2613
 1195SOL    HW215222   4.013   3.662   8.602  0.3360 -0.0801  1.0063
 1196SOL     OW15223   1.015   0.663  15.706 -0.4068  0.1519 -0.1656
 1196SOL    HW115224   1.063   0.725  15.761 -1.1816 -0.6239  1.3987
 1196SOL    HW215225   0.928   0.678  15.741 -0.4527  1.6520 -0.9277
 1197SOL     OW15226   4.154   2.170  17.359  0.0181  0.3475  0.0253
 1197SOL    HW115227   4.124   2.213  17.278  0.5531 -0.4052 -0.5740
 1197SOL    HW215228   4.074   2.188  17.408 -0.8330 -2.5616 -0.3190
 1198SOL     OW15229   1.974   3.984   8.954 -0.1015 -0.0430  0.3861
 1198SOL    HW115230   1.884   4.005   8.978  0.2304  0.4597  1.1712
 1198SOL    HW215231   1.983   3.917   8.886 -1.4856 -1.5785  1.7392
 1199SOL     OW15232   3.053   3.481   5.185 -0.0050 -0.6067  0.0482
 1199SOL    HW115233   3.055   3.389   5.162  0.2564 -0.7061  0.4734
 1199SOL    HW215234   3.025   3.528   5.106 -1.2073 -0.6554  0.4491
 1200SOL     OW15235   1.832   2.766   5.101 -0.2309  0.3862 -0.0821
 1200SOL    HW115236   1.776   2.821   5.046 -2.1731 -0.7882  0.7154
 1200SOL    HW215237   1.901   2.759   5.035  0.5795  0.4748  0.7529
 1201SOL     OW15238   0.393   1.322   6.633  0.0779  0.0713 -0.5934
 1201SOL    HW115239   0.375   1.276   6.715 -0.1495 -1.5535 -1.5605
 1201SOL    HW215240   0.460   1.383   6.664  1.7594 -1.9676 -0.2307
 1202SOL     OW15241   4.048   4.102  11.785  0.6797 -0.5229 -0.0219
 1202SOL    HW115242   4.130   4.068  11.749  0.7965  2.7667 -2.8301
 1202SOL    HW215243   4.090   4.138  11.863  0.0541 -2.0549  1.0193
 1203SOL     OW15244   0.091   2.483  13.280 -0.2454 -0.5196  0.5621
 1203SOL    HW115245   0.072   2.533  13.360  1.2254  1.4510 -0.3187
 1203SOL    HW215246   0.018   2.422  13.269  1.7587 -2.7740 -0.3267
 1204SOL     OW15247   4.517   2.330   3.046  0.8831  0.0312 -0.2249
 1204SOL    HW115248   4.443   2.271   3.063  0.8408 -0.2179 -1.2572
 1204SOL    HW215249   4.518   2.405   3.105  1.3700 -0.8740  0.9054
 1205SOL     OW15250   3.044   3.231   5.100  0.6138  0.3771 -0.0255
 1205SOL    HW115251   3.035   3.187   5.185 -0.5918  0.0464 -0.3206
 1205SOL    HW215252   3.053   3.158   5.038  0.5731  0.0121  0.3978
 1206SOL     OW15253   2.355   1.234   6.207 -0.0147 -0.0182 -0.3892
 1206SOL    HW115254   2.359   1.200   6.296  1.8728  1.0984 -0.0660
 1206SOL    HW215255   2.446   1.254   6.187  0.1119  0.4313  0.6237
 1207SOL     OW15256   2.352   4.311   6.777 -0.4026 -0.3472  0.0726
 1207SOL    HW115257   2.328   4.377   6.712  0.1580 -1.6180 -1.4239
 1207SOL    HW215258   2.423   4.348   6.829  0.0621  0.3068 -1.0307
 1208SOL     OW15259   4.492   0.126   6.372  0.8041  0.1048  0.0312
 1208SOL    HW115260   4.534   0.041   6.358  0.2884  0.0005 -0.9325
 1208SOL    HW215261   4.565   0.184   6.393  0.4142  0.8298 -0.5843
 1209SOL     OW15262   0.992   4.155   8.203 -0.0899  0.3801 -0.0254
 1209SOL    HW115263   1.052   4.229   8.195 -0.1550  0.4411  0.0501
 1209SOL    HW215264   0.919   4.208   8.171  0.3818  0.6424 -0.6687
 1210SOL     OW15265   4.205   2.768  16.074 -0.0281  0.1670 -0.8680
 1210SOL    HW115266   4.201   2.856  16.036  0.0328  0.1539 -0.9051
 1210SOL    HW215267   4.225   2.787  16.165 -1.1600 -0.8268 -0.4102
 1211SOL     OW15268   2.315   0.387   3.231 -0.3717 -0.2964  0.1489
 1211SOL    HW115269   2.329   0.298   3.264 -0.2527 -0.4399 -0.2964
 1211SOL    HW215270   2.396   0.407   3.185 -0.7390  1.4587  0.2927
 1212SOL     OW15271   1.840   0.424   6.684 -0.0520  0.2977  0.3315
 1212SOL    HW115272   1.869   0.513   6.664  0.2571  0.4677  1.5181
 1212SOL    HW215273   1.750   0.428   6.652  0.3392  0.6609 -0.7311
 1213SOL     OW15274   2.591   0.212   7.614 -0.1314  0.1906 -0.1507
 1213SOL    HW115275   2.525   0.145   7.599 -0.2530  0.6789 -1.8217
 1213SOL    HW215276   2.574   0.281   7.550  1.4350  0.0528 -0.7186
 1214SOL     OW15277   1.217   1.881   6.082 -0.5375  0.6862  0.1799
 1214SOL    HW115278   1.128   1.870   6.115 -0.3731  0.3462  0.5157
 1214SOL    HW215279   1.216   1.807   6.021 -1.6238 -0.4592  1.5567
 1215SOL     OW15280   1.328   1.734   0.740  0.8982  1.1333 -0.1503
 1215SOL    HW115281   1.418   1.738   0.709  0.0284  0.8993 -2.7576
 1215SOL    HW215282   1.342   1.671   0.811 -0.9328 -0.9253 -1.6064
 1216SOL     OW15283   4.162   1.824   7.392 -0.4962  0.8211  0.3616
 1216SOL    HW115284   4.235   1.762   7.396 -0.8300  0.3425 -1.0923
 1216SOL    HW215285   4.208   1.907   7.388  0.9377 -0.0118 -0.2313
 1217SOL     OW15286   1.190   0.743  12.869 -0.1672 -0.2709  0.3162
 1217SOL    HW115287   1.127   0.768  12.936  0.4718  2.1820 -0.0093
 1217SOL    HW215288   1.135   0.692  12.810 -0.2522 -1.5027  1.4704
 1218SOL     OW15289   2.260   2.376   0.755 -0.0615 -0.0638  0.3715
 1218SOL    HW115290   2.297   2.388   0.668  1.2686 -0.3726  0.8966
 1218SOL    HW215291   2.165   2.382   0.740  0.1503 -1.8155 -1.6393
 1219SOL     OW15292   3.773   1.746   4.076 -0.1760 -0.2019  0.3699
 1219SOL    HW115293   3.817   1.667   4.105  1.3433  0.5276  0.1017
 1219SOL    HW215294   3.777   1.801   4.154 -0.3734 -1.2501  1.1127
 1220SOL     OW15295   4.549   3.632  10.025 -0.8522 -0.0203  0.0065
 1220SOL    HW115296   4.534   3.592   9.939 -2.6526 -0.5126  0.5451
 1220SOL    HW215297   4.581   3.716   9.993 -1.2749 -0.0270 -0.4437
 1221SOL     OW15298   4.106   4.465  14.565 -0.5431 -0.0448 -0.4439
 1221SOL    HW115299   4.103   4.554  14.601  0.6909  0.0476 -0.5492
 1221SOL    HW215300   4.034   4.416  14.604  1.4072 -1.6667  1.1592
 1222SOL     OW15301   0.335   2.816  17.164 -0.2976  0.0640 -0.0324
 1222SOL    HW115302   0.280   2.894  17.153  0.1751  0.4797  0.5478
 1222SOL    HW215303   0.394   2.852  17.098 -2.2680  1.4624 -1.0454
 1223SOL     OW15304   2.697   4.048   9.134 -0.7038 -0.0753  0.6552
 1223SOL    HW115305   2.642   4.080   9.062 -1.7831  0.9852  1.9409
 1223SOL    HW215306   2.785   4.078   9.114 -1.4998  0.8338 -1.4791
 1224SOL     OW15307   3.503   3.713   5.463  0.0434  0.0933 -0.0623
 1224SOL    HW115308   3.408   3.726   5.470  0.2274  0.0283  2.5589
 1224SOL    HW215309   3.513   3.724   5.368 -1.6884 -1.3469 -0.4116
 1225SOL     OW15310   0.352   2.623   2.692  0.1964 -0.2326 -0.4480
 1225SOL    HW115311   0.339   2.531   2.669 -0.1575 -0.3489  0.2289
 1225SOL    HW215312   0.447   2.625   2.682  0.2788  0.5879  0.5067
 1226SOL     OW15313   2.540   3.379   9.164  0.0728 -0.8329  0.4278
 1226SOL    HW115314   2.629   3.407   9.141  0.3869 -3.1030 -1.1233
 1226SOL    HW215315   2.540   3.412   9.254  3.1335 -0.1883  0.2165
 1227SOL     OW15316   2.844   1.426   8.798 -0.5615  0.1032  0.1201
 1227SOL    HW115317   2.905   1.490   8.833  1.3180 -1.9220  0.5367
 1227SOL    HW215318   2.827   1.463   8.711  0.6925  0.1983 -0.0832
 1228SOL     OW15319   0.338   3.958   2.204  0.0657 -0.6851 -0.1846
 1228SOL    HW115320   0.306   3.981   2.292  2.0693 -1.9975  0.9009
 1228SOL    HW215321   0.252   3.930   2.172  0.0639 -1.3428  0.3837
 1229SOL     OW15322   3.806   3.152   8.442 -0.0389  0.1812 -0.7481
 1229SOL    HW115323   3.858   3.229   8.421 -1.3666  1.4823  0.7647
 1229SOL    HW215324   3.832   3.122   8.530 -1.6192  0.1319 -0.2940
 1230SOL     OW15325   2.166   1.881   3.123  0.4940  0.0830 -0.0614
 1230SOL    HW115326   2.121   1.809   3.168 -0.3388 -0.5109 -1.8549
 1230SOL    HW215327   2.197   1.838   3.043 -0.0763  1.0615 -0.8073
 1231SOL     OW15328   3.513   3.482  12.368  0.1472 -0.2359 -0.1673
 1231SOL    HW115329   3.505   3.427  12.290  0.1622 -1.4390  0.6857
 1231SOL    HW215330   3.567   3.428  12.426  1.7596 -1.7106 -3.0593
 1232SOL     OW15331   1.186   0.750   7.031  0.6504 -0.3250 -0.5072
 1232SOL    HW115332   1.178   0.681   6.966 -1.7689  0.2920 -0.9014
 1232SOL    HW215333   1.175   0.827   6.975  0.5664 -2.3522 -3.2510
 1233SOL     OW15334   4.073   0.358   1.943 -0.5946 -0.3647  0.3207
 1233SOL    HW115335   4.079   0.426   1.877  0.7251 -0.4975  0.2986
 1233SOL    HW215336   4.112   0.407   2.016  0.4150 -2.7858  1.4285
 1234SOL     OW15337   1.983   0.199   4.799 -0.3382 -0.3514 -0.0767
 1234SOL    HW115338   2.069   0.202   4.842 -1.9196 -0.1696  3.0516
 1234SOL    HW215339   1.948   0.113   4.825 -0.3059 -0.2473  0.3182
 1235SOL     OW15340   2.197   3.658   0.898  0.1645  0.0849  0.0090
 1235SOL    HW115341   2.134   3.627   0.962  0.2003 -0.2130 -0.0991
 1235SOL    HW215342   2.285   3.632   0.927 -0.1536 -0.0123  0.8839
 1236SOL     OW15343   1.132   2.923  17.317 -0.4439 -0.1539 -0.4446
 1236SOL    HW115344   1.174   2.990  17.372 -0.1991 -1.0835  0.5124
 1236SOL    HW215345   1.211   2.887  17.278 -1.8004 -2.7240 -0.7877
 1237SOL     OW15346   2.155   3.540   7.846 -0.1579 -0.1137 -0.5635
 1237SOL    HW115347   2.248   3.525   7.831 -0.3303 -0.5217 -1.2234
 1237SOL    HW215348   2.126   3.514   7.759  1.4249  0.5847 -1.2977
 1238SOL     OW15349   4.065   0.782   6.512 -0.0872 -0.4475  0.1644
 1238SOL    HW115350   4.132   0.850   6.516 -1.9375  1.3074  1.2222
 1238SOL    HW215351   4.007   0.799   6.586  0.0094  2.2775 -0.3606
 1239SOL     OW15352   4.636   0.923   4.343 -0.1101  0.2642  0.1495
 1239SOL    HW115353   4.663   0.983   4.413 -2.1052 -1.1615  2.1325
 1239SOL    HW215354   4.548   0.954   4.320 -0.6948 -1.3089  0.3112
 1240SOL     OW15355   1.216   4.188   8.884 -0.5299 -0.0177 -0.4487
 1240SOL    HW115356   1.136   4.139   8.899 -1.2206  1.5116  0.7650
 1240SOL    HW215357   1.205   4.270   8.933  3.0961 -0.0996  0.5644
 1241SOL     OW15358   0.895   1.336   4.307  0.3537  0.1377  0.1303
 1241SOL    HW115359   0.982   1.328   4.268 -0.0305 -0.6085 -0.5770
 1241SOL    HW215360   0.905   1.394   4.382  0.3667  0.5274 -0.1704
 1242SOL     OW15361   2.641   3.530   2.696  0.7022  0.3156  0.0008
 1242SOL    HW115362   2.655   3.465   2.627 -1.2707  1.3295 -1.3646
 1242SOL    HW215363   2.564   3.560   2.647  1.3643  4.6263  1.6012
 1243SOL     OW15364   3.885   1.603   1.369 -0.0785  0.2812  0.2277
 1243SOL    HW115365   3.825   1.614   1.295  0.0351 -0.1795  0.0676
 1243SOL    HW215366   3.837   1.542   1.426  2.0511  0.8904  2.6620
 1244SOL     OW15367   1.161   4.672   4.202  0.3183 -0.0017 -0.0441
 1244SOL    HW115368   1.141   4.686   4.295 -0.3020 -1.3391  0.0148
 1244SOL    HW215369   1.081   4.648   4.156 -0.9224  0.4399  1.8664
 1245SOL     OW15370   2.747   2.968  15.464 -0.2742  0.8053 -0.0503
 1245SOL    HW115371   2.781   3.055  15.482  1.1254  0.2666 -0.0836
 1245SOL    HW215372   2.655   2.990  15.482 -0.1055  0.8271  0.7654
 1246SOL     OW15373   4.256   2.370   5.386 -0.0102  0.4437 -0.4988
 1246SOL    HW115374   4.334   2.318   5.365 -0.9061 -0.8731 -0.5280
 1246SOL    HW215375   4.206   2.374   5.304  0.5300  0.6823 -0.8189
 1247SOL     OW15376   4.651   2.969   1.372  0.0507 -0.0945  0.4053
 1247SOL    HW115377   4.663   2.903   1.441  3.0149  1.7068  1.5853
 1247SOL    HW215378   4.559   2.986   1.390 -0.2349  1.1872 -2.1888
 1248SOL     OW15379   2.763   3.904   5.975  1.0278 -0.0699  0.6196
 1248SOL    HW115380   2.685   3.959   5.982  1.2901  0.1202  2.0891
 1248SOL    HW215381   2.767   3.870   6.065  0.0531  2.0854  1.4589
 1249SOL     OW15382   1.724   0.446   5.261  0.1388  0.3620 -0.0347
 1249SOL    HW115383   1.637   0.485   5.261  0.0058  0.0711 -1.5163
 1249SOL    HW215384   1.771   0.505   5.320 -0.9652 -0.1847  1.4018
 1250SOL     OW15385   3.196   1.660   7.434  0.1837  0.4712  0.0133
 1250SOL    HW115386   3.214   1.753   7.424 -1.2673  0.7456 -0.1305
 1250SOL    HW215387   3.227   1.625   7.350 -0.7785  0.2453 -0.2520
 1251SOL     OW15388   2.387   1.992  12.812  0.9473  0.2007  0.6850
 1251SOL    HW115389   2.419   2.046  12.740  3.1204 -4.2425 -1.6791
 1251SOL    HW215390   2.408   1.905  12.779  0.0367 -0.3798  1.6368
 1252SOL     OW15391   3.316   4.712   8.254 -1.1629 -0.2106  0.2607
 1252SOL    HW115392   3.302   4.653   8.328  0.7866 -1.6210 -0.4911
 1252SOL    HW215393   3.316   0.066   8.291 -1.1998  0.2477 -0.8323
 1253SOL     OW15394   1.083   0.507  12.726  0.4640 -0.3558 -0.4156
 1253SOL    HW115395   1.087   0.429  12.670 -4.0491 -0.5691 -0.4503
 1253SOL    HW215396   1.167   0.495  12.771  1.2936 -1.4662 -2.2202
 1254SOL     OW15397   1.611   4.554   4.553 -0.3559 -0.3407  0.0040
 1254SOL    HW115398   1.629   4.468   4.514  2.3157 -0.4227  1.4333
 1254SOL    HW215399   1.686   4.598   4.513 -0.8112 -2.6808 -3.4326
 1255SOL     OW15400   1.605   0.821  12.998  0.0875  0.1905  0.4844
 1255SOL    HW115401   1.533   0.851  13.053 -1.1005 -0.2926 -0.8155
 1255SOL    HW215402   1.634   0.902  12.957 -1.8909  0.8870  0.4608
 1256SOL     OW15403   2.718   1.569   2.205  0.3072  0.3719 -0.4445
 1256SOL    HW115404   2.813   1.555   2.211  0.1960 -1.1820 -2.4634
 1256SOL    HW215405   2.705   1.638   2.270 -4.3121  0.8619 -1.8962
 1257SOL     OW15406   0.118   0.684   5.119 -0.0272 -0.1182 -0.5196
 1257SOL    HW115407   0.116   0.664   5.212 -2.5211  1.3736 -0.2537
 1257SOL    HW215408   0.171   0.613   5.084 -0.1404 -0.1002 -0.7248
 1258SOL     OW15409   0.262   3.912   4.547 -0.4574 -0.7491 -0.2097
 1258SOL    HW115410   0.316   3.882   4.620  0.9689  0.8816 -0.5988
 1258SOL    HW215411   0.222   3.828   4.526  3.3042 -2.3905 -0.9415
 1259SOL     OW15412   0.994   4.103   3.645  0.2670  0.1291 -0.5542
 1259SOL    HW115413   0.967   4.054   3.567 -1.0873 -0.0229  0.0129
 1259SOL    HW215414   1.011   4.036   3.710 -0.5527  0.5871  0.1275
 1260SOL     OW15415   4.236   0.814   7.093  0.4162  0.3117  0.0649
 1260SOL    HW115416   4.327   0.830   7.118  1.0976 -0.6678 -1.8331
 1260SOL    HW215417   4.242   0.720   7.074  1.3003  0.7288 -1.6552
 1261SOL     OW15418   3.660   0.461  12.701  0.0984  0.4149  0.5115
 1261SOL    HW115419   3.611   0.428  12.625  0.8045  0.0779  0.1981
 1261SOL    HW215420   3.748   0.455  12.662 -0.7964 -1.1133 -1.2769
 1262SOL     OW15421   4.726   3.187   4.812  0.8768  0.1678  0.0241
 1262SOL    HW115422   4.637   3.213   4.836  0.0506 -1.1688 -1.6404
 1262SOL    HW215423   4.731   3.093   4.801 -2.1044  0.2331 -1.8392
 1263SOL     OW15424   3.200   0.409   3.290  0.1806  0.2293 -0.4405
 1263SOL    HW115425   3.212   0.333   3.347 -0.2610  1.1555  0.8740
 1263SOL    HW215426   3.115   0.387   3.251  0.4560 -0.9809 -0.3654
 1264SOL     OW15427   1.243   0.022   0.157 -0.1785 -0.0944  0.2684
 1264SOL    HW115428   1.321   4.718   0.196  0.8244  0.5000 -1.1676
 1264SOL    HW215429   1.215   4.698   0.085 -1.6049 -1.9959  2.3599
 1265SOL     OW15430   0.685   0.886   1.029 -0.1009  0.2522  0.0452
 1265SOL    HW115431   0.764   0.858   1.075 -1.1641 -3.1000 -0.2143
 1265SOL    HW215432   0.714   0.949   0.963  0.6517  1.1835  1.2487
 1266SOL     OW15433   1.073   4.276   1.888  0.2787  0.0253  0.2720
 1266SOL    HW115434   1.054   4.183   1.877 -0.0053  0.3472 -1.8489
 1266SOL    HW215435   0.989   4.310   1.919 -0.5188  0.5221 -2.5049
 1267SOL     OW15436   3.283   2.812  14.286  0.3525 -0.1677  0.1229
 1267SOL    HW115437   3.241   2.877  14.343  0.8408 -2.5002  3.1300
 1267SOL    HW215438   3.294   2.872  14.212 -1.1274  1.1378  0.9681
 1268SOL     OW15439   0.134   0.290  16.957  0.4784  0.1867  0.3021
 1268SOL    HW115440   0.105   0.364  17.010 -0.2550 -0.0567  0.2520
 1268SOL    HW215441   0.228   0.303  16.952  0.9937 -3.6097 -0.3732
 1269SOL     OW15442   3.860   3.110   6.930  0.8378  0.3529  0.0040
 1269SOL    HW115443   3.869   3.085   6.838 -1.4107  1.4861 -0.5020
 1269SOL    HW215444   3.767   3.093   6.948  0.4487  0.2794 -2.1204
 1270SOL     OW15445   1.595   1.557  16.868 -0.1645  0.6349 -0.0356
 1270SOL    HW115446   1.542   1.480  16.845 -1.2625  1.0766  1.0538
 1270SOL    HW215447   1.532   1.620  16.901 -0.3074  0.0338  0.8432
 1271SOL     OW15448   2.597   3.848  10.101 -0.3343  1.1276  0.2568
 1271SOL    HW115449   2.579   3.917  10.164  1.7110  0.3153  1.7487
 1271SOL    HW215450   2.546   3.879  10.027  0.7639  2.7930  0.2044
 1272SOL     OW15451   3.747   2.931   0.755 -0.4472 -0.5626  0.4410
 1272SOL    HW115452   3.758   2.839   0.779  0.0597 -0.4176  0.7601
 1272SOL    HW215453   3.729   2.926   0.661  0.8179  0.6818  0.1375
 1273SOL     OW15454   2.587   1.353   6.065 -0.1584  0.3572 -0.4955
 1273SOL    HW115455   2.672   1.352   6.108 -0.7551  3.2880  0.7456
 1273SOL    HW215456   2.593   1.435   6.015  2.2511  0.7350  0.4191
 1274SOL     OW15457   0.119   0.195   2.423  0.0399 -0.3088 -0.3503
 1274SOL    HW115458   0.088   0.197   2.514 -0.6886  0.4198 -0.6178
 1274SOL    HW215459   0.198   0.249   2.421 -0.0598 -0.0502  2.9329
 1275SOL     OW15460   4.183   1.507   8.165 -0.0765  0.5424  0.1592
 1275SOL    HW115461   4.234   1.534   8.241 -2.8237  1.5810  1.6256
 1275SOL    HW215462   4.167   1.596   8.133  0.6507 -0.4013 -2.8578
 1276SOL     OW15463   3.075   4.106   3.821  0.3418  0.6332  0.0326
 1276SOL    HW115464   3.132   4.182   3.812  2.1731 -0.3459  3.2030
 1276SOL    HW215465   3.142   4.039   3.809  1.3952  1.8158 -0.6550
 1277SOL     OW15466   3.007   2.309   8.517 -0.2362 -0.4765 -0.1504
 1277SOL    HW115467   2.941   2.354   8.570 -0.9676 -2.2118  0.3799
 1277SOL    HW215468   3.017   2.370   8.444  1.2910 -0.7632 -0.1822
 1278SOL     OW15469   1.133   4.072   6.531 -0.3417 -0.6475  0.2574
 1278SOL    HW115470   1.039   4.065   6.512 -0.6705 -0.2505  1.7682
 1278SOL    HW215471   1.146   4.165   6.511 -0.3528 -0.5301  0.7934
 1279SOL     OW15472   3.452   1.306   9.059 -0.0483 -0.5466  0.3288
 1279SOL    HW115473   3.478   1.327   9.149 -1.5563 -1.7815  1.0473
 1279SOL    HW215474   3.538   1.311   9.017  0.3526 -1.2870  1.0683
 1280SOL     OW15475   1.205   0.298  17.182  0.5090 -0.0714 -0.0250
 1280SOL    HW115476   1.193   0.220  17.238  0.9502  0.1428  0.3741
 1280SOL    HW215477   1.264   0.248  17.126 -1.1115 -0.6074 -1.2183
 1281SOL     OW15478   3.397   3.906  16.541 -0.4694 -0.1236  0.1285
 1281SOL    HW115479   3.333   3.961  16.496 -0.0272  0.3557  0.0796
 1281SOL    HW215480   3.363   3.903  16.631  0.8354 -0.4478  0.6092
 1282SOL     OW15481   2.980   2.617  16.326 -0.0955  0.2641 -0.1838
 1282SOL    HW115482   2.972   2.702  16.368  1.6578  1.3406 -2.0062
 1282SOL    HW215483   2.896   2.610  16.280 -1.5563 -1.0133  2.6642
 1283SOL     OW15484   2.199   4.125   0.127 -0.2248 -0.3641  0.2824
 1283SOL    HW115485   2.170   4.048   0.078 -0.4567  0.5090 -0.9472
 1283SOL    HW215486   2.292   4.120   0.146 -0.2274 -1.1709  0.0997
 1284SOL     OW15487   2.233   3.762  13.183  0.1180  0.2002  0.2374
 1284SOL    HW115488   2.237   3.668  13.201 -0.3558 -0.1471 -1.4862
 1284SOL    HW215489   2.325   3.784  13.169  0.8568  0.0043  4.9158
 1285SOL     OW15490   0.559   2.382   4.100 -0.1281  0.0776  0.2084
 1285SOL    HW115491   0.581   2.474   4.085  2.3597 -0.3398  1.4067
 1285SOL    HW215492   0.603   2.335   4.029  0.1398 -0.8766  0.9994
 1286SOL     OW15493   3.524   0.523  13.843  0.0721 -0.3907  0.0941
 1286SOL    HW115494   3.464   0.571  13.900 -1.8967 -1.0389 -1.4464
 1286SOL    HW215495   3.472   0.451  13.807 -0.1945 -0.2146  0.1294
 1287SOL     OW15496   2.770   1.663   4.728 -0.0205 -0.2872 -0.3571
 1287SOL    HW115497   2.826   1.670   4.806 -0.0737 -0.0057 -0.3437
 1287SOL    HW215498   2.823   1.718   4.670 -0.1034 -0.0603 -0.2168
 1288SOL     OW15499   2.067   0.924   6.635 -0.4754 -0.2104  0.2145
 1288SOL    HW115500   2.106   0.909   6.722  1.6357  0.7574 -0.5735
 1288SOL    HW215501   2.125   0.998   6.615  0.7852 -1.2558  0.0025
 1289SOL     OW15502   4.282   0.245   5.314  0.3377 -0.6176  0.0033
 1289SOL    HW115503   4.284   0.159   5.273 -1.7824 -0.9896  0.6878
 1289SOL    HW215504   4.362   0.249   5.367  1.0251 -0.0409 -1.0901
 1290SOL     OW15505   0.045   1.353   4.934 -0.0569  0.0513  0.3375
 1290SOL    HW115506   4.711   1.286   4.921 -0.5547  0.2201  2.0037
 1290SOL    HW215507   0.125   1.323   4.891  0.4317  1.0587  0.5514
 1291SOL     OW15508   4.716   1.604  15.198 -0.0588  0.2722 -0.0591
 1291SOL    HW115509   0.068   1.606  15.241 -0.4287 -1.0676  0.7654
 1291SOL    HW215510   0.001   1.662  15.125 -2.1060  0.2854 -0.5728
 1292SOL     OW15511   4.280   1.471   8.574 -0.3460 -0.4058  0.1604
 1292SOL    HW115512   4.276   1.503   8.483 -2.1835 -1.0243  0.0083
 1292SOL    HW215513   4.258   1.546   8.629  0.9550  0.2147 -0.1669
 1293SOL     OW15514   1.020   0.339  14.415  0.2960 -0.2093 -0.1922
 1293SOL    HW115515   1.029   0.264  14.355  0.2697  0.4950 -1.0642
 1293SOL    HW215516   1.109   0.346  14.448 -0.5884  0.1475  2.1217
 1294SOL     OW15517   3.812   0.008   6.974 -0.4629 -0.4234  0.2116
 1294SOL    HW115518   3.817   4.661   6.923 -3.4590 -1.0982  0.9812
 1294SOL    HW215519   3.863   0.072   6.925 -1.2652 -0.6720 -0.9675
 1295SOL     OW15520   0.076   3.462   2.742  0.0755  0.2687  0.5444
 1295SOL    HW115521   0.041   3.551   2.749  4.6297  2.2072 -1.0456
 1295SOL    HW215522   0.126   3.459   2.660 -0.4709  0.1418  0.2210
 1296SOL     OW15523   3.179   2.222   4.707  0.7458 -0.4452 -0.5394
 1296SOL    HW115524   3.086   2.217   4.729  1.2820 -1.9406  1.4472
 1296SOL    HW215525   3.170   2.213   4.613  2.1450  0.2540 -0.7408
 1297SOL     OW15526   3.195   1.451   2.137 -0.7394  0.4561 -0.2496
 1297SOL    HW115527   3.167   1.519   2.198  0.4811 -0.3848  1.2525
 1297SOL    HW215528   3.288   1.477   2.139  0.1762 -2.8354 -0.2264
 1298SOL     OW15529   2.689   3.880   5.517  0.2901  0.2452 -0.0309
 1298SOL    HW115530   2.602   3.840   5.529 -0.6597  2.1465 -0.5411
 1298SOL    HW215531   2.695   3.881   5.422  1.5130  0.2400  0.0554
 1299SOL     OW15532   4.003   4.704  12.150 -0.2405  0.2686  0.1019
 1299SOL    HW115533   4.070   0.035  12.170  1.3811 -0.6919 -2.2854
 1299SOL    HW215534   3.946   4.732  12.221 -0.1981 -2.4107  1.1991
 1300SOL     OW15535   3.077   4.139   1.689 -0.1416  0.4594  0.1961
 1300SOL    HW115536   3.110   4.191   1.763  1.1419 -0.1611  0.0603
 1300SOL    HW215537   3.156   4.089   1.669  0.2085  0.3737  1.7777
 1301SOL     OW15538   3.650   0.519   5.014  0.2073 -0.5831  0.0255
 1301SOL    HW115539   3.709   0.511   5.089 -1.9038  1.3720  1.8922
 1301SOL    HW215540   3.612   0.602   5.044  1.5180  0.5899 -1.6020
 1302SOL     OW15541   3.522   2.773   7.347  0.1455 -0.6547 -0.0511
 1302SOL    HW115542   3.540   2.778   7.441 -0.5030 -0.2533  0.0489
 1302SOL    HW215543   3.488   2.684   7.337  0.6346 -1.0883  2.2034
 1303SOL     OW15544   0.418   3.946  10.987 -0.6653 -0.3369  0.2711
 1303SOL    HW115545   0.501   3.905  11.010 -0.0142  0.9641  0.2680
 1303SOL    HW215546   0.420   4.022  11.046 -0.7069 -0.6771  0.7102
 1304SOL     OW15547   4.512   3.535  15.546 -0.1713 -0.4394  0.1233
 1304SOL    HW115548   4.570   3.503  15.477  0.0760  2.1228 -0.8452
 1304SOL    HW215549   4.429   3.515  15.503 -1.0989 -1.8332  2.5669
 1305SOL     OW15550   0.099   4.231   4.067  0.1568  0.0795 -0.0452
 1305SOL    HW115551   0.103   4.326   4.059  0.0414  0.1118  0.2656
 1305SOL    HW215552   0.165   4.207   4.133 -0.1050  1.5897  0.7523
 1306SOL     OW15553   2.179   3.986   2.479 -0.3821 -0.1141  0.2116
 1306SOL    HW115554   2.141   4.071   2.457 -0.6245 -0.4846 -0.8228
 1306SOL    HW215555   2.113   3.959   2.543 -0.3289  0.5770  0.5551
 1307SOL     OW15556   3.557   0.870  16.741  0.1575 -0.6232  0.0391
 1307SOL    HW115557   3.491   0.937  16.751  0.2913 -0.4206 -0.4183
 1307SOL    HW215558   3.515   0.785  16.757 -0.0430 -0.2990  1.1857
 1308SOL     OW15559   0.552   3.058   7.771  0.1902 -0.0723  0.7899
 1308SOL    HW115560   0.619   2.993   7.752 -0.5464 -0.8306  0.7811
 1308SOL    HW215561   0.473   3.009   7.792  0.9782 -1.4571  0.5290
 1309SOL     OW15562   3.340   2.138  17.149 -0.0786  0.3100 -0.4517
 1309SOL    HW115563   3.364   2.226  17.176 -2.2186  1.4093 -2.2257
 1309SOL    HW215564   3.296   2.156  17.067 -1.0231 -2.1241 -0.4750
 1310SOL     OW15565   3.221   2.771   2.774  0.0960 -0.5239 -0.0841
 1310SOL    HW115566   3.131   2.762   2.742  0.8238 -0.4614 -2.1776
 1310SOL    HW215567   3.213   2.826   2.851 -1.6036 -1.5266  0.4732
 1311SOL     OW15568   0.191   4.227   5.445 -0.0644  0.1780  0.3049
 1311SOL    HW115569   0.134   4.291   5.487  1.3032 -0.2801  2.8642
 1311SOL    HW215570   0.218   4.284   5.372 -0.9369  0.2877  0.0678
 1312SOL     OW15571   1.393   2.062   8.910  0.5744  0.2683 -0.5501
 1312SOL    HW115572   1.433   2.120   8.975  2.0317  0.5041 -1.6638
 1312SOL    HW215573   1.329   2.122   8.871 -0.2236  1.2718  2.2496
 1313SOL     OW15574   4.429   4.107   2.625 -0.2648 -0.3596  0.1895
 1313SOL    HW115575   4.369   4.143   2.560 -0.1201 -1.5335 -0.5968
 1313SOL    HW215576   4.448   4.021   2.589  0.8927 -0.3859  0.8498
 1314SOL     OW15577   1.354   2.046   5.240 -0.0568  0.2112 -0.0166
 1314SOL    HW115578   1.391   1.993   5.168 -0.3491 -0.2905  0.1987
 1314SOL    HW215579   1.424   2.108   5.257  0.0043  0.6314 -1.7644
 1315SOL     OW15580   3.697   0.101   4.015  0.1137 -0.5797 -0.1315
 1315SOL    HW115581   3.737   0.186   4.032  0.8161 -1.1933  1.2428
 1315SOL    HW215582   3.632   0.101   4.085 -0.2196 -1.0012 -0.4392
 1316SOL     OW15583   4.327   3.807   9.340 -0.0363 -0.2646  0.0029
 1316SOL    HW115584   4.335   3.840   9.429 -0.0836 -1.7861  0.5615
 1316SOL    HW215585   4.415   3.824   9.307  0.2102 -1.5362  0.0313
 1317SOL     OW15586   3.947   4.372  12.559  0.3741  0.4103  0.3501
 1317SOL    HW115587   3.913   4.461  12.569  0.1195  0.1710  1.6130
 1317SOL    HW215588   3.940   4.362  12.464  2.4006  0.5882  0.1960
 1318SOL     OW15589   4.642   2.241  13.243  0.5213 -0.6135  0.0915
 1318SOL    HW115590   4.718   2.184  13.255 -0.2267 -1.2230  1.8830
 1318SOL    HW215591   4.601   2.249  13.329  0.4591 -0.6966  0.0693
 1319SOL     OW15592   0.722   3.580   4.442 -0.7925 -0.8079 -0.0868
 1319SOL    HW115593   0.638   3.553   4.404 -0.8307  2.0198 -1.9892
 1319SOL    HW215594   0.701   3.627   4.523  1.9724 -2.1168  1.3681
 1320SOL     OW15595   2.345   4.094  13.548 -0.3021  0.2902  0.2406
 1320SOL    HW115596   2.319   4.183  13.571 -1.6107  0.0465 -0.3160
 1320SOL    HW215597   2.408   4.107  13.477 -1.0635 -0.4607 -0.5724
 1321SOL     OW15598   3.710   4.281   4.334 -0.4033  0.7914 -0.1342
 1321SOL    HW115599   3.708   4.334   4.254 -2.6187  0.4290 -0.3373
 1321SOL    HW215600   3.752   4.197   4.317 -0.4473  0.9495 -1.0284
 1322SOL     OW15601   4.576   2.446   3.373 -0.2993 -0.1443  0.1701
 1322SOL    HW115602   4.593   2.509   3.303  0.4517 -1.7869 -1.1292
 1322SOL    HW215603   4.666   2.434   3.401 -0.2796 -0.4545 -0.0191
 1323SOL     OW15604   4.704   3.049   7.898  0.0583  0.2913  0.1365
 1323SOL    HW115605   4.704   2.972   7.841  2.8959  0.5182 -0.1680
 1323SOL    HW215606   4.626   3.092   7.863  0.6957  1.9021  0.7270
 1324SOL     OW15607   1.166   3.731   0.245  0.1039  0.4793  0.2716
 1324SOL    HW115608   1.096   3.751   0.308  0.3754 -2.9813  1.6721
 1324SOL    HW215609   1.249   3.723   0.291  0.7289  1.4647 -0.6652
 1325SOL     OW15610   0.076   4.478  16.847  0.0761  0.0906  0.2908
 1325SOL    HW115611   0.017   4.536  16.896  1.0439  2.3508 -1.2584
 1325SOL    HW215612   0.160   4.492  16.891  0.6086 -0.8462 -0.4323
 1326SOL     OW15613   2.514   2.631   0.462 -0.4620 -0.6189  0.2467
 1326SOL    HW115614   2.470   2.667   0.539 -1.3884  0.3888 -0.7497
 1326SOL    HW215615   2.507   2.693   0.389  2.6061  1.5235  1.7775
 1327SOL     OW15616   3.993   4.103   2.023  0.9192 -0.5128  0.1257
 1327SOL    HW115617   3.912   4.067   1.987 -0.1674  1.9683  0.1360
 1327SOL    HW215618   4.002   4.184   1.972  1.0098 -0.2480  0.5642
 1328SOL     OW15619   2.218   0.834  17.327 -0.2474  0.4317  0.1067
 1328SOL    HW115620   2.231   0.797  17.415 -1.1235  0.7464  0.3784
 1328SOL    HW215621   2.122   0.839  17.331 -0.3040 -0.0701 -0.7712
 1329SOL     OW15622   3.861   2.013   8.499 -0.2633 -0.9229 -0.5146
 1329SOL    HW115623   3.791   1.967   8.452  0.3318 -1.9300 -0.4221
 1329SOL    HW215624   3.911   1.937   8.529  1.4668 -0.0749 -1.2360
 1330SOL     OW15625   3.610   1.591   9.846  0.6859 -0.2526  0.5181
 1330SOL    HW115626   3.679   1.533   9.880 -0.1994 -0.6930  1.5366
 1330SOL    HW215627   3.548   1.598   9.918  0.6057  0.4973  0.3754
 1331SOL     OW15628   1.489   2.278   2.388  0.1217 -0.3755 -0.2199
 1331SOL    HW115629   1.496   2.310   2.478  0.4227  1.8395 -1.0371
 1331SOL    HW215630   1.567   2.223   2.393  0.8278  0.9618  3.7647
 1332SOL     OW15631   4.127   3.161  11.564 -0.3377  0.7605 -0.0348
 1332SOL    HW115632   4.222   3.148  11.560 -0.1231  2.4770 -0.3988
 1332SOL    HW215633   4.114   3.218  11.489  1.3825 -1.8441 -2.3371
 1333SOL     OW15634   2.597   3.764  10.379  0.1235 -0.1261  0.5673
 1333SOL    HW115635   2.504   3.755  10.398 -0.0447  0.3489 -0.0240
 1333SOL    HW215636   2.600   3.752  10.285  0.6132 -1.8380  0.8071
 1334SOL     OW15637   3.618   4.652   6.025 -0.2295  0.1698 -0.2300
 1334SOL    HW115638   3.551   4.703   6.071  1.3199 -0.7464  2.9756
 1334SOL    HW215639   3.581   4.564   6.035 -1.3325  0.5688 -0.7418
 1335SOL     OW15640   1.895   0.716   6.655 -0.2744 -0.2344 -0.0669
 1335SOL    HW115641   1.967   0.777   6.641 -0.3636 -0.0796  0.1621
 1335SOL    HW215642   1.826   0.754   6.601 -0.4994  1.9938  1.8017
 1336SOL     OW15643   1.711   3.494   6.596 -0.0299  0.0308  0.0093
 1336SOL    HW115644   1.636   3.440   6.620 -1.7970  3.4137  2.0798
 1336SOL    HW215645   1.675   3.542   6.521 -0.5212 -1.0104 -0.4248
 1337SOL     OW15646   1.906   2.134   3.154  0.1411 -0.4602  0.3779
 1337SOL    HW115647   1.984   2.135   3.099 -0.7424 -1.3398 -0.8770
 1337SOL    HW215648   1.921   2.220   3.195  0.5840 -0.9819  1.3272
 1338SOL     OW15649   1.061   3.340   5.673 -0.1657  0.0508  0.1109
 1338SOL    HW115650   0.975   3.299   5.676  0.7613 -1.9411 -0.7870
 1338SOL    HW215651   1.104   3.275   5.619 -1.8819  0.1929 -1.4133
 1339SOL     OW15652   0.342   4.167   7.242  0.3107  0.6264  0.0675
 1339SOL    HW115653   0.306   4.243   7.287 -0.9541 -0.2157  0.4512
 1339SOL    HW215654   0.414   4.212   7.196 -0.4325  1.0567 -0.6809
 1340SOL     OW15655   1.749   2.346   8.968 -0.1827 -0.0553 -0.1851
 1340SOL    HW115656   1.666   2.360   8.923  0.0384  0.4431 -0.4392
 1340SOL    HW215657   1.774   2.257   8.943 -2.3420 -0.6837 -0.0399
 1341SOL     OW15658   2.251   0.153  17.622 -0.1324  0.6039 -0.5565
 1341SOL    HW115659   2.301   0.108  17.553  1.3654  1.6018 -0.1329
 1341SOL    HW215660   2.313   0.160  17.695  0.8788 -0.3907 -1.3117
 1342SOL     OW15661   1.555   2.872   8.857  1.0943 -0.1796 -0.0469
 1342SOL    HW115662   1.484   2.921   8.899  0.2802 -0.0964 -1.5045
 1342SOL    HW215663   1.535   2.898   8.767 -0.8755  0.8973  0.6989
 1343SOL     OW15664   0.357   0.721  15.200  0.3911 -0.4041 -0.3432
 1343SOL    HW115665   0.353   0.810  15.235 -2.1504  0.4310 -2.8063
 1343SOL    HW215666   0.426   0.745  15.138  0.0942  1.1514 -0.0708
 1344SOL     OW15667   3.145   0.457   8.916 -0.5704  0.4181 -0.4862
 1344SOL    HW115668   3.096   0.376   8.931  0.0313  0.6177  2.6259
 1344SOL    HW215669   3.115   0.513   8.988  0.5862 -1.3367  1.3541
 1345SOL     OW15670   1.100   0.250  16.850 -0.1120  0.0834 -0.2937
 1345SOL    HW115671   1.060   0.169  16.820 -0.1566  0.2527 -0.6873
 1345SOL    HW215672   1.025   0.309  16.857  0.9356  1.4555 -0.7174
 1346SOL     OW15673   3.787   4.109   4.047  0.2983 -0.2403  0.3204
 1346SOL    HW115674   3.738   4.188   4.023  0.6732 -0.3446 -0.7777
 1346SOL    HW215675   3.715   4.050   4.071 -0.8487  0.2895 -1.7981
 1347SOL     OW15676   0.989   2.821   1.670  0.3692  0.0094 -0.0933
 1347SOL    HW115677   0.922   2.754   1.685  1.7213 -0.3975  3.9134
 1347SOL    HW215678   1.062   2.771   1.634 -0.9841 -2.0008 -0.0843
 1348SOL     OW15679   2.188   4.546   8.791 -0.0139 -0.1802  0.4236
 1348SOL    HW115680   2.095   4.567   8.799 -0.5294 -3.0292  1.8965
 1348SOL    HW215681   2.192   4.453   8.772 -1.8709 -0.0572 -0.5630
 1349SOL     OW15682   1.673   0.601   8.041 -0.1817 -0.0768  0.0809
 1349SOL    HW115683   1.768   0.602   8.032 -0.0257 -0.2997  1.8399
 1349SOL    HW215684   1.647   0.520   7.997 -0.4472 -0.5524  1.1120
 1350SOL     OW15685   2.936   0.684   7.820 -0.4220 -0.1121  0.1922
 1350SOL    HW115686   2.901   0.751   7.879 -0.5928 -1.6725  1.8837
 1350SOL    HW215687   2.882   0.695   7.742  1.8552 -0.4587 -1.4108
 1351SOL     OW15688   3.170   1.135   2.063  0.1801 -0.1748 -0.6778
 1351SOL    HW115689   3.155   1.196   1.990 -0.4576 -0.8724 -1.1308
 1351SOL    HW215690   3.243   1.185   2.099 -1.8042  2.1368  0.1807
 1352SOL     OW15691   3.688   0.593   6.099  0.3182  0.6082 -0.1652
 1352SOL    HW115692   3.706   0.532   6.028  1.8226 -0.1806  0.8832
 1352SOL    HW215693   3.630   0.653   6.052  0.0499  1.4470  1.2293
 1353SOL     OW15694   3.783   3.836   8.494  0.2714  0.4460 -0.1707
 1353SOL    HW115695   3.788   3.905   8.561  0.3429 -1.0842  1.3899
 1353SOL    HW215696   3.742   3.877   8.417  1.0863 -1.1540 -1.4389
 1354SOL     OW15697   1.098   2.024   6.464 -0.1294  0.1155  0.4041
 1354SOL    HW115698   1.148   2.055   6.388 -2.7148  1.8129 -0.5924
 1354SOL    HW215699   1.107   1.930   6.448  1.5542  0.4191 -0.4703
 1355SOL     OW15700   2.376   3.660   4.022 -0.4254  0.2584 -0.0739
 1355SOL    HW115701   2.465   3.631   4.041 -0.4368  1.0271  1.1405
 1355SOL    HW215702   2.329   3.632   4.101  0.7878 -1.3870  0.0556
 1356SOL     OW15703   2.126   0.924   5.802  0.0386  0.4920 -0.5582
 1356SOL    HW115704   2.216   0.915   5.833 -0.0113  2.8728  0.2972
 1356SOL    HW215705   2.090   0.959   5.883 -1.9529 -0.7092 -0.9310
 1357SOL     OW15706   0.682   2.362   6.464  0.1783 -0.3865 -0.4502
 1357SOL    HW115707   0.705   2.281   6.510 -0.6922  0.2774  1.1358
 1357SOL    HW215708   0.749   2.357   6.395  2.7284  1.1552  1.9299
 1358SOL     OW15709   1.956   1.175   5.468  0.0485 -0.1663 -0.1514
 1358SOL    HW115710   2.033   1.181   5.411 -0.2779 -0.6790 -0.6468
 1358SOL    HW215711   1.949   1.080   5.465 -2.5670  0.0324 -0.2972
 1359SOL     OW15712   3.325   2.114   6.154 -0.3327  0.8148  0.2360
 1359SOL    HW115713   3.401   2.055   6.159 -2.3023 -1.8090 -0.6440
 1359SOL    HW215714   3.250   2.055   6.147  0.6902 -0.4037 -0.4920
 1360SOL     OW15715   0.704   1.999  15.022 -0.6752  0.3111 -0.3640
 1360SOL    HW115716   0.683   2.033  14.935 -0.4904  0.7292 -0.2449
 1360SOL    HW215717   0.709   2.080  15.073 -3.4222  1.2971 -1.6537
 1361SOL     OW15718   1.299   3.578  16.034 -0.3961 -0.0365  0.0653
 1361SOL    HW115719   1.347   3.501  16.004 -1.2800 -1.3009  1.8836
 1361SOL    HW215720   1.350   3.652  16.002  0.1078 -0.9055 -1.1374
 1362SOL     OW15721   3.814   2.482  16.863  0.4650 -0.3725  0.7323
 1362SOL    HW115722   3.777   2.419  16.801 -2.0966  2.0832 -0.2215
 1362SOL    HW215723   3.832   2.427  16.940 -1.3759 -0.0799  1.3703
 1363SOL     OW15724   0.525   0.448   6.648  0.0324 -0.1081 -0.1398
 1363SOL    HW115725   0.533   0.485   6.560  4.0123  0.9067  0.6385
 1363SOL    HW215726   0.583   0.499   6.705 -0.0068 -0.0755 -0.1296
 1364SOL     OW15727   2.457   0.176   7.231 -0.1050  0.0729  0.2005
 1364SOL    HW115728   2.425   0.100   7.279 -4.0291  0.5706 -1.5936
 1364SOL    HW215729   2.541   0.158   7.189 -0.2974  1.0273 -0.6004
 1365SOL     OW15730   4.276   0.516   7.268 -0.1568 -0.2500  0.1613
 1365SOL    HW115731   4.186   0.488   7.287 -0.2098 -0.5278 -0.5224
 1365SOL    HW215732   4.273   0.522   7.173 -0.9745 -0.5605  0.1681
 1366SOL     OW15733   4.345   3.748   1.824  0.2080 -0.1688 -0.2749
 1366SOL    HW115734   4.252   3.740   1.845  0.3817 -0.0459  0.5413
 1366SOL    HW215735   4.350   3.844   1.824 -1.6640 -0.0700  0.5447
 1367SOL     OW15736   3.928   3.414   7.484  0.5288 -0.5574 -0.5304
 1367SOL    HW115737   3.857   3.440   7.542 -0.4023 -0.1464 -1.8466
 1367SOL    HW215738   3.947   3.328   7.519 -0.9912 -0.9135 -0.5848
 1368SOL     OW15739   4.279   1.041  10.516  0.5748  0.2277 -0.3762
 1368SOL    HW115740   4.303   1.017  10.426  0.2228  0.2400 -0.4770
 1368SOL    HW215741   4.274   0.957  10.561 -2.6464  1.2234  1.1537
 1369SOL     OW15742   0.196   3.545   0.605 -0.4096 -0.3426  0.2120
 1369SOL    HW115743   0.107   3.540   0.569 -0.4122  0.9115  0.0702
 1369SOL    HW215744   0.211   3.634   0.573 -1.3584  0.0748  0.9202
 1370SOL     OW15745   2.674   0.147   8.616  0.7452 -0.4100 -0.5849
 1370SOL    HW115746   2.593   0.185   8.650  0.9163 -1.4174  0.9923
 1370SOL    HW215747   2.637   0.092   8.547  0.0811  0.6304 -1.0589
 1371SOL     OW15748   1.309   3.050   3.759  0.0966  0.0748  0.9073
 1371SOL    HW115749   1.251   2.976   3.774  0.3471 -0.0773  1.1104
 1371SOL    HW215750   1.389   3.022   3.802  0.5595 -1.6273 -1.0432
 1372SOL     OW15751   2.086   4.028  13.534 -0.7119 -0.6734 -0.5980
 1372SOL    HW115752   2.101   3.990  13.620  0.3412 -1.0263 -0.9398
 1372SOL    HW215753   2.164   4.084  13.534 -0.0381 -1.6107 -1.3398
 1373SOL     OW15754   4.179   3.898   6.921 -0.0778  0.7700 -0.6498
 1373SOL    HW115755   4.188   3.884   6.826  0.9629 -1.7181 -0.1860
 1373SOL    HW215756   4.210   3.815   6.957 -2.6531 -0.3431 -0.9627
 1374SOL     OW15757   3.291   0.078  14.345  0.1287  0.1951 -0.0051
 1374SOL    HW115758   3.213   0.119  14.382  0.4503 -1.0085  2.0179
 1374SOL    HW215759   3.242   4.731  14.328  0.2968 -0.2499  1.6501
 1375SOL     OW15760   2.399   1.436   0.440 -0.0479  0.3930  0.0249
 1375SOL    HW115761   2.352   1.360   0.404 -0.4991  0.3657  0.6768
 1375SOL    HW215762   2.398   1.505   0.374 -1.0221 -2.8685 -3.4296
 1376SOL     OW15763   2.752   2.093  11.859 -0.1936  0.2318 -0.0634
 1376SOL    HW115764   2.827   2.057  11.811  0.9851  0.8594  1.3174
 1376SOL    HW215765   2.720   2.155  11.793 -2.7430  0.4552  1.3897
 1377SOL     OW15766   1.106   0.091  12.738 -0.2033 -0.2734 -0.2946
 1377SOL    HW115767   1.068   0.006  12.757  0.3437 -0.5750 -0.5612
 1377SOL    HW215768   1.062   0.153  12.797 -1.5028  0.6954 -2.2877
 1378SOL     OW15769   3.357   2.254   2.617  0.3845  0.0314 -0.3656
 1378SOL    HW115770   3.427   2.233   2.678 -0.3934 -0.3459  0.3910
 1378SOL    HW215771   3.390   2.325   2.561  0.9453  0.8743  1.0440
 1379SOL     OW15772   4.343   3.829   6.711  0.6990 -0.2023  0.7050
 1379SOL    HW115773   4.421   3.837   6.766  1.5636 -0.1343 -0.5290
 1379SOL    HW215774   4.361   3.743   6.673  1.0254  0.6708 -1.0973
 1380SOL     OW15775   0.322   4.182  11.432 -0.9125  0.3068  0.5002
 1380SOL    HW115776   0.408   4.191  11.473 -0.8657 -1.1599  0.7174
 1380SOL    HW215777   0.263   4.208  11.503 -1.5260 -2.8473  1.1547
 1381SOL     OW15778   4.219   4.139  17.376  0.4993 -0.2236  0.4546
 1381SOL    HW115779   4.256   4.058  17.413 -1.4394 -1.8089 -1.0394
 1381SOL    HW215780   4.233   4.126  17.282  1.7427 -2.2799  0.9264
 1382SOL     OW15781   1.199   4.124   7.874  0.5745 -0.2753 -0.2910
 1382SOL    HW115782   1.104   4.113   7.880  0.3005  2.6154  0.6807
 1382SOL    HW215783   1.229   4.054   7.817  1.2215 -1.1345  1.0899
 1383SOL     OW15784   4.262   4.102   9.224  0.3785  0.0634 -0.1115
 1383SOL    HW115785   4.349   4.125   9.192  0.1958  2.0924  0.8287
 1383SOL    HW215786   4.283   4.040   9.293  1.2587 -1.9156 -2.1738
 1384SOL     OW15787   4.255   2.484   7.208 -0.4674 -0.1020 -0.2069
 1384SOL    HW115788   4.179   2.425   7.211 -0.4592  0.0049  1.6771
 1384SOL    HW215789   4.212   2.570   7.203  2.1548  1.1269 -1.4812
 1385SOL     OW15790   1.604   3.190   6.764  0.0311 -0.2381 -0.4062
 1385SOL    HW115791   1.597   3.114   6.821 -0.4625 -0.1229 -0.3155
 1385SOL    HW215792   1.680   3.169   6.710 -0.1477 -1.9391  0.0222
 1386SOL     OW15793   2.313   2.100   3.772 -0.7096 -0.2398 -0.4373
 1386SOL    HW115794   2.291   2.058   3.688  1.4955 -3.0588  0.3772
 1386SOL    HW215795   2.400   2.123   3.739 -0.3703 -2.6704 -1.2604
 1387SOL     OW15796   1.914   4.428   6.257 -0.7024  0.2700  0.0780
 1387SOL    HW115797   1.864   4.385   6.325 -0.1286  2.4907  1.9235
 1387SOL    HW215798   1.996   4.395   6.294  0.9905  3.4702 -0.7835
 1388SOL     OW15799   0.539   2.241   8.803  0.3589  0.5067 -0.2473
 1388SOL    HW115800   0.511   2.327   8.834 -0.6431  0.3140 -0.6435
 1388SOL    HW215801   0.489   2.182   8.859 -1.9196  2.0515 -0.6661
 1389SOL     OW15802   4.484   2.258   2.174 -0.0551 -0.0751  0.3455
 1389SOL    HW115803   4.494   2.301   2.259 -2.3527 -0.1398  0.6555
 1389SOL    HW215804   4.549   2.305   2.122 -0.5631  0.4980  0.2251
 1390SOL     OW15805   3.754   3.273   2.659  0.1987 -0.0185 -0.9898
 1390SOL    HW115806   3.766   3.185   2.624  0.2236 -0.9121  1.2589
 1390SOL    HW215807   3.840   3.306   2.634  0.6319  2.2288  3.3095
 1391SOL     OW15808   1.726   1.588   6.054  0.0378  0.6641 -0.0600
 1391SOL    HW115809   1.636   1.594   6.086 -0.1239 -0.9859 -0.2206
 1391SOL    HW215810   1.732   1.502   6.096 -0.3784  1.0794  0.8469
 1392SOL     OW15811   0.543   1.730  14.487  0.0228  0.3547 -0.0386
 1392SOL    HW115812   0.541   1.754  14.579  1.1174  1.4830 -0.3174
 1392SOL    HW215813   0.468   1.767  14.440 -0.9678 -1.6252 -0.0494
 1393SOL     OW15814   0.396   4.643   5.109  0.6787  0.1157  0.2954
 1393SOL    HW115815   0.486   4.670   5.129  1.5559 -1.8092 -1.1063
 1393SOL    HW215816   0.348   4.702   5.167 -0.8119  0.9073 -1.7530
 1394SOL     OW15817   3.055   4.217  10.132  0.3333  0.0987 -0.6221
 1394SOL    HW115818   3.039   4.131  10.172  1.1376  0.5583  0.6737
 1394SOL    HW215819   2.976   4.225  10.078  0.1751 -0.3360 -0.4539
 1395SOL     OW15820   0.197   1.317   3.392  0.4428 -0.1256 -0.0987
 1395SOL    HW115821   0.284   1.340   3.423  0.0897 -0.9896  1.5801
 1395SOL    HW215822   0.197   1.226   3.421  1.7996 -1.1074 -3.2289
 1396SOL     OW15823   3.068   3.126   8.163  0.2963 -0.6293 -0.5837
 1396SOL    HW115824   3.124   3.049   8.171  0.5891 -0.3491  0.1089
 1396SOL    HW215825   3.143   3.182   8.142 -0.0226 -0.2787 -0.7859
 1397SOL     OW15826   1.261   4.512   6.155 -0.4140  0.1554 -0.1285
 1397SOL    HW115827   1.311   4.594   6.152  1.1239 -0.7626  0.4256
 1397SOL    HW215828   1.197   4.524   6.225 -0.8879  2.4026 -0.9458
 1398SOL     OW15829   3.663   0.186   9.826  0.2284  0.0131 -0.9257
 1398SOL    HW115830   3.737   0.154   9.773  1.7749  1.5521  0.2901
 1398SOL    HW215831   3.605   0.111   9.822  0.8049 -0.5450  1.2489
 1399SOL     OW15832   3.449   2.169   0.297 -0.0668 -0.2566  0.1139
 1399SOL    HW115833   3.503   2.137   0.224 -0.1992  0.9246 -0.5086
 1399SOL    HW215834   3.376   2.107   0.290  0.9916 -1.5073  0.1749
 1400SOL     OW15835   4.567   0.092  10.883  0.0840  1.2710  0.6763
 1400SOL    HW115836   4.600   0.045  10.959 -2.1293 -0.5055  0.5549
 1400SOL    HW215837   4.472   0.082  10.878  0.3274 -0.6214 -0.2325
 1401SOL     OW15838   1.766   0.087   8.495  0.2584  0.2452  0.1907
 1401SOL    HW115839   1.694   0.150   8.487 -2.5287 -2.6830  2.4298
 1401SOL    HW215840   1.723   0.006   8.524 -0.4481  0.1622 -1.0857
 1402SOL     OW15841   2.930   4.440   3.096  0.2243  0.1508  0.2229
 1402SOL    HW115842   2.896   4.383   3.165 -2.6782  1.9357  0.2431
 1402SOL    HW215843   2.862   4.426   3.030  0.7314  0.1387 -0.2998
 1403SOL     OW15844   0.627   2.162  14.103  0.1011 -0.5626 -0.1687
 1403SOL    HW115845   0.653   2.254  14.103 -1.5762 -0.0877  1.2208
 1403SOL    HW215846   0.704   2.126  14.147 -0.1344 -2.9915 -1.7694
 1404SOL     OW15847   0.721   4.658   6.160  0.3173 -0.1954  0.5002
 1404SOL    HW115848   0.707   4.598   6.233 -2.4213 -0.4526 -0.2395
 1404SOL    HW215849   0.776   4.725   6.202 -0.4015  0.7145 -0.0230
 1405SOL     OW15850   4.597   0.125   2.884  0.1661  0.1362  0.1394
 1405SOL    HW115851   4.679   0.173   2.893  1.0498 -1.3665  0.2497
 1405SOL    HW215852   4.614   0.041   2.842 -1.5721  0.0044 -0.3055
 1406SOL     OW15853   4.668   2.842   5.425 -0.3805 -0.0941  0.2431
 1406SOL    HW115854   4.576   2.848   5.400  0.1678  0.0735 -1.7359
 1406SOL    HW215855   4.665   2.888   5.509  0.7086 -2.5411  1.6204
 1407SOL     OW15856   1.852   3.822  16.709 -0.4485 -0.0174  0.3570
 1407SOL    HW115857   1.882   3.731  16.720  0.4468  0.2446  0.1321
 1407SOL    HW215858   1.908   3.851  16.637 -1.0859  1.7213  0.5690
 1408SOL     OW15859   0.779   3.044   5.991 -0.4236  0.5985 -0.7600
 1408SOL    HW115860   0.736   3.126   5.967 -0.4710  1.0970  1.0329
 1408SOL    HW215861   0.709   2.981   5.973  0.0823 -0.5704  1.3542
 1409SOL     OW15862   4.729   4.166   8.093  0.0139  0.1908 -0.3238
 1409SOL    HW115863   4.701   4.133   8.178 -1.5868 -1.3468 -1.4348
 1409SOL    HW215864   0.037   4.084   8.065 -2.4718 -0.3752 -2.3910
 1410SOL     OW15865   0.388   2.345   7.265  0.1174  0.8025 -0.0839
 1410SOL    HW115866   0.456   2.278   7.267 -0.2744  0.3721 -1.1426
 1410SOL    HW215867   0.411   2.387   7.182  0.8957 -1.1291 -0.8510
 1411SOL     OW15868   3.944   3.938   9.353  0.8385 -0.1529 -0.2492
 1411SOL    HW115869   3.934   4.031   9.375 -0.9860 -0.4090 -0.0048
 1411SOL    HW215870   3.996   3.903   9.425  0.7838 -1.1539 -0.6929
 1412SOL     OW15871   2.215   0.068   9.792 -0.5744  0.0791 -0.5824
 1412SOL    HW115872   2.125   0.037   9.786 -1.0560  1.3975 -0.3163
 1412SOL    HW215873   2.256   4.733   9.741 -2.8545 -0.9696 -0.9880
 1413SOL     OW15874   4.419   4.369   8.697  0.4837 -0.4897 -0.2124
 1413SOL    HW115875   4.325   4.383   8.685  0.8305  1.9702 -0.1010
 1413SOL    HW215876   4.435   4.365   8.791  2.3238 -1.3942 -0.5684
 1414SOL     OW15877   0.256   3.968   5.551  0.1684  0.3650 -0.3217
 1414SOL    HW115878   0.254   4.000   5.641 -0.3615 -1.6864  0.4106
 1414SOL    HW215879   0.244   4.045   5.496  0.0277 -1.1076 -2.3546
 1415SOL     OW15880   2.489   3.005   4.550 -0.4085 -0.4333  0.4763
 1415SOL    HW115881   2.402   3.034   4.577 -0.2819 -0.4124  0.8509
 1415SOL    HW215882   2.487   3.024   4.456  0.2163  0.1287  0.5829
 1416SOL     OW15883   0.476   4.597   3.198 -0.1035  0.4167  0.3695
 1416SOL    HW115884   0.503   4.507   3.179  2.5639  1.2900  0.0708
 1416SOL    HW215885   0.485   4.633   3.110 -0.5178  0.1217  0.2067
 1417SOL     OW15886   1.799   2.662  12.486  0.4721 -0.6148  0.0434
 1417SOL    HW115887   1.780   2.625  12.572  0.0016  1.4556  0.8236
 1417SOL    HW215888   1.817   2.584  12.433  0.8430 -0.1911 -0.4593
 1418SOL     OW15889   1.976   0.015  17.378  0.1814 -0.0017 -0.2050
 1418SOL    HW115890   1.987   4.717  17.468  0.3455 -0.5661 -0.4253
 1418SOL    HW215891   2.031   0.092  17.368 -0.2527  0.8318  3.5571
 1419SOL     OW15892   1.967   4.030   7.853 -0.0226 -0.2171 -0.1764
 1419SOL    HW115893   1.925   3.945   7.859  0.0147 -0.1780  0.6481
 1419SOL    HW215894   1.900   4.095   7.874 -0.4632 -0.5231 -0.6548
 1420SOL     OW15895   4.010   4.694  13.378 -0.2951  0.2071  0.5635
 1420SOL    HW115896   4.069   0.009  13.321 -2.5015 -1.4277 -3.1456
 1420SOL    HW215897   3.987   4.614  13.331 -0.1488 -0.8055  2.2206
 1421SOL     OW15898   1.563   0.268   8.470 -0.3437 -0.2003  0.2601
 1421SOL    HW115899   1.541   0.362   8.471  2.2456  0.4179  0.8206
 1421SOL    HW215900   1.479   0.224   8.479  0.1315 -0.8957  1.2394
 1422SOL     OW15901   0.889   2.697  12.848  0.3527  0.3951 -0.1230
 1422SOL    HW115902   0.877   2.769  12.786 -2.4456 -0.1207 -0.1495
 1422SOL    HW215903   0.799   2.681  12.874  0.6238  0.2093  0.7152
 1423SOL     OW15904   3.701   1.989  12.587  0.5985  0.1914  0.1364
 1423SOL    HW115905   3.766   1.919  12.591 -0.1035 -0.4908 -0.5131
 1423SOL    HW215906   3.684   1.980  12.493 -1.5981  1.4006  0.4092
 1424SOL     OW15907   3.733   0.626   9.159  0.4249  0.0995 -0.0466
 1424SOL    HW115908   3.732   0.667   9.073  0.3385 -2.2147 -1.1356
 1424SOL    HW215909   3.656   0.667   9.199 -0.4120 -1.8258  0.3236
 1425SOL     OW15910   3.868   0.800   5.818 -0.5980 -0.5230 -0.3176
 1425SOL    HW115911   3.813   0.871   5.852  0.8196  0.5229 -0.2325
 1425SOL    HW215912   3.957   0.824   5.842 -1.0171 -0.5148  1.2375
 1426SOL     OW15913   4.075   2.685   3.590  0.4588 -0.1181 -0.5524
 1426SOL    HW115914   4.078   2.769   3.637  0.4926 -0.5142  0.1586
 1426SOL    HW215915   4.053   2.722   3.505 -0.0893 -0.2302 -0.4641
 1427SOL     OW15916   0.077   0.322   2.668 -0.2883 -0.3767 -0.2637
 1427SOL    HW115917   0.155   0.289   2.713  1.2665  1.1791 -1.7791
 1427SOL    HW215918   0.092   0.417   2.675  0.8054 -0.3576 -2.8297
 1428SOL     OW15919   4.692   1.044  11.728 -0.1452 -0.3061  0.4672
 1428SOL    HW115920   0.049   1.045  11.757 -0.2610  1.6960  0.7767
 1428SOL    HW215921   4.642   1.014  11.804  1.5221 -0.7785  1.3621
 1429SOL     OW15922   4.135   2.329   5.153  0.4715  0.2455  0.0858
 1429SOL    HW115923   4.057   2.275   5.163  0.0966  0.7179 -0.2506
 1429SOL    HW215924   4.104   2.396   5.092 -1.9862 -1.6202 -0.6981
 1430SOL     OW15925   4.038   4.261   2.256 -0.5006  0.3269  0.0853
 1430SOL    HW115926   4.014   4.185   2.202  0.0017  0.9215 -0.9754
 1430SOL    HW215927   3.970   4.256   2.323  1.2820  1.0960  1.9414
 1431SOL     OW15928   0.767   0.497  12.908  0.1261  0.3327 -0.0712
 1431SOL    HW115929   0.748   0.440  12.982  1.9183  2.1539  1.7959
 1431SOL    HW215930   0.801   0.575  12.953 -0.0098  0.0109  0.5875
 1432SOL     OW15931   3.704   2.831   1.513 -0.2945 -0.3023 -0.3901
 1432SOL    HW115932   3.615   2.797   1.510  1.0636 -3.8003 -1.2238
 1432SOL    HW215933   3.717   2.870   1.427  1.3837 -0.5871 -0.2601
 1433SOL     OW15934   0.156   0.559  11.088  0.3627  0.1602  0.4428
 1433SOL    HW115935   0.163   0.479  11.139 -0.4724  2.5355  4.2127
 1433SOL    HW215936   0.224   0.540  11.022 -2.0398 -3.9759 -0.8078
 1434SOL     OW15937   1.725   3.553   7.894 -0.7875  0.5479  0.0896
 1434SOL    HW115938   1.724   3.468   7.850  1.8992 -0.8624  2.7525
 1434SOL    HW215939   1.638   3.583   7.868 -1.0738  0.0118  0.4354
 1435SOL     OW15940   0.536   1.404   7.255 -0.1989  0.1208  0.0398
 1435SOL    HW115941   0.620   1.443   7.229 -0.5114  0.9035  0.2254
 1435SOL    HW215942   0.491   1.473   7.302  1.1957  0.6191  0.6446
 1436SOL     OW15943   4.305   1.882   7.786 -0.4638 -0.1195 -0.0421
 1436SOL    HW115944   4.318   1.843   7.872 -0.8372  0.2065  0.1613
 1436SOL    HW215945   4.262   1.963   7.813 -0.4207  0.6523 -2.2798
 1437SOL     OW15946   3.432   0.436  17.669 -0.7562 -0.3960 -1.0031
 1437SOL    HW115947   3.456   0.423   0.026  1.4129  1.7787 -1.2959
 1437SOL    HW215948   3.428   0.345  17.638 -0.1422 -0.4861 -0.8093
 1438SOL     OW15949   1.608   0.562  12.902 -0.1327  0.0691 -0.0718
 1438SOL    HW115950   1.602   0.639  12.959 -1.4545  0.1277 -0.3108
 1438SOL    HW215951   1.700   0.582  12.882  0.1559 -0.7722  0.4098
 1439SOL     OW15952   2.226   3.437   4.889 -0.4293 -0.4125 -0.1833
 1439SOL    HW115953   2.243   3.450   4.795  0.0707  2.3672  0.2851
 1439SOL    HW215954   2.167   3.361   4.895 -2.4353  1.2249  0.9245
 1440SOL     OW15955   1.328   0.977   5.688  0.1116  0.2170 -0.2267
 1440SOL    HW115956   1.417   0.943   5.685  0.2051  0.6925 -2.1944
 1440SOL    HW215957   1.293   0.932   5.766  1.4167 -0.7851 -0.2190
 1441SOL     OW15958   0.757   1.209   5.538  0.1156  0.4610 -0.0722
 1441SOL    HW115959   0.780   1.175   5.452 -0.0318  0.0793  0.0405
 1441SOL    HW215960   0.743   1.303   5.529  0.4917  0.7073  1.8127
 1442SOL     OW15961   0.332   1.147  17.410 -0.5573 -0.3658  0.1947
 1442SOL    HW115962   0.284   1.068  17.386  0.3718 -1.8538  3.1861
 1442SOL    HW215963   0.353   1.136  17.503  0.0527  1.2559  0.2499
 1443SOL     OW15964   0.405   3.111   2.308  0.2786  0.0366  0.0524
 1443SOL    HW115965   0.426   3.066   2.390  1.0603  1.2562  0.5234
 1443SOL    HW215966   0.353   3.048   2.258  3.3373 -2.1185 -0.4462
 1444SOL     OW15967   4.648   1.720   7.227 -0.2526 -0.3210 -0.1084
 1444SOL    HW115968   4.713   1.786   7.205 -0.3619 -0.9836 -2.4263
 1444SOL    HW215969   4.577   1.737   7.166  0.6632  1.7375 -0.5813
 1445SOL     OW15970   1.238   2.886   8.091  0.5311 -0.4777 -0.2917
 1445SOL    HW115971   1.224   2.792   8.080  1.3650 -0.4081 -1.8723
 1445SOL    HW215972   1.332   2.887   8.074  0.9946 -1.8526  2.0938
 1446SOL     OW15973   0.321   3.192  16.228  0.5742 -0.0987  0.1806
 1446SOL    HW115974   0.297   3.125  16.165 -0.7761  1.1114 -0.6039
 1446SOL    HW215975   0.261   3.264  16.206 -0.2574  0.0515  2.9132
 1447SOL     OW15976   2.594   2.085   2.494 -0.5251 -0.4564 -0.1106
 1447SOL    HW115977   2.654   2.058   2.424 -1.1945  0.6125 -1.0813
 1447SOL    HW215978   2.635   2.042   2.569 -0.4923  0.3480  0.3224
 1448SOL     OW15979   1.978   0.660  13.041 -0.1167  0.2120  0.3595
 1448SOL    HW115980   1.907   0.605  13.075  0.2558 -1.2043 -1.1780
 1448SOL    HW215981   1.948   0.684  12.954 -1.1109  1.3426  0.9994
 1449SOL     OW15982   1.411   3.708   5.935 -0.1925  0.5915  0.6099
 1449SOL    HW115983   1.461   3.627   5.929 -2.1139 -0.5895  0.4124
 1449SOL    HW215984   1.381   3.710   5.844 -1.6965 -0.5015  1.0816
 1450SOL     OW15985   3.420   0.329   7.892  0.3703  0.2856 -0.0521
 1450SOL    HW115986   3.416   0.387   7.968 -0.0085  0.0283  0.1216
 1450SOL    HW215987   3.511   0.299   7.899  0.2423 -0.1457 -0.2886
 1451SOL     OW15988   0.363   1.127   0.909  0.5313 -0.3478 -0.2097
 1451SOL    HW115989   0.399   1.110   0.996  1.2475  2.1327 -0.0034
 1451SOL    HW215990   0.361   1.043   0.865 -0.5133 -0.7248  0.5586
 1452SOL     OW15991   4.142   0.956   4.272  0.1135  0.3412  0.0825
 1452SOL    HW115992   4.114   0.912   4.192  0.7128 -0.5157  0.3422
 1452SOL    HW215993   4.129   0.886   4.336 -1.2184  0.8236  0.3295
 1453SOL     OW15994   3.474   0.327   2.717  0.0194 -0.1887 -0.0172
 1453SOL    HW115995   3.517   0.376   2.787 -0.3778 -0.1170  0.1766
 1453SOL    HW215996   3.478   0.240   2.756  2.9663  0.3172  0.7942
 1454SOL     OW15997   4.237   3.703   8.191 -0.1946  0.5263  0.4480
 1454SOL    HW115998   4.255   3.790   8.227 -0.9634  0.4087  1.1069
 1454SOL    HW215999   4.142   3.702   8.187 -0.2448  4.3803  0.7211
 1455SOL     OW16000   1.080   4.601  15.024 -0.0993 -0.1584 -0.1152
 1455SOL    HW116001   1.068   4.574  14.933 -1.8150 -1.1766  0.4188
 1455SOL    HW216002   1.130   4.683  15.015  0.2652 -0.3452  0.2381
 1456SOL     OW16003   0.605   3.257   2.171  0.0192 -0.5756  0.4152
 1456SOL    HW116004   0.556   3.184   2.210 -0.6447 -0.3344  0.0246
 1456SOL    HW216005   0.648   3.291   2.249 -0.9641  1.6427 -0.0307
 1457SOL     OW16006   2.469   1.191   8.749  0.4999  0.5220  0.1128
 1457SOL    HW116007   2.534   1.125   8.727 -2.8557 -1.7602 -2.9037
 1457SOL    HW216008   2.507   1.245   8.819  0.0350  2.5097 -1.1487
 1458SOL     OW16009   0.840   2.049   9.595  0.1244 -0.0997  0.4959
 1458SOL    HW116010   0.776   2.022   9.530 -1.7180  2.2952  1.3335
 1458SOL    HW216011   0.815   2.003   9.675 -1.7910 -0.0347 -0.0707
 1459SOL     OW16012   3.131   4.479   3.274 -0.4222 -0.3328  0.3501
 1459SOL    HW116013   3.219   4.512   3.255 -0.2635 -1.8577 -1.5359
 1459SOL    HW216014   3.085   4.480   3.189 -0.3328 -0.9007  0.2984
 1460SOL     OW16015   3.739   1.684   9.300  0.6241 -0.3608 -0.3843
 1460SOL    HW116016   3.793   1.660   9.375  0.6390 -1.5245 -0.7647
 1460SOL    HW216017   3.790   1.763   9.284  0.1470  0.4673  2.1712
 1461SOL     OW16018   2.259   2.632   3.250  0.0618  0.2663 -0.2276
 1461SOL    HW116019   2.259   2.720   3.212  1.0245  1.3483  2.2748
 1461SOL    HW216020   2.343   2.598   3.219  0.3269 -0.1554  0.9422
 1462SOL     OW16021   2.553   1.859   3.216 -0.0272 -0.3096 -0.2679
 1462SOL    HW116022   2.492   1.932   3.210 -0.3199 -0.3763  1.6523
 1462SOL    HW216023   2.513   1.793   3.160 -1.2963  1.8220 -1.9037
 1463SOL     OW16024   1.711   0.152   6.127  0.2748 -0.0202  1.1326
 1463SOL    HW116025   1.708   0.127   6.219 -0.3663 -1.5635  0.7085
 1463SOL    HW216026   1.712   0.060   6.099  0.4462  0.0402  0.9403
 1464SOL     OW16027   2.522   0.559  12.563 -0.4158 -0.2459 -0.4977
 1464SOL    HW116028   2.503   0.653  12.569  0.1104 -0.3443  2.9430
 1464SOL    HW216029   2.433   0.528  12.549 -1.0025  0.6989  1.1344
 1465SOL     OW16030   2.452   1.211   3.632 -0.3394  0.3305  0.0119
 1465SOL    HW116031   2.526   1.268   3.650  0.3697 -0.6603  0.2447
 1465SOL    HW216032   2.484   1.128   3.668 -0.6052 -0.0443 -0.6106
 1466SOL     OW16033   2.305   2.717  15.005  0.0787  0.3194  0.2782
 1466SOL    HW116034   2.380   2.715  14.944 -0.3660  0.0100 -0.2561
 1466SOL    HW216035   2.337   2.740  15.092 -0.7098 -0.5313  0.7935
 1467SOL     OW16036   1.049   3.347   7.527  0.4188  0.4354 -0.2064
 1467SOL    HW116037   1.082   3.416   7.585  1.2861 -1.3987  1.4953
 1467SOL    HW216038   0.985   3.307   7.585  0.9705  0.9460  0.7599
 1468SOL     OW16039   1.973   2.237   8.544 -0.4437  0.6751  0.4410
 1468SOL    HW116040   2.037   2.305   8.563  0.6578 -0.6241  1.4376
 1468SOL    HW216041   1.950   2.247   8.452  0.9510  0.1633  0.0268
 1469SOL     OW16042   0.055   1.529   2.630 -0.4921  0.2158  0.5399
 1469SOL    HW116043   0.118   1.570   2.689 -1.5776 -0.7490  2.3871
 1469SOL    HW216044   0.118   1.485   2.573  0.2111  1.7322  0.1422
 1470SOL     OW16045   0.817   1.155   5.998 -0.3576 -0.3864 -0.0855
 1470SOL    HW116046   0.778   1.152   5.911 -0.8673 -3.5744  0.2314
 1470SOL    HW216047   0.789   1.240   6.032  2.2870  0.4214  0.0579
 1471SOL     OW16048   3.331   4.140  10.235 -0.0603  0.1573  0.1684
 1471SOL    HW116049   3.341   4.049  10.208  0.2843  0.2855 -0.1273
 1471SOL    HW216050   3.236   4.152  10.239  0.1883  1.7415  1.2141
 1472SOL     OW16051   3.649   1.530  10.206  0.1758 -0.1702  0.0369
 1472SOL    HW116052   3.578   1.586  10.173  0.3875  0.1879  0.1870
 1472SOL    HW216053   3.690   1.588  10.270 -0.7569  0.2746  0.2309
 1473SOL     OW16054   0.889   1.759  13.323 -0.0486  0.0405 -0.4852
 1473SOL    HW116055   0.808   1.737  13.277 -0.4544 -0.6689  0.5739
 1473SOL    HW216056   0.874   1.744  13.416  0.3851 -1.8908 -0.7289
 1474SOL     OW16057   1.230   2.750   6.700 -0.1530 -0.5020  0.4773
 1474SOL    HW116058   1.161   2.690   6.673  1.2300 -2.8589  2.2032
 1474SOL    HW216059   1.237   2.801   6.619  0.0356  0.9166  1.3931
 1475SOL     OW16060   3.361   2.287   4.914  0.4929  0.2919 -0.7454
 1475SOL    HW116061   3.426   2.356   4.902  0.1346  0.9377  1.0470
 1475SOL    HW216062   3.319   2.298   4.829  1.3310 -0.1558 -1.2221
 1476SOL     OW16063   2.859   1.364   2.679  0.2332  0.0535 -0.4164
 1476SOL    HW116064   2.775   1.336   2.643 -0.1940 -0.8091  1.2171
 1476SOL    HW216065   2.919   1.372   2.605  1.4033  0.5702  0.5813
 1477SOL     OW16066   4.650   3.645   4.636  0.1081  0.3157  0.1832
 1477SOL    HW116067   4.625   3.737   4.647  1.1361  0.5190  0.7789
 1477SOL    HW216068   4.577   3.599   4.676 -1.4739  0.6501 -2.2946
 1478SOL     OW16069   1.579   1.737  11.777 -0.2383 -0.1224  0.7126
 1478SOL    HW116070   1.567   1.649  11.741  0.0561  0.7382 -1.4879
 1478SOL    HW216071   1.543   1.734  11.866 -1.7879  0.1560  0.0846
 1479SOL     OW16072   3.637   4.242   2.678  0.2584  0.9313  0.0037
 1479SOL    HW116073   3.599   4.209   2.759  0.0363 -0.0631 -0.5001
 1479SOL    HW216074   3.596   4.179   2.618  1.9102  1.1897 -1.4254
 1480SOL     OW16075   3.139   1.209   7.755 -0.1988 -0.4358 -0.0392
 1480SOL    HW116076   3.160   1.176   7.842 -1.0568 -0.5300  0.1270
 1480SOL    HW216077   3.218   1.187   7.706  0.3813 -0.9132  1.1108
 1481SOL     OW16078   0.520   0.056   7.417  0.1135 -0.1634  0.0466
 1481SOL    HW116079   0.599   0.103   7.391 -1.0567  0.7461 -1.8970
 1481SOL    HW216080   0.475   0.128   7.461 -2.5112 -1.2512 -0.8201
 1482SOL     OW16081   0.914   2.253   5.865  0.2699 -0.0361  0.1049
 1482SOL    HW116082   0.882   2.241   5.954  2.4215  1.8896  1.1398
 1482SOL    HW216083   0.963   2.171   5.855  1.5646  0.5452  1.5696
 1483SOL     OW16084   0.689   4.200   8.359 -0.9216  0.0850 -0.1180
 1483SOL    HW116085   0.632   4.249   8.417 -0.9221 -1.3086  1.0427
 1483SOL    HW216086   0.728   4.278   8.319  1.7628 -2.5585 -2.6539
 1484SOL     OW16087   3.163   4.187  14.932 -0.5585  0.0937 -0.2169
 1484SOL    HW116088   3.166   4.282  14.929  0.9838  0.0147 -1.1638
 1484SOL    HW216089   3.116   4.165  14.851 -1.7897 -0.2146  0.5792
 1485SOL     OW16090   4.505   1.848  11.910  0.0930 -0.0465  0.1674
 1485SOL    HW116091   4.489   1.830  12.002  3.0651  1.5123  0.9801
 1485SOL    HW216092   4.422   1.810  11.882  0.3936 -0.3151 -0.3521
 1486SOL     OW16093   4.495   1.884   7.436 -0.0456 -0.1522 -0.2151
 1486SOL    HW116094   4.570   1.901   7.379 -0.1903  0.6597 -0.1577
 1486SOL    HW216095   4.488   1.790   7.417 -2.1578 -0.0919  0.2623
 1487SOL     OW16096   4.578   4.371   7.130 -0.1820  0.1586  0.2381
 1487SOL    HW116097   4.599   4.414   7.047  1.1713  0.5933  0.8071
 1487SOL    HW216098   4.493   4.330   7.110  1.9414 -4.2978  0.3799
 1488SOL     OW16099   4.592   0.293   8.365  0.5808 -0.2012  0.6209
 1488SOL    HW116100   4.505   0.292   8.326  0.0497 -0.1187  1.8294
 1488SOL    HW216101   4.573   0.254   8.450 -0.6055  2.1298  1.4375
 1489SOL     OW16102   3.409   0.548   0.607  0.1333  0.2542 -0.5820
 1489SOL    HW116103   3.432   0.625   0.556  2.3557 -0.1937 -0.2636
 1489SOL    HW216104   3.490   0.522   0.651  0.5463 -0.0784 -1.5531
 1490SOL     OW16105   4.192   0.970  11.428  0.7077  0.4681  0.2876
 1490SOL    HW116106   4.203   0.913  11.504 -0.1621 -2.1065 -1.5497
 1490SOL    HW216107   4.112   1.018  11.451 -0.1893 -1.9927  2.2660
 1491SOL     OW16108   3.032   3.114  16.554 -0.1924  0.3435 -0.4831
 1491SOL    HW116109   3.115   3.140  16.594  1.0022 -3.0005 -0.8183
 1491SOL    HW216110   2.974   3.158  16.616  1.0663  1.2322  0.0647
 1492SOL     OW16111   0.165   3.460   3.641  0.1778  0.0150 -0.0529
 1492SOL    HW116112   0.135   3.392   3.701 -0.4230 -0.1128 -0.4971
 1492SOL    HW216113   0.198   3.527   3.701  0.6604 -0.6098  0.3821
 1493SOL     OW16114   3.421   2.470   8.476 -0.1230 -0.1574 -0.3164
 1493SOL    HW116115   3.460   2.388   8.505  0.5004  0.0302 -0.6221
 1493SOL    HW216116   3.344   2.458   8.531  0.7831 -1.6989  0.6184
 1494SOL     OW16117   3.054   4.137   4.308 -0.3567 -0.3047  0.1521
 1494SOL    HW116118   3.049   4.065   4.371  0.0950  0.0899  0.6409
 1494SOL    HW216119   3.120   4.190   4.352 -1.5440  1.4766 -0.2148
 1495SOL     OW16120   2.549   1.691   3.459 -0.2768  0.3659 -0.1342
 1495SOL    HW116121   2.620   1.641   3.419 -0.1396  0.6420 -0.2320
 1495SOL    HW216122   2.543   1.766   3.400  0.3105  0.6329  0.1532
 1496SOL     OW16123   3.140   1.691  12.926 -0.2364  0.3532  0.0727
 1496SOL    HW116124   3.233   1.670  12.916 -0.9278 -3.1675  1.0616
 1496SOL    HW216125   3.121   1.782  12.904  0.1249 -0.3440 -3.0455
 1497SOL     OW16126   0.733   2.806   2.243  0.4760 -0.4145 -0.2305
 1497SOL    HW116127   0.822   2.796   2.275  0.7054  1.5378 -0.2470
 1497SOL    HW216128   0.696   2.850   2.320  2.8901  1.7281 -0.3046
 1498SOL     OW16129   3.698   3.541   6.533  0.3124  0.1258 -0.1386
 1498SOL    HW116130   3.767   3.608   6.533  0.5683 -0.1120  3.0753
 1498SOL    HW216131   3.725   3.485   6.460 -1.7798 -1.1266  0.0704
 1499SOL     OW16132   3.506   1.538   1.921 -0.4290  0.8230 -0.7008
 1499SOL    HW116133   3.601   1.547   1.914 -0.1819 -1.2274  0.0080
 1499SOL    HW216134   3.489   1.541   2.015 -0.6793  0.7938 -0.7440
 1500SOL     OW16135   0.579   0.304  11.051 -0.8178  0.2105  0.3039
 1500SOL    HW116136   0.529   0.385  11.043 -0.6452  0.2664 -0.1633
 1500SOL    HW216137   0.587   0.272  10.962  0.5003 -0.7390  0.7624
 1501SOL     OW16138   2.129   2.345   3.661  0.0150  0.2065  0.2877
 1501SOL    HW116139   2.171   2.357   3.575  2.0640 -0.0268  1.2616
 1501SOL    HW216140   2.173   2.269   3.698 -1.1252 -1.6027 -2.0375
 1502SOL     OW16141   3.209   0.187   5.623  0.7149 -0.1647 -0.1133
 1502SOL    HW116142   3.258   0.145   5.694 -1.7730  1.2171  2.3804
 1502SOL    HW216143   3.268   0.262   5.614  1.1606 -0.9691 -3.7287
 1503SOL     OW16144   2.800   2.982   7.558 -0.1367  0.3682 -0.4053
 1503SOL    HW116145   2.861   3.053   7.578 -1.2951  0.3112  3.3668
 1503SOL    HW216146   2.713   3.016   7.538 -1.7832 -3.9995 -0.5418
 1504SOL     OW16147   0.142   0.741   4.447 -0.5453 -0.1183  0.9469
 1504SOL    HW116148   0.079   0.808   4.421  0.0821  0.9293  2.1468
 1504SOL    HW216149   0.152   0.747   4.541 -2.0624  0.8427  1.0520
 1505SOL     OW16150   0.574   3.019   6.345 -0.0110  0.2406  0.5820
 1505SOL    HW116151   0.636   3.082   6.380 -0.7929 -0.2239  2.7868
 1505SOL    HW216152   0.531   3.070   6.276  0.8265 -0.4352 -0.4456
 1506SOL     OW16153   1.073   4.041  11.250 -0.1025  0.1701  0.1330
 1506SOL    HW116154   1.007   3.980  11.218  1.3519 -1.8042  0.9391
 1506SOL    HW216155   1.029   4.086  11.322  1.0702 -1.6741  1.9808
 1507SOL     OW16156   3.875   3.614  15.271 -0.8277  0.4629 -0.7651
 1507SOL    HW116157   3.910   3.589  15.185  1.0891 -0.1645  0.1906
 1507SOL    HW216158   3.781   3.622  15.256 -0.5922  0.5880 -2.1871
 1508SOL     OW16159   2.673   2.305   4.433  0.1241 -0.4536 -0.2588
 1508SOL    HW116160   2.723   2.311   4.352  1.1891 -1.6432  0.3260
 1508SOL    HW216161   2.587   2.288   4.393 -0.0986 -0.0687  0.0609
 1509SOL     OW16162   2.589   1.333   4.522  0.7524  0.0592  0.4235
 1509SOL    HW116163   2.578   1.396   4.451  0.8028 -0.1241  0.2520
 1509SOL    HW216164   2.506   1.286   4.526 -0.0810  1.4124 -1.0489
 1510SOL     OW16165   3.158   4.550   4.855 -0.4067 -0.4049 -0.0153
 1510SOL    HW116166   3.212   4.618   4.815 -0.9340 -0.2335 -0.4279
 1510SOL    HW216167   3.124   4.588   4.936 -1.0099 -1.2019  0.0988
 1511SOL     OW16168   1.830   4.258   9.719  0.5339  0.4552  0.3752
 1511SOL    HW116169   1.869   4.241   9.633 -1.2589  0.2563 -0.4121
 1511SOL    HW216170   1.828   4.169   9.754  0.0826 -0.0379 -0.8855
 1512SOL     OW16171   3.559   1.655   3.216  0.2342  0.0952  0.2400
 1512SOL    HW116172   3.521   1.575   3.253 -0.0823 -0.0389 -0.3871
 1512SOL    HW216173   3.529   1.722   3.277  2.0508 -0.0846  1.3514
 1513SOL     OW16174   3.111   1.046   3.904 -0.4499 -0.0431  0.1915
 1513SOL    HW116175   3.054   1.010   3.971  1.1633  2.1440  2.7381
 1513SOL    HW216176   3.197   1.034   3.945 -0.7486 -0.9975  0.5405
 1514SOL     OW16177   1.904   4.453  11.946 -0.2435  0.2490 -0.1853
 1514SOL    HW116178   1.851   4.376  11.925 -1.9414  1.5332 -0.5685
 1514SOL    HW216179   1.996   4.426  11.942 -0.2321  0.0889  1.0550
 1515SOL     OW16180   4.015   1.235  11.295 -0.6980  0.1049  0.2126
 1515SOL    HW116181   4.006   1.175  11.369  1.8213 -0.8262 -0.2125
 1515SOL    HW216182   4.086   1.288  11.330 -0.4852  1.6199 -2.5150
 1516SOL     OW16183   3.788   4.648   3.793 -0.1642 -0.1619 -0.0897
 1516SOL    HW116184   3.775   4.681   3.704 -0.3921  1.5512  0.5680
 1516SOL    HW216185   3.717   4.693   3.839 -0.5703 -0.5395 -0.3422
 1517SOL     OW16186   1.098   2.341   8.619 -0.0986  0.3496 -0.3075
 1517SOL    HW116187   1.115   2.434   8.602 -0.6187  0.6850  1.0002
 1517SOL    HW216188   1.033   2.328   8.549  0.1981  1.0093 -0.7111
 1518SOL     OW16189   3.432   4.703  11.294 -0.4468  0.2479 -0.8539
 1518SOL    HW116190   3.438   4.669  11.383 -1.4840  1.8033 -0.1773
 1518SOL    HW216191   3.519   0.007  11.280  0.6715 -1.8835  0.4076
 1519SOL     OW16192   1.697   1.830   4.619  0.0115  0.2299  0.7129
 1519SOL    HW116193   1.752   1.798   4.547 -1.6927 -1.4313  0.1361
 1519SOL    HW216194   1.670   1.915   4.584  0.2323 -0.0199 -0.0813
 1520SOL     OW16195   1.711   4.116   4.904  0.0287  0.4025  1.0706
 1520SOL    HW116196   1.698   4.035   4.855 -0.1847  2.1275 -1.7165
 1520SOL    HW216197   1.635   4.117   4.962 -1.2289 -0.5615 -0.5541
 1521SOL     OW16198   3.708   1.261   6.772  0.2142  0.3133 -0.0467
 1521SOL    HW116199   3.648   1.187   6.785  0.9116 -0.6448 -2.3446
 1521SOL    HW216200   3.652   1.337   6.767  0.4808  0.3838 -1.7948
 1522SOL     OW16201   1.396   4.163   3.048 -0.1498  0.3476 -0.5849
 1522SOL    HW116202   1.342   4.196   2.975 -1.5664  0.6963  0.6225
 1522SOL    HW216203   1.390   4.237   3.109  1.7676 -0.1275  0.1796
 1523SOL     OW16204   0.635   4.283   3.471  0.1206  0.7618  0.3969
 1523SOL    HW116205   0.588   4.247   3.547  2.8276  0.5858  1.9699
 1523SOL    HW216206   0.705   4.220   3.459  1.1945  1.7520  1.4700
 1524SOL     OW16207   2.956   0.155   8.473  0.0075 -0.2577  0.1921
 1524SOL    HW116208   2.862   0.160   8.491  0.1337 -0.8685  1.0170
 1524SOL    HW216209   2.972   0.192   8.560  0.9503  0.5239 -0.3102
 1525SOL     OW16210   3.010   3.348  11.567 -0.0381 -0.4823  0.1853
 1525SOL    HW116211   2.992   3.265  11.610  0.9101  0.3479  2.2032
 1525SOL    HW216212   3.032   3.407  11.639 -0.5286  0.5129 -0.4779
 1526SOL     OW16213   0.788   0.674   9.152  0.5459 -0.5855 -0.1302
 1526SOL    HW116214   0.741   0.690   9.069  1.5147 -2.1435 -0.9733
 1526SOL    HW216215   0.789   0.765   9.183  0.2354 -1.5134  2.5361
 1527SOL     OW16216   4.327   0.008   5.178 -0.1752  0.3622 -0.0395
 1527SOL    HW116217   4.413   0.036   5.149  0.1764 -0.7754 -0.0954
 1527SOL    HW216218   4.338   4.650   5.203  2.1703 -0.0391 -2.5633
 1528SOL     OW16219   0.441   4.701   6.074  0.0222 -0.1395  0.0775
 1528SOL    HW116220   0.520   4.649   6.082  0.7317  0.9259  0.0321
 1528SOL    HW216221   0.441   0.004   6.162 -1.0605  0.1721 -0.0426
 1529SOL     OW16222   1.854   2.033   5.032  0.0421  0.1340 -0.0385
 1529SOL    HW116223   1.913   1.958   5.025 -1.2236 -0.5647 -3.6845
 1529SOL    HW216224   1.857   2.062   4.940  0.1940 -0.1477 -0.1245
 1530SOL     OW16225   0.974   1.059   2.535 -0.0022 -0.0067 -0.8855
 1530SOL    HW116226   0.905   1.005   2.574  1.6241  0.6154  2.8837
 1530SOL    HW216227   1.013   1.110   2.607  1.1027  0.9806 -2.1911
 1531SOL     OW16228   3.192   0.053   7.454  0.3827 -0.9447 -0.3484
 1531SOL    HW116229   3.228   4.698   7.451 -0.0517 -1.0956 -1.1318
 1531SOL    HW216230   3.135   0.052   7.377  2.4015  3.1336 -1.8890
 1532SOL     OW16231   1.984   3.170   8.516  0.3216  0.6935 -0.1489
 1532SOL    HW116232   1.983   3.231   8.443  0.6133  0.0498 -0.6873
 1532SOL    HW216233   1.919   3.213   8.572  0.7061  3.3718 -1.7636
 1533SOL     OW16234   4.606   2.025   2.085 -0.1636  0.3361  0.4064
 1533SOL    HW116235   4.562   2.104   2.117 -2.5785 -0.2158 -1.4539
 1533SOL    HW216236   4.698   2.044   2.104 -0.9272  2.7030  1.7891
 1534SOL     OW16237   1.315   0.979   4.711 -0.5211 -0.0007 -0.2092
 1534SOL    HW116238   1.304   1.006   4.802  1.9715 -0.8791  0.3448
 1534SOL    HW216239   1.403   0.941   4.716 -0.9048 -0.9406 -0.6548
 1535SOL     OW16240   3.858   0.758   2.971 -0.0084  0.4077 -0.5407
 1535SOL    HW116241   3.910   0.678   2.978 -0.2218  0.4338  1.6032
 1535SOL    HW216242   3.789   0.745   3.037  1.8439 -2.3975  0.8587
 1536SOL     OW16243   3.829   0.083  15.346  0.5911  0.5151  0.0155
 1536SOL    HW116244   3.908   0.047  15.388 -1.3018 -2.8346  0.7009
 1536SOL    HW216245   3.872   0.098  15.262 -0.6569  1.0315 -0.5297
 1537SOL     OW16246   4.649   4.500   7.362 -0.2344  0.0720  0.5296
 1537SOL    HW116247   4.616   4.433   7.302  2.2908 -0.8511  0.1643
 1537SOL    HW216248   4.659   4.441   7.436 -2.8392 -2.1084 -0.8795
 1538SOL     OW16249   0.940   3.497   8.000  0.8523  0.3965  0.5123
 1538SOL    HW116250   0.849   3.503   8.027  0.7640  1.4224  0.0009
 1538SOL    HW216251   0.961   3.575   7.947 -2.9122  1.6487  0.9146
 1539SOL     OW16252   2.392   0.676  12.015  0.2648 -0.4256  0.0744
 1539SOL    HW116253   2.314   0.631  11.982  0.4708 -1.8711  1.6169
 1539SOL    HW216254   2.453   0.661  11.943  0.4721 -0.2394  0.2119
 1540SOL     OW16255   0.195   1.370  16.362  0.5427 -0.3808  0.2900
 1540SOL    HW116256   0.157   1.363  16.274 -2.7114  0.1698  1.6366
 1540SOL    HW216257   0.279   1.332  16.338  0.6713 -0.4062  0.7881
 1541SOL     OW16258   2.496   0.215   2.142  0.0562 -0.2523 -0.0279
 1541SOL    HW116259   2.465   0.160   2.071  1.4362 -0.7340 -0.2634
 1541SOL    HW216260   2.558   0.163   2.194 -0.8903 -0.2651  1.0850
 1542SOL     OW16261   1.206   3.502   6.060 -0.3981  0.0239 -0.0661
 1542SOL    HW116262   1.220   3.567   6.129 -1.9223  0.6619 -0.3587
 1542SOL    HW216263   1.250   3.426   6.099  0.7888  0.6951 -0.0861
 1543SOL     OW16264   0.258   0.003  16.897 -0.0564  0.4770 -0.2161
 1543SOL    HW116265   0.279   0.096  16.910 -0.3790  0.6377 -0.8211
 1543SOL    HW216266   0.166   4.733  16.923 -0.5299  0.7276 -1.8108
 1544SOL     OW16267   4.549   0.207  10.186  0.2031  0.2704  0.1741
 1544SOL    HW116268   4.562   0.300  10.167  1.4641 -0.6420 -3.4003
 1544SOL    HW216269   4.632   0.174  10.151  0.9966 -1.1407  3.4175
 1545SOL     OW16270   0.547   3.255   8.962  0.2441  0.1922  0.1226
 1545SOL    HW116271   0.485   3.182   8.965 -0.6260  0.9374  0.3246
 1545SOL    HW216272   0.549   3.279   8.870  0.3182  0.2485  0.1384
 1546SOL     OW16273   4.594   0.918   6.484  0.3274  0.4841  0.3907
 1546SOL    HW116274   4.522   0.928   6.423  0.1293  0.5171  0.6283
 1546SOL    HW216275   4.622   0.834   6.450 -1.2591  0.6531 -1.3065
 1547SOL     OW16276   3.980   2.816   1.565  0.8349 -0.1286 -0.0871
 1547SOL    HW116277   3.983   2.791   1.657  0.5961  3.9620  1.0399
 1547SOL    HW216278   3.886   2.811   1.549  0.8142 -0.9383  0.2872
 1548SOL     OW16279   2.766   3.729   4.639 -0.5517  0.1049  0.2327
 1548SOL    HW116280   2.724   3.774   4.712  0.2328 -0.1860  0.8730
 1548SOL    HW216281   2.691   3.684   4.601 -0.8227  1.3001 -0.6123
 1549SOL     OW16282   4.049   4.472   4.889  0.5493  0.0089  0.0219
 1549SOL    HW116283   4.121   4.491   4.829 -0.4906 -2.3478 -1.9322
 1549SOL    HW216284   3.974   4.524   4.861 -0.1053 -2.3701 -2.5897
 1550SOL     OW16285   4.461   0.275   1.530 -0.1125 -0.4832  0.5445
 1550SOL    HW116286   4.520   0.247   1.600 -1.4999  0.5909  2.1401
 1550SOL    HW216287   4.412   0.335   1.587  0.9146  1.1344 -0.2747
 1551SOL     OW16288   1.075   3.936   3.086 -0.1493  0.0946  0.3881
 1551SOL    HW116289   1.110   3.877   3.019 -0.2358 -1.3391  1.5974
 1551SOL    HW216290   1.092   4.021   3.046  0.0465 -1.4430 -2.7682
 1552SOL     OW16291   3.849   4.633   2.230  0.5633  0.0818  0.2382
 1552SOL    HW116292   3.883   4.585   2.306 -0.7257 -0.0921  0.7228
 1552SOL    HW216293   3.923   4.616   2.172  1.8342  0.5015  1.7301
 1553SOL     OW16294   4.590   0.233   4.847 -0.7952  0.3012  0.3283
 1553SOL    HW116295   4.580   0.312   4.794 -0.1012 -0.7011 -1.2921
 1553SOL    HW216296   4.554   0.259   4.932  0.5418 -1.0811  1.3038
 1554SOL     OW16297   4.274   3.939   8.008  0.4144  0.2756 -0.2163
 1554SOL    HW116298   4.271   3.872   7.940 -1.1578  1.4738 -1.3282
 1554SOL    HW216299   4.350   3.911   8.059  1.3292  0.5107 -1.4580
 1555SOL     OW16300   1.954   2.999  13.924  0.2613 -0.1331 -0.4559
 1555SOL    HW116301   1.878   2.941  13.919 -0.7466  1.1957 -0.4423
 1555SOL    HW216302   1.915   3.073  13.878 -1.8667 -0.3525  1.0086
 1556SOL     OW16303   1.440   4.105   9.292  0.1655 -0.0429  0.0103
 1556SOL    HW116304   1.419   4.166   9.221  3.2963 -0.5939 -1.4223
 1556SOL    HW216305   1.390   4.146   9.362  1.4737  1.3955  0.0831
 1557SOL     OW16306   2.554   2.491   2.329 -0.0545 -0.7311  0.1356
 1557SOL    HW116307   2.567   2.483   2.424  2.2099 -0.4041 -0.1364
 1557SOL    HW216308   2.613   2.560   2.300  0.7365 -1.7151 -0.5892
 1558SOL     OW16309   2.112   2.220   2.957  0.3799 -0.4369 -0.1566
 1558SOL    HW116310   2.047   2.267   2.905 -1.6106 -3.8753 -0.7778
 1558SOL    HW216311   2.163   2.169   2.894 -1.2305 -3.5067  1.0448
 1559SOL     OW16312   1.027   3.838  16.838  0.5763 -0.0414  0.1807
 1559SOL    HW116313   1.077   3.856  16.917 -1.2838  0.7086  1.1744
 1559SOL    HW216314   1.013   3.744  16.851 -0.9098  0.4789  2.4332
 1560SOL     OW16315   2.033   4.575  16.955  0.1875  0.5441  0.1282
 1560SOL    HW116316   1.986   4.556  17.036  0.3194 -3.1975 -0.6960
 1560SOL    HW216317   2.122   4.587  16.987  0.4477  0.8733 -0.7132
 1561SOL     OW16318   1.041   2.845   5.618  0.0833 -0.2528  0.5596
 1561SOL    HW116319   0.949   2.869   5.627 -0.2664 -1.1685 -0.5638
 1561SOL    HW216320   1.034   2.751   5.603 -1.4462  0.0180 -0.4382
 1562SOL     OW16321   2.164   1.962  10.693  0.2865 -0.3079 -0.7111
 1562SOL    HW116322   2.175   1.883  10.641  2.2015  0.3763 -1.3304
 1562SOL    HW216323   2.080   1.934  10.729 -1.7352  3.3011 -2.6544
 1563SOL     OW16324   0.325   4.057   6.150  0.3157 -0.3012  0.2320
 1563SOL    HW116325   0.285   3.975   6.120  0.0783  0.5731 -1.8266
 1563SOL    HW216326   0.244   4.105   6.132  0.7059  0.9093  1.6883
 1564SOL     OW16327   0.101   1.767  14.497  0.0454  0.1140  0.7754
 1564SOL    HW116328   0.081   1.836  14.434 -0.0171 -0.0509  0.6136
 1564SOL    HW216329   0.076   1.810  14.579 -2.0908  2.2310 -0.9849
 1565SOL     OW16330   1.865   1.128   5.724 -0.2315 -0.1048  0.4745
 1565SOL    HW116331   1.889   1.165   5.639  1.1342 -0.0166  0.8984
 1565SOL    HW216332   1.923   1.052   5.718  0.1396  0.1472  0.8778
 1566SOL     OW16333   2.485   2.433   6.162 -0.2831  0.0388 -0.0819
 1566SOL    HW116334   2.526   2.442   6.076 -0.2958  1.5700  0.0655
 1566SOL    HW216335   2.559   2.459   6.217 -1.0899 -0.6724  1.3237
 1567SOL     OW16336   0.429   1.373  12.459 -0.1625 -0.1259  0.3059
 1567SOL    HW116337   0.345   1.389  12.417  0.1632  1.0241  0.0844
 1567SOL    HW216338   0.443   1.279  12.464 -0.0376 -0.0985  0.4643
 1568SOL     OW16339   0.716   0.342   3.332 -0.2855 -0.3271  0.5542
 1568SOL    HW116340   0.769   0.398   3.276 -0.2912  0.0922  0.9718
 1568SOL    HW216341   0.775   0.267   3.336  0.3655  0.2474  1.6255
 1569SOL     OW16342   2.963   3.153  14.161  0.2683 -0.0568 -0.3194
 1569SOL    HW116343   2.967   3.233  14.108 -0.6986  0.5649  0.5629
 1569SOL    HW216344   2.870   3.134  14.160  0.2709 -0.1622  1.4784
 1570SOL     OW16345   1.806   4.229   5.568  0.0881  0.2050 -0.6789
 1570SOL    HW116346   1.739   4.240   5.501  1.2632  0.8744 -1.7509
 1570SOL    HW216347   1.869   4.178   5.517  0.9620  1.8786 -1.2572
 1571SOL     OW16348   2.006   2.996   3.460  0.1029 -0.0239  0.3041
 1571SOL    HW116349   2.052   3.013   3.542 -0.6214 -1.1587  0.9367
 1571SOL    HW216350   1.979   3.083   3.429  0.0601  0.7703  2.5542
 1572SOL     OW16351   2.852   4.702  14.699  0.2445 -0.2656 -0.4541
 1572SOL    HW116352   2.814   0.056  14.705 -0.6143 -0.6832  0.1875
 1572SOL    HW216353   2.821   4.673  14.785  2.5754 -0.3307  0.3736
 1573SOL     OW16354   1.855   3.655   4.878 -0.1960 -0.2301  0.0689
 1573SOL    HW116355   1.893   3.634   4.964 -0.8562 -0.5317  0.2819
 1573SOL    HW216356   1.935   3.685   4.836 -0.5766 -0.8029 -1.0600
 1574SOL     OW16357   0.293   1.923   9.156 -0.4870 -0.3919 -0.4633
 1574SOL    HW116358   0.310   1.912   9.249  0.7484  0.1048 -0.6375
 1574SOL    HW216359   0.213   1.870   9.154  1.6479 -3.5704 -1.0764
 1575SOL     OW16360   0.174   3.755   0.109  0.7259 -0.2007  0.3863
 1575SOL    HW116361   0.093   3.709   0.131  0.1280 -0.6586 -2.8037
 1575SOL    HW216362   0.182   3.723   0.019  0.8548  0.2517  0.2361
 1576SOL     OW16363   0.964   4.471  14.422 -0.0902 -0.2186  0.5517
 1576SOL    HW116364   0.894   4.414  14.391 -1.0453  1.4021 -0.2843
 1576SOL    HW216365   0.918   4.518  14.492  0.2285  2.0963 -0.7743
 1577SOL     OW16366   3.568   2.631   5.722 -0.4933  0.2381 -0.4946
 1577SOL    HW116367   3.642   2.684   5.753 -0.0833 -0.2093 -0.6999
 1577SOL    HW216368   3.513   2.640   5.799  3.8220  3.9888  2.2178
 1578SOL     OW16369   2.231   0.305   6.748 -0.3779 -0.3420  0.2215
 1578SOL    HW116370   2.221   0.231   6.688  0.5503 -0.2448 -0.0601
 1578SOL    HW216371   2.147   0.308   6.792 -0.2791 -1.3762  0.4752
 1579SOL     OW16372   1.490   0.336   5.531 -0.0020 -0.3801  0.3673
 1579SOL    HW116373   1.574   0.292   5.513 -0.2427 -1.6624  2.3597
 1579SOL    HW216374   1.429   0.265   5.553  1.7468 -2.2657 -0.8702
 1580SOL     OW16375   1.064   4.005   1.854 -0.3286  0.0578 -0.0942
 1580SOL    HW116376   1.068   3.995   1.759 -1.6019 -0.9472 -0.0521
 1580SOL    HW216377   1.025   3.922   1.881 -3.6603  1.5595 -0.1974
 1581SOL     OW16378   3.178   4.448   4.099  0.0493 -0.3690 -0.5310
 1581SOL    HW116379   3.220   4.471   4.182 -0.2683  0.5450 -0.6218
 1581SOL    HW216380   3.093   4.434   4.139 -0.4102 -1.3590 -1.8681
 1582SOL     OW16381   1.271   3.187   0.527  0.1768 -0.4321 -0.1709
 1582SOL    HW116382   1.176   3.181   0.524  0.1930 -0.9010  0.2961
 1582SOL    HW216383   1.272   3.265   0.470 -0.3220 -0.0685  0.3140
 1583SOL     OW16384   1.267   0.394   4.170  0.5083 -0.8379 -0.0221
 1583SOL    HW116385   1.222   0.352   4.096 -0.4926 -0.7310  0.5262
 1583SOL    HW216386   1.347   0.430   4.130 -0.0444 -0.0206 -0.4030
 1584SOL     OW16387   1.809   1.450  12.049  0.1035  0.9178  0.1725
 1584SOL    HW116388   1.752   1.399  12.107  0.8742  1.3610  1.3121
 1584SOL    HW216389   1.890   1.401  12.045 -1.2021 -1.2074 -0.3025
 1585SOL     OW16390   0.181   4.196   8.775  0.6462 -0.6666  0.0590
 1585SOL    HW116391   0.150   4.285   8.756 -1.2765 -0.5814  3.5200
 1585SOL    HW216392   0.254   4.209   8.836  1.2794 -1.1857 -0.5942
 1586SOL     OW16393   2.287   4.025  11.732  0.9020 -0.3476 -0.1030
 1586SOL    HW116394   2.376   4.003  11.704  1.4192  0.2096  1.0870
 1586SOL    HW216395   2.277   3.976  11.814  3.0481 -1.2970 -0.3840
 1587SOL     OW16396   1.914   2.619  13.138 -0.3601 -0.5646 -0.4405
 1587SOL    HW116397   1.917   2.647  13.047  3.1403  1.9828  0.4684
 1587SOL    HW216398   1.913   2.703  13.183  1.1174 -1.1288  0.6648
 1588SOL     OW16399   0.796   1.883   7.645 -0.0679 -0.1476  0.1694
 1588SOL    HW116400   0.772   1.796   7.677 -0.5165  0.6882  2.1027
 1588SOL    HW216401   0.858   1.861   7.575 -3.3647 -1.2675 -2.4347
 1589SOL     OW16402   0.803   1.759  13.606  0.1617 -0.2719 -0.3386
 1589SOL    HW116403   0.782   1.757  13.699 -0.7187 -0.3491 -0.5413
 1589SOL    HW216404   0.779   1.670  13.580 -0.3769 -0.3824  0.5316
 1590SOL     OW16405   3.331   1.411  13.797 -0.2829  0.1526  0.2940
 1590SOL    HW116406   3.361   1.324  13.770 -1.5572  0.0646 -0.8776
 1590SOL    HW216407   3.369   1.417  13.884 -1.9419 -0.6627  1.0781
 1591SOL     OW16408   3.188   3.720   1.142  0.4045  0.1428  0.1745
 1591SOL    HW116409   3.261   3.727   1.081  0.7792  0.4606  0.6660
 1591SOL    HW216410   3.183   3.813   1.164  2.5798  0.6974 -1.7236
 1592SOL     OW16411   4.652   2.161   6.554  0.4314 -0.5928 -0.1491
 1592SOL    HW116412   4.647   2.195   6.644 -1.2202 -2.5203  0.4938
 1592SOL    HW216413   4.626   2.069   6.562  1.2525 -0.8554 -0.5961
 1593SOL     OW16414   1.089   1.875   0.664 -0.0043 -0.0159  0.1013
 1593SOL    HW116415   1.063   1.844   0.577 -1.2095 -0.2808  0.5549
 1593SOL    HW216416   1.176   1.840   0.680 -0.3098 -0.7765  0.0721
 1594SOL     OW16417   4.035   1.751   3.703  0.0679 -0.4645 -0.1966
 1594SOL    HW116418   4.064   1.674   3.654 -1.1121  0.3026 -2.1164
 1594SOL    HW216419   4.006   1.810   3.634  0.1671  1.7075  1.6166
 1595SOL     OW16420   4.600   1.142   4.885 -0.1200 -0.2287  0.4209
 1595SOL    HW116421   4.514   1.183   4.897  1.1229  2.5141 -0.1714
 1595SOL    HW216422   4.605   1.077   4.955  0.3544 -1.3329 -0.6391
 1596SOL     OW16423   1.912   3.397   2.209 -0.2234  0.1893 -0.4891
 1596SOL    HW116424   1.916   3.301   2.212 -1.3619  0.1021 -1.6140
 1596SOL    HW216425   1.984   3.408   2.146  0.3113 -0.8965 -0.0751
 1597SOL     OW16426   3.164   0.248  13.149 -0.3502 -0.5138  0.0308
 1597SOL    HW116427   3.080   0.277  13.116 -0.1259 -1.7973 -1.6528
 1597SOL    HW216428   3.184   0.163  13.109  0.1066 -0.4467  0.1119
 1598SOL     OW16429   0.936   4.685   5.576 -0.6667 -0.3145 -0.0713
 1598SOL    HW116430   0.928   0.044   5.552  1.8743  0.2455  1.2126
 1598SOL    HW216431   1.009   4.704   5.636 -1.1244  1.6692 -0.1518
 1599SOL     OW16432   2.007   0.892   5.434 -0.5359  0.4858 -0.1805
 1599SOL    HW116433   2.018   0.845   5.516 -1.5624 -0.8548 -0.7969
 1599SOL    HW216434   2.047   0.836   5.367 -0.2437  0.0122  0.3978
 1600SOL     OW16435   2.797   0.233   7.808  0.0991 -0.3565 -0.6616
 1600SOL    HW116436   2.727   0.219   7.744  1.2610 -1.5175 -1.6847
 1600SOL    HW216437   2.870   0.199   7.756 -0.0141 -1.2778 -0.2305
 1601SOL     OW16438   1.324   0.748   4.069  0.1302  0.1268 -0.2362
 1601SOL    HW116439   1.408   0.794   4.061 -0.8225  1.7511 -0.7698
 1601SOL    HW216440   1.354   0.657   4.077 -0.8359 -0.0509  1.2890
 1602SOL     OW16441   2.979   4.122   5.976 -0.0077 -0.0232  0.5909
 1602SOL    HW116442   2.916   4.185   6.011 -0.2436  1.5410 -2.7330
 1602SOL    HW216443   2.925   4.045   5.962 -1.0706  0.7321  0.5572
 1603SOL     OW16444   0.546   3.811   7.019  0.0115 -0.0677 -0.3222
 1603SOL    HW116445   0.527   3.808   7.112 -0.3377  1.3703 -0.3389
 1603SOL    HW216446   0.564   3.721   6.991  2.2406  1.0245 -2.4139
 1604SOL     OW16447   0.328   0.447   8.602  0.0879  0.1801  0.6150
 1604SOL    HW116448   0.339   0.501   8.523 -0.1464  1.0340  1.1653
 1604SOL    HW216449   0.334   0.357   8.570 -2.0522  0.3580 -0.3299
 1605SOL     OW16450   2.917   2.423   5.135 -0.4997  0.0498 -0.1531
 1605SOL    HW116451   3.010   2.431   5.157 -0.5954 -0.9544  0.5955
 1605SOL    HW216452   2.895   2.356   5.199 -0.2015 -0.4221 -0.5477
 1606SOL     OW16453   0.602   1.443   2.343 -0.1612 -0.4968  0.5818
 1606SOL    HW116454   0.663   1.491   2.400  1.1103  0.2834 -1.4357
 1606SOL    HW216455   0.557   1.519   2.307 -1.7852 -2.3669 -1.3198
 1607SOL     OW16456   1.829   3.200   5.395 -0.3093 -0.2979 -0.5205
 1607SOL    HW116457   1.771   3.260   5.348 -0.7589  1.6204  2.4560
 1607SOL    HW216458   1.773   3.186   5.471  0.9953  2.7404  1.0126
 1608SOL     OW16459   1.484   2.911   6.095 -0.2181 -0.9585 -0.2975
 1608SOL    HW116460   1.568   2.871   6.072 -0.2751 -1.0240 -0.3917
 1608SOL    HW216461   1.506   2.991   6.144 -2.2660 -1.0356  0.7448
 1609SOL     OW16462   0.559   1.418  12.027  0.0517 -1.1466 -0.3466
 1609SOL    HW116463   0.603   1.493  11.988 -1.0365 -0.1804  0.2852
 1609SOL    HW216464   0.559   1.436  12.121  1.0660 -1.6224 -0.2496
 1610SOL     OW16465   3.225   0.623   3.638  0.3013  0.4441  0.0235
 1610SOL    HW116466   3.210   0.718   3.645  0.4052  0.5632 -1.5691
 1610SOL    HW216467   3.200   0.599   3.728  4.6304  0.8327  1.3047
 1611SOL     OW16468   4.340   2.087   4.390  0.1538  0.2552  0.2625
 1611SOL    HW116469   4.258   2.036   4.386 -0.1837  1.0032 -1.9721
 1611SOL    HW216470   4.374   2.053   4.473  0.0143 -2.0944 -0.6395
 1612SOL     OW16471   2.666   2.826   8.099  0.0740 -0.2564 -0.5853
 1612SOL    HW116472   2.671   2.921   8.110 -0.4642 -0.3608  0.5992
 1612SOL    HW216473   2.573   2.805   8.105  0.1803  0.3636  3.3225
 1613SOL     OW16474   1.162   1.987   2.816 -0.6760 -0.7249 -0.1469
 1613SOL    HW116475   1.211   1.939   2.883  0.4012 -0.7691 -0.9790
 1613SOL    HW216476   1.199   1.953   2.735 -0.2993 -1.4638  0.3388
 1614SOL     OW16477   2.314   3.108   2.780  0.1979 -0.2263 -0.4945
 1614SOL    HW116478   2.369   3.031   2.793 -1.4136 -1.2267  0.3875
 1614SOL    HW216479   2.242   3.059   2.742  0.3002 -2.0088  1.5815
 1615SOL     OW16480   0.951   3.102   6.602  0.3005  0.8289 -0.2948
 1615SOL    HW116481   0.869   3.077   6.646  1.2543 -0.5813  0.6893
 1615SOL    HW216482   0.983   3.156   6.674  0.4569  1.5953 -0.9445
 1616SOL     OW16483   2.259   2.681   3.646 -0.2435 -0.3343 -0.3367
 1616SOL    HW116484   2.307   2.746   3.595  0.6346 -0.2046  0.6666
 1616SOL    HW216485   2.198   2.652   3.577  0.5788 -0.4780 -1.0080
 1617SOL     OW16486   3.626   3.863  15.952 -0.1536  0.1683  0.2210
 1617SOL    HW116487   3.565   3.922  15.909  0.9763  0.3619 -1.1055
 1617SOL    HW216488   3.642   3.804  15.878 -0.0418  0.9099 -0.3412
 1618SOL     OW16489   3.504   3.591  13.045 -0.3043 -0.4945  0.0300
 1618SOL    HW116490   3.496   3.513  12.991  0.1618  1.2370 -2.5189
 1618SOL    HW216491   3.528   3.554  13.131 -2.0723 -0.9480  0.3327
 1619SOL     OW16492   4.200   2.342   9.090 -0.4167  0.2082  0.6610
 1619SOL    HW116493   4.155   2.426   9.089 -1.7807 -0.5008  2.2673
 1619SOL    HW216494   4.205   2.314   8.998  0.1631  0.6972  0.5484
 1620SOL     OW16495   2.355   4.620   5.464  0.1273 -0.0594  0.4447
 1620SOL    HW116496   2.426   4.556   5.460 -1.0723 -1.3110 -0.8740
 1620SOL    HW216497   2.283   4.557   5.464  1.5027 -1.6321 -0.6565
 1621SOL     OW16498   3.347   0.728  15.813 -0.5442  0.0780  0.1687
 1621SOL    HW116499   3.340   0.821  15.793 -0.9600  0.2440  1.0985
 1621SOL    HW216500   3.280   0.695  15.753 -1.0161 -1.4747  1.5853
 1622SOL     OW16501   2.389   3.065  10.896  0.2758  0.3427 -0.2758
 1622SOL    HW116502   2.320   3.010  10.932 -0.6881  0.4184 -2.0304
 1622SOL    HW216503   2.448   3.063  10.972 -1.9200 -1.5101  1.3842
 1623SOL     OW16504   4.618   0.168   8.799 -0.2950 -0.4526 -0.0152
 1623SOL    HW116505   4.558   0.212   8.859 -1.7578 -1.3253 -0.8209
 1623SOL    HW216506   4.684   0.233   8.779 -2.2681  0.8099 -2.5115
 1624SOL     OW16507   4.670   4.162  16.537 -0.7668  0.6145 -0.6615
 1624SOL    HW116508   4.682   4.166  16.443 -2.3311 -0.2705 -0.9107
 1624SOL    HW216509   4.627   4.247  16.552 -1.2831 -0.3359  3.2833
 1625SOL     OW16510   1.806   4.694   3.403  0.1556 -0.8613  0.5510
 1625SOL    HW116511   1.759   4.611   3.401 -1.4290  0.0260  1.0948
 1625SOL    HW216512   1.764   4.720   3.485  1.1973  0.7952  0.5710
 1626SOL     OW16513   1.824   2.264  13.962 -0.1166  0.0802 -0.0668
 1626SOL    HW116514   1.739   2.273  13.918  0.8935 -2.1040 -2.4960
 1626SOL    HW216515   1.872   2.226  13.889  0.2894 -2.2944  1.4452
 1627SOL     OW16516   2.646   0.269  13.593  0.7516  0.0013 -0.0334
 1627SOL    HW116517   2.559   0.253  13.631  0.1625 -0.3200 -1.5170
 1627SOL    HW216518   2.698   0.229  13.662  0.2554 -0.0138  0.3339
 1628SOL     OW16519   3.877   0.556   8.790 -0.0860 -0.1271 -0.7870
 1628SOL    HW116520   3.876   0.631   8.849 -2.1253 -0.7144 -0.0873
 1628SOL    HW216521   3.789   0.520   8.805 -0.8718  1.9897 -0.3531
 1629SOL     OW16522   1.222   1.012   2.449  0.0372 -0.6151 -0.5330
 1629SOL    HW116523   1.264   1.045   2.529  0.2114  0.4866 -1.0778
 1629SOL    HW216524   1.130   1.018   2.475  0.1763 -2.9217  0.4348
 1630SOL     OW16525   0.959   0.386   7.566 -0.4833  0.4079 -0.1124
 1630SOL    HW116526   1.047   0.423   7.575  0.6988 -2.4142 -0.2140
 1630SOL    HW216527   0.954   0.339   7.483  3.2864  1.9558 -1.2333
 1631SOL     OW16528   0.626   1.052  15.485  0.7004 -0.0281 -0.6052
 1631SOL    HW116529   0.537   1.017  15.488  0.7685 -0.2872 -1.4777
 1631SOL    HW216530   0.673   0.971  15.465  1.4478  0.1868  0.3013
 1632SOL     OW16531   0.395   0.832  14.305 -0.0190  0.6635 -0.0009
 1632SOL    HW116532   0.320   0.891  14.319  0.2788  0.3318  3.0526
 1632SOL    HW216533   0.374   0.751  14.351 -0.8352 -0.1049 -1.7395
 1633SOL     OW16534   2.747   3.972   6.908 -0.1488  0.0711  0.0712
 1633SOL    HW116535   2.836   3.952   6.881 -0.3333 -0.8187  0.1008
 1633SOL    HW216536   2.722   4.036   6.842  0.2654 -0.3932 -0.5356
 1634SOL     OW16537   3.893   2.648   6.089 -0.4770  0.3297  0.2489
 1634SOL    HW116538   3.852   2.575   6.135 -0.0359  0.2307  0.4815
 1634SOL    HW216539   3.974   2.603   6.066 -0.1462  1.2814 -0.4368
 1635SOL     OW16540   1.586   0.882   4.693 -0.0751 -0.9967  0.1269
 1635SOL    HW116541   1.636   0.881   4.775  0.5177 -0.5878 -0.2273
 1635SOL    HW216542   1.663   0.856   4.642 -0.0724 -1.4891  0.3768
 1636SOL     OW16543   1.213   2.945   6.032 -0.0681  0.6070 -0.4594
 1636SOL    HW116544   1.307   2.929   6.043 -0.2326 -1.3332 -1.8948
 1636SOL    HW216545   1.203   2.935   5.937  0.2114  0.0625 -0.4297
 1637SOL     OW16546   3.640   3.856   1.415 -0.2306  0.2735  0.5606
 1637SOL    HW116547   3.553   3.875   1.381 -0.6997  0.1630  1.6944
 1637SOL    HW216548   3.666   3.808   1.336 -1.0994  1.9796 -0.7709
 1638SOL     OW16549   0.291   3.920  15.210  0.6514 -0.2006 -0.0729
 1638SOL    HW116550   0.232   3.940  15.137  0.5790  1.9066  0.5700
 1638SOL    HW216551   0.224   3.874  15.260  1.7069 -2.5136 -0.7713
 1639SOL     OW16552   4.196   0.731   1.194  0.0688 -0.2726  0.3637
 1639SOL    HW116553   4.171   0.668   1.261 -0.2053 -2.2844 -1.6444
 1639SOL    HW216554   4.112   0.777   1.191 -0.7795 -1.7633  1.2754
 1640SOL     OW16555   3.568   1.935   0.166 -0.0751  0.6337 -0.0352
 1640SOL    HW116556   3.548   1.993   0.093 -2.9055 -0.7056 -0.3626
 1640SOL    HW216557   3.582   1.853   0.118  0.7921  0.3565  0.7003
 1641SOL     OW16558   3.208   0.382   2.432  0.2176  1.0201 -0.1792
 1641SOL    HW116559   3.214   0.466   2.386  1.3030  1.1295  0.1493
 1641SOL    HW216560   3.238   0.417   2.516  1.4077  0.3270 -0.3081
 1642SOL     OW16561   0.923   4.002   6.312  0.2557 -1.0324  0.4984
 1642SOL    HW116562   1.016   4.016   6.295  0.3587 -2.7275 -0.3719
 1642SOL    HW216563   0.919   3.908   6.292  4.1506 -0.4378 -3.1766
 1643SOL     OW16564   0.773   3.852   3.203 -0.3973 -0.6431 -0.2264
 1643SOL    HW116565   0.779   3.849   3.107 -0.1043  0.4064 -0.2407
 1643SOL    HW216566   0.731   3.768   3.222 -1.7134 -0.1249 -0.8735
 1644SOL     OW16567   3.831   2.270   1.190  0.1757 -0.9952 -0.7738
 1644SOL    HW116568   3.903   2.291   1.130  0.7838 -1.9928 -0.3934
 1644SOL    HW216569   3.764   2.249   1.125  1.2525  0.5376 -2.4003
 1645SOL     OW16570   1.696   2.969   4.980 -0.3176 -0.3274 -0.4098
 1645SOL    HW116571   1.689   3.004   5.069 -0.0176  1.5434 -1.1311
 1645SOL    HW216572   1.601   2.964   4.970 -0.4139  3.2444 -1.4239
 1646SOL     OW16573   1.643   0.365   7.926 -0.3778 -0.3870 -0.7868
 1646SOL    HW116574   1.607   0.287   7.968  0.7128 -0.5065 -0.0706
 1646SOL    HW216575   1.606   0.341   7.842 -1.4510  0.5501 -0.5822
 1647SOL     OW16576   1.461   0.977  16.592  0.0905  0.2028  0.5466
 1647SOL    HW116577   1.454   0.896  16.541  1.1001  1.3787 -1.4779
 1647SOL    HW216578   1.552   0.966  16.618  0.8740  0.0890 -2.1702
 1648SOL     OW16579   0.219   3.903   4.269  0.2575 -0.3213 -0.1845
 1648SOL    HW116580   0.208   3.997   4.254  1.8474  0.1421  1.6808
 1648SOL    HW216581   0.252   3.905   4.359  1.6274  0.6306 -0.7112
 1649SOL     OW16582   4.043   0.277   0.097  0.2163 -0.5669  0.6071
 1649SOL    HW116583   4.064   0.268   0.004  1.5911 -2.1890  1.0684
 1649SOL    HW216584   3.976   0.344   0.104  1.8070  1.0007  0.7144
 1650SOL     OW16585   3.001   1.596   9.169 -0.3683 -0.0951  0.1522
 1650SOL    HW116586   3.090   1.630   9.161  0.4581 -1.9537  1.4471
 1650SOL    HW216587   2.964   1.677   9.201 -0.3725 -0.3132  0.6897
 1651SOL     OW16588   2.818   0.534   2.858  0.6295  0.3970  0.1515
 1651SOL    HW116589   2.783   0.610   2.904 -2.6253 -1.0205  0.0364
 1651SOL    HW216590   2.875   0.561   2.787  0.5429  1.1653  0.3816
 1652SOL     OW16591   1.842   2.799   3.726 -0.2367  0.2450 -0.0566
 1652SOL    HW116592   1.878   2.886   3.739 -0.6672  0.4523 -0.2685
 1652SOL    HW216593   1.924   2.750   3.714 -0.2115  0.5504 -1.1509
 1653SOL     OW16594   3.435   2.221   8.884 -0.2711 -0.2154  0.0356
 1653SOL    HW116595   3.446   2.127   8.869 -1.6890 -0.5298  0.9037
 1653SOL    HW216596   3.508   2.248   8.940 -0.2097  1.4412 -0.8696
 1654SOL     OW16597   2.519   3.588   2.311  0.1425 -0.0602  0.5523
 1654SOL    HW116598   2.432   3.551   2.296  1.0197 -1.2380 -1.5339
 1654SOL    HW216599   2.509   3.633   2.395 -1.9385  0.0104  0.2656
 1655SOL     OW16600   4.326   3.097  16.679 -0.5473 -0.2188  0.3495
 1655SOL    HW116601   4.317   3.047  16.598 -0.8231  0.4778 -0.0470
 1655SOL    HW216602   4.246   3.069  16.722 -0.5997  0.5400  0.7542
 1656SOL     OW16603   4.126   4.164  12.698  0.1463 -0.1151  0.1089
 1656SOL    HW116604   4.077   4.202  12.625  1.6557  0.1115 -0.7979
 1656SOL    HW216605   4.214   4.192  12.673 -0.3427  2.0027  0.8098
 1657SOL     OW16606   0.920   1.293   0.997  0.1647  0.3827 -0.2798
 1657SOL    HW116607   0.997   1.345   0.975  1.4800 -0.6453  1.8578
 1657SOL    HW216608   0.950   1.212   1.037 -2.3211 -0.2666  0.2314
 1658SOL     OW16609   2.513   0.489   8.222 -0.3211  0.3314  0.1045
 1658SOL    HW116610   2.563   0.552   8.171 -0.4876  1.4262  1.3011
 1658SOL    HW216611   2.460   0.548   8.276 -3.1576 -1.4854 -0.6497
 1659SOL     OW16612   1.361   1.338   2.977 -0.0513  0.5974 -0.0116
 1659SOL    HW116613   1.427   1.407   2.967  1.5529 -1.0522 -0.7811
 1659SOL    HW216614   1.416   1.268   3.013 -0.5187  0.0459 -0.3812
 1660SOL     OW16615   3.437   3.914  16.911 -0.2817 -0.0560  0.3593
 1660SOL    HW116616   3.510   3.858  16.938  1.2363  2.6315  1.8239
 1660SOL    HW216617   3.420   3.962  16.992  0.0733  0.5745  0.0562
 1661SOL     OW16618   2.051   4.404   3.986  0.0924  0.1273  0.0497
 1661SOL    HW116619   2.146   4.406   3.996  0.2097  0.0200 -0.9933
 1661SOL    HW216620   2.028   4.458   3.910 -0.9924 -0.8768 -0.3329
 1662SOL     OW16621   3.146   4.267   1.925 -0.0286 -0.1609 -0.1342
 1662SOL    HW116622   3.236   4.274   1.957 -0.3806  1.5251  0.4808
 1662SOL    HW216623   3.109   4.340   1.975  1.4008  1.3062 -1.2331
 1663SOL     OW16624   2.847   1.954   7.569 -0.0930  0.0390 -0.4702
 1663SOL    HW116625   2.850   2.043   7.535 -1.5971  0.3261  0.1465
 1663SOL    HW216626   2.914   1.955   7.637  0.5555  2.5570 -1.1623
 1664SOL     OW16627   1.014   0.283   8.963 -0.0829 -0.2273  0.3034
 1664SOL    HW116628   0.991   0.215   8.900 -0.9549  1.1042 -0.8040
 1664SOL    HW216629   1.080   0.335   8.918 -1.1641  0.8458 -0.0490
 1665SOL     OW16630   0.416   3.047   6.596 -0.4455 -0.1848 -0.2586
 1665SOL    HW116631   0.406   3.137   6.565  0.1324  0.5141  1.5622
 1665SOL    HW216632   0.487   3.031   6.534 -0.2651 -1.4756  0.2872
 1666SOL     OW16633   2.420   2.862  13.332 -0.0715  0.5690  0.4708
 1666SOL    HW116634   2.470   2.837  13.254  2.5539 -1.7346  2.9182
 1666SOL    HW216635   2.482   2.923  13.371  1.1316  0.4587 -1.2814
 1667SOL     OW16636   3.497   0.827   2.712 -0.1367  0.3525 -0.1580
 1667SOL    HW116637   3.495   0.766   2.638  1.5521  2.4048 -1.8784
 1667SOL    HW216638   3.588   0.857   2.711 -0.4641  1.2986 -1.7802
 1668SOL     OW16639   2.319   3.848   9.400 -0.1469 -0.3484 -0.3201
 1668SOL    HW116640   2.284   3.893   9.476 -0.9944  0.0179 -0.9240
 1668SOL    HW216641   2.369   3.917   9.357  2.1930  0.0946  3.2044
 1669SOL     OW16642   0.780   2.720  11.650  0.2104  0.6340 -0.0018
 1669SOL    HW116643   0.778   2.628  11.677 -0.4870  0.5529 -0.3358
 1669SOL    HW216644   0.699   2.713  11.599  1.3974  0.0050 -1.8135
 1670SOL     OW16645   1.651   3.755   7.460  0.0212 -0.0225 -0.5005
 1670SOL    HW116646   1.729   3.709   7.490  0.3096  0.9555  0.2820
 1670SOL    HW216647   1.585   3.700   7.501 -0.8940  1.1513 -0.3826
 1671SOL     OW16648   0.034   2.641   5.700  0.1653  0.4545 -0.5217
 1671SOL    HW116649   0.078   2.617   5.619 -1.1434 -1.6479 -0.6063
 1671SOL    HW216650   0.082   2.722   5.721  0.2592 -0.1740  1.6742
 1672SOL     OW16651   4.132   0.915   8.500  0.0881  0.7746 -0.0074
 1672SOL    HW116652   4.089   0.903   8.585 -1.4669  1.7513 -0.6606
 1672SOL    HW216653   4.194   0.982   8.529  0.9400  0.2105 -0.5031
 1673SOL     OW16654   1.267   4.051   1.062 -0.2360 -0.0440 -0.0151
 1673SOL    HW116655   1.217   4.090   0.990 -1.3622 -0.9446  0.2817
 1673SOL    HW216656   1.352   4.089   1.041 -0.0247 -0.2731  0.4344
 1674SOL     OW16657   2.809   0.270  10.020  0.0495 -0.1731  0.1460
 1674SOL    HW116658   2.892   0.297  10.059  0.2641 -1.3338  0.4824
 1674SOL    HW216659   2.807   0.335   9.950 -3.7334 -0.6385 -0.1625
 1675SOL     OW16660   0.651   3.615   3.180 -0.1040 -0.1210  0.1016
 1675SOL    HW116661   0.574   3.621   3.124  2.4854  1.5319 -3.2394
 1675SOL    HW216662   0.613   3.554   3.244  1.3166 -0.8143  0.2926
 1676SOL     OW16663   3.964   3.358   2.900 -0.2090 -0.4270  0.6732
 1676SOL    HW116664   3.981   3.266   2.919  1.4538  0.0863  1.6595
 1676SOL    HW216665   4.005   3.356   2.813  0.7425 -1.0083  1.1334
 1677SOL     OW16666   0.320   0.782   7.072 -0.5257  0.0877 -0.2946
 1677SOL    HW116667   0.297   0.720   7.004  1.3346 -0.1521 -0.7085
 1677SOL    HW216668   0.236   0.807   7.110  0.3990 -1.3672  2.7359
 1678SOL     OW16669   2.908   0.290  15.078 -0.0392 -0.3482 -0.2055
 1678SOL    HW116670   2.940   0.231  15.010 -0.7611 -0.8513 -0.1079
 1678SOL    HW216671   2.830   0.328  15.036  0.0369 -2.4477 -2.2050
 1679SOL     OW16672   1.839   4.342   3.644  0.2112 -0.4454  0.0684
 1679SOL    HW116673   1.912   4.382   3.596  0.6592 -1.1902  0.1403
 1679SOL    HW216674   1.856   4.250   3.622  2.9838  0.0611  0.1082
 1680SOL     OW16675   2.200   1.170  14.689 -0.1030  0.2738  0.2090
 1680SOL    HW116676   2.293   1.190  14.693 -0.4443  2.2947 -1.9182
 1680SOL    HW216677   2.171   1.235  14.624  1.4606 -0.1222 -0.8615
 1681SOL     OW16678   2.304   1.726   4.620 -0.3988  0.1480 -0.4086
 1681SOL    HW116679   2.272   1.639   4.644 -0.3073  0.0760 -0.5512
 1681SOL    HW216680   2.375   1.743   4.682  1.6398 -1.8595 -2.1955
 1682SOL     OW16681   2.712   3.806   8.060  0.4018  0.1121 -0.3782
 1682SOL    HW116682   2.798   3.793   8.020  0.8572  1.2660  0.2266
 1682SOL    HW216683   2.661   3.815   7.979 -1.0985  0.1521  0.5573
 1683SOL     OW16684   3.053   0.099  10.337  0.3259 -0.1108  0.0117
 1683SOL    HW116685   2.983   0.040  10.366 -2.2342  3.3790  0.8124
 1683SOL    HW216686   3.085   0.149  10.412  0.6588 -0.9463  0.4284
 1684SOL     OW16687   0.554   1.503   6.316  0.6464 -0.3593 -0.4707
 1684SOL    HW116688   0.498   1.522   6.241  0.9279  1.4681 -0.2287
 1684SOL    HW216689   0.501   1.445   6.371  1.7763  1.0170  2.0946
 1685SOL     OW16690   2.075   2.204   8.161 -0.2070  0.0718  0.0820
 1685SOL    HW116691   2.078   2.113   8.191  1.0638 -0.2966 -1.1975
 1685SOL    HW216692   2.063   2.199   8.066  0.9829 -1.4708 -0.0028
 1686SOL     OW16693   1.139   0.947   6.843 -0.0580 -0.1640 -0.0984
 1686SOL    HW116694   1.160   0.992   6.761 -1.3621  0.0663 -0.2994
 1686SOL    HW216695   1.045   0.929   6.838 -0.3135  0.9184  0.6907
 1687SOL     OW16696   1.833   2.778   6.641 -0.3273  0.7621 -0.6312
 1687SOL    HW116697   1.769   2.830   6.690  1.2945  1.3120  0.8975
 1687SOL    HW216698   1.831   2.807   6.549  0.1488 -1.3300 -1.3083
 1688SOL     OW16699   2.771   0.907   7.873 -0.4342 -0.0069 -0.4316
 1688SOL    HW116700   2.681   0.908   7.907 -0.8156  1.8811 -1.5357
 1688SOL    HW216701   2.765   0.973   7.805  1.5272  0.5858 -0.0389
 1689SOL     OW16702   1.332   0.315   9.546 -0.0852  0.5325 -0.0539
 1689SOL    HW116703   1.421   0.317   9.581 -0.7643  0.3408  1.6894
 1689SOL    HW216704   1.332   0.385   9.480  0.8269  3.1813  2.7460
 1690SOL     OW16705   4.606   3.428   6.419 -0.1831  0.2916 -0.3716
 1690SOL    HW116706   4.694   3.464   6.405 -0.3963  1.1731  0.5607
 1690SOL    HW216707   4.640   3.339   6.430 -1.0956  0.0211  0.1739
 1691SOL     OW16708   2.937   3.018  11.673 -0.6467 -0.1132 -0.1585
 1691SOL    HW116709   2.921   2.944  11.731  0.3194 -0.8407 -0.8216
 1691SOL    HW216710   2.972   3.081  11.737 -1.5003 -0.1421  0.3326
 1692SOL     OW16711   1.339   1.267  14.353  0.0755  0.9708  0.2108
 1692SOL    HW116712   1.354   1.173  14.362  2.4509  1.2591 -0.7695
 1692SOL    HW216713   1.401   1.298  14.419 -0.3032 -2.0244  1.9797
 1693SOL     OW16714   4.363   4.676  12.168  0.1301 -0.6525  0.4631
 1693SOL    HW116715   4.305   4.720  12.231  0.7463  2.4676 -1.1338
 1693SOL    HW216716   4.313   4.595  12.162 -1.3922  0.2740  0.5991
 1694SOL     OW16717   4.059   4.572   4.289 -0.1305 -0.2398 -0.3793
 1694SOL    HW116718   4.094   4.639   4.348  2.4405 -1.4690 -0.4937
 1694SOL    HW216719   4.119   4.576   4.215  2.2129  0.3528  1.5349
 1695SOL     OW16720   0.341   1.806  17.205  0.4949  0.3082  0.3148
 1695SOL    HW116721   0.421   1.841  17.164  0.4761 -0.9636 -0.8183
 1695SOL    HW216722   0.327   1.725  17.156  0.8655  0.2874  0.2462
 1696SOL     OW16723   3.575   3.328   5.582  0.7617 -0.1385 -0.1325
 1696SOL    HW116724   3.619   3.413   5.588 -1.9242  1.1088  1.9051
 1696SOL    HW216725   3.496   3.351   5.534  1.1163 -0.2883 -0.7906
 1697SOL     OW16726   2.253   0.403   5.982  0.0394  0.0845  0.7311
 1697SOL    HW116727   2.252   0.498   5.971 -0.5154  0.1888  1.6278
 1697SOL    HW216728   2.347   0.387   5.970  0.3892  0.6287  2.6606
 1698SOL     OW16729   3.147   4.355   5.753  0.3402  0.5017 -0.4058
 1698SOL    HW116730   3.175   4.361   5.844 -1.4453 -3.1664  0.3649
 1698SOL    HW216731   3.223   4.341   5.697  0.3122  3.0172 -1.0900
 1699SOL     OW16732   3.682   3.568   8.746 -0.2288 -0.8798  0.4718
 1699SOL    HW116733   3.592   3.585   8.717  0.1666 -0.7591 -0.6769
 1699SOL    HW216734   3.690   3.624   8.823  0.3046 -0.3350  0.0157
 1700SOL     OW16735   0.274   4.657   7.434  0.3631 -0.5043 -0.2233
 1700SOL    HW116736   0.238   4.669   7.523  0.2123  0.5826 -0.4340
 1700SOL    HW216737   0.342   4.725   7.428 -0.1699  0.3486  2.9918
 1701SOL     OW16738   3.282   1.710  10.918 -0.0243 -0.4682 -0.2160
 1701SOL    HW116739   3.291   1.805  10.914 -0.3881 -0.4439 -0.3955
 1701SOL    HW216740   3.313   1.701  11.009  0.6855  0.2739 -0.3801
 1702SOL     OW16741   1.900   0.868  17.559 -0.0654  0.3177 -0.3949
 1702SOL    HW116742   1.826   0.859  17.620  0.5131  0.6147  0.3443
 1702SOL    HW216743   1.938   0.780  17.548  0.0210  0.3134 -0.0373
 1703SOL     OW16744   2.227   4.724   8.320 -0.5649  0.5714  0.0427
 1703SOL    HW116745   2.137   0.023   8.328 -0.0348  1.5708  1.8955
 1703SOL    HW216746   2.243   4.733   8.414 -0.6364 -2.7154  0.3724
 1704SOL     OW16747   2.273   4.129  16.535  0.3603 -0.1047  0.8652
 1704SOL    HW116748   2.282   4.035  16.518  4.8295  0.6578 -1.0058
 1704SOL    HW216749   2.197   4.156  16.485  0.6560  1.0633  1.0424
 1705SOL     OW16750   1.594   2.732   8.269  0.5907 -0.0000  0.2857
 1705SOL    HW116751   1.560   2.643   8.279  1.0087 -0.3154 -1.0708
 1705SOL    HW216752   1.661   2.732   8.200  1.3187 -1.2344  1.0062
 1706SOL     OW16753   0.668   2.963  16.011  0.0414 -0.0456  0.4310
 1706SOL    HW116754   0.697   3.005  15.931 -0.4487 -0.9880 -0.2408
 1706SOL    HW216755   0.739   2.985  16.071  0.5562  0.1733 -0.2722
 1707SOL     OW16756   1.134   2.476   2.483  0.1729  0.1955  0.0219
 1707SOL    HW116757   1.066   2.434   2.429 -0.4564  1.0477  0.1442
 1707SOL    HW216758   1.106   2.568   2.487  2.3672  0.8773 -0.1039
 1708SOL     OW16759   1.879   3.300  13.922  0.3539  0.2770 -0.0301
 1708SOL    HW116760   1.848   3.388  13.943  3.0214  0.4650  3.1757
 1708SOL    HW216761   1.958   3.303  13.976  0.2168  2.4056  0.0480
 1709SOL     OW16762   0.632   3.675   5.204  0.0096  0.6479  0.0175
 1709SOL    HW116763   0.665   3.751   5.251 -2.3412  1.8503 -0.2327
 1709SOL    HW216764   0.656   3.605   5.265 -1.6988  0.5486  0.5750
 1710SOL     OW16765   2.177   2.664  15.905  0.4491  0.9010 -0.0982
 1710SOL    HW116766   2.185   2.578  15.947  0.6563 -0.1446 -2.2502
 1710SOL    HW216767   2.083   2.679  15.909  0.6255  1.9356  0.1338
 1711SOL     OW16768   4.673   2.901   2.150 -0.2744  0.2753  0.1128
 1711SOL    HW116769   0.026   2.940   2.156  0.3671 -1.3785  1.5244
 1711SOL    HW216770   4.641   2.900   2.240 -0.9898 -1.5878 -0.1632
 1712SOL     OW16771   1.008   1.679  16.965  0.3181 -0.1521 -0.0520
 1712SOL    HW116772   0.939   1.630  16.921  0.1699 -2.1225  2.3434
 1712SOL    HW216773   1.046   1.726  16.891  1.3153 -1.9349 -0.6506
 1713SOL     OW16774   0.157   4.243  11.626  0.0944 -0.5936  0.0243
 1713SOL    HW116775   0.104   4.322  11.637  2.6463  1.4862 -2.7198
 1713SOL    HW216776   0.191   4.224  11.714 -2.5788  0.3213  1.2715
 1714SOL     OW16777   0.319   2.486   0.548 -0.2002  0.1372 -0.5583
 1714SOL    HW116778   0.252   2.551   0.571 -0.1804  0.2701 -0.8769
 1714SOL    HW216779   0.271   2.404   0.559 -2.3129  1.4525  0.0679
 1715SOL     OW16780   0.669   2.950  15.134 -0.1527  0.0022  0.1541
 1715SOL    HW116781   0.609   2.901  15.189 -1.0534 -1.1506 -1.8462
 1715SOL    HW216782   0.756   2.916  15.156  0.1007 -0.6525 -1.8474
 1716SOL     OW16783   2.556   2.455  16.066  0.7277 -0.4606 -0.1331
 1716SOL    HW116784   2.483   2.434  16.009 -0.2380  2.1465  0.1580
 1716SOL    HW216785   2.520   2.447  16.155  0.0334  0.4153 -0.3366
 1717SOL     OW16786   1.883   1.308   3.915  0.4039 -0.1211 -0.1523
 1717SOL    HW116787   1.806   1.320   3.860  0.1899 -0.4555  0.0734
 1717SOL    HW216788   1.923   1.395   3.925 -0.0827  0.0220  0.5621
 1718SOL     OW16789   1.375   4.506   9.410  0.2060 -0.1718 -0.2685
 1718SOL    HW116790   1.469   4.522   9.400  0.0034  1.2145  0.0799
 1718SOL    HW216791   1.340   4.577   9.356  0.9756 -1.1105 -2.0267
 1719SOL     OW16792   4.635   2.988   5.649 -0.4531  0.1104  0.6112
 1719SOL    HW116793   4.560   2.941   5.686 -0.2103 -0.2802  0.6177
 1719SOL    HW216794   4.597   3.075   5.643  0.9098  0.6237 -0.6758
 1720SOL     OW16795   1.313   0.071   5.243 -0.5250  0.3587 -0.6181
 1720SOL    HW116796   1.258   4.728   5.230 -0.7977  0.2484  1.2225
 1720SOL    HW216797   1.270   0.133   5.183  2.1267  1.3900 -1.4503
 1721SOL     OW16798   1.391   4.274   5.546 -0.0425  0.5812  0.6610
 1721SOL    HW116799   1.461   4.318   5.497 -0.5186 -0.6704 -1.1390
 1721SOL    HW216800   1.415   4.181   5.545  0.4115  0.7550 -4.1232
 1722SOL     OW16801   0.899   2.541   2.350  0.4079  0.0202  0.0987
 1722SOL    HW116802   0.897   2.631   2.383 -2.8493  0.2300 -0.6501
 1722SOL    HW216803   0.847   2.506   2.423  1.7616 -1.0545  0.5613
 1723SOL     OW16804   4.591   2.528   4.641 -0.6792  0.1749  0.1454
 1723SOL    HW116805   4.674   2.480   4.652 -1.3500 -1.3329 -1.4151
 1723SOL    HW216806   4.589   2.511   4.547 -0.4616 -1.7069  0.4835
 1724SOL     OW16807   0.944   0.216   3.110 -0.3674 -0.0440 -0.6038
 1724SOL    HW116808   0.941   0.147   3.176 -0.3875 -1.3043 -1.8980
 1724SOL    HW216809   1.014   0.186   3.052  1.4527  1.4987  0.8170
 1725SOL     OW16810   0.057   2.358   5.806 -0.2118  0.3521  0.0086
 1725SOL    HW116811   0.065   2.362   5.901  2.5076  0.3681 -0.2082
 1725SOL    HW216812   4.717   2.300   5.789  0.6928 -1.1583  1.2069
 1726SOL     OW16813   2.175   2.186  12.026  0.0649  0.0050 -0.0370
 1726SOL    HW116814   2.133   2.149  11.948  0.3912  2.0676 -1.2002
 1726SOL    HW216815   2.173   2.282  12.017 -0.3862  0.0716  0.7780
 1727SOL     OW16816   4.545   1.531   9.650 -0.2229 -0.4825  0.6555
 1727SOL    HW116817   4.499   1.613   9.633  2.1473  0.5002 -0.9100
 1727SOL    HW216818   4.610   1.556   9.716  0.3518  1.5270 -0.6741
 1728SOL     OW16819   4.601   2.042   7.108  0.1703  0.3098  0.1173
 1728SOL    HW116820   4.684   2.003   7.134  0.1739  0.4402  0.2974
 1728SOL    HW216821   4.566   1.957   7.079 -2.3171  1.8274 -1.3769
 1729SOL     OW16822   0.722   2.486   1.414 -0.2962 -0.0943 -0.2477
 1729SOL    HW116823   0.637   2.484   1.370 -0.2464 -2.8808 -0.2143
 1729SOL    HW216824   0.764   2.407   1.379  2.7209  1.4177 -0.0415
 1730SOL     OW16825   1.753   1.757   8.571 -0.0466  0.4649 -0.1652
 1730SOL    HW116826   1.763   1.848   8.599  3.7947  1.1453 -3.6995
 1730SOL    HW216827   1.708   1.719   8.646  1.3057 -0.0494  0.3837
 1731SOL     OW16828   1.842   2.618  14.438 -0.0771 -0.2089  0.1361
 1731SOL    HW116829   1.895   2.565  14.379 -0.1238  0.8390 -0.8526
 1731SOL    HW216830   1.764   2.565  14.427  0.0473 -0.5939  1.1533
 1732SOL     OW16831   4.521   1.397  10.376 -0.0134 -0.1327  0.0269
 1732SOL    HW116832   4.455   1.377  10.443 -1.5913 -1.5313 -1.9580
 1732SOL    HW216833   4.536   1.491  10.390  1.1766 -0.1220 -1.3162
 1733SOL     OW16834   3.732   1.075   8.728 -0.4075 -0.2405  0.0180
 1733SOL    HW116835   3.720   1.115   8.642  1.8025 -0.1507 -0.2593
 1733SOL    HW216836   3.656   1.019   8.745 -0.5129 -0.0319  0.2193
 1734SOL     OW16837   3.358   1.186   7.597  0.1123 -0.0418  0.0730
 1734SOL    HW116838   3.430   1.128   7.576 -0.4464 -0.6089 -0.2608
 1734SOL    HW216839   3.398   1.268   7.567  0.3143 -0.7021 -1.4478
 1735SOL     OW16840   1.287   0.321   7.242  0.3358 -0.2217 -0.3272
 1735SOL    HW116841   1.333   0.267   7.177  0.4461 -2.2457  1.4541
 1735SOL    HW216842   1.266   0.401   7.192 -1.0667  0.3826  1.2601
 1736SOL     OW16843   2.891   1.328   7.880 -0.3549  0.0813 -0.7367
 1736SOL    HW116844   2.829   1.259   7.855  0.3503 -0.1644 -1.8257
 1736SOL    HW216845   2.975   1.290   7.852  0.0921 -0.5103  1.4245
 1737SOL     OW16846   0.751   1.677   3.509 -0.2188 -0.5868 -0.2300
 1737SOL    HW116847   0.822   1.612   3.507  1.6256  1.4612 -1.9117
 1737SOL    HW216848   0.687   1.639   3.450  0.8392 -0.7270 -1.2923
 1738SOL     OW16849   3.925   3.806   7.351  0.8117 -0.3330  0.3097
 1738SOL    HW116850   3.986   3.850   7.292 -0.3907  1.7607  0.6238
 1738SOL    HW216851   3.973   3.766   7.423 -0.6025  0.0601  1.4587
 1739SOL     OW16852   2.415   4.681   9.164 -0.0154 -0.8035 -0.5065
 1739SOL    HW116853   2.340   4.733   9.195 -0.8576 -1.3254 -1.6676
 1739SOL    HW216854   2.381   4.657   9.078  0.8946 -0.8554 -0.8419
 1740SOL     OW16855   1.407   1.330   3.578  0.7156 -0.0992  0.1096
 1740SOL    HW116856   1.428   1.279   3.499 -1.3552 -1.5487  0.4842
 1740SOL    HW216857   1.474   1.398   3.574  1.1927 -0.6359 -1.2050
 1741SOL     OW16858   0.773   4.291  17.472 -0.2807  0.4091  0.1432
 1741SOL    HW116859   0.815   4.364  17.517 -0.2141 -0.3328  1.2654
 1741SOL    HW216860   0.733   4.248  17.547  1.1707 -0.6016  0.3432
 1742SOL     OW16861   0.709   2.257   0.513  0.6651 -0.3880 -0.3317
 1742SOL    HW116862   0.752   2.210   0.584 -2.6668 -1.1030  1.1853
 1742SOL    HW216863   0.657   2.317   0.566  0.8788 -0.2941 -0.2276
 1743SOL     OW16864   1.146   4.019   9.930 -0.0222  0.2415  0.1237
 1743SOL    HW116865   1.160   4.112   9.916  3.0264 -0.0940  0.9053
 1743SOL    HW216866   1.182   3.983   9.849 -1.4970 -1.5040  0.2235
 1744SOL     OW16867   2.007   4.419  14.855 -0.6851 -0.7098  0.4169
 1744SOL    HW116868   1.963   4.457  14.931 -1.4089  1.0009 -0.8716
 1744SOL    HW216869   1.941   4.351  14.845 -1.6250  0.1331  0.9805
 1745SOL     OW16870   1.503   0.983   6.412  0.2389 -0.3084  0.4505
 1745SOL    HW116871   1.561   1.005   6.339 -0.4620 -1.0407 -0.3254
 1745SOL    HW216872   1.421   1.021   6.381 -0.6850 -2.7456 -0.0559
 1746SOL     OW16873   0.319   2.500  10.190  0.0316 -0.0944 -0.0993
 1746SOL    HW116874   0.331   2.491  10.285 -1.2032  1.1453  0.1708
 1746SOL    HW216875   0.246   2.561  10.179 -0.7664 -0.4644  3.0043
 1747SOL     OW16876   3.916   0.370  17.276 -0.0918  0.3385  0.6721
 1747SOL    HW116877   3.872   0.423  17.209  0.6782 -0.2917 -0.3410
 1747SOL    HW216878   3.841   0.344  17.328 -0.2400 -1.1751 -0.3031
 1748SOL     OW16879   3.222   3.630   3.212  0.3470 -0.5345 -0.1893
 1748SOL    HW116880   3.135   3.592   3.225 -0.7819  1.8480 -0.6554
 1748SOL    HW216881   3.278   3.565   3.254 -0.4056 -0.5833  0.7428
 1749SOL     OW16882   2.034   2.271  14.153 -0.3871 -0.7397  0.0678
 1749SOL    HW116883   1.979   2.266  14.076 -2.1181 -1.9342  1.3877
 1749SOL    HW216884   2.104   2.210  14.128 -1.9510 -2.6848  0.4119
 1750SOL     OW16885   4.079   0.616  14.961 -0.0400 -0.4016 -0.4246
 1750SOL    HW116886   4.010   0.574  15.013  0.0226 -0.9858 -0.8156
 1750SOL    HW216887   4.028   0.688  14.924  1.8325  1.3930  0.4944
 1751SOL     OW16888   4.210   0.296  15.754  0.1675  0.5451 -0.5737
 1751SOL    HW116889   4.220   0.358  15.827  0.9929 -0.6577  0.3414
 1751SOL    HW216890   4.294   0.254  15.775 -0.1578 -0.2195 -0.8175
 1752SOL     OW16891   3.904   1.202   0.910  0.3301 -0.6034  0.5672
 1752SOL    HW116892   3.900   1.296   0.927 -1.3950 -0.6679  0.5203
 1752SOL    HW216893   3.969   1.169   0.972 -0.3558 -2.9737  0.0434
 1753SOL     OW16894   3.704   3.137   7.520 -0.4370  0.1088  0.4000
 1753SOL    HW116895   3.723   3.058   7.469 -1.0972 -1.4229  2.5355
 1753SOL    HW216896   3.791   3.154   7.556 -0.8065 -1.5545  2.0631
 1754SOL     OW16897   3.969   2.545  13.322 -0.2360  0.2174 -0.6308
 1754SOL    HW116898   4.036   2.576  13.260 -1.2716  3.4164 -0.1394
 1754SOL    HW216899   4.014   2.466  13.352 -0.9567 -0.2584 -0.8168
 1755SOL     OW16900   2.770   2.297   3.436 -0.2250 -0.6223 -0.5363
 1755SOL    HW116901   2.713   2.363   3.397 -0.5859 -0.7207 -0.1888
 1755SOL    HW216902   2.848   2.292   3.382  0.7904 -0.9235  0.9618
 1756SOL     OW16903   2.288   0.326   7.996 -0.2685  0.0393 -0.3353
 1756SOL    HW116904   2.339   0.296   8.072 -0.4315 -0.1281 -0.2918
 1756SOL    HW216905   2.211   0.272   8.013  0.8504 -2.4491 -3.1776
 1757SOL     OW16906   2.621   3.810   0.105  0.7187  0.4946  0.2194
 1757SOL    HW116907   2.588   3.835   0.191  1.9584 -0.7910  1.0674
 1757SOL    HW216908   2.540   3.831   0.059 -0.2211 -1.4895  1.0097
 1758SOL     OW16909   3.952   0.771   8.383  0.0137 -0.6880 -0.5115
 1758SOL    HW116910   4.025   0.832   8.400 -0.8482 -0.1183  1.1806
 1758SOL    HW216911   3.908   0.812   8.308  1.2211 -0.5210 -1.1371
 1759SOL     OW16912   2.083   3.831   7.013 -0.4924 -0.4990  0.0092
 1759SOL    HW116913   2.069   3.903   6.952  0.0908 -0.7554 -0.4209
 1759SOL    HW216914   2.171   3.854   7.042 -1.4963  2.6075  0.5916
 1760SOL     OW16915   3.215   3.902   2.979  1.0879  0.3613 -0.2380
 1760SOL    HW116916   3.219   3.838   2.908 -0.6185 -3.1133  2.7926
 1760SOL    HW216917   3.302   3.896   3.019  1.5032  1.1588 -1.0207
 1761SOL     OW16918   2.205   2.840   5.073 -0.6315  0.2931 -0.0994
 1761SOL    HW116919   2.190   2.911   5.137 -3.0044 -0.1413 -0.1857
 1761SOL    HW216920   2.276   2.798   5.121 -0.0277  0.6126 -0.7100
 1762SOL     OW16921   3.239   1.478   7.203 -0.1317  0.9661  0.1995
 1762SOL    HW116922   3.319   1.503   7.158  1.0834 -0.6239  1.4624
 1762SOL    HW216923   3.203   1.414   7.141  0.8665  0.0837  0.5216
 1763SOL     OW16924   0.966   3.918   4.234  0.1558  0.2538 -0.1086
 1763SOL    HW116925   0.927   3.975   4.300 -1.2687  0.0615 -0.8043
 1763SOL    HW216926   0.922   3.834   4.246  0.6139 -0.3761 -2.8273
 1764SOL     OW16927   2.197   0.821   6.852  0.6654  0.1069  0.3654
 1764SOL    HW116928   2.213   0.726   6.854 -3.5364 -0.5669  0.8439
 1764SOL    HW216929   2.108   0.816   6.886  0.7348  1.5938  0.7499
 1765SOL     OW16930   2.275   3.795  16.221 -0.9168  0.0911  0.1239
 1765SOL    HW116931   2.302   3.785  16.129  0.6283 -1.2665  0.7212
 1765SOL    HW216932   2.194   3.745  16.226  0.5114 -2.2360  0.4211
 1766SOL     OW16933   1.700   4.019   9.004 -0.3952  1.0121  0.6810
 1766SOL    HW116934   1.613   4.057   8.993 -0.1033  1.2320 -0.9370
 1766SOL    HW216935   1.687   3.947   8.942  0.2049  0.3771  1.3007
 1767SOL     OW16936   0.695   3.632   4.725 -0.4182  0.3398 -0.0743
 1767SOL    HW116937   0.781   3.615   4.764 -0.4119  2.0928  0.6456
 1767SOL    HW216938   0.642   3.619   4.803  0.9483  1.7655  1.0801
 1768SOL     OW16939   3.427   2.391  17.150  0.4990 -0.1990  0.1715
 1768SOL    HW116940   3.346   2.439  17.166 -0.8250 -3.1300  2.0651
 1768SOL    HW216941   3.436   2.395  17.055  0.1279 -0.0114  0.1446
 1769SOL     OW16942   0.904   3.229   8.404 -0.2986  0.2507  0.2750
 1769SOL    HW116943   0.901   3.184   8.489  3.9593 -0.3084  0.1439
 1769SOL    HW216944   0.996   3.228   8.377  0.1532  0.2565  1.7953
 1770SOL     OW16945   0.642   0.792  12.564  0.1876  0.7515 -0.7007
 1770SOL    HW116946   0.582   0.753  12.500 -3.1750 -0.4076  3.2158
 1770SOL    HW216947   0.636   0.725  12.632 -1.7922  1.2898 -0.3612
 1771SOL     OW16948   0.265   3.510   5.804 -0.2001 -0.5044 -0.3594
 1771SOL    HW116949   0.269   3.604   5.820 -0.6609 -1.0452  2.9441
 1771SOL    HW216950   0.216   3.478   5.880 -2.2359  0.4103 -1.2741
 1772SOL     OW16951   3.789   1.549   7.049  0.0454  0.6062 -0.5909
 1772SOL    HW116952   3.761   1.476   7.105 -0.4140  0.2730 -1.2555
 1772SOL    HW216953   3.883   1.538   7.038  0.1469  0.2999  0.5321
 1773SOL     OW16954   0.566   0.624   3.912  0.5466 -0.0523  0.1374
 1773SOL    HW116955   0.545   0.716   3.893  1.5028  0.4673  1.6039
 1773SOL    HW216956   0.490   0.600   3.965  0.7518  1.0541  0.9302
 1774SOL     OW16957   2.629   2.775   2.791  0.0801  0.0757  0.6236
 1774SOL    HW116958   2.696   2.717   2.826  1.7125  1.9344  0.5724
 1774SOL    HW216959   2.650   2.850   2.846 -1.0093  0.4601  0.5060
 1775SOL     OW16960   0.139   0.604  15.082  0.2300 -0.0538 -0.8443
 1775SOL    HW116961   0.220   0.641  15.118 -1.5032  0.4419  2.6077
 1775SOL    HW216962   0.129   0.674  15.018 -1.6962  0.6188  0.1892
 1776SOL     OW16963   4.717   4.040   7.629  0.1106  0.0029 -0.0619
 1776SOL    HW116964   4.682   4.060   7.716  0.7433  0.7470  0.0253
 1776SOL    HW216965   4.726   3.945   7.634  1.1963 -0.1069 -4.2990
 1777SOL     OW16966   0.350   3.864   3.868 -0.4560  0.1881 -0.0936
 1777SOL    HW116967   0.264   3.824   3.852 -0.9243  1.1581  0.0322
 1777SOL    HW216968   0.330   3.952   3.838 -1.3437 -0.4520 -1.3962
 1778SOL     OW16969   1.039   1.053   8.986 -0.4505 -0.2254 -0.0749
 1778SOL    HW116970   1.082   0.969   8.966  1.1023  0.7008 -0.6153
 1778SOL    HW216971   1.106   1.100   8.937  1.1369 -2.4590 -0.0612
 1779SOL     OW16972   0.595   3.689   1.484 -0.2926 -0.0628  0.3156
 1779SOL    HW116973   0.582   3.597   1.507  1.5702 -0.4057  0.0388
 1779SOL    HW216974   0.559   3.751   1.546 -0.5775  0.8132 -0.7179
 1780SOL     OW16975   0.644   2.566   8.676  0.3412 -0.3519 -0.3741
 1780SOL    HW116976   0.685   2.523   8.601 -0.5653 -1.4440 -0.2537
 1780SOL    HW216977   0.700   2.643   8.673 -0.8160  0.4756 -0.7145
 1781SOL     OW16978   0.280   4.336   9.227  0.0486 -0.1325  0.2391
 1781SOL    HW116979   0.239   4.301   9.306  1.0083 -2.1985 -0.1744
 1781SOL    HW216980   0.200   4.348   9.177  0.3397 -2.2815 -0.7192
 1782SOL     OW16981   0.026   1.888   8.706 -0.5634 -0.4148 -0.2845
 1782SOL    HW116982   0.110   1.928   8.727 -0.0621 -0.4391 -2.3096
 1782SOL    HW216983   4.699   1.940   8.759  1.6257 -0.9766  2.7610
 1783SOL     OW16984   0.861   1.893  16.640 -0.4234 -0.6571 -0.6389
 1783SOL    HW116985   0.949   1.858  16.648  0.7147  2.5523  1.0723
 1783SOL    HW216986   0.843   1.916  16.549 -2.3137 -3.2646 -0.9069
 1784SOL     OW16987   1.232   2.226   7.835 -0.0204  0.0922 -0.3647
 1784SOL    HW116988   1.227   2.153   7.773  0.3966 -0.1995 -0.0502
 1784SOL    HW216989   1.326   2.228   7.849  0.4157 -1.2864 -2.9780
 1785SOL     OW16990   3.974   3.693   8.212 -0.0423  0.0205 -0.5428
 1785SOL    HW116991   3.913   3.619   8.212  1.0737 -0.8829 -1.1112
 1785SOL    HW216992   3.951   3.754   8.282 -2.3930 -1.0916 -0.3299
 1786SOL     OW16993   3.522   0.765   0.132 -0.0021 -0.5856 -0.1098
 1786SOL    HW116994   3.539   0.759   0.038  0.9130  0.6547 -0.0268
 1786SOL    HW216995   3.600   0.811   0.164  0.7690 -1.5402 -0.6383
 1787SOL     OW16996   0.158   4.363   8.207  0.1159  0.0963  0.2200
 1787SOL    HW116997   0.105   4.292   8.171  0.1053 -0.9409  2.2810
 1787SOL    HW216998   0.210   4.304   8.262 -0.2438 -0.7398 -0.3401
 1788SOL     OW16999   3.626   4.596   9.019 -0.2326  0.2806 -0.6504
 1788SOL    HW117000   3.662   4.683   9.001 -0.1664 -0.1255 -2.4625
 1788SOL    HW217001   3.706   4.549   8.996 -0.9133 -0.9053 -0.5707
 1789SOL     OW17002   3.664   1.005   2.913  0.5167 -0.2423 -0.0192
 1789SOL    HW117003   3.599   0.958   2.966  1.5622  0.9591  2.2970
 1789SOL    HW217004   3.680   0.937   2.847  1.9105 -1.2474  1.3647
 1790SOL     OW17005   2.966   3.914   6.341  0.3389  0.3558 -0.2547
 1790SOL    HW117006   2.988   4.006   6.327 -0.9707  0.5995 -0.7466
 1790SOL    HW217007   2.887   3.927   6.393  0.4260  0.0634 -0.0460
 1791SOL     OW17008   2.351   4.041   8.365  0.1483  0.6122  0.0129
 1791SOL    HW117009   2.404   4.119   8.348  1.9077 -0.3212  1.2350
 1791SOL    HW217010   2.287   4.076   8.304 -0.9862  1.5049  1.7054
 1792SOL     OW17011   2.505   4.106   8.935 -0.4076 -0.2295  0.1874
 1792SOL    HW117012   2.468   4.131   8.851  2.3145  1.7517 -0.4383
 1792SOL    HW217013   2.436   4.053   8.975 -0.1216  1.0089  2.3080
 1793SOL     OW17014   0.228   1.101   5.527  0.2857  0.0478 -0.2144
 1793SOL    HW117015   0.283   1.024   5.542 -1.4910 -1.1189  0.3144
 1793SOL    HW217016   0.240   1.122   5.434 -1.2225  0.0603 -0.3957
 1794SOL     OW17017   3.882   4.031   4.308  0.1057 -0.2990  0.2868
 1794SOL    HW117018   3.970   4.067   4.298  0.6418 -1.8354 -0.4946
 1794SOL    HW217019   3.843   4.041   4.221  0.2738  2.6338  0.5301
 1795SOL     OW17020   0.761   1.145  11.337 -0.0002 -0.5045 -0.0406
 1795SOL    HW117021   0.800   1.138  11.424 -1.2352  0.5305  0.5875
 1795SOL    HW217022   0.672   1.173  11.355  0.0843 -0.7830  0.8295
 1796SOL     OW17023   4.350   4.588   8.486 -0.0995 -0.1664 -0.3693
 1796SOL    HW117024   4.405   4.564   8.561  0.4378 -0.5269 -0.8878
 1796SOL    HW217025   4.388   4.671   8.457  0.0811  0.0093  0.3661
 1797SOL     OW17026   0.141   4.034   6.784  0.4343  0.5693  0.3288
 1797SOL    HW117027   0.140   4.098   6.855 -1.4494  0.5584  0.3275
 1797SOL    HW217028   0.198   3.962   6.809  0.0210 -0.1108 -0.6744
 1798SOL     OW17029   3.507   4.151   6.401 -0.6471  0.7070  0.3863
 1798SOL    HW117030   3.441   4.211   6.436  0.7716  2.6918 -0.3464
 1798SOL    HW217031   3.446   4.098   6.350 -0.1763  0.9580 -0.4501
 1799SOL     OW17032   2.137   0.041   3.528 -0.2109  0.0732  0.6252
 1799SOL    HW117033   2.198   4.718   3.576 -1.4344 -2.1533 -0.4780
 1799SOL    HW217034   2.061   4.719   3.511 -0.1613  0.6407 -1.3743
 1800SOL     OW17035   0.581   2.880   8.836  0.9096  0.6693  0.1886
 1800SOL    HW117036   0.649   2.943   8.860 -0.1357  1.4041  1.2316
 1800SOL    HW217037   0.602   2.813   8.900 -0.6152 -0.1109 -0.1224
 1801SOL     OW17038   0.440   0.913   5.590 -0.4355  0.5211 -0.0855
 1801SOL    HW117039   0.494   0.907   5.511  0.8993 -0.4833  0.8888
 1801SOL    HW217040   0.482   0.851   5.650  0.7868  0.7306 -0.7113
 1802SOL     OW17041   3.367   2.276  11.155  0.3116 -0.4709  0.3304
 1802SOL    HW117042   3.398   2.291  11.244  1.3469 -2.6135  0.3248
 1802SOL    HW217043   3.411   2.349  11.111  0.9048 -0.0055  1.7046
 1803SOL     OW17044   1.892   1.161   7.806 -0.3318 -0.0683  0.8196
 1803SOL    HW117045   1.876   1.094   7.873 -0.5945 -0.5922  0.2301
 1803SOL    HW217046   1.863   1.239   7.854 -0.9625  0.9309 -1.2033
 1804SOL     OW17047   3.662   1.885   0.921 -0.1628  0.8768  0.3560
 1804SOL    HW117048   3.582   1.839   0.895  1.3173  0.7379 -3.9674
 1804SOL    HW217049   3.697   1.898   0.833 -1.6633 -1.6919 -0.6062
 1805SOL     OW17050   1.767   3.161   3.149 -0.5079 -0.4531  0.2245
 1805SOL    HW117051   1.697   3.212   3.191  0.8327  1.0634  0.6230
 1805SOL    HW217052   1.817   3.216   3.088  0.5908  0.7555  2.2166
 1806SOL     OW17053   1.979   0.684   4.232 -0.2167 -0.4656  0.1233
 1806SOL    HW117054   2.019   0.602   4.261 -2.4618 -0.4655  3.1952
 1806SOL    HW217055   1.993   0.735   4.312  0.8134 -1.3225  0.4877
 1807SOL     OW17056   4.689   3.219   2.559  0.1684 -0.2845 -0.3191
 1807SOL    HW117057   0.029   3.264   2.599  1.1599 -0.5398 -1.8552
 1807SOL    HW217058   4.723   3.130   2.553 -0.9243 -0.7667  0.5868
 1808SOL     OW17059   1.222   4.279   9.938 -0.2443 -0.0560 -0.1490
 1808SOL    HW117060   1.303   4.278   9.887  1.3635 -1.7244  2.4360
 1808SOL    HW217061   1.178   4.356   9.902 -0.5806  0.8852  2.2656
 1809SOL     OW17062   1.056   2.585  13.055  0.2575  0.3577  0.1277
 1809SOL    HW117063   1.039   2.497  13.022  2.4574 -0.5494  1.3814
 1809SOL    HW217064   1.012   2.635  12.987 -2.0508 -1.7731  0.0706
 1810SOL     OW17065   3.205   2.056   0.226 -0.0658 -0.3231 -0.3953
 1810SOL    HW117066   3.195   1.975   0.276 -0.6437 -0.1583 -0.2487
 1810SOL    HW217067   3.223   2.019   0.139  1.2280  0.6918 -0.5582
 1811SOL     OW17068   4.606   1.189   8.885  0.1776  0.3929  0.0910
 1811SOL    HW117069   4.689   1.177   8.932 -0.4130  1.3924  1.3714
 1811SOL    HW217070   4.543   1.167   8.953 -0.8210 -2.1737 -1.6750
 1812SOL     OW17071   3.190   1.698   4.358  0.3654 -0.1673 -0.2178
 1812SOL    HW117072   3.239   1.616   4.359 -0.7873 -0.8490 -0.3944
 1812SOL    HW217073   3.261   1.749   4.319  1.0472  0.2640  1.5564
 1813SOL     OW17074   0.368   1.904  13.304 -0.0964 -0.2873  0.9015
 1813SOL    HW117075   0.374   1.813  13.276  0.7227 -0.4292  1.5208
 1813SOL    HW217076   0.444   1.912  13.363  0.5258 -1.9567  0.3274
 1814SOL     OW17077   0.468   3.139   6.971 -0.3486  0.0124 -0.1731
 1814SOL    HW117078   0.527   3.208   7.002  0.4038 -0.8220  0.2377
 1814SOL    HW217079   0.403   3.136   7.042  0.3316  1.7711  0.5338
 1815SOL     OW17080   1.557   1.451   2.165  0.4008  0.3006 -0.1596
 1815SOL    HW117081   1.568   1.537   2.125 -2.6081  0.9768  0.4707
 1815SOL    HW217082   1.646   1.419   2.151  0.0317 -0.8151  0.0207
 1816SOL     OW17083   2.890   1.965   6.614  0.6449 -0.0147  0.5310
 1816SOL    HW117084   2.803   1.971   6.653  0.8788 -1.2013  1.2131
 1816SOL    HW217085   2.928   2.021   6.682 -0.1900  0.8118  0.3201
 1817SOL     OW17086   3.480   2.959  15.795 -0.0685 -0.0785 -0.1394
 1817SOL    HW117087   3.483   3.050  15.763 -2.0116 -0.5264 -1.5640
 1817SOL    HW217088   3.511   2.917  15.714 -0.7055  0.0130 -0.4312
 1818SOL     OW17089   0.380   0.539   8.839  0.3282 -0.1567 -0.3331
 1818SOL    HW117090   0.359   0.509   8.750 -2.0720  0.1797  0.1265
 1818SOL    HW217091   0.305   0.589   8.870  0.3858 -0.3786  0.1672
 1819SOL     OW17092   0.449   1.160   4.003 -0.1254 -0.1546  0.6872
 1819SOL    HW117093   0.433   1.173   3.910 -1.5709 -1.8235  0.7089
 1819SOL    HW217094   0.498   1.240   4.022  1.7723 -0.9427 -0.9783
 1820SOL     OW17095   3.151   2.111  11.164  0.3984 -0.2836 -0.3669
 1820SOL    HW117096   3.092   2.151  11.228 -0.1541 -0.4879 -0.7424
 1820SOL    HW217097   3.214   2.180  11.145  1.0509 -0.8302 -0.1773
 1821SOL     OW17098   1.960   0.303   9.382 -0.0070  0.1181  0.0149
 1821SOL    HW117099   1.953   0.397   9.370 -0.2918  0.1529  0.4423
 1821SOL    HW217100   2.015   0.297   9.461 -0.4813  1.2559  0.4285
 1822SOL     OW17101   2.840   4.345   3.595  0.1629 -0.5981  0.2818
 1822SOL    HW117102   2.756   4.347   3.550  1.6073 -1.5414 -2.4095
 1822SOL    HW217103   2.895   4.303   3.529  0.8055 -0.5541  0.7896
 1823SOL     OW17104   2.031   3.919  11.412 -0.4022 -0.1973 -0.3140
 1823SOL    HW117105   2.085   3.978  11.360  0.5629  1.8429  3.0401
 1823SOL    HW217106   1.975   3.881  11.344 -2.6478 -2.0240  2.5593
 1824SOL     OW17107   2.017   3.031   8.886  0.1791 -0.2116 -0.6293
 1824SOL    HW117108   1.971   3.113   8.898  1.4008  0.7540 -2.5053
 1824SOL    HW217109   1.939   2.977   8.875  1.0435 -1.3730 -1.1781
 1825SOL     OW17110   0.709   2.946   3.188 -0.1773  0.2791  0.2658
 1825SOL    HW117111   0.621   2.963   3.155 -0.3448  0.1054  0.6158
 1825SOL    HW217112   0.733   3.033   3.220 -0.0565  0.2261  0.3190
 1826SOL     OW17113   3.829   1.341   6.153  0.4749 -0.5381  0.5522
 1826SOL    HW117114   3.769   1.288   6.099 -1.0249  0.8231  0.8835
 1826SOL    HW217115   3.910   1.327   6.104 -0.2715 -2.7064 -0.0793
 1827SOL     OW17116   0.374   1.865   7.888 -0.1420  0.6525 -0.4328
 1827SOL    HW117117   0.285   1.893   7.865  0.4030  0.8526 -2.3093
 1827SOL    HW217118   0.373   1.776   7.851  0.0393 -0.5846  2.5505
 1828SOL     OW17119   2.166   1.357   8.610 -0.1603 -0.0688 -0.5687
 1828SOL    HW117120   2.153   1.451   8.623  1.3499 -0.2368  2.0847
 1828SOL    HW217121   2.105   1.318   8.672  0.0405  0.4593 -0.0384
 1829SOL     OW17122   4.030   2.146   3.117  0.2257  0.1057  0.5713
 1829SOL    HW117123   4.116   2.179   3.092  0.8276  0.7755  3.5778
 1829SOL    HW217124   4.015   2.209   3.187 -0.4158  0.1231  0.4204
 1830SOL     OW17125   3.488   0.069   6.717  0.0599 -0.8613  0.3482
 1830SOL    HW117126   3.421   0.053   6.784  0.5552 -1.5290  0.6795
 1830SOL    HW217127   3.510   4.710   6.711  0.0684 -0.9481  1.6463
 1831SOL     OW17128   3.532   2.787   6.674 -1.1371 -0.0668  0.5529
 1831SOL    HW117129   3.503   2.732   6.602  1.2624 -0.5623 -0.0240
 1831SOL    HW217130   3.458   2.847   6.690  2.0574  4.2922 -0.9194
 1832SOL     OW17131   1.366   4.378   4.565 -0.1340 -0.7113  0.2160
 1832SOL    HW117132   1.429   4.447   4.543 -0.4626 -0.7393 -0.8248
 1832SOL    HW217133   1.297   4.424   4.613 -0.0683  1.1088 -1.4359
 1833SOL     OW17134   0.477   0.462  12.434 -0.0497  0.2886  0.1289
 1833SOL    HW117135   0.474   0.519  12.357  0.3611  1.1534  0.7561
 1833SOL    HW217136   0.383   0.442  12.433  0.0789 -0.1512 -2.4036
 1834SOL     OW17137   2.013   2.497   0.734  0.3887  0.0143 -0.5093
 1834SOL    HW117138   1.966   2.440   0.673  1.2186 -0.5348 -0.6377
 1834SOL    HW217139   1.969   2.582   0.728 -1.7047 -1.1700 -1.9312
 1835SOL     OW17140   4.634   0.995   3.637  0.0899  0.2362 -0.2136
 1835SOL    HW117141   4.539   1.004   3.633  0.1361  0.2854 -1.0972
 1835SOL    HW217142   4.653   1.015   3.546 -1.0901 -1.8024 -0.9176
 1836SOL     OW17143   2.310   3.679   1.470  0.2998 -0.0748 -0.9917
 1836SOL    HW117144   2.276   3.590   1.465  0.0023 -0.0681  0.9929
 1836SOL    HW217145   2.324   3.672   1.564 -0.0726  1.2453 -0.8356
 1837SOL     OW17146   0.093   1.216   7.123 -0.1264  0.3053  0.3184
 1837SOL    HW117147   0.010   1.234   7.166 -0.3567  0.4379 -0.1770
 1837SOL    HW217148   0.158   1.257   7.180  0.8121 -2.5326  1.3152
 1838SOL     OW17149   4.031   4.444  16.274 -0.2102 -0.3226  0.6518
 1838SOL    HW117150   3.968   4.470  16.206 -1.4254 -3.4926  0.5827
 1838SOL    HW217151   4.034   4.520  16.332  1.4668 -1.4245  2.0055
 1839SOL     OW17152   0.151   0.349   1.198 -0.7620 -0.4695 -0.4518
 1839SOL    HW117153   0.110   0.295   1.130 -2.8350  0.8684 -0.2535
 1839SOL    HW217154   0.143   0.434   1.154 -0.4041  0.3887  1.1595
 1840SOL     OW17155   0.516   0.411   6.174 -0.5281 -0.8593  0.5436
 1840SOL    HW117156   0.535   0.345   6.109  0.6881  0.2494 -0.2349
 1840SOL    HW217157   0.596   0.414   6.227 -0.0487 -2.1596 -0.1275
 1841SOL     OW17158   2.808   2.976   3.840  0.1520 -0.3491  0.2008
 1841SOL    HW117159   2.858   2.948   3.917 -0.4521  2.2525  1.5256
 1841SOL    HW217160   2.743   3.027   3.889  0.1074 -1.3211  1.1422
 1842SOL     OW17161   3.681   4.087   3.559  0.1569  0.0532 -0.0764
 1842SOL    HW117162   3.709   4.094   3.468  0.8072  2.0986  0.2877
 1842SOL    HW217163   3.735   4.016   3.591 -0.2675 -0.4969 -0.5812
 1843SOL     OW17164   3.080   0.723  17.524  0.3720 -0.4200 -0.4528
 1843SOL    HW117165   3.141   0.685  17.587  0.7340  1.0964  0.0938
 1843SOL    HW217166   3.029   0.643  17.507  0.2964 -0.3842 -0.3904
 1844SOL     OW17167   0.833   3.261   2.895 -0.1892 -0.2343 -0.0738
 1844SOL    HW117168   0.924   3.235   2.883 -0.4273 -1.9945  1.8805
 1844SOL    HW217169   0.797   3.189   2.948  0.8108 -0.1126  0.7768
 1845SOL     OW17170   2.699   1.419   7.436 -0.4598 -0.3504 -0.3854
 1845SOL    HW117171   2.790   1.392   7.421 -0.0840  0.4320  0.4497
 1845SOL    HW217172   2.706   1.450   7.527  2.8930  0.8514 -1.0296
 1846SOL     OW17173   2.193   2.510   5.272 -0.4398  0.1259  0.2199
 1846SOL    HW117174   2.247   2.589   5.263 -1.0746  0.4568 -0.6749
 1846SOL    HW217175   2.110   2.540   5.309  0.2345  1.2921  0.7833
 1847SOL     OW17176   0.493   4.473   2.733 -0.4958 -0.0941 -0.1919
 1847SOL    HW117177   0.547   4.503   2.660 -1.0009  2.3055  0.4205
 1847SOL    HW217178   0.504   4.378   2.728  1.3804  0.1727 -0.9335
 1848SOL     OW17179   1.874   0.855   2.314  0.4094  0.3990 -0.1982
 1848SOL    HW117180   1.866   0.879   2.406 -0.9917  0.5776 -0.3643
 1848SOL    HW217181   1.786   0.826   2.291  0.7300  0.8968 -2.0469
 1849SOL     OW17182   1.444   0.194   2.396  0.2622  0.7110 -0.1015
 1849SOL    HW117183   1.459   0.180   2.302  0.9796  3.4913 -0.4101
 1849SOL    HW217184   1.351   0.215   2.396  0.1082  0.0161  0.4556
 1850SOL     OW17185   4.165   1.165   6.499 -0.1474  0.1196  0.4007
 1850SOL    HW117186   4.172   1.124   6.584  0.7979 -0.0699  0.2321
 1850SOL    HW217187   4.137   1.255   6.519  0.7429  0.1928  1.2780
 1851SOL     OW17188   0.622   1.299   8.944 -0.0253  0.2628  0.0123
 1851SOL    HW117189   0.700   1.261   8.903  1.2896 -0.1881  2.9062
 1851SOL    HW217190   0.566   1.224   8.959  0.5358 -0.3263 -0.8456
 1852SOL     OW17191   0.700   3.550   6.372  0.2042 -0.6100 -0.0243
 1852SOL    HW117192   0.609   3.532   6.349  0.6495 -0.3557 -2.0613
 1852SOL    HW217193   0.739   3.488   6.311 -0.7176  1.3756 -2.6436
 1853SOL     OW17194   3.765   1.375  11.543  1.0024  0.2794 -0.0317
 1853SOL    HW117195   3.750   1.320  11.466 -3.3269  0.3387  0.7392
 1853SOL    HW217196   3.758   1.462  11.503  0.4351  0.8849  1.3620
 1854SOL     OW17197   3.790   2.301  12.202 -0.2135 -0.3179 -0.2190
 1854SOL    HW117198   3.806   2.396  12.199  3.1038 -0.9375 -1.6525
 1854SOL    HW217199   3.700   2.290  12.170  0.3986 -2.5262 -1.1521
 1855SOL     OW17200   0.396   4.062   8.257  0.1933  0.1899 -0.6107
 1855SOL    HW117201   0.361   4.098   8.338 -0.6338 -0.2054 -0.7954
 1855SOL    HW217202   0.329   3.994   8.248 -0.6374  0.6976  1.6431
 1856SOL     OW17203   3.009   3.490   8.021 -0.0169 -0.3978  0.7475
 1856SOL    HW117204   3.098   3.455   8.026  0.2104  0.2877  1.5533
 1856SOL    HW217205   2.978   3.493   8.112 -3.2976 -1.6486 -0.3011
 1857SOL     OW17206   4.518   2.371  14.459  0.0102  0.2576 -0.7651
 1857SOL    HW117207   4.424   2.387  14.449 -0.2026  0.0541  0.8082
 1857SOL    HW217208   4.530   2.278  14.480 -0.7594  0.5041  0.7735
 1858SOL     OW17209   1.908   3.277   8.902 -0.2768 -0.5191  0.2072
 1858SOL    HW117210   1.885   3.339   8.972 -2.3647 -1.1634  0.0728
 1858SOL    HW217211   1.832   3.286   8.844 -1.1150 -1.3600  1.1830
 1859SOL     OW17212   2.264   3.278   6.150 -0.7732 -0.0817  0.0331
 1859SOL    HW117213   2.290   3.247   6.237 -0.8583 -0.6217 -0.1366
 1859SOL    HW217214   2.227   3.197   6.115  0.5307 -1.3874  1.6869
 1860SOL     OW17215   4.372   1.655   7.392 -0.0755 -0.2031 -0.0421
 1860SOL    HW117216   4.459   1.628   7.361 -0.5412 -0.1663 -1.4015
 1860SOL    HW217217   4.362   1.597   7.467  1.6674 -2.5687 -1.6225
 1861SOL     OW17218   2.686   2.241  17.640 -0.1676 -0.1584  0.0996
 1861SOL    HW117219   2.621   2.310  17.627  0.4411  0.3203 -0.4358
 1861SOL    HW217220   2.729   2.274  17.719  0.1096  0.8848 -0.4795
 1862SOL     OW17221   4.142   0.050   9.081 -0.1297  0.0552 -0.8727
 1862SOL    HW117222   4.118   0.098   9.002 -0.0163  0.8757 -0.4094
 1862SOL    HW217223   4.236   0.058   9.064 -0.2179  0.5296 -1.1607
 1863SOL     OW17224   0.890   2.846  15.282 -0.3064  0.0609 -0.8638
 1863SOL    HW117225   0.860   2.786  15.350  1.4661 -0.7668 -0.8056
 1863SOL    HW217226   0.902   2.927  15.331 -1.2466  0.8867 -2.0069
 1864SOL     OW17227   4.260   0.183   8.505  0.4425  0.2118  0.1148
 1864SOL    HW117228   4.167   0.205   8.518  0.9276  1.8590  0.8581
 1864SOL    HW217229   4.278   0.237   8.428 -1.2387 -0.1395 -0.5342
 1865SOL     OW17230   3.399   3.868   1.275 -0.0254  0.7016 -0.0068
 1865SOL    HW117231   3.423   3.866   1.183  0.4564 -1.5898  0.1706
 1865SOL    HW217232   3.323   3.926   1.275 -1.6697 -1.4659 -1.2230
 1866SOL     OW17233   4.251   0.748   6.292 -0.0797 -0.4429  0.6497
 1866SOL    HW117234   4.195   0.741   6.215  1.3928 -0.1170 -0.4581
 1866SOL    HW217235   4.186   0.767   6.359  0.0995 -3.0827  1.5791
 1867SOL     OW17236   3.272   1.929   7.340 -0.4487  0.5412  0.1337
 1867SOL    HW117237   3.329   1.963   7.271  1.4207  0.7225  1.7764
 1867SOL    HW217238   3.286   1.995   7.409  0.1051  1.2249 -0.6306
 1868SOL     OW17239   0.664   1.042   0.491  0.1589  0.0753 -0.5971
 1868SOL    HW117240   0.577   1.083   0.496 -0.3783 -0.9935 -1.3061
 1868SOL    HW217241   0.651   0.976   0.423 -0.1116 -0.3648 -0.1156
 1869SOL     OW17242   0.470   1.645   5.614  0.5141 -0.2928 -0.3195
 1869SOL    HW117243   0.491   1.557   5.586 -0.7058  0.0172 -2.1969
 1869SOL    HW217244   0.557   1.684   5.624  1.6954 -3.1242  0.4253
 1870SOL     OW17245   4.252   4.706   3.603  0.5377 -0.2206  0.1701
 1870SOL    HW117246   4.200   4.631   3.575 -0.2373  0.3006  0.1959
 1870SOL    HW217247   4.300   4.651   3.664 -2.8629 -0.3563  2.7055
 1871SOL     OW17248   0.725   2.347   3.880 -0.1968  0.6594 -0.0293
 1871SOL    HW117249   0.705   2.289   3.806 -0.5699  0.7021  0.0366
 1871SOL    HW217250   0.767   2.427   3.850  0.0313  0.4694 -0.2211
 1872SOL     OW17251   0.635   0.565   8.200  0.3133  0.3914 -0.8478
 1872SOL    HW117252   0.706   0.503   8.183  0.0897 -0.4066  1.1699
 1872SOL    HW217253   0.619   0.592   8.109 -1.0367  0.1966 -0.6649
 1873SOL     OW17254   3.229   0.350  12.461 -0.2046 -0.5713 -0.4074
 1873SOL    HW117255   3.281   0.276  12.430 -1.5573 -0.1660 -3.6009
 1873SOL    HW217256   3.288   0.398  12.520 -1.2802 -1.7115  1.5827
 1874SOL     OW17257   1.792   0.153  16.470  0.4436 -0.1739 -0.3778
 1874SOL    HW117258   1.865   0.214  16.465 -2.5102  3.6795  2.9150
 1874SOL    HW217259   1.825   0.089  16.533  1.7917  0.2894 -0.6170
 1875SOL     OW17260   3.791   4.274   6.836 -0.3632  0.9862  0.2417
 1875SOL    HW117261   3.877   4.243   6.866  1.6081  3.5304 -2.8225
 1875SOL    HW217262   3.746   4.190   6.829 -0.0498  0.8749 -0.4212
 1876SOL     OW17263   1.524   1.129  12.017 -0.0770  0.2106  0.0029
 1876SOL    HW117264   1.443   1.137  11.966  0.2266 -2.7221 -0.9687
 1876SOL    HW217265   1.480   1.077  12.084 -0.1279 -0.1098 -0.2802
 1877SOL     OW17266   2.244   3.575   5.919  0.2089 -0.0589 -0.3642
 1877SOL    HW117267   2.169   3.548   5.866 -1.1514  0.5960  1.2065
 1877SOL    HW217268   2.306   3.580   5.847 -0.2570  1.7731 -0.6473
 1878SOL     OW17269   2.646   2.510   1.961 -0.7658 -0.5825 -0.2384
 1878SOL    HW117270   2.580   2.580   1.962 -0.0594  0.0473  0.7799
 1878SOL    HW217271   2.696   2.548   1.889  0.5498 -1.2602  0.3307
 1879SOL     OW17272   2.975   1.148   2.319 -0.4630  0.3466  0.4527
 1879SOL    HW117273   3.047   1.115   2.373  0.5087 -0.2181 -1.2097
 1879SOL    HW217274   3.011   1.153   2.231 -0.1396 -0.0482  0.5660
 1880SOL     OW17275   1.344   4.273   5.830  0.3767 -0.0728 -0.1835
 1880SOL    HW117276   1.352   4.289   5.736  0.2733 -0.7774 -0.3135
 1880SOL    HW217277   1.374   4.182   5.827 -0.0166 -0.2701  1.8874
 1881SOL     OW17278   4.049   3.403   6.733  0.0223 -0.0024  0.6625
 1881SOL    HW117279   4.138   3.375   6.710  0.0182  0.9988 -0.5559
 1881SOL    HW217280   4.051   3.396   6.828 -0.6760 -0.0126  0.6813
 1882SOL     OW17281   1.049   2.224  11.825  0.4029  0.4093 -0.4750
 1882SOL    HW117282   1.008   2.239  11.910  0.4989  1.5504 -0.6282
 1882SOL    HW217283   0.982   2.267  11.772  0.6017  0.6193 -0.5572
 1883SOL     OW17284   0.112   0.385   4.649 -0.0890  0.5613  0.1894
 1883SOL    HW117285   0.062   0.304   4.660  2.6072 -1.1820 -0.5026
 1883SOL    HW217286   0.179   0.370   4.583  1.1674 -0.8068  1.7688
 1884SOL     OW17287   1.076   0.848   4.077 -0.1839 -0.0092 -0.2611
 1884SOL    HW117288   1.021   0.806   4.010  0.8064 -2.0168  0.1989
 1884SOL    HW217289   1.166   0.822   4.061 -0.2449 -0.4141  0.0672
 1885SOL     OW17290   3.442   2.570   5.938  0.3393  0.1245  0.0107
 1885SOL    HW117291   3.415   2.485   5.903  1.4493 -0.5946  0.9401
 1885SOL    HW217292   3.394   2.573   6.021 -0.3144  1.8421 -0.4239
 1886SOL     OW17293   3.899   3.106   0.287  0.0955 -0.0966 -0.2798
 1886SOL    HW117294   3.812   3.107   0.327  0.1690  1.8245 -0.1554
 1886SOL    HW217295   3.930   3.018   0.309 -2.6012 -1.4424 -1.8455
 1887SOL     OW17296   1.041   4.242  10.411  0.0460 -0.6472 -0.1204
 1887SOL    HW117297   1.032   4.197  10.327 -1.9892  1.1453 -0.8462
 1887SOL    HW217298   1.020   4.167  10.467 -1.8774  0.7223  0.9792
 1888SOL     OW17299   2.569   3.445   8.603 -0.1582 -0.1387  0.3036
 1888SOL    HW117300   2.591   3.538   8.595  1.0880 -0.0633  4.5211
 1888SOL    HW217301   2.580   3.418   8.512  0.2371 -0.6675  0.5133
 1889SOL     OW17302   0.465   0.053  16.593 -0.2121 -0.4910 -0.1591
 1889SOL    HW117303   0.409   0.114  16.544 -0.5538 -0.0249  0.8044
 1889SOL    HW217304   0.510   0.116  16.648 -2.1000  2.4210 -1.9428
 1890SOL     OW17305   1.655   0.755   3.685 -0.2554  0.2230 -0.0482
 1890SOL    HW117306   1.629   0.845   3.708 -2.2912 -0.5320  0.5684
 1890SOL    HW217307   1.720   0.742   3.754  2.1622  1.9805 -2.0170
 1891SOL     OW17308   2.157   0.673   4.840  0.1126  0.1391 -0.2158
 1891SOL    HW117309   2.080   0.624   4.813  0.9001 -0.8453 -0.7044
 1891SOL    HW217310   2.146   0.751   4.786 -0.2270  0.2220 -0.0192
 1892SOL     OW17311   4.417   1.921   9.185  0.5053 -0.4289  0.0151
 1892SOL    HW117312   4.509   1.946   9.197  0.2510  0.2964  0.4455
 1892SOL    HW217313   4.378   1.984   9.245  0.6866  1.7473 -2.1684
 1893SOL     OW17314   3.452   2.560   3.989 -0.1146 -0.3643  0.3352
 1893SOL    HW117315   3.509   2.531   3.918 -0.2626 -1.8002  0.8095
 1893SOL    HW217316   3.368   2.557   3.944  0.0782  0.3226 -0.0785
 1894SOL     OW17317   4.614   0.595   4.390  0.3487  0.3793  0.3197
 1894SOL    HW117318   4.568   0.679   4.380 -2.0956 -1.0451 -0.1979
 1894SOL    HW217319   4.704   0.624   4.406  0.7943 -2.2805  2.5255
 1895SOL     OW17320   0.575   4.212  14.801  0.1012 -0.5310  0.3383
 1895SOL    HW117321   0.513   4.260  14.746  1.2051  1.9709  1.2527
 1895SOL    HW217322   0.659   4.234  14.761 -0.8182  0.4594 -1.0612
 1896SOL     OW17323   0.041   2.304   6.148 -0.5540 -0.3480  0.5617
 1896SOL    HW117324   0.119   2.270   6.104  0.5759  3.1205 -0.1551
 1896SOL    HW217325   0.078   2.378   6.197  0.9903 -1.4409  1.0512
 1897SOL     OW17326   3.067   4.198  14.314 -0.8570  0.2473 -0.6568
 1897SOL    HW117327   3.078   4.218  14.221 -1.7352  1.5220 -0.4893
 1897SOL    HW217328   3.158   4.173  14.331 -1.5438 -1.7902  0.0485
 1898SOL     OW17329   1.747   0.352   2.672  0.3033 -0.6471  0.1139
 1898SOL    HW117330   1.827   0.301   2.657  0.9023  0.5062 -0.5747
 1898SOL    HW217331   1.671   0.299   2.647 -0.5432 -0.7681  2.9056
 1899SOL     OW17332   1.286   4.425   0.095  0.2642  0.4932 -0.2181
 1899SOL    HW117333   1.320   4.481   0.026 -1.8685 -0.7784 -2.3276
 1899SOL    HW217334   1.191   4.427   0.082  0.3356  0.3899 -0.7444
 1900SOL     OW17335   4.399   4.043   3.784  0.3073 -0.1882  0.4633
 1900SOL    HW117336   4.452   4.096   3.844  1.5154  0.9920 -1.6428
 1900SOL    HW217337   4.341   4.111   3.748 -1.3057 -1.2231  1.1186
 1901SOL     OW17338   1.333   2.278  14.149  0.3997 -0.4355 -0.5112
 1901SOL    HW117339   1.387   2.204  14.179  0.0710  0.1216  1.4462
 1901SOL    HW217340   1.257   2.233  14.112 -0.4981 -0.0355  0.8389
 1902SOL     OW17341   1.425   0.700   7.145 -0.5499  0.3172  0.7768
 1902SOL    HW117342   1.343   0.728   7.105 -0.0907 -1.4982 -1.4378
 1902SOL    HW217343   1.468   0.650   7.076  1.2646  2.4657  0.3524
 1903SOL     OW17344   1.956   3.247   3.340 -0.1001 -0.1145 -0.1037
 1903SOL    HW117345   1.935   3.334   3.306 -0.3260 -0.0294  0.2580
 1903SOL    HW217346   1.877   3.204   3.306 -0.2984  2.5028 -2.9860
 1904SOL     OW17347   4.596   0.155  13.286 -0.0248 -0.5259  0.5676
 1904SOL    HW117348   4.537   0.164  13.211  1.5586  0.2519 -0.5847
 1904SOL    HW217349   4.665   0.093  13.259  0.5937  0.4778 -0.1562
 1905SOL     OW17350   1.506   1.597  14.181  0.1930  0.1729  0.6459
 1905SOL    HW117351   1.434   1.638  14.132  0.7826  0.9042  0.3902
 1905SOL    HW217352   1.558   1.556  14.112 -0.7252  0.5806 -0.2931
 1906SOL     OW17353   1.123   0.769   5.265 -0.1493  0.3485  0.6903
 1906SOL    HW117354   1.054   0.774   5.199  1.3715 -1.6270 -1.0497
 1906SOL    HW217355   1.084   0.690   5.304  1.8146 -0.5364  0.8933
 1907SOL     OW17356   3.424   0.438   6.559  0.0101 -0.8293  0.4971
 1907SOL    HW117357   3.498   0.422   6.617  0.4790 -0.0834  0.1009
 1907SOL    HW217358   3.427   0.533   6.561 -1.5663 -0.8149  1.9097
 1908SOL     OW17359   4.476   2.600  13.346 -0.4002 -0.7460 -0.8187
 1908SOL    HW117360   4.433   2.657  13.409  2.5903 -0.1727  0.7044
 1908SOL    HW217361   4.440   2.641  13.267  0.1889 -0.1209 -0.7674
 1909SOL     OW17362   4.251   3.540  15.431  0.1952 -0.8119 -0.1578
 1909SOL    HW117363   4.286   3.541  15.342 -2.6847  2.3941 -1.2588
 1909SOL    HW217364   4.180   3.604  15.422  0.7809 -0.2985 -1.2148
 1910SOL     OW17365   2.426   1.638   8.068  0.0626 -0.1333  0.9932
 1910SOL    HW117366   2.461   1.577   8.133 -1.8589 -0.2884  1.8846
 1910SOL    HW217367   2.471   1.719   8.088 -0.3396  0.2147  0.4804
 1911SOL     OW17368   2.181   4.222   7.903 -0.0017  0.3069  0.5724
 1911SOL    HW117369   2.132   4.152   7.860  0.2698  1.5934 -1.8391
 1911SOL    HW217370   2.157   4.301   7.855 -1.2851  0.0809  0.8335
 1912SOL     OW17371   3.356   1.423  10.609 -0.5037 -0.7848 -0.0763
 1912SOL    HW117372   3.398   1.492  10.661 -0.6895  0.2810 -1.3503
 1912SOL    HW217373   3.383   1.346  10.659 -1.3144 -1.4418 -0.6458
 1913SOL     OW17374   0.751   2.612   6.592 -0.0603  0.3549 -0.1759
 1913SOL    HW117375   0.749   2.533   6.537  0.0342  1.5465 -1.9017
 1913SOL    HW217376   0.681   2.668   6.560 -1.1677  0.8530  3.0992
 1914SOL     OW17377   1.408   1.597   8.211 -0.2287  0.4676 -0.6167
 1914SOL    HW117378   1.498   1.608   8.241 -0.8066  0.1029  1.2282
 1914SOL    HW217379   1.374   1.682   8.183 -1.5189 -0.0004 -0.4645
 1915SOL     OW17380   2.790   3.505   5.665 -0.2019  0.5062  0.3086
 1915SOL    HW117381   2.733   3.471   5.734 -0.4782 -0.2793 -0.3178
 1915SOL    HW217382   2.799   3.596   5.693 -0.2347  1.0512 -1.4387
 1916SOL     OW17383   2.655   1.885   5.003  0.1633  0.8862 -0.0838
 1916SOL    HW117384   2.670   1.971   4.965  2.5575  1.4945  2.2622
 1916SOL    HW217385   2.583   1.907   5.063 -1.1548  0.1020 -1.3638
 1917SOL     OW17386   3.916   1.203   9.642 -0.7822  0.2408  0.3145
 1917SOL    HW117387   3.983   1.223   9.707 -0.7097 -0.5845  0.4915
 1917SOL    HW217388   3.933   1.111   9.618 -0.2461  0.9399 -2.0279
 1918SOL     OW17389   2.028   1.544   7.996 -0.1213  0.4220 -1.0641
 1918SOL    HW117390   2.010   1.563   8.088 -2.7434 -1.6759 -1.1649
 1918SOL    HW217391   2.117   1.581   7.989 -0.9818  3.1019  2.0597
 1919SOL     OW17392   0.829   2.362  11.063  0.4810 -0.2036 -0.4167
 1919SOL    HW117393   0.769   2.288  11.071  1.4996 -0.6843  2.8255
 1919SOL    HW217394   0.845   2.380  11.155 -0.3795  0.9674 -0.5006
 1920SOL     OW17395   1.809   2.564   7.750  0.2015  0.0465  0.2229
 1920SOL    HW117396   1.810   2.647   7.798 -0.9290 -0.3590  0.9327
 1920SOL    HW217397   1.883   2.576   7.690  1.9203 -2.3184  1.8359
 1921SOL     OW17398   2.739   3.565   3.611 -0.2508  0.2958 -0.5132
 1921SOL    HW117399   2.754   3.591   3.702 -2.0452  1.1346 -0.4619
 1921SOL    HW217400   2.805   3.611   3.558  0.2429 -0.0019 -0.1587
 1922SOL     OW17401   2.840   1.175  10.512 -0.4435  0.4194  0.3948
 1922SOL    HW117402   2.904   1.199  10.578 -0.3367  2.1955 -0.3704
 1922SOL    HW217403   2.763   1.225  10.539 -1.4083 -1.1517  0.5716
 1923SOL     OW17404   2.658   2.890   0.086  0.2150 -0.6469 -0.0146
 1923SOL    HW117405   2.689   2.882   0.177 -0.8529  0.1610  0.4255
 1923SOL    HW217406   2.708   2.960   0.045  1.2925 -1.6138 -0.3423
 1924SOL     OW17407   4.056   3.871  15.202 -0.2814  0.1828  0.5180
 1924SOL    HW117408   4.005   3.817  15.142  0.8768 -1.2218  0.7956
 1924SOL    HW217409   4.011   3.955  15.195 -0.6887 -0.0266  0.6491
 1925SOL     OW17410   0.643   1.039   4.882 -0.6473 -0.3800 -0.1671
 1925SOL    HW117411   0.645   0.996   4.796  2.3978  0.4099 -0.4803
 1925SOL    HW217412   0.561   1.009   4.922 -0.1521 -0.6805  0.6159
 1926SOL     OW17413   1.370   4.127   4.683 -0.1401  0.1719 -0.0710
 1926SOL    HW117414   1.435   4.089   4.624 -2.4253 -2.9446 -0.6005
 1926SOL    HW217415   1.359   4.213   4.643 -2.3508 -0.9474 -1.9071
 1927SOL     OW17416   1.615   2.970   1.552 -0.1181  0.4210 -0.0884
 1927SOL    HW117417   1.569   2.894   1.587 -0.9948  0.4129 -1.2643
 1927SOL    HW217418   1.556   3.044   1.569 -0.8221  0.6373 -3.4586
 1928SOL     OW17419   1.099   1.733  10.803 -0.0373  0.4889 -0.0808
 1928SOL    HW117420   1.150   1.813  10.788  2.2389 -0.5966  1.8619
 1928SOL    HW217421   1.164   1.666  10.826 -0.6022  0.9114  2.8002
 1929SOL     OW17422   3.771   0.941   9.080  0.3625  0.2490 -0.0105
 1929SOL    HW117423   3.695   0.945   9.138 -0.0793  0.4379 -0.6025
 1929SOL    HW217424   3.793   1.031   9.059  0.6396  0.2834  0.4293
 1930SOL     OW17425   0.512   1.619   8.471  0.1865  0.2026 -0.2378
 1930SOL    HW117426   0.429   1.605   8.517  1.3185 -1.8044  1.1998
 1930SOL    HW217427   0.538   1.528   8.456 -1.1560  0.0797 -1.9568
 1931SOL     OW17428   2.277   1.197   3.195 -0.0654 -0.4557  0.0479
 1931SOL    HW117429   2.346   1.131   3.202  1.5195  1.1868  0.0263
 1931SOL    HW217430   2.228   1.171   3.273 -1.1744 -1.9799 -1.1706
 1932SOL     OW17431   4.287   3.300   6.664 -0.2621  0.1686 -0.6721
 1932SOL    HW117432   4.278   3.312   6.570 -1.1533 -0.5028 -0.6679
 1932SOL    HW217433   4.323   3.211   6.664 -1.0967 -0.1882  2.8105
 1933SOL     OW17434   1.148   1.192   4.628  0.7952  0.1226  0.7500
 1933SOL    HW117435   1.080   1.198   4.694  1.4831  0.1815  1.4474
 1933SOL    HW217436   1.195   1.113   4.656 -1.1512 -2.2972 -2.7242
 1934SOL     OW17437   4.025   0.349  13.441 -0.7185 -0.0346 -0.7532
 1934SOL    HW117438   4.068   0.342  13.356  0.9337  1.0891 -0.0014
 1934SOL    HW217439   4.103   0.328  13.492 -2.6930  2.9109  3.4970
 1935SOL     OW17440   2.750   4.099  10.361  0.5733 -0.3242  0.1462
 1935SOL    HW117441   2.732   4.168  10.297 -0.5795  3.2882  4.3254
 1935SOL    HW217442   2.663   4.059  10.368 -0.7463  2.4063 -0.3921
 1936SOL     OW17443   3.104   4.666   3.473  0.0037 -0.3255 -0.3034
 1936SOL    HW117444   3.087   4.614   3.394  2.2152 -1.2826 -0.1657
 1936SOL    HW217445   3.094   4.601   3.543  1.3608  1.4190  1.5165
 1937SOL     OW17446   1.228   1.237   6.952 -1.0857 -0.0006  0.5188
 1937SOL    HW117447   1.144   1.263   6.914  0.5404  4.2132 -0.1979
 1937SOL    HW217448   1.236   1.144   6.934  0.7244  0.3609 -0.6106
 1938SOL     OW17449   4.658   2.492  12.754  0.9545 -0.4939  0.4226
 1938SOL    HW117450   4.607   2.411  12.764 -0.5508  0.5137  0.8724
 1938SOL    HW217451   0.010   2.470  12.791  0.3290 -1.1448  1.4871
 1939SOL     OW17452   4.681   0.732   3.706  0.3549 -0.8366 -0.0539
 1939SOL    HW117453   4.622   0.674   3.658 -1.4835 -0.7450  2.0951
 1939SOL    HW217454   4.667   0.813   3.657 -0.3972 -1.2816 -0.5681
 1940SOL     OW17455   1.337   0.014   5.997  0.9635 -0.7156  0.2568
 1940SOL    HW117456   1.422   0.055   5.983 -0.0590  1.7509  1.2559
 1940SOL    HW217457   1.337   4.685   5.924  1.9093 -1.2788  0.7502
 1941SOL     OW17458   0.903   1.486   0.316 -0.2499  0.0581 -0.2238
 1941SOL    HW117459   0.948   1.411   0.277 -1.7432 -0.0702 -1.7276
 1941SOL    HW217460   0.881   1.436   0.395  0.4894 -1.0488 -0.7257
 1942SOL     OW17461   1.504   4.189   4.077  0.0828  0.2440  0.1737
 1942SOL    HW117462   1.481   4.268   4.028 -0.2677 -0.8500 -1.4347
 1942SOL    HW217463   1.442   4.194   4.150 -0.5352 -0.7191 -0.2796
 1943SOL     OW17464   3.872   2.897   9.055  0.1991  0.3997 -0.9621
 1943SOL    HW117465   3.963   2.867   9.068 -0.0003  0.4264  0.5545
 1943SOL    HW217466   3.823   2.863   9.130  0.3505 -2.5615 -2.2052
 1944SOL     OW17467   3.211   2.104   2.240 -0.1247  0.0081 -0.0583
 1944SOL    HW117468   3.292   2.056   2.256 -0.4032 -0.5250 -0.2480
 1944SOL    HW217469   3.227   2.192   2.272 -1.6958  0.6158 -0.9244
 1945SOL     OW17470   0.471   3.047   3.114 -0.2927  0.6738 -0.3474
 1945SOL    HW117471   0.383   3.078   3.136  0.3105  0.6666  2.0098
 1945SOL    HW217472   0.451   3.039   3.020  1.2809 -0.4288 -0.5832
 1946SOL     OW17473   2.691   1.161   7.833 -0.0618  0.0332  0.0694
 1946SOL    HW117474   2.672   1.166   7.927  0.7295 -1.1619  0.2968
 1946SOL    HW217475   2.604   1.160   7.795 -0.5488  1.4659  1.1459
 1947SOL     OW17476   0.980   0.041   7.222 -0.3422  0.0742  0.3089
 1947SOL    HW117477   1.039   0.073   7.289 -1.9722  0.8991  1.3502
 1947SOL    HW217478   0.935   4.701   7.264 -1.9357  1.9249  1.8275
 1948SOL     OW17479   4.600   2.492   6.490  0.0624  0.5640  0.5437
 1948SOL    HW117480   4.666   2.551   6.453  0.1979 -0.4302 -0.8098
 1948SOL    HW217481   4.659   2.444   6.549  0.1814 -1.6339 -1.3775
 1949SOL     OW17482   4.261   3.828   2.734  0.4895  0.5695 -0.0808
 1949SOL    HW117483   4.240   3.815   2.827 -0.9835 -0.0226 -0.4948
 1949SOL    HW217484   4.348   3.869   2.739  1.3806 -1.1003 -1.8879
 1950SOL     OW17485   2.178   4.408  10.493  0.4075  0.4323 -0.2051
 1950SOL    HW117486   2.140   4.356  10.564  0.9708 -0.5068 -0.5836
 1950SOL    HW217487   2.122   4.387  10.418  1.3202  0.2016 -0.8281
 1951SOL     OW17488   0.973   0.728   2.173 -0.2392 -0.3465  0.1611
 1951SOL    HW117489   0.921   0.648   2.160  0.6300 -1.0952  1.3002
 1951SOL    HW217490   0.903   0.772   2.221 -0.0115 -0.6049  0.7314
 1952SOL     OW17491   4.214   2.570   2.088 -0.3182 -0.0242  0.4726
 1952SOL    HW117492   4.130   2.575   2.135 -1.7717 -1.2069 -1.9736
 1952SOL    HW217493   4.181   2.551   2.000  0.0875  1.3166  0.0203
 1953SOL     OW17494   3.726   2.438   6.435  0.2189  0.4927  0.4175
 1953SOL    HW117495   3.779   2.440   6.515 -0.0376 -0.0502  0.6058
 1953SOL    HW217496   3.698   2.347   6.430 -1.7574  1.2461 -2.1500
 1954SOL     OW17497   2.904   3.970   1.827  0.0269 -0.1846  0.3450
 1954SOL    HW117498   2.826   4.021   1.849  0.2515 -0.4168  1.6458
 1954SOL    HW217499   2.937   4.029   1.759 -1.3271 -1.2767 -1.2762
 1955SOL     OW17500   2.308   2.915   3.189 -0.3546 -0.1762 -0.1217
 1955SOL    HW117501   2.251   2.965   3.130 -1.6899 -0.8615  0.5878
 1955SOL    HW217502   2.393   2.951   3.165 -1.1706  1.1961 -0.9496
 1956SOL     OW17503   0.383   1.650  13.773  0.2618 -0.2006 -0.3294
 1956SOL    HW117504   0.304   1.669  13.824  0.9440  0.2386  0.5544
 1956SOL    HW217505   0.403   1.736  13.736  2.1989 -1.2835 -1.8288
 1957SOL     OW17506   1.490   1.184   3.364 -0.2547  0.6400  0.4354
 1957SOL    HW117507   1.413   1.127   3.372 -0.8165  1.3646  0.2826
 1957SOL    HW217508   1.496   1.173   3.269 -1.8588  0.2292  0.3667
 1958SOL     OW17509   4.247   3.289  16.386  0.7172 -0.6976  0.1260
 1958SOL    HW117510   4.201   3.226  16.330 -0.7886 -0.2569  0.8803
 1958SOL    HW217511   4.212   3.372  16.355  1.4006  0.0011  1.2094
 1959SOL     OW17512   0.081   1.575  15.686  0.9017  0.4947  0.1770
 1959SOL    HW117513   0.139   1.647  15.661  3.0040 -0.5040  2.1697
 1959SOL    HW217514   0.102   1.516  15.614 -1.5322 -3.0520  2.3175
 1960SOL     OW17515   3.526   2.643   7.676  0.5843 -0.3881  0.0172
 1960SOL    HW117516   3.599   2.582   7.674 -0.3751 -1.5394 -0.1668
 1960SOL    HW217517   3.514   2.631   7.770  0.4209 -0.8991 -0.0699
 1961SOL     OW17518   1.902   2.832   0.407  0.5459  0.0990  0.2444
 1961SOL    HW117519   1.881   2.799   0.494 -3.0589 -0.9175 -1.0260
 1961SOL    HW217520   1.862   2.765   0.351  0.7581  0.6728 -0.6000
 1962SOL     OW17521   1.671   1.775   5.052 -0.1966  0.5706  0.2203
 1962SOL    HW117522   1.727   1.845   5.020  1.5834  0.0131  2.0870
 1962SOL    HW217523   1.637   1.743   4.969  1.9467  0.3096 -0.5660
 1963SOL     OW17524   4.531   1.573   5.660 -1.0345 -0.1218  0.8116
 1963SOL    HW117525   4.444   1.550   5.692 -1.9217 -0.8810 -2.1574
 1963SOL    HW217526   4.583   1.501   5.697  1.4094  0.7726 -0.8557
 1964SOL     OW17527   4.229   0.997   8.045 -0.0652  0.0670 -0.1556
 1964SOL    HW117528   4.252   1.047   8.124 -0.7844 -1.1398  0.8100
 1964SOL    HW217529   4.283   0.920   8.060 -1.1256 -1.3324 -3.6447
 1965SOL     OW17530   2.288   3.605   9.597  0.2344 -0.1646 -0.1285
 1965SOL    HW117531   2.316   3.682   9.547 -0.4279  1.5147  2.0769
 1965SOL    HW217532   2.325   3.633   9.681  0.6827  0.0906 -0.4087
 1966SOL     OW17533   2.183   0.354   4.247  0.0776 -0.3743 -0.0391
 1966SOL    HW117534   2.245   0.425   4.263  0.1698 -0.2908 -0.7530
 1966SOL    HW217535   2.169   0.320   4.335 -0.9775 -0.5795 -0.2881
 1967SOL     OW17536   1.588   1.727   0.660  0.1686  0.0216  0.0998
 1967SOL    HW117537   1.653   1.792   0.687  1.1838 -0.7362 -0.5167
 1967SOL    HW217538   1.618   1.647   0.702  0.4838  0.4478  0.6940
 1968SOL     OW17539   2.294   2.486   6.733 -0.0329 -0.3237 -0.2085
 1968SOL    HW117540   2.223   2.522   6.680  2.5338  2.3761 -1.7934
 1968SOL    HW217541   2.374   2.526   6.698  0.4266 -1.2976 -0.2991
 1969SOL     OW17542   4.047   3.978   8.466 -0.0814 -0.3193 -0.1486
 1969SOL    HW117543   3.966   3.950   8.508 -0.3272 -0.6173 -0.8268
 1969SOL    HW217544   4.104   3.989   8.542 -1.3564 -1.0736  0.9134
 1970SOL     OW17545   3.499   1.689   8.726 -0.0321  0.3261  0.3058
 1970SOL    HW117546   3.491   1.615   8.665 -0.3347  0.6019  0.0117
 1970SOL    HW217547   3.577   1.661   8.774 -0.9347 -2.9141 -0.0997
 1971SOL     OW17548   1.571   0.967  11.579 -0.8359  0.1030 -0.1483
 1971SOL    HW117549   1.552   0.878  11.606 -2.3129  0.2641 -0.6443
 1971SOL    HW217550   1.557   0.957  11.484 -1.1643 -1.8251  0.1194
 1972SOL     OW17551   2.643   0.026   8.952 -0.1308  0.3271 -0.1853
 1972SOL    HW117552   2.666   0.016   9.044  0.7022 -0.7714 -0.5159
 1972SOL    HW217553   2.568   4.701   8.947  1.5152 -1.7409 -0.7994
 1973SOL     OW17554   4.729   3.641  17.553 -0.2919 -0.1924 -0.1325
 1973SOL    HW117555   0.059   3.693  17.504 -1.7313  1.7691  0.1025
 1973SOL    HW217556   4.655   3.701  17.549 -0.2916 -0.1195  0.9619
 1974SOL     OW17557   3.448   3.343   7.799  0.2119 -0.0534  0.1476
 1974SOL    HW117558   3.534   3.315   7.831  0.3389  0.5572  0.3353
 1974SOL    HW217559   3.463   3.424   7.751  2.1957  1.2814  3.0978
 1975SOL     OW17560   1.662   2.400   2.947 -0.4415 -0.1907  0.4720
 1975SOL    HW117561   1.627   2.313   2.964  0.5081 -0.2370  2.2480
 1975SOL    HW217562   1.592   2.456   2.980  0.4283 -0.0144  2.0214
 1976SOL     OW17563   1.109   2.946  14.358 -0.0507  0.3371 -0.3801
 1976SOL    HW117564   1.169   2.881  14.394 -0.5858  0.7633  1.2918
 1976SOL    HW217565   1.161   3.000  14.298  1.6021 -1.2746 -0.3888
 1977SOL     OW17566   0.071   0.581   2.847 -0.0835 -0.2307  0.2122
 1977SOL    HW117567   0.098   0.545   2.932  0.1533  1.5245  0.8656
 1977SOL    HW217568   0.038   0.665   2.878  1.3348  1.5591 -3.1458
 1978SOL     OW17569   3.780   2.725   7.135 -0.0179 -0.9014 -0.2047
 1978SOL    HW117570   3.730   2.649   7.165 -1.2970  0.1759  0.3940
 1978SOL    HW217571   3.737   2.747   7.053 -1.6637  3.3094  1.8122
 1979SOL     OW17572   3.457   1.973   8.353 -0.2096  1.0847  0.2042
 1979SOL    HW117573   3.363   1.973   8.371 -0.2391 -0.8826  0.0715
 1979SOL    HW217574   3.467   1.878   8.353  1.9687  1.3175  1.3077
 1980SOL     OW17575   0.638   1.818   5.308  0.3256 -0.2513  0.4802
 1980SOL    HW117576   0.655   1.724   5.310  0.6385 -0.1972  0.3739
 1980SOL    HW217577   0.729   1.847   5.298  0.0356  1.0000  1.4621
 1981SOL     OW17578   1.801   2.482   8.006  0.0679 -0.5612  0.0701
 1981SOL    HW117579   1.816   2.481   7.912  0.7345 -1.3486  0.1770
 1981SOL    HW217580   1.879   2.519   8.047  0.8204 -2.4293  0.3490
 1982SOL     OW17581   4.128   4.258   0.649  0.3020 -0.0078 -0.0782
 1982SOL    HW117582   4.055   4.199   0.626  1.6262 -1.6566 -0.0600
 1982SOL    HW217583   4.086   4.336   0.685 -0.3591  0.0152 -0.9049
 1983SOL     OW17584   2.834   0.019   3.420 -0.1193  0.2035  0.5634
 1983SOL    HW117585   2.915   4.719   3.458 -0.4573 -0.3742  0.7586
 1983SOL    HW217586   2.780   0.014   3.499 -0.2081 -0.9034  0.4325
 1984SOL     OW17587   1.365   4.373   6.556  0.2909  0.2660  0.0856
 1984SOL    HW117588   1.306   4.410   6.491  2.2211  0.3829 -1.6182
 1984SOL    HW217589   1.448   4.411   6.528  2.1647 -2.6685  1.6765
 1985SOL     OW17590   1.159   0.358   8.623 -0.1498 -0.5386  0.1812
 1985SOL    HW117591   1.126   0.274   8.653 -2.5112  0.9042  1.6713
 1985SOL    HW217592   1.174   0.341   8.530 -0.4456 -0.0676  0.0432
 1986SOL     OW17593   4.397   0.286   3.245 -0.3443 -0.3547  0.2789
 1986SOL    HW117594   4.427   0.208   3.292 -0.4568 -0.1972  0.6135
 1986SOL    HW217595   4.390   0.254   3.155 -0.6051 -0.4898  0.3493
 1987SOL     OW17596   2.001   1.212  14.871  0.0535  0.1405  0.3268
 1987SOL    HW117597   2.065   1.199  14.801  0.7225  0.5647  0.8564
 1987SOL    HW217598   2.045   1.249  14.948  0.4822  1.0467 -0.3664
 1988SOL     OW17599   2.538   4.486   8.651 -0.0372 -0.4081  0.4721
 1988SOL    HW117600   2.627   4.456   8.670  0.9597  1.9052 -0.4147
 1988SOL    HW217601   2.555   4.561   8.594 -0.3379 -0.4595  0.3156
 1989SOL     OW17602   4.186   3.971   6.008  0.1363  0.4947  0.0836
 1989SOL    HW117603   4.184   4.016   5.924 -1.8096  1.3250  0.5728
 1989SOL    HW217604   4.236   3.894   5.982 -1.0199  0.3119 -1.5453
 1990SOL     OW17605   4.045   2.935   3.717 -0.3882  0.6839  0.4432
 1990SOL    HW117606   4.138   2.957   3.717 -0.2953  0.2983 -2.0061
 1990SOL    HW217607   4.014   2.992   3.647  0.1115  0.5366  0.1057
 1991SOL     OW17608   3.879   1.431  11.766  0.1558 -0.3353 -0.0663
 1991SOL    HW117609   3.821   1.414  11.692 -0.0791  0.7368 -0.1288
 1991SOL    HW217610   3.826   1.408  11.842 -1.5446 -0.3877 -1.2932
 1992SOL     OW17611   2.816   2.872  13.286  0.3383 -0.1623 -0.5355
 1992SOL    HW117612   2.775   2.903  13.367 -0.5017 -2.5719 -0.0400
 1992SOL    HW217613   2.775   2.928  13.219 -2.0243 -0.4212  0.7193
 1993SOL     OW17614   1.540   0.513   8.562  0.3469  0.7043 -0.0012
 1993SOL    HW117615   1.591   0.561   8.627  0.0507 -1.7236  2.0343
 1993SOL    HW217616   1.455   0.553   8.582  0.2300 -0.2195  1.3472
 1994SOL     OW17617   4.621   0.526   7.757 -0.4145 -0.4320 -0.2238
 1994SOL    HW117618   4.565   0.602   7.741  1.2155  1.0078  0.8755
 1994SOL    HW217619   4.673   0.527   7.677 -2.9781  0.6222 -1.8842
 1995SOL     OW17620   2.305   4.512   9.391 -0.4127 -0.1348 -0.2425
 1995SOL    HW117621   2.300   4.592   9.338  0.4276 -1.7333 -2.7368
 1995SOL    HW217622   2.304   4.433   9.336 -0.5894 -0.2121 -0.1311
 1996SOL     OW17623   2.409   3.480   8.939  0.0710  0.1024  0.7675
 1996SOL    HW117624   2.429   3.490   9.032 -0.1424 -0.2663  0.8504
 1996SOL    HW217625   2.456   3.401   8.910  0.3442  0.6436 -0.2691
 1997SOL     OW17626   0.380   3.013   8.962  0.4850  0.1224 -0.1764
 1997SOL    HW117627   0.440   2.949   8.924  0.3781  1.3455 -2.3835
 1997SOL    HW217628   0.329   2.958   9.022  1.4186 -2.5209 -1.7880
 1998SOL     OW17629   0.599   0.267  16.664 -0.4179  0.2109 -0.0418
 1998SOL    HW117630   0.569   0.356  16.645 -1.7299 -0.2527 -0.1661
 1998SOL    HW217631   0.687   0.270  16.628 -0.7312  1.4490 -0.6989
 1999SOL     OW17632   3.699   2.163   9.356 -0.2441  0.1409  0.0077
 1999SOL    HW117633   3.693   2.070   9.378 -2.0803 -0.0192 -1.2012
 1999SOL    HW217634   3.695   2.146   9.262 -0.5338 -0.1871  0.0789
 2000SOL     OW17635   1.606   3.022   1.858 -0.3017  0.1338  0.0019
 2000SOL    HW117636   1.574   2.932   1.850  1.5349 -0.3956 -1.3598
 2000SOL    HW217637   1.547   3.070   1.800 -0.2625  0.5940  0.3447
 2001SOL     OW17638   2.270   0.395  17.455 -0.5144  0.2701  0.3248
 2001SOL    HW117639   2.230   0.397  17.542  1.7291 -1.0688  1.3705
 2001SOL    HW217640   2.273   0.302  17.432  0.6124  0.9247 -2.1584
 2002SOL     OW17641   2.566   3.783   3.775 -0.1684 -0.2601  0.3667
 2002SOL    HW117642   2.472   3.763   3.769 -0.6116  1.8431  0.2857
 2002SOL    HW217643   2.562   3.872   3.741  2.7698 -0.5724 -0.7430
 2003SOL     OW17644   0.410   1.605   7.716 -0.2482 -0.2460 -0.0373
 2003SOL    HW117645   0.317   1.593   7.735 -0.3873 -0.1541 -0.6420
 2003SOL    HW217646   0.413   1.600   7.620  0.1675  0.6242 -0.0693
 2004SOL     OW17647   4.573   2.696   4.093 -0.0449 -0.3333 -0.2068
 2004SOL    HW117648   4.561   2.760   4.164  1.0285 -2.6582  2.0817
 2004SOL    HW217649   4.483   2.663   4.091  0.1579 -1.0228  2.4771
 2005SOL     OW17650   1.531   2.847  11.608 -0.0386 -0.2144 -0.0190
 2005SOL    HW117651   1.478   2.770  11.626 -0.0682  0.4708  2.8595
 2005SOL    HW217652   1.552   2.824  11.518  1.1235  1.0905 -0.0949
 2006SOL     OW17653   3.578   0.265   1.880  1.0443 -0.3685  0.1508
 2006SOL    HW117654   3.517   0.195   1.902 -0.6856  2.1824  3.4060
 2006SOL    HW217655   3.515   0.326   1.843  1.9145  0.7647  0.5112
 2007SOL     OW17656   2.448   3.571   6.297 -0.2493 -0.4967  0.0478
 2007SOL    HW117657   2.408   3.586   6.383 -0.7988  1.3279 -0.5341
 2007SOL    HW217658   2.398   3.620   6.232  0.7997  1.0415  0.4082
 2008SOL     OW17659   2.641   4.242   3.449  0.4466  0.3436  0.0027
 2008SOL    HW117660   2.614   4.150   3.450 -2.5049  1.2284  2.1377
 2008SOL    HW217661   2.701   4.245   3.375  0.2495 -0.3912 -0.1882
 2009SOL     OW17662   0.119   2.110   2.153  0.1084 -0.7707  0.3673
 2009SOL    HW117663   0.167   2.052   2.213  0.7709 -0.1553  0.4374
 2009SOL    HW217664   0.154   2.198   2.169 -0.4657 -0.0017 -2.7294
 2010SOL     OW17665   0.471   2.165  12.699  0.2772  0.0675 -0.3793
 2010SOL    HW117666   0.404   2.107  12.662 -0.3968  0.1492  0.7013
 2010SOL    HW217667   0.550   2.112  12.697 -0.7174 -1.4136 -0.6087
 2011SOL     OW17668   1.591   4.403   9.068 -0.0062 -0.2827 -0.0716
 2011SOL    HW117669   1.617   4.493   9.085  0.7617 -0.1343 -1.9508
 2011SOL    HW217670   1.505   4.388   9.109 -0.5152  0.0299 -1.0123
 2012SOL     OW17671   2.954   4.077   4.728 -0.1688  0.6804  0.1378
 2012SOL    HW117672   2.980   4.124   4.807  0.5541 -2.1820  1.6043
 2012SOL    HW217673   2.952   3.985   4.755  1.2182  0.4660 -0.5047
 2013SOL     OW17674   3.085   4.677   5.528  0.2926 -0.1796 -0.0663
 2013SOL    HW117675   3.116   0.031   5.552 -3.1524  1.2306 -0.8302
 2013SOL    HW217676   3.170   4.641   5.500  0.3619  0.1322 -0.2614
 2014SOL     OW17677   0.446   1.654   2.277  0.4427 -0.2211  0.1309
 2014SOL    HW117678   0.375   1.646   2.340 -0.9678  0.0611 -1.4177
 2014SOL    HW217679   0.409   1.664   2.189  0.0837  2.1669  0.5634
 2015SOL     OW17680   4.583   0.263  16.047  0.5543 -0.1566 -0.4501
 2015SOL    HW117681   4.565   0.352  16.017 -2.1550 -1.0746 -1.6138
 2015SOL    HW217682   4.497   0.237  16.082  2.0349 -0.3308  3.1061
 2016SOL     OW17683   3.758   3.843  10.242 -0.7935 -0.5920  0.3388
 2016SOL    HW117684   3.731   3.935  10.245  1.4367  0.1182 -1.8564
 2016SOL    HW217685   3.853   3.844  10.253 -0.6749  1.4571 -0.8628
 2017SOL     OW17686   3.549   1.367  17.336  0.1897  0.2512  0.1061
 2017SOL    HW117687   3.588   1.283  17.311 -0.0702 -0.1397  1.0297
 2017SOL    HW217688   3.537   1.403  17.248 -2.0841  0.1711  0.3725
 2018SOL     OW17689   2.791   0.298   9.142 -0.0376  0.6561  0.3854
 2018SOL    HW117690   2.884   0.321   9.144  0.2406 -0.1443 -2.5720
 2018SOL    HW217691   2.748   0.383   9.140 -0.4309  0.4290 -1.0236
 2019SOL     OW17692   1.758   1.647   0.334  0.1676 -0.0932 -0.1366
 2019SOL    HW117693   1.717   1.725   0.373  0.4161 -0.1545  0.2438
 2019SOL    HW217694   1.681   1.592   0.317 -1.5772  1.7646  1.7441
 2020SOL     OW17695   0.010   1.936  14.736 -0.1073  0.3389  0.0083
 2020SOL    HW117696   4.648   1.930  14.743 -0.0379 -0.1761  0.5828
 2020SOL    HW217697   0.036   2.026  14.753  0.7963 -0.4926  3.0639
 2021SOL     OW17698   0.950   0.627   4.726 -0.1258 -0.3717  0.1785
 2021SOL    HW117699   1.032   0.678   4.721 -0.2169 -0.1293  1.0329
 2021SOL    HW217700   0.984   0.546   4.689  0.4136  0.6683 -1.5793
 2022SOL     OW17701   2.990   3.328   0.759 -0.3373 -0.2309  0.2488
 2022SOL    HW117702   2.939   3.248   0.743  1.9099 -1.7655  0.8169
 2022SOL    HW217703   2.926   3.366   0.820  0.6716 -0.6754  1.5884
 2023SOL     OW17704   4.349   0.739   4.386  0.0684  0.3552  0.2739
 2023SOL    HW117705   4.360   0.695   4.302  1.4017 -0.9681  1.1532
 2023SOL    HW217706   4.357   0.829   4.353  0.4214  0.4354  0.5838
 2024SOL     OW17707   1.201   4.688   6.980  0.1663  0.4002  0.2900
 2024SOL    HW117708   1.194   4.610   7.035 -0.6357 -0.4469 -1.0137
 2024SOL    HW217709   1.133   0.009   7.019  0.2153 -0.1167  1.1119
 2025SOL     OW17710   0.040   4.078   6.044 -0.5193  0.3869 -0.9228
 2025SOL    HW117711   0.013   4.078   6.136  1.2492 -0.5383 -0.3945
 2025SOL    HW217712   4.725   4.002   6.012 -0.7423  0.2060 -0.1523
 2026SOL     OW17713   0.170   2.720   2.434 -0.1003 -0.5124 -1.2665
 2026SOL    HW117714   0.222   2.641   2.450  0.0716 -0.2697 -0.6034
 2026SOL    HW217715   0.102   2.680   2.380 -0.1858 -0.2775 -1.3299
 2027SOL     OW17716   3.170   1.194   2.947  1.1956  0.2759 -0.0755
 2027SOL    HW117717   3.094   1.167   2.999  0.5432  2.5718  0.1867
 2027SOL    HW217718   3.182   1.109   2.905 -0.0605  0.7939 -1.4831
 2028SOL     OW17719   3.552   1.647   5.911 -0.0779 -0.3407 -0.0452
 2028SOL    HW117720   3.643   1.646   5.881  0.3358  1.6202  1.1469
 2028SOL    HW217721   3.524   1.721   5.857 -1.2368 -0.0457  0.9579
 2029SOL     OW17722   2.148   3.488   0.446 -0.2885 -0.1665 -0.1220
 2029SOL    HW117723   2.114   3.400   0.425 -2.4892  0.6020  0.1816
 2029SOL    HW217724   2.191   3.521   0.368 -1.2596  0.6400 -0.3141
 2030SOL     OW17725   1.821   1.013  11.193  0.0375 -0.5285  0.5953
 2030SOL    HW117726   1.822   1.098  11.148  2.7508 -1.2389 -0.7290
 2030SOL    HW217727   1.831   1.039  11.284 -0.0743  2.5557 -0.2808
 2031SOL     OW17728   3.251   4.333   8.624 -1.1119  0.3238 -1.1857
 2031SOL    HW117729   3.195   4.396   8.578 -1.7377  0.1009 -0.7293
 2031SOL    HW217730   3.247   4.254   8.570 -1.2026  0.5183 -1.4618
 2032SOL     OW17731   2.501   4.614  11.429  0.9820 -0.6478 -0.4654
 2032SOL    HW117732   2.572   4.552  11.447 -1.3053 -2.4786  2.1349
 2032SOL    HW217733   2.434   4.546  11.438  0.6239 -0.2235  0.0480
 2033SOL     OW17734   4.075   2.463  13.964 -0.2250  0.0985 -0.5810
 2033SOL    HW117735   3.989   2.428  13.942  0.7797 -0.8662 -2.9530
 2033SOL    HW217736   4.067   2.558  13.966 -0.5254  0.0521  0.4148
 2034SOL     OW17737   2.114   1.552   1.506  0.3131  0.6805 -0.4591
 2034SOL    HW117738   2.167   1.545   1.426 -2.3545 -1.6718 -1.9919
 2034SOL    HW217739   2.028   1.543   1.465  0.9896  0.6945 -1.8772
 2035SOL     OW17740   1.112   4.106   2.886  0.5314  0.0551  0.5990
 2035SOL    HW117741   1.127   4.195   2.918  1.5565 -0.4148  1.3923
 2035SOL    HW217742   1.138   4.107   2.793  0.0571 -0.4446  0.4643
 2036SOL     OW17743   1.206   4.040  15.609  0.7129  0.2958 -0.0543
 2036SOL    HW117744   1.222   4.001  15.695  0.2472  0.1857 -0.0214
 2036SOL    HW217745   1.133   4.100  15.625  0.2903 -0.2351 -0.0084
 2037SOL     OW17746   4.442   0.771   8.807 -0.0701  0.0451 -0.3333
 2037SOL    HW117747   4.347   0.783   8.798 -0.0813 -0.5528 -0.9763
 2037SOL    HW217748   4.463   0.823   8.730 -2.2240 -0.7509 -1.4376
 2038SOL     OW17749   1.683   4.462   3.351  0.1061 -0.1816  0.3250
 2038SOL    HW117750   1.711   4.371   3.359  0.5004 -0.1333 -0.5259
 2038SOL    HW217751   1.591   4.452   3.329  0.5693 -0.4729 -1.4791
 2039SOL     OW17752   4.060   4.634   2.040  0.4569 -0.4869 -0.0270
 2039SOL    HW117753   4.042   4.545   2.010 -4.2629  0.7591 -0.7664
 2039SOL    HW217754   4.127   4.617   2.107 -0.6596 -2.7652  0.5228
 2040SOL     OW17755   2.261   2.122  14.122  0.2811 -0.1156  0.4097
 2040SOL    HW117756   2.347   2.158  14.098  1.0404 -0.1869  3.0659
 2040SOL    HW217757   2.271   2.131  14.216 -0.6063 -2.3505  0.7125
 2041SOL     OW17758   0.272   0.537   7.660 -0.2957  0.2218  0.1498
 2041SOL    HW117759   0.275   0.580   7.745  1.9908  2.3573 -1.0199
 2041SOL    HW217760   0.354   0.566   7.621 -1.4104  1.5528 -1.1852
 2042SOL     OW17761   1.725   2.228   2.023 -0.1847  0.2075  0.2231
 2042SOL    HW117762   1.768   2.302   1.980 -0.5069  0.2609 -0.0106
 2042SOL    HW217763   1.799   2.167   2.019 -0.2705  0.2453 -1.7557
 2043SOL     OW17764   3.510   0.852   7.234  0.2234  0.2305  0.6644
 2043SOL    HW117765   3.525   0.908   7.310 -0.0608  1.2857 -0.0626
 2043SOL    HW217766   3.481   0.770   7.274 -1.0372  1.1051  1.5066
 2044SOL     OW17767   2.057   1.459  10.205 -0.5028 -0.2077  0.0204
 2044SOL    HW117768   1.969   1.441  10.175 -0.6253 -1.7393  1.3073
 2044SOL    HW217769   2.102   1.375  10.197  0.3997  0.2138  0.6664
 2045SOL     OW17770   0.379   2.222   7.911  0.7283  0.1330 -0.0723
 2045SOL    HW117771   0.454   2.167   7.933  1.6304  1.7593  0.9899
 2045SOL    HW217772   0.375   2.264   7.997  0.1068 -1.3865  0.6218
 2046SOL     OW17773   1.307   3.332   5.289  0.1081  0.2565  0.5691
 2046SOL    HW117774   1.236   3.392   5.264  0.5131  0.2921 -0.4730
 2046SOL    HW217775   1.316   3.281   5.209 -4.5366 -2.0455  1.4896
 2047SOL     OW17776   1.717   0.111   9.513  0.3470  0.0287  0.1931
 2047SOL    HW117777   1.784   0.085   9.450  1.1957  1.3888  0.5352
 2047SOL    HW217778   1.721   0.046   9.584 -0.0793 -1.0679 -0.7905
 2048SOL     OW17779   3.078   4.589   4.417  0.5374  0.4477 -0.6916
 2048SOL    HW117780   3.001   4.547   4.379  0.2571 -0.2420  0.6338
 2048SOL    HW217781   3.077   4.669   4.366 -2.9022  0.2229 -0.9452
 2049SOL     OW17782   3.510   0.825   6.039 -0.0284 -0.2989  0.4280
 2049SOL    HW117783   3.516   0.853   6.130 -0.2110 -1.3843  0.7780
 2049SOL    HW217784   3.445   0.755   6.046  0.5131 -1.0649 -2.1454
 2050SOL     OW17785   0.005   3.443   0.114 -0.6250  0.3534  0.1851
 2050SOL    HW117786   0.064   3.463   0.042  0.1742 -0.8197  0.5063
 2050SOL    HW217787   4.693   3.525   0.130  0.3081  1.0243 -0.6000
 2051SOL     OW17788   1.521   0.175   8.070 -0.0989  0.5182  0.4280
 2051SOL    HW117789   1.547   0.097   8.119  1.6534  0.3638 -0.7419
 2051SOL    HW217790   1.426   0.181   8.077 -0.2642 -0.8530 -0.8290
 2052SOL     OW17791   0.967   2.736   3.177 -0.7812 -0.4448 -0.0902
 2052SOL    HW117792   0.968   2.810   3.238  2.6589  1.1233 -2.0728
 2052SOL    HW217793   0.907   2.678   3.225 -1.6216  0.1498 -0.4254
 2053SOL     OW17794   2.543   4.485   4.647 -0.2157  0.6132 -0.3852
 2053SOL    HW117795   2.559   4.577   4.624  0.9746  0.6793  0.6695
 2053SOL    HW217796   2.448   4.478   4.641 -0.1773 -0.5572  0.2866
 2054SOL     OW17797   0.652   3.911   4.606 -0.2681  0.0031 -0.3362
 2054SOL    HW117798   0.657   3.853   4.530 -0.7269 -1.2163  0.5714
 2054SOL    HW217799   0.656   3.841   4.671  0.5598  1.4909  1.2269
 2055SOL     OW17800   3.824   0.893  16.776  0.0233  0.3124  0.6406
 2055SOL    HW117801   3.740   0.868  16.739  0.5959  0.9929 -1.1192
 2055SOL    HW217802   3.850   0.953  16.706  0.4526  0.7919  1.2080
 2056SOL     OW17803   3.881   0.993  16.478  0.0243  0.3754 -0.0008
 2056SOL    HW117804   3.869   1.061  16.412  0.8995 -1.1350 -1.7062
 2056SOL    HW217805   3.977   0.995  16.484  0.0103  1.3710 -0.1232
 2057SOL     OW17806   1.967   4.670  16.485 -0.4808 -0.5832  0.2279
 2057SOL    HW117807   2.039   4.639  16.541  1.3729  2.3168 -0.5344
 2057SOL    HW217808   1.929   4.595  16.440  0.8316 -1.6947  0.9653
 2058SOL     OW17809   2.245   0.484  11.768  0.4532  0.2687  0.1350
 2058SOL    HW117810   2.250   0.455  11.859 -2.4884  0.9064  0.5297
 2058SOL    HW217811   2.200   0.568  11.776  0.2586  0.1299  0.5153
 2059SOL     OW17812   0.069   1.644   0.283  0.4823  0.4991 -0.6155
 2059SOL    HW117813   0.049   1.582   0.354 -0.3031 -0.7168 -1.8938
 2059SOL    HW217814   0.118   1.710   0.331 -1.7904  0.2141  2.1168
 2060SOL     OW17815   3.328   4.563   5.463  0.2844  0.1618 -0.3939
 2060SOL    HW117816   3.398   4.614   5.422 -1.0811  2.7996  0.6020
 2060SOL    HW217817   3.354   4.475   5.434 -0.8597 -0.5737  0.8181
 2061SOL     OW17818   4.681   1.223   7.663 -0.0700 -0.2326 -0.1492
 2061SOL    HW117819   4.711   1.157   7.601  0.6933 -1.1007  1.1339
 2061SOL    HW217820   4.597   1.242   7.620  0.0635 -1.2661 -0.8542
 2062SOL     OW17821   4.204   2.799   2.682  0.1301 -0.2207 -0.6567
 2062SOL    HW117822   4.226   2.870   2.742 -0.3113 -0.6638  0.0397
 2062SOL    HW217823   4.246   2.728   2.730 -1.4797  0.5654  1.9314
 2063SOL     OW17824   0.474   3.537   0.554 -0.5585  0.4170  0.5411
 2063SOL    HW117825   0.393   3.533   0.605 -0.2318  0.7185  1.0685
 2063SOL    HW217826   0.540   3.542   0.623  0.9372  0.3650 -0.8947
 2064SOL     OW17827   3.560   1.353   1.055 -0.2309  0.0978  1.0228
 2064SOL    HW117828   3.480   1.301   1.054  0.7076 -1.3326 -0.1404
 2064SOL    HW217829   3.617   1.282   1.084  0.7034  0.6175  0.4530
 2065SOL     OW17830   3.934   3.842   3.064 -0.1295 -0.0617  0.0693
 2065SOL    HW117831   4.014   3.804   3.028  0.1863 -0.0326  0.7445
 2065SOL    HW217832   3.936   3.921   3.010 -1.2200 -1.4320 -1.9805
 2066SOL     OW17833   0.312   0.636   1.875  0.2032  0.3639 -0.1151
 2066SOL    HW117834   0.391   0.585   1.858 -0.3022 -0.2597 -0.6528
 2066SOL    HW217835   0.256   0.610   1.801 -2.7422  3.3461  1.0645
 2067SOL     OW17836   3.660   2.179   4.884  0.0402  0.6281  0.2572
 2067SOL    HW117837   3.645   2.177   4.978  1.0664  1.5443  0.4337
 2067SOL    HW217838   3.590   2.120   4.855 -0.2101  0.4999  1.1330
 2068SOL     OW17839   1.701   4.633   2.465  0.0710  0.2557 -0.5051
 2068SOL    HW117840   1.789   4.637   2.503  1.0831  0.6976 -2.9294
 2068SOL    HW217841   1.717   4.614   2.373  0.1455 -0.6894 -0.3020
 2069SOL     OW17842   0.605   1.715   7.305  0.0809  0.4424 -0.4854
 2069SOL    HW117843   0.624   1.730   7.212 -1.8897 -0.3518 -1.0199
 2069SOL    HW217844   0.609   1.807   7.332 -0.2592 -0.7131  3.4999
 2070SOL     OW17845   2.958   4.093  10.522 -0.1951 -0.5940 -0.2869
 2070SOL    HW117846   2.914   4.060  10.601  0.6467 -1.6261 -0.2569
 2070SOL    HW217847   2.879   4.104  10.469  0.2966  1.4843 -0.5939
 2071SOL     OW17848   3.765   0.909  15.472 -0.0723  0.0920 -0.0750
 2071SOL    HW117849   3.816   0.989  15.485 -0.7790  0.5789 -0.3070
 2071SOL    HW217850   3.793   0.892  15.382  1.5532  0.0508  0.4357
 2072SOL     OW17851   1.475   1.875   8.374  0.3024 -0.6118 -0.0154
 2072SOL    HW117852   1.409   1.915   8.317  0.4818  0.0609  0.2525
 2072SOL    HW217853   1.429   1.828   8.444 -0.3835 -1.3427 -0.9529
 2073SOL     OW17854   4.497   2.532   5.364 -0.3611 -0.0918 -0.5124
 2073SOL    HW117855   4.480   2.526   5.458  1.3775 -3.4887 -0.3930
 2073SOL    HW217856   4.409   2.546   5.328 -1.8982 -1.8982  2.5356
 2074SOL     OW17857   4.131   0.509   4.291 -0.4290 -0.4678  0.0304
 2074SOL    HW117858   4.098   0.599   4.280 -0.0106 -0.1683  1.1287
 2074SOL    HW217859   4.101   0.503   4.382  2.2923 -1.3053  0.8713
 2075SOL     OW17860   3.353   3.857  15.877 -0.4918  0.6960  0.4316
 2075SOL    HW117861   3.261   3.849  15.849  0.1300 -1.4297 -1.0033
 2075SOL    HW217862   3.387   3.898  15.798  1.4088 -1.0610  0.3559
 2076SOL     OW17863   0.307   0.269   3.640 -0.2324  0.0045 -0.2089
 2076SOL    HW117864   0.374   0.204   3.617  0.3410  0.2546  0.7792
 2076SOL    HW217865   0.360   0.346   3.660  1.1785 -0.2344 -3.0386
 2077SOL     OW17866   1.841   2.550   0.199 -0.0701  0.2119  1.2272
 2077SOL    HW117867   1.773   2.552   0.131  1.7483  0.6591 -0.6030
 2077SOL    HW217868   1.849   2.454   0.205  0.6146  0.0345 -2.3286
 2078SOL     OW17869   3.951   1.466  10.460  0.2312 -0.1441  0.0390
 2078SOL    HW117870   3.888   1.456  10.389  0.6080 -1.1364 -0.1580
 2078SOL    HW217871   3.898   1.446  10.537  0.7136 -0.2943  0.3331
 2079SOL     OW17872   4.057   3.062  17.711 -0.1775  1.0118 -0.4779
 2079SOL    HW117873   4.055   3.147   0.020 -0.2999  0.2177  1.0821
 2079SOL    HW217874   4.022   3.094  17.628  0.6339 -1.6409 -1.8461
 2080SOL     OW17875   3.513   2.589   3.312 -0.4067  0.2560 -0.5593
 2080SOL    HW117876   3.511   2.677   3.275  0.9680  0.1079 -0.9706
 2080SOL    HW217877   3.420   2.570   3.300 -0.7983  2.2034 -0.7293
 2081SOL     OW17878   0.985   1.787   2.901  0.4974  0.6532 -0.1890
 2081SOL    HW117879   1.016   1.867   2.858 -0.2988  0.3554 -1.3190
 2081SOL    HW217880   0.916   1.825   2.956  0.0394  0.5374 -0.6852
 2082SOL     OW17881   2.301   1.702   5.121  0.6974  0.6676 -0.3840
 2082SOL    HW117882   2.235   1.640   5.154 -0.0329  1.8898  0.4474
 2082SOL    HW217883   2.355   1.722   5.197 -0.8363  0.5942  0.7378
 2083SOL     OW17884   2.247   0.157  13.560  0.7732  0.1694 -0.7479
 2083SOL    HW117885   2.151   0.159  13.560  0.8112  2.7453  2.2744
 2083SOL    HW217886   2.260   0.233  13.503  0.9080  2.1211  1.9045
 2084SOL     OW17887   4.067   4.163   7.572 -0.1694  0.0690 -0.5864
 2084SOL    HW117888   4.061   4.067   7.572  0.4513  0.0283  1.0632
 2084SOL    HW217889   4.110   4.192   7.653 -1.2646 -3.4240  1.2842
 2085SOL     OW17890   3.965   0.849   1.236  0.1041  0.4659  0.3664
 2085SOL    HW117891   3.876   0.869   1.206  0.9437  3.0758 -0.4555
 2085SOL    HW217892   3.957   0.890   1.322  2.9525 -0.5804  1.1180
 2086SOL     OW17893   1.987   4.605   2.609 -0.6117  0.5153  0.0718
 2086SOL    HW117894   2.026   4.518   2.608 -0.2965  0.6500  0.6394
 2086SOL    HW217895   2.026   4.626   2.525  0.2142  2.4593  0.9462
 2087SOL     OW17896   0.490   4.455  16.942 -0.1747 -0.1614  0.8178
 2087SOL    HW117897   0.460   4.519  16.878 -1.0992 -0.5773  0.8462
 2087SOL    HW217898   0.415   4.444  17.000 -0.0610 -0.9351  0.8252
 2088SOL     OW17899   1.985   2.073  12.198 -0.1731  0.3037  0.2663
 2088SOL    HW117900   1.939   2.024  12.129 -0.6569 -0.8888  1.4400
 2088SOL    HW217901   2.052   2.104  12.137 -0.2402 -2.0162 -1.0138
 2089SOL     OW17902   1.697   2.583  10.162  0.0951 -0.3037  0.4263
 2089SOL    HW117903   1.693   2.488  10.157  5.2308 -0.5160 -0.0426
 2089SOL    HW217904   1.683   2.599  10.255  1.6612  2.1479  0.2572
 2090SOL     OW17905   4.388   0.966   6.306  0.0890  0.4864  0.2581
 2090SOL    HW117906   4.446   0.982   6.232  0.0660 -0.4487  0.0404
 2090SOL    HW217907   4.364   0.874   6.315 -0.4124  0.6958  1.0673
 2091SOL     OW17908   3.761   4.589   3.153 -0.4224  0.8080  0.5409
 2091SOL    HW117909   3.689   4.605   3.093  0.1198  0.4535 -0.2052
 2091SOL    HW217910   3.788   4.501   3.128 -0.6570  0.5634  1.1531
 2092SOL     OW17911   4.715   3.558   0.412 -0.2375 -0.0567 -0.6559
 2092SOL    HW117912   4.699   3.578   0.320 -0.2995 -0.0758 -0.6490
 2092SOL    HW217913   4.682   3.640   0.449  1.2642 -0.5115  1.6908
 2093SOL     OW17914   1.547   3.988   9.671  0.1287 -0.1208 -0.5948
 2093SOL    HW117915   1.583   4.018   9.587 -1.0218 -0.0955 -1.0756
 2093SOL    HW217916   1.554   3.893   9.665  0.7020 -0.0564 -1.0923
 2094SOL     OW17917   4.318   3.757   3.296 -0.5476 -0.2032  0.0733
 2094SOL    HW117918   4.227   3.728   3.295 -0.3377 -0.8366 -0.4365
 2094SOL    HW217919   4.316   3.811   3.375 -1.2329  0.9515 -0.7312
 2095SOL     OW17920   4.702   0.762   3.360  0.2298  0.2868 -0.6661
 2095SOL    HW117921   4.680   0.670   3.342  1.4023  0.2039 -1.6632
 2095SOL    HW217922   4.656   0.810   3.291 -0.8256  1.8869  1.1254
 2096SOL     OW17923   4.334   1.771  16.385  0.5360 -0.4207  0.0416
 2096SOL    HW117924   4.246   1.748  16.417  0.5469  2.6697  2.2942
 2096SOL    HW217925   4.346   1.859  16.422  0.5930 -0.4280  0.0394
 2097SOL     OW17926   1.117   0.161  14.712  0.2565 -0.5213 -0.2252
 2097SOL    HW117927   1.208   0.164  14.742  0.4558 -1.2995 -0.7580
 2097SOL    HW217928   1.104   0.255  14.702 -1.5934 -0.6639  0.7655
 2098SOL     OW17929   1.252   3.685   6.251  0.0224 -0.1212 -0.6140
 2098SOL    HW117930   1.299   3.740   6.188 -0.2257  0.0882 -0.6161
 2098SOL    HW217931   1.219   3.744   6.319  0.2421 -0.6842 -0.0180
 2099SOL     OW17932   2.947   0.972  16.087 -0.1977  0.0120 -0.4677
 2099SOL    HW117933   3.018   0.946  16.145  0.6429  2.2107 -0.5220
 2099SOL    HW217934   2.990   0.983  16.003  0.6350  0.5994  0.0428
 2100SOL     OW17935   2.680   2.471   2.593 -0.2644  0.2938 -0.3304
 2100SOL    HW117936   2.742   2.399   2.588 -2.4461 -1.4931 -1.3802
 2100SOL    HW217937   2.604   2.425   2.630 -0.6084  0.0430 -1.3369
 2101SOL     OW17938   2.103   4.087   7.219  0.1972 -0.8301  0.6085
 2101SOL    HW117939   2.135   4.028   7.150  0.6040  2.2323 -1.8217
 2101SOL    HW217940   2.106   4.020   7.287 -0.3267 -1.0370  0.4242
 2102SOL     OW17941   1.801   3.106  12.758  0.0644  0.4131 -0.2793
 2102SOL    HW117942   1.792   3.029  12.701 -2.6818  0.6668 -0.1896
 2102SOL    HW217943   1.736   3.090  12.826  0.5811 -0.6723 -0.0484
 2103SOL     OW17944   1.641   2.225  14.197  0.0697 -0.0697  0.2661
 2103SOL    HW117945   1.716   2.244  14.141  0.4503 -0.2383  0.7156
 2103SOL    HW217946   1.681   2.183  14.273  1.7902  1.2066  0.0480
 2104SOL     OW17947   0.543   1.752   9.279 -0.3870 -0.4368  0.3731
 2104SOL    HW117948   0.530   1.786   9.191  1.8869 -0.1131  0.1579
 2104SOL    HW217949   0.538   1.657   9.270 -0.4328 -0.3742 -0.2418
 2105SOL     OW17950   3.639   2.842  15.621  0.3784  0.0733  0.1400
 2105SOL    HW117951   3.702   2.840  15.549  0.1565  2.1482 -0.1035
 2105SOL    HW217952   3.683   2.785  15.684 -1.1391 -0.2874  0.8540
 2106SOL     OW17953   0.571   4.719   4.041  0.4114  0.1331 -0.0620
 2106SOL    HW117954   0.564   4.690   4.132  0.1434  2.8035  0.7975
 2106SOL    HW217955   0.518   4.649   4.004  1.4142 -0.5374 -0.2264
 2107SOL     OW17956   2.016   0.078   3.232  0.3617 -0.4822 -0.2220
 2107SOL    HW117957   1.929   0.067   3.270  0.8028 -0.2426  0.8588
 2107SOL    HW217958   2.029   0.159   3.282 -0.5052 -0.8518  0.6054
 2108SOL     OW17959   0.600   2.527   7.530  0.6730 -0.0324 -0.7251
 2108SOL    HW117960   0.506   2.523   7.510  0.9842  2.4083 -2.7619
 2108SOL    HW217961   0.602   2.493   7.619  1.7167  0.7168 -0.4559
 2109SOL     OW17962   4.133   3.239   8.193  0.2374  0.7557 -0.1675
 2109SOL    HW117963   4.060   3.269   8.247 -1.0022 -2.1704 -0.2198
 2109SOL    HW217964   4.091   3.240   8.107  2.0984 -0.4420 -1.0593
 2110SOL     OW17965   1.642   1.709   2.066  0.4502  0.1335 -0.2989
 2110SOL    HW117966   1.734   1.701   2.041  0.6090  0.6434  0.1337
 2110SOL    HW217967   1.653   1.792   2.113 -1.7068 -0.3073  0.9609
 2111SOL     OW17968   4.249   1.276   2.386  0.2282 -0.3401 -0.0468
 2111SOL    HW117969   4.325   1.317   2.428 -0.5468 -0.9407  1.9055
 2111SOL    HW217970   4.184   1.346   2.386  1.7223  1.0529 -2.4259
 2112SOL     OW17971   3.666   3.633  16.109  0.0092  0.1315  0.2059
 2112SOL    HW117972   3.576   3.600  16.103  0.7192 -1.5803 -0.9520
 2112SOL    HW217973   3.647   3.724  16.083  0.7572  0.9681  2.5953
 2113SOL     OW17974   0.167   0.151   2.096  0.0894 -0.1159 -0.3477
 2113SOL    HW117975   0.116   0.207   2.154  1.0347  0.6861 -0.2851
 2113SOL    HW217976   0.211   0.097   2.161  1.9000  1.4538 -0.2692
 2114SOL     OW17977   0.072   1.625   4.902 -0.4529  0.1962  0.2357
 2114SOL    HW117978   0.085   1.530   4.908  0.2149  0.4472  2.5234
 2114SOL    HW217979   0.138   1.646   4.968 -0.1707 -0.3523  0.1331
 2115SOL     OW17980   4.638   2.542   5.949 -0.7757  0.1039  0.0422
 2115SOL    HW117981   4.707   2.572   6.007  0.4999 -0.9159 -0.9431
 2115SOL    HW217982   4.682   2.554   5.864 -0.9383  0.8643  0.0706
 2116SOL     OW17983   0.199   1.627  15.339 -0.1559 -0.0608  0.3274
 2116SOL    HW117984   0.202   1.651  15.432 -1.3867 -1.4602  0.7292
 2116SOL    HW217985   0.290   1.617  15.314 -0.4026 -1.5905  0.0627
 2117SOL     OW17986   4.404   1.598  10.590  0.5807  0.1662 -0.3598
 2117SOL    HW117987   4.326   1.556  10.624 -0.8266  1.4643 -1.9800
 2117SOL    HW217988   4.472   1.557  10.644 -1.4133 -2.4724  0.1274
 2118SOL     OW17989   0.425   2.282  10.010 -0.0626  0.5283  0.0297
 2118SOL    HW117990   0.417   2.352  10.074 -0.1696 -1.8295  2.5702
 2118SOL    HW217991   0.509   2.310   9.971  0.7310 -1.1608  0.5296
 2119SOL     OW17992   2.112   1.546   5.226 -0.1823  0.0904  0.4536
 2119SOL    HW117993   2.062   1.534   5.307 -2.0387 -1.3141 -0.8937
 2119SOL    HW217994   2.110   1.454   5.198 -0.8837  0.2555 -0.0134
 2120SOL     OW17995   4.359   4.159   0.534  0.1613  0.2067 -0.1045
 2120SOL    HW117996   4.285   4.199   0.580 -0.9014 -0.3420 -1.3588
 2120SOL    HW217997   4.367   4.073   0.576 -1.4353 -0.9231 -2.1531
 2121SOL     OW17998   0.153   4.341   4.487 -0.0216  0.6706  0.1080
 2121SOL    HW117999   0.227   4.347   4.547 -0.5811 -0.1174  0.8780
 2121SOL    HW218000   0.106   4.422   4.508 -0.5189 -0.1782  2.2342
 2122SOL     OW18001   3.197   1.934   8.367  0.0065 -0.2424  0.5590
 2122SOL    HW118002   3.116   1.979   8.391 -1.1077 -1.7555 -0.3550
 2122SOL    HW218003   3.170   1.843   8.357 -2.2281  0.4096  0.4607
 2123SOL     OW18004   3.105   3.519   8.471 -0.0400 -0.0164 -0.4686
 2123SOL    HW118005   3.130   3.428   8.484  3.2569  0.6189 -2.2631
 2123SOL    HW218006   3.094   3.541   8.563  0.8462  0.4389 -0.4708
 2124SOL     OW18007   4.420   4.389   4.144 -0.0403 -0.3385 -0.5679
 2124SOL    HW118008   4.464   4.395   4.229  0.0506 -0.6187 -0.5933
 2124SOL    HW218009   4.401   4.482   4.130  0.0191 -0.3505 -0.7278
 2125SOL     OW18010   4.650   0.340   0.864 -0.0597  0.2346 -0.3799
 2125SOL    HW118011   4.704   0.274   0.908 -1.0819 -1.1438 -1.1991
 2125SOL    HW218012   4.614   0.396   0.932 -0.8246 -0.4042 -0.2620
 2126SOL     OW18013   4.525   0.127   8.541  0.1274  0.0463  0.4411
 2126SOL    HW118014   4.431   0.144   8.546 -0.1999 -1.9498  1.2283
 2126SOL    HW218015   4.550   0.121   8.633  1.2251  2.0227  0.2745
 2127SOL     OW18016   3.738   1.035   5.953 -0.4603 -0.2376 -0.3538
 2127SOL    HW118017   3.723   1.130   5.956  0.4107 -0.1433  1.4938
 2127SOL    HW218018   3.648   1.007   5.969 -0.2295  0.2007  1.7900
 2128SOL     OW18019   3.992   3.077   6.602 -0.8673  0.8818  0.3433
 2128SOL    HW118020   3.926   3.071   6.533  1.3897  1.5287 -1.8361
 2128SOL    HW218021   3.979   3.168   6.631 -0.3757  0.9260  0.4111
 2129SOL     OW18022   1.824   0.471  14.062  0.2461 -0.2587  0.1863
 2129SOL    HW118023   1.918   0.487  14.056 -0.2685  1.7971 -2.8273
 2129SOL    HW218024   1.799   0.516  13.981 -0.9542  0.6937  1.0697
 2130SOL     OW18025   0.496   1.165  10.701 -0.0409 -0.1636 -0.5339
 2130SOL    HW118026   0.410   1.200  10.680 -0.2692  0.4429  1.4202
 2130SOL    HW218027   0.539   1.245  10.729  2.5467 -1.7346  0.0326
 2131SOL     OW18028   2.763   1.909   8.256  0.2141 -0.3721  0.2310
 2131SOL    HW118029   2.827   1.952   8.201  1.1756  1.0249  2.4574
 2131SOL    HW218030   2.795   1.952   8.335  1.7993  1.4030 -1.3867
 2132SOL     OW18031   4.161   0.534  15.939  0.2390  0.0599  0.0428
 2132SOL    HW118032   4.185   0.617  15.979  0.5167 -1.0569  2.2154
 2132SOL    HW218033   4.142   0.554  15.847  0.2478 -2.4158 -0.4984
 2133SOL     OW18034   0.053   3.668   3.962  0.0372 -0.4904 -0.5983
 2133SOL    HW118035   4.702   3.667   3.919 -0.7322 -0.9278  0.9267
 2133SOL    HW218036   0.028   3.665   4.055  1.0411  0.7347 -0.2897
 2134SOL     OW18037   0.862   0.934   9.222 -0.1358  0.2899  0.4628
 2134SOL    HW118038   0.790   0.997   9.222 -0.7623 -0.4461 -1.0975
 2134SOL    HW218039   0.925   0.978   9.166 -1.6050 -0.5038 -1.8106
 2135SOL     OW18040   3.710   1.487  10.666  0.0002  0.4264  0.1299
 2135SOL    HW118041   3.622   1.525  10.667 -0.3556 -0.4051  0.1718
 2135SOL    HW218042   3.682   1.398  10.685  1.4807  0.6902  3.6053
 2136SOL     OW18043   0.421   2.719  11.068  0.0141  1.0342 -0.0779
 2136SOL    HW118044   0.416   2.764  10.984  0.1468  1.3520  0.0839
 2136SOL    HW218045   0.333   2.687  11.087  0.9560 -2.0047 -0.7870
 2137SOL     OW18046   3.868   0.209  15.971  0.3179  0.4796 -0.4839
 2137SOL    HW118047   3.890   0.143  16.037 -0.1099  0.8174 -0.0040
 2137SOL    HW218048   3.921   0.283  16.000 -0.1378  0.3319  0.7526
 2138SOL     OW18049   0.571   1.938  17.498  0.8475  0.2647  0.2335
 2138SOL    HW118050   0.613   1.942  17.412 -4.0258 -0.3277 -2.2099
 2138SOL    HW218051   0.484   1.914  17.466  1.1344 -0.2110 -0.2047
 2139SOL     OW18052   0.048   3.194   6.892  0.3841 -0.3007 -0.1684
 2139SOL    HW118053   0.109   3.135   6.846 -0.6116 -0.8824 -0.7439
 2139SOL    HW218054   0.092   3.242   6.962 -0.5946  0.7650 -0.2974
 2140SOL     OW18055   3.218   0.770  10.738  0.5875 -0.0124 -0.1799
 2140SOL    HW118056   3.263   0.795  10.819  0.7787  0.7031 -0.5060
 2140SOL    HW218057   3.276   0.804  10.670  0.2567 -0.4398 -0.6738
 2141SOL     OW18058   4.529   3.635   7.068 -0.1140 -0.4023  0.0717
 2141SOL    HW118059   4.506   3.576   6.996  2.7009 -2.5593  0.9915
 2141SOL    HW218060   4.441   3.637   7.108  0.3733  0.9004  1.0847
 2142SOL     OW18061   2.901   0.021  17.693  0.2027 -0.1025  0.3715
 2142SOL    HW118062   2.889   4.718   0.046  0.1390  0.3289  0.5451
 2142SOL    HW218063   2.916   0.113  17.717  0.2970  0.8459 -3.3490
 2143SOL     OW18064   3.286   3.249  11.881 -0.0594 -0.1900 -0.5960
 2143SOL    HW118065   3.363   3.192  11.878 -0.1498 -0.3418 -0.0739
 2143SOL    HW218066   3.315   3.323  11.828 -1.7327  1.1688  0.3933
 2144SOL     OW18067   4.307   0.262   5.949  0.6739  0.9422 -0.0929
 2144SOL    HW118068   4.336   0.347   5.916 -0.0221  0.3864 -2.1538
 2144SOL    HW218069   4.276   0.229   5.865  1.2577  1.5551 -0.5537
 2145SOL     OW18070   4.664   0.302   1.958 -0.2984 -0.6951  0.1455
 2145SOL    HW118071   4.729   0.342   2.015  0.3971 -3.6067  1.4032
 2145SOL    HW218072   4.641   0.237   2.024 -0.3605 -0.3129  0.4954
 2146SOL     OW18073   2.636   2.497   9.071  0.2978 -0.3157  0.4819
 2146SOL    HW118074   2.619   2.443   8.994 -1.1516  1.3303 -0.3417
 2146SOL    HW218075   2.639   2.445   9.152  2.3854  1.3896  1.4863
 2147SOL     OW18076   3.608   2.882   1.227  0.4815 -0.6400  0.0814
 2147SOL    HW118077   3.622   2.792   1.198 -0.3665 -0.1556 -1.8569
 2147SOL    HW218078   3.636   2.935   1.152  1.0228 -0.5965  0.3089
 2148SOL     OW18079   3.344   0.921   2.410  0.0655  0.3266 -0.0477
 2148SOL    HW118080   3.288   0.999   2.408  2.1326  1.8027 -0.2545
 2148SOL    HW218081   3.294   0.875   2.478  0.5694 -0.1511  0.0035
 2149SOL     OW18082   3.606   0.460   8.100  0.0401 -0.2218  0.1125
 2149SOL    HW118083   3.604   0.540   8.153  0.9780 -0.2260  0.1622
 2149SOL    HW218084   3.572   0.400   8.165 -1.7922  0.8371  0.1256
 2150SOL     OW18085   4.179   0.299  15.000  0.3439 -0.0451 -0.5073
 2150SOL    HW118086   4.196   0.362  15.070 -0.5568 -0.6123  0.2274
 2150SOL    HW218087   4.136   0.226  15.045 -1.9376  1.4885 -0.1986
 2151SOL     OW18088   0.365   4.565  16.185 -0.0252 -0.1866 -0.2924
 2151SOL    HW118089   0.321   4.591  16.266  1.8543 -0.1623  0.7152
 2151SOL    HW218090   0.452   4.548  16.220 -1.7724 -2.3090  3.0518
 2152SOL     OW18091   0.150   0.280  11.112  0.7164  0.1146 -0.2670
 2152SOL    HW118092   0.168   0.196  11.154 -0.8927 -0.7206 -1.2465
 2152SOL    HW218093   0.103   0.310  11.189  0.4640 -2.2297  0.4909
 2153SOL     OW18094   2.799   0.446   9.765 -0.3164  0.1474 -0.4139
 2153SOL    HW118095   2.830   0.362   9.730 -1.1014 -0.7442  1.0508
 2153SOL    HW218096   2.722   0.451   9.708  0.3602  2.2861 -1.1638
 2154SOL     OW18097   3.643   3.448   1.234  0.1895  0.3028  0.5831
 2154SOL    HW118098   3.623   3.384   1.303  2.5791 -1.8341 -0.7033
 2154SOL    HW218099   3.626   3.384   1.166 -4.2307 -0.4216  2.3903
 2155SOL     OW18100   2.582   0.779   2.399  0.2600 -0.2712  0.0478
 2155SOL    HW118101   2.654   0.838   2.374 -0.4560  0.9926  1.0050
 2155SOL    HW218102   2.555   0.809   2.486  0.2305  2.3483 -0.8781
 2156SOL     OW18103   1.673   4.091   9.424  0.6800  0.5276  0.4178
 2156SOL    HW118104   1.598   4.076   9.366  0.7393 -1.4330  0.8590
 2156SOL    HW218105   1.745   4.055   9.372  1.6469  3.1682 -0.1079
 2157SOL     OW18106   4.651   4.379   4.856 -0.3311 -0.6095 -0.0379
 2157SOL    HW118107   4.696   4.306   4.898  1.6623  0.1321 -0.8752
 2157SOL    HW218108   4.573   4.390   4.911  0.7135  1.1070  1.0881
 2158SOL     OW18109   0.685   3.082   2.665 -0.5861 -0.0717  1.0222
 2158SOL    HW118110   0.704   3.173   2.689  0.5803 -0.1538  0.4324
 2158SOL    HW218111   0.747   3.025   2.711  3.6771  2.6227 -1.3950
 2159SOL     OW18112   2.931   2.076   9.061 -0.5352 -0.3806  0.1865
 2159SOL    HW118113   3.022   2.091   9.086  0.0752 -2.6934 -0.6260
 2159SOL    HW218114   2.887   2.079   9.146  0.3022 -1.7694  0.6729
 2160SOL     OW18115   3.393   4.315  10.008  0.3615  0.6893  0.2893
 2160SOL    HW118116   3.357   4.275  10.087 -0.4270 -1.3395 -1.1135
 2160SOL    HW218117   3.405   4.240   9.949  0.2537  1.4789 -0.7288
 2161SOL     OW18118   3.453   0.661   3.476  0.0392 -0.2656 -0.2624
 2161SOL    HW118119   3.488   0.639   3.562 -1.9235 -0.3890  0.5045
 2161SOL    HW218120   3.359   0.668   3.494  0.1040  1.3697 -0.5335
 2162SOL     OW18121   0.045   3.333  16.800  0.2128  0.0746 -0.0487
 2162SOL    HW118122   0.039   3.238  16.804 -1.2438  0.2238  1.2661
 2162SOL    HW218123   0.138   3.350  16.815 -0.6071  1.1913  3.8386
 2163SOL     OW18124   2.089   0.924   4.707  0.0028  0.1266  0.4101
 2163SOL    HW118125   2.176   0.938   4.744 -0.3944  0.3163  1.2610
 2163SOL    HW218126   2.031   0.987   4.750  1.0882  1.3558  0.0679
 2164SOL     OW18127   2.967   4.210   6.391  0.7395  0.3003 -0.0963
 2164SOL    HW118128   2.942   4.302   6.399  0.4099  0.2041 -0.0133
 2164SOL    HW218129   3.050   4.218   6.344 -0.7983  1.4959 -2.6026
 2165SOL     OW18130   4.648   2.378  14.182 -0.0255 -0.1987 -0.2594
 2165SOL    HW118131   4.634   2.362  14.275  1.2633  0.6005  0.0731
 2165SOL    HW218132   4.640   2.290  14.145 -0.1078 -0.2872 -0.0291
 2166SOL     OW18133   1.788   0.400   9.769 -0.0579 -0.3262 -0.2570
 2166SOL    HW118134   1.763   0.339   9.838 -2.2357 -0.3486 -1.0575
 2166SOL    HW218135   1.883   0.407   9.780 -0.0742  2.4258 -1.6546
 2167SOL     OW18136   0.828   3.236   8.035 -0.2552 -0.2829 -0.5494
 2167SOL    HW118137   0.768   3.163   8.056 -0.8951 -0.0377 -1.5236
 2167SOL    HW218138   0.799   3.289   8.109  1.6502 -0.3316  0.2245
 2168SOL     OW18139   2.707   3.202  17.181 -0.5078  0.0487  0.3635
 2168SOL    HW118140   2.793   3.233  17.153 -0.3464 -1.1034 -0.4329
 2168SOL    HW218141   2.686   3.124  17.130 -0.1553  0.1929 -0.0088
 2169SOL     OW18142   2.253   3.387   3.687  0.0654 -0.2712 -0.0827
 2169SOL    HW118143   2.179   3.446   3.700  0.8789  0.0214  3.0327
 2169SOL    HW218144   2.317   3.436   3.635  1.0294 -0.3546  1.0345
 2170SOL     OW18145   3.068   2.565  14.888  0.6321 -0.3394 -0.1644
 2170SOL    HW118146   2.974   2.585  14.882  1.2154  2.6287  0.8461
 2170SOL    HW218147   3.098   2.656  14.882  2.2871 -0.9473 -0.9743
 2171SOL     OW18148   3.260   4.389   6.000 -0.1339 -0.2657 -0.2783
 2171SOL    HW118149   3.333   4.410   6.060  1.8879 -2.7875 -1.8357
 2171SOL    HW218150   3.298   4.315   5.953  1.5828 -0.1595  0.8870
 2172SOL     OW18151   1.351   3.865   4.887 -0.3007  0.2413 -0.2023
 2172SOL    HW118152   1.385   3.955   4.882  0.2318  0.1708  2.4159
 2172SOL    HW218153   1.361   3.839   4.795 -2.8919 -2.5669  0.3484
 2173SOL     OW18154   4.197   1.577   9.466  0.1719 -0.0362 -0.1003
 2173SOL    HW118155   4.223   1.617   9.383  1.4041 -0.2633  0.1735
 2173SOL    HW218156   4.233   1.491   9.446  0.1551  0.3051 -1.6112
 2174SOL     OW18157   4.118   4.500  11.537  0.1882 -0.4448  0.4100
 2174SOL    HW118158   4.058   4.575  11.540  1.4777  0.5388  1.9674
 2174SOL    HW218159   4.067   4.432  11.580  0.7875 -1.5361 -0.6179
 2175SOL     OW18160   0.810   1.802  13.872  0.5925 -0.3218  0.3244
 2175SOL    HW118161   0.848   1.717  13.895  3.2187  1.2705  1.9127
 2175SOL    HW218162   0.858   1.866  13.925  0.6806 -0.9648  1.0293
 2176SOL     OW18163   3.496   2.631   6.459  0.1116 -0.2572 -0.5807
 2176SOL    HW118164   3.409   2.596   6.478 -1.1073  1.9009 -2.1576
 2176SOL    HW218165   3.560   2.559   6.464  1.3378  0.9079  0.4020
 2177SOL     OW18166   0.751   3.895   0.247  0.0022 -0.3700  0.1798
 2177SOL    HW118167   0.711   3.838   0.312  0.6367 -0.4810  0.4725
 2177SOL    HW218168   0.741   3.854   0.161 -0.0360  1.5834 -0.7576
 2178SOL     OW18169   4.257   2.769   2.412 -0.5969 -0.6170 -0.0180
 2178SOL    HW118170   4.179   2.739   2.457 -1.9058  1.6265 -0.7786
 2178SOL    HW218171   4.299   2.826   2.476  0.0323 -0.7312 -0.3211
 2179SOL     OW18172   2.496   3.790   7.851 -0.2408 -0.5299  1.0276
 2179SOL    HW118173   2.421   3.826   7.804 -0.1856 -3.4025 -1.2430
 2179SOL    HW218174   2.492   3.855   7.921 -0.7580  0.4095  0.1199
 2180SOL     OW18175   0.112   0.211   3.008 -0.4936  0.1537  0.2554
 2180SOL    HW118176   0.199   0.242   2.985  0.5656 -2.3986  0.8240
 2180SOL    HW218177   0.084   0.295   3.043  0.4590  0.8670 -0.6963
 2181SOL     OW18178   3.884   2.141  12.737 -0.3459  0.5463  0.2238
 2181SOL    HW118179   3.924   2.197  12.671  1.2787  0.9101  1.5095
 2181SOL    HW218180   3.804   2.104  12.699 -1.4355  0.3050  2.7445
 2182SOL     OW18181   4.706   0.549   8.340 -0.0364 -0.1268  0.3721
 2182SOL    HW118182   4.667   0.463   8.354 -0.3310 -0.1535 -0.6464
 2182SOL    HW218183   0.044   0.539   8.278  1.9607 -2.3313  3.0077
 2183SOL     OW18184   1.240   1.832   5.454  0.4231  0.5040 -0.2465
 2183SOL    HW118185   1.247   1.742   5.423  1.6617  0.0874  1.2630
 2183SOL    HW218186   1.310   1.872   5.403  0.6487 -1.7662 -1.7020
 2184SOL     OW18187   4.031   3.114   1.605  0.2121 -0.0544 -0.0215
 2184SOL    HW118188   4.091   3.084   1.672  1.5916  1.6028 -0.5016
 2184SOL    HW218189   4.010   3.036   1.553 -3.0442  0.7854  0.0254
 2185SOL     OW18190   0.130   0.656   2.356  0.0588  0.1048  0.0206
 2185SOL    HW118191   0.214   0.665   2.311  0.3551 -0.5712  0.4363
 2185SOL    HW218192   0.138   0.710   2.435  0.4040  0.0752  0.0050
 2186SOL     OW18193   0.017   0.831   2.915  0.0843 -0.2581  0.3708
 2186SOL    HW118194   0.077   0.846   2.988  0.9130 -0.0600 -0.3509
 2186SOL    HW218195   4.689   0.904   2.918  1.8807  1.2127  0.8599
 2187SOL     OW18196   1.604   4.340  13.183 -0.1557  0.2217  0.4012
 2187SOL    HW118197   1.664   4.414  13.176  1.3196 -0.9008  1.3975
 2187SOL    HW218198   1.518   4.382  13.182 -1.0564 -1.5958  0.6167
 2188SOL     OW18199   2.933   3.116   6.087 -0.0340 -0.5206 -0.0950
 2188SOL    HW118200   2.932   3.211   6.097 -0.9866 -0.4751 -0.5523
 2188SOL    HW218201   2.839   3.103   6.100  0.0335 -0.4981  0.4188
 2189SOL     OW18202   3.111   3.044  14.396  0.1032  0.0573 -0.3565
 2189SOL    HW118203   3.175   3.113  14.411  0.2671  0.2941 -2.2137
 2189SOL    HW218204   3.056   3.073  14.324  0.8213 -0.1691 -0.9964
 2190SOL     OW18205   4.643   1.650  16.959  0.6942 -0.4323 -0.1527
 2190SOL    HW118206   4.560   1.688  16.988  0.7580 -1.6395  1.6663
 2190SOL    HW218207   4.689   1.633  17.042 -0.4218  0.2118  0.5951
 2191SOL     OW18208   1.020   3.718   6.015 -0.2933  0.2793  0.1076
 2191SOL    HW118209   1.021   3.690   6.106 -1.1002  0.5812  0.2180
 2191SOL    HW218210   1.085   3.657   5.982 -0.5550  0.1523 -0.1750
 2192SOL     OW18211   2.480   0.603  14.946  0.1482  0.6999 -0.6803
 2192SOL    HW118212   2.499   0.560  14.863 -3.2453  1.7592 -2.0020
 2192SOL    HW218213   2.569   0.625  14.972  0.0045 -0.1679  0.5511
 2193SOL     OW18214   1.986   0.797   6.210  0.2421 -0.0626  0.2039
 2193SOL    HW118215   2.017   0.741   6.281  1.9457  0.3067 -0.2386
 2193SOL    HW218216   1.958   0.867   6.270  3.3727  0.9812  0.4774
 2194SOL     OW18217   3.906   0.178   5.109 -0.4142 -0.2128  0.4193
 2194SOL    HW118218   3.966   0.237   5.063  0.6154 -0.5226  1.3651
 2194SOL    HW218219   3.958   0.100   5.091  0.0447  0.1282  0.2556
 2195SOL     OW18220   3.535   4.592   9.464  0.0534  0.3175 -0.3725
 2195SOL    HW118221   3.579   4.507   9.470  0.9255  0.7940 -0.0797
 2195SOL    HW218222   3.506   4.614   9.552  1.2671 -1.1607  0.3961
 2196SOL     OW18223   1.610   4.474   6.521  0.2634 -0.5757  0.0904
 2196SOL    HW118224   1.623   4.511   6.608 -0.2589  0.4670 -0.2773
 2196SOL    HW218225   1.608   4.546   6.458 -1.3369 -0.4079  0.3325
 2197SOL     OW18226   1.574   3.325   3.972  0.2791 -0.2216  0.1516
 2197SOL    HW118227   1.612   3.258   4.028  1.4355 -1.0334 -1.6042
 2197SOL    HW218228   1.586   3.284   3.886  2.5399  1.4074 -0.3350
 2198SOL     OW18229   2.552   1.455  12.813 -0.9173  0.0205  0.1264
 2198SOL    HW118230   2.622   1.393  12.836  0.1670  1.1823 -0.0478
 2198SOL    HW218231   2.580   1.471  12.723 -1.1195 -0.6456 -0.0585
 2199SOL     OW18232   3.466   3.171   8.898  0.1693  0.0572 -0.0877
 2199SOL    HW118233   3.436   3.260   8.916 -1.6695 -0.6049  0.0636
 2199SOL    HW218234   3.479   3.141   8.988 -0.1633  1.3418  0.3854
 2200SOL     OW18235   2.357   4.461  16.596  1.1575 -0.2923 -0.0327
 2200SOL    HW118236   2.316   4.469  16.510 -2.6362  0.5064  1.8506
 2200SOL    HW218237   2.288   4.506  16.645  3.1279  1.1705  1.3778
 2201SOL     OW18238   0.879   3.775   1.930 -0.1385 -0.1444 -0.0458
 2201SOL    HW118239   0.817   3.790   1.858 -0.7940  0.5186  0.6635
 2201SOL    HW218240   0.824   3.726   1.990 -1.5443  2.2959  0.6495
 2202SOL     OW18241   2.122   3.041   7.838  0.1144  0.9102  0.6079
 2202SOL    HW118242   2.094   2.997   7.758  0.5836  0.0696  0.9149
 2202SOL    HW218243   2.109   2.977   7.907 -0.5903 -0.8310 -1.1522
 2203SOL     OW18244   3.079   3.529   2.285  0.0420  0.3253  0.4683
 2203SOL    HW118245   3.063   3.502   2.195 -1.5331  1.2139  0.4589
 2203SOL    HW218246   3.158   3.581   2.273 -0.7571  1.1043 -1.4982
 2204SOL     OW18247   1.842   0.087   5.676 -0.6683  0.1455 -0.1718
 2204SOL    HW118248   1.775   0.081   5.743 -1.8470 -1.8399 -1.5466
 2204SOL    HW218249   1.778   0.101   5.606  1.5575  0.3926 -2.1853
 2205SOL     OW18250   2.704   1.570   5.877  0.0775  0.0739  0.1721
 2205SOL    HW118251   2.698   1.544   5.785  1.2306 -0.2771  0.2016
 2205SOL    HW218252   2.789   1.540   5.908  0.1662  0.6586  0.4975
 2206SOL     OW18253   2.090   2.385   7.432  0.0383 -0.8654  0.5147
 2206SOL    HW118254   2.175   2.375   7.390  0.0921 -1.2771  0.7189
 2206SOL    HW218255   2.049   2.442   7.367 -1.2843 -1.4920  0.7968
 2207SOL     OW18256   4.233   0.879   5.283 -0.3083 -0.2370  0.2203
 2207SOL    HW118257   4.238   0.835   5.368 -1.0470 -0.1934  0.2811
 2207SOL    HW218258   4.183   0.817   5.231 -0.2641 -0.2019  0.1365
 2208SOL     OW18259   0.579   3.215  15.236  0.4084 -0.0711  0.1946
 2208SOL    HW118260   0.590   3.130  15.192  1.5138 -0.6573  1.6247
 2208SOL    HW218261   0.601   3.274  15.163 -0.7462  1.3833  1.0242
 2209SOL     OW18262   0.322   1.715   4.086 -0.5189  0.2068  0.3077
 2209SOL    HW118263   0.265   1.682   4.155 -1.0045 -2.4442 -1.3794
 2209SOL    HW218264   0.352   1.632   4.048 -0.7448  1.4494 -2.5721
 2210SOL     OW18265   3.259   3.905   3.819 -0.1278  0.1725 -0.4067
 2210SOL    HW118266   3.346   3.920   3.784 -0.2632 -0.2896 -0.9441
 2210SOL    HW218267   3.274   3.843   3.890  0.4980 -0.4948 -1.1198
 2211SOL     OW18268   0.951   4.061   7.835  0.3426  0.1243 -0.2556
 2211SOL    HW118269   0.955   4.031   7.744 -0.6316  2.2884 -1.0220
 2211SOL    HW218270   0.857   4.077   7.846  0.2047 -1.0676  0.2762
 2212SOL     OW18271   2.475   0.608   4.711  0.2218 -0.3777 -0.1298
 2212SOL    HW118272   2.445   0.517   4.705  0.2226 -0.3495 -0.6281
 2212SOL    HW218273   2.468   0.618   4.805 -2.2837  0.6790 -0.4188
 2213SOL     OW18274   1.378   1.406   6.322 -0.6977 -0.7226  0.0531
 2213SOL    HW118275   1.284   1.423   6.319 -0.2387  1.5027 -1.6723
 2213SOL    HW218276   1.402   1.418   6.414 -1.5546 -1.1127  0.3289
 2214SOL     OW18277   0.473   1.678  11.513  0.0862  0.4138 -0.0247
 2214SOL    HW118278   0.532   1.693  11.440  1.0423  2.5799  1.2193
 2214SOL    HW218279   0.462   1.772  11.524 -2.9529  0.0541  0.1452
 2215SOL     OW18280   0.669   3.991   5.142  0.5901  0.0602  0.0233
 2215SOL    HW118281   0.714   3.937   5.207 -1.3505 -0.4667  0.9154
 2215SOL    HW218282   0.727   4.066   5.151  0.2570  0.4338 -0.8801
 2216SOL     OW18283   1.296   2.843  12.510  0.3225  0.6280 -0.1779
 2216SOL    HW118284   1.223   2.824  12.451  1.4293 -1.6969 -0.8229
 2216SOL    HW218285   1.364   2.822  12.445  2.0293 -0.5550  1.9941
 2217SOL     OW18286   1.578   1.313   7.195 -0.3966  0.0776 -0.5945
 2217SOL    HW118287   1.493   1.357   7.193  0.2411  1.2914 -1.5357
 2217SOL    HW218288   1.613   1.342   7.279  0.7454 -0.9845 -0.6999
 2218SOL     OW18289   4.658   2.393   2.025 -0.7703  0.2958  0.0588
 2218SOL    HW118290   4.647   2.482   1.990 -2.0673  0.6412  1.3456
 2218SOL    HW218291   0.018   2.380   2.037 -0.8064 -0.8951 -0.9224
 2219SOL     OW18292   0.801   0.821   5.642  0.4887  0.0404  0.2960
 2219SOL    HW118293   0.741   0.895   5.640 -0.8558 -1.0429 -0.0006
 2219SOL    HW218294   0.818   0.821   5.736 -0.7473  0.6524  0.5232
 2220SOL     OW18295   2.835   1.799   6.118 -0.1934  0.1484  0.3292
 2220SOL    HW118296   2.823   1.704   6.125 -0.1428 -0.0455 -2.4282
 2220SOL    HW218297   2.809   1.839   6.201  1.2257 -1.4873  1.5654
 2221SOL     OW18298   0.239   0.631   7.927  0.1937  0.1841 -0.1529
 2221SOL    HW118299   0.304   0.692   7.961  2.3526 -1.2078 -1.8259
 2221SOL    HW218300   0.163   0.686   7.907 -1.0236 -2.2409 -2.3241
 2222SOL     OW18301   0.421   0.851   6.235 -0.1272 -0.4926 -0.6380
 2222SOL    HW118302   0.366   0.776   6.212 -1.3997  0.0120  0.7812
 2222SOL    HW218303   0.368   0.883   6.307  3.1761  1.0321  1.1214
 2223SOL     OW18304   2.251   0.016   8.604  0.4069 -0.2878 -0.2653
 2223SOL    HW118305   2.259   4.682   8.671 -0.3263  0.6017  0.7070
 2223SOL    HW218306   2.163   0.052   8.614  1.3010  1.3474  1.7056
 2224SOL     OW18307   1.781   0.256   8.980  0.0873 -0.3741 -0.4625
 2224SOL    HW118308   1.715   0.272   8.913 -1.2822 -0.2318  0.9191
 2224SOL    HW218309   1.847   0.312   8.941  0.4313 -1.9111 -2.0575
 2225SOL     OW18310   0.950   2.061  16.978 -0.1155  0.7616  0.0154
 2225SOL    HW118311   1.007   2.007  16.923  0.3604  2.8793 -1.5838
 2225SOL    HW218312   1.002   2.097  17.049  0.8512  1.1317 -0.8787
 2226SOL     OW18313   1.250   0.290  14.011 -0.0162  0.1204  0.0388
 2226SOL    HW118314   1.213   0.202  14.019  0.5937  0.0026  1.6143
 2226SOL    HW218315   1.334   0.277  13.967 -0.2465 -3.5868  0.6762
 2227SOL     OW18316   1.073   1.182   5.981 -0.2159  0.1810 -0.4706
 2227SOL    HW118317   0.980   1.160   5.983 -0.1713 -0.2356 -2.6475
 2227SOL    HW218318   1.067   1.270   5.943 -1.0017  0.1749 -0.3544
 2228SOL     OW18319   4.289   3.937   8.354  0.3951  0.2524  0.3640
 2228SOL    HW118320   4.330   3.990   8.286  0.6109  0.8509  0.9586
 2228SOL    HW218321   4.200   3.970   8.356  0.8070  1.3517  0.6212
 2229SOL     OW18322   1.812   2.838  13.277  0.0597 -0.3061  0.1224
 2229SOL    HW118323   1.776   2.885  13.352 -0.8007 -1.6530  0.5502
 2229SOL    HW218324   1.727   2.804  13.250  0.7529 -0.6438 -1.6312
 2230SOL     OW18325   0.513   2.772   0.762  0.3241  0.2140 -0.6811
 2230SOL    HW118326   0.533   2.773   0.668 -0.4155  2.3786 -0.8279
 2230SOL    HW218327   0.450   2.843   0.773  0.1904 -0.1961  1.0969
 2231SOL     OW18328   2.208   4.228  10.057  0.3530 -0.1029 -0.6073
 2231SOL    HW118329   2.219   4.317  10.025 -0.3802  1.4104  3.3326
 2231SOL    HW218330   2.119   4.210  10.027 -0.2483  1.6739  0.1455
 2232SOL     OW18331   3.250   3.746   5.492 -0.1966 -0.1532  0.2277
 2232SOL    HW118332   3.173   3.691   5.507 -1.2614  1.3370  0.1385
 2232SOL    HW218333   3.217   3.833   5.513 -2.5733 -1.4115  1.7846
 2233SOL     OW18334   2.432   0.004   7.506 -0.0911 -0.2647  0.3184
 2233SOL    HW118335   2.337   4.725   7.506 -0.3238  1.4859 -0.4492
 2233SOL    HW218336   2.464   4.654   7.473  0.1462 -0.3518  0.7630
 2234SOL     OW18337   3.688   3.801   5.885  0.0070 -0.5742 -0.5470
 2234SOL    HW118338   3.753   3.793   5.955  0.2202 -0.2136 -0.7025
 2234SOL    HW218339   3.611   3.776   5.938  0.8621 -2.7539 -0.3473
 2235SOL     OW18340   0.338   0.946   4.144  0.0399  0.1959  0.4597
 2235SOL    HW118341   0.246   0.958   4.119 -0.4754 -3.2279  0.7640
 2235SOL    HW218342   0.363   1.027   4.099  0.3817 -0.7227 -1.0009
 2236SOL     OW18343   3.397   2.075   9.270 -0.3089  0.0386  0.3710
 2236SOL    HW118344   3.480   2.123   9.261 -1.3262  1.9276  0.9170
 2236SOL    HW218345   3.420   2.003   9.212 -1.1679 -0.5836  0.8023
 2237SOL     OW18346   0.787   3.865   3.686  0.3348  0.2652  0.0347
 2237SOL    HW118347   0.874   3.829   3.705 -1.3282 -3.5011  0.4037
 2237SOL    HW218348   0.744   3.861   3.772  1.3772  1.2728  0.6045
 2238SOL     OW18349   2.477   3.911   4.895  0.0479  0.6529 -0.0547
 2238SOL    HW118350   2.571   3.903   4.909  0.3712 -0.3187 -2.7025
 2238SOL    HW218351   2.446   3.822   4.913  1.2310  0.2673  0.0720
 2239SOL     OW18352   4.082   1.528   5.407 -0.2984  0.7161 -0.1121
 2239SOL    HW118353   4.019   1.468   5.369 -1.5512  1.6776  0.4648
 2239SOL    HW218354   4.153   1.469   5.431 -0.6897  1.1037  2.0548
 2240SOL     OW18355   3.627   2.176   0.724 -0.1649 -0.0183 -0.6937
 2240SOL    HW118356   3.653   2.093   0.684  0.0728 -1.6209  2.7792
 2240SOL    HW218357   3.579   2.215   0.652  2.4242 -0.8655 -2.8899
 2241SOL     OW18358   3.022   4.466   1.394  0.0869 -0.4550  0.5501
 2241SOL    HW118359   3.102   4.413   1.403 -0.3650 -0.9145  1.8739
 2241SOL    HW218360   2.960   4.412   1.443  0.2964  1.0018  2.4108
 2242SOL     OW18361   1.229   2.110   6.230 -0.1482  0.1477  0.8439
 2242SOL    HW118362   1.206   2.040   6.169 -0.2214  0.3295  0.6631
 2242SOL    HW218363   1.219   2.180   6.165 -3.2300 -0.1829  0.9499
 2243SOL     OW18364   3.937   2.260   7.640 -0.2446  0.2996 -0.3129
 2243SOL    HW118365   3.883   2.337   7.622 -2.6854 -1.2742  0.2528
 2243SOL    HW218366   3.895   2.227   7.719  2.0613 -0.8728  0.4227
 2244SOL     OW18367   3.299   0.405   4.500  0.0847 -0.3028 -0.6516
 2244SOL    HW118368   3.350   0.401   4.581  0.1154  0.2300 -0.6436
 2244SOL    HW218369   3.376   0.413   4.443 -0.1321  0.4566 -0.8371
 2245SOL     OW18370   4.163   0.204   8.105 -0.4587 -0.2986 -0.3915
 2245SOL    HW118371   4.186   0.197   8.012 -1.3784  3.1278 -0.9066
 2245SOL    HW218372   4.067   0.207   8.104 -0.4157  0.9310 -0.8153
 2246SOL     OW18373   2.711   3.167  11.635  0.5966 -0.2039  0.1710
 2246SOL    HW118374   2.795   3.124  11.650  0.9668  0.6213  0.4658
 2246SOL    HW218375   2.711   3.239  11.698 -2.3763 -1.7992  1.9701
 2247SOL     OW18376   3.181   0.304   6.547 -0.1460 -0.4451  0.1115
 2247SOL    HW118377   3.127   0.330   6.473  0.9145 -2.5302 -1.3800
 2247SOL    HW218378   3.251   0.369   6.554  1.5194 -2.2802  0.4022
 2248SOL     OW18379   0.865   4.024   4.767 -0.3656  0.1463  0.1029
 2248SOL    HW118380   0.823   4.009   4.683  0.7950  2.1063 -0.8101
 2248SOL    HW218381   0.795   3.985   4.820 -0.4132 -0.2709 -0.2676
 2249SOL     OW18382   1.921   3.683   2.045  0.1702  0.4837 -0.3977
 2249SOL    HW118383   1.946   3.690   2.137 -1.1267  0.8600 -0.0797
 2249SOL    HW218384   1.987   3.625   2.007 -0.1267  0.8431 -1.4788
 2250SOL     OW18385   1.676   1.579  10.066 -0.4531 -0.0870  0.3352
 2250SOL    HW118386   1.722   1.496  10.074 -1.1695 -0.2129  2.9004
 2250SOL    HW218387   1.750   1.635  10.089 -0.4348  0.8044 -1.8907
 2251SOL     OW18388   0.899   1.732   3.986 -0.5630  0.1566  0.4638
 2251SOL    HW118389   0.819   1.783   4.000  0.3624  2.4657 -2.5962
 2251SOL    HW218390   0.860   1.648   4.008  0.0566  0.0977  1.3529
 2252SOL     OW18391   0.346   3.804   4.774 -0.5567  0.5238 -0.4185
 2252SOL    HW118392   0.337   3.717   4.813 -1.2111  1.3582  1.2745
 2252SOL    HW218393   0.359   3.866   4.846  0.8874 -2.4970  1.9070
 2253SOL     OW18394   1.671   2.690   5.882 -0.3228 -0.4737 -0.2677
 2253SOL    HW118395   1.729   2.622   5.849 -0.5903  0.0116 -1.7400
 2253SOL    HW218396   1.664   2.659   5.973  0.7734 -0.7854 -0.2891
 2254SOL     OW18397   1.154   1.964   6.889 -0.2921  0.1919  0.6545
 2254SOL    HW118398   1.160   2.041   6.833 -0.9395 -1.2354 -1.3938
 2254SOL    HW218399   1.190   1.991   6.973 -1.4799  1.1910  0.8435
 2255SOL     OW18400   1.103   4.354   8.014  0.2231  0.2460 -0.3070
 2255SOL    HW118401   1.052   4.396   7.944 -0.3906  2.1658  1.3006
 2255SOL    HW218402   1.130   4.275   7.965  0.2784  0.6947 -1.0075
 2256SOL     OW18403   1.595   0.354   4.839 -0.1861 -0.1507  0.4801
 2256SOL    HW118404   1.528   0.289   4.820 -0.8164  0.5311  0.3780
 2256SOL    HW218405   1.553   0.438   4.820 -0.4886 -0.2561  0.6990
 2257SOL     OW18406   1.744   0.887   7.962 -0.5775  0.3719 -0.0270
 2257SOL    HW118407   1.808   0.820   7.986 -0.6989  0.0595 -0.5588
 2257SOL    HW218408   1.732   0.864   7.870 -1.4737 -1.0398  0.4291
 2258SOL     OW18409   1.958   1.098   8.765  0.3689 -0.0306  0.2201
 2258SOL    HW118410   1.955   1.190   8.791  1.1367 -0.2538  1.0947
 2258SOL    HW218411   1.910   1.103   8.682  2.8542 -0.0110 -1.2087
 2259SOL     OW18412   4.527   3.205   6.931 -0.0478 -0.7066 -0.0319
 2259SOL    HW118413   4.530   3.173   7.021  1.0601  1.2324  0.6364
 2259SOL    HW218414   4.622   3.194   6.926 -0.2400 -2.3446 -0.0314
 2260SOL     OW18415   2.534   4.245  10.004 -0.2691 -0.4012  0.6652
 2260SOL    HW118416   2.478   4.208   9.936  1.5737 -3.8661  1.0628
 2260SOL    HW218417   2.549   4.326   9.954 -4.1341  0.1917  0.4356
 2261SOL     OW18418   3.150   3.544   1.613  0.1718  0.6966 -1.2140
 2261SOL    HW118419   3.167   3.582   1.699  0.9749  1.4332 -1.6933
 2261SOL    HW218420   3.222   3.484   1.595 -1.0057 -0.8737 -0.5974
 2262SOL     OW18421   1.664   2.843   5.326  0.5357 -0.0145  0.4816
 2262SOL    HW118422   1.737   2.835   5.265  1.2583 -0.1265  1.3613
 2262SOL    HW218423   1.685   2.776   5.391 -1.2178 -0.7576  0.2764
 2263SOL     OW18424   1.851   4.697   7.431 -0.1585 -0.6592  0.1665
 2263SOL    HW118425   1.807   4.682   7.515  0.1284  1.1049  0.6296
 2263SOL    HW218426   1.784   4.682   7.365 -1.6735  0.2903  1.4828
 2264SOL     OW18427   2.950   2.685   3.194  0.2724  0.6435  0.0366
 2264SOL    HW118428   2.893   2.612   3.217 -0.2561  1.6801  2.0593
 2264SOL    HW218429   2.984   2.708   3.281 -1.1770  2.7289  0.0502
 2265SOL     OW18430   4.605   1.059   2.903 -0.0531 -0.9309  0.8915
 2265SOL    HW118431   4.531   1.108   2.939 -0.1628 -1.5042  1.4600
 2265SOL    HW218432   4.588   1.069   2.810 -1.6699 -0.8303  1.1909
 2266SOL     OW18433   0.698   4.009   3.466  0.0381  0.6859 -0.1508
 2266SOL    HW118434   0.709   3.980   3.556 -0.3931  0.5315 -0.1476
 2266SOL    HW218435   0.759   3.955   3.415  0.1585  0.0445  0.6722
 2267SOL     OW18436   0.572   3.757   1.892  0.0472  0.8741  0.1293
 2267SOL    HW118437   0.547   3.844   1.923  1.9653  1.3277  0.4150
 2267SOL    HW218438   0.549   3.757   1.799  1.1662  1.1042 -0.1563
 2268SOL     OW18439   3.890   2.803   1.859  0.3520  0.6635 -0.5564
 2268SOL    HW118440   3.904   2.820   1.952 -1.1842 -1.7024  0.0950
 2268SOL    HW218441   3.868   2.710   1.865  0.0496  1.0256  3.7593
 2269SOL     OW18442   3.280   4.145   2.686  0.3944 -0.3175  0.6488
 2269SOL    HW118443   3.219   4.153   2.759 -2.4992  1.1353 -1.9387
 2269SOL    HW218444   3.249   4.068   2.639 -1.1476  0.4897  0.3369
 2270SOL     OW18445   2.563   3.846   2.712  0.7479  0.7300 -0.8134
 2270SOL    HW118446   2.510   3.925   2.713 -1.9462 -1.1266  2.1200
 2270SOL    HW218447   2.494   3.783   2.692 -0.6099  1.7912  0.5872
 2271SOL     OW18448   3.416   4.609   8.024  0.0935 -0.1418  0.2203
 2271SOL    HW118449   3.379   4.652   8.101  0.6705  0.9405 -0.0992
 2271SOL    HW218450   3.341   4.552   8.006  1.4447 -1.7933 -0.1398
 2272SOL     OW18451   0.644   3.094   9.949  0.1594 -0.1430 -0.4786
 2272SOL    HW118452   0.590   3.039   9.893  1.1433 -0.8800 -0.7044
 2272SOL    HW218453   0.699   3.030   9.994 -2.5316 -0.3367  2.4988
 2273SOL     OW18454   2.595   0.707   8.697 -0.1891  0.1932  0.4470
 2273SOL    HW118455   2.501   0.707   8.678 -0.0327  0.4793 -0.2941
 2273SOL    HW218456   2.613   0.634   8.639 -0.7389  0.2016  0.2692
 2274SOL     OW18457   2.692   0.782   7.449 -0.4032  0.2915  0.3689
 2274SOL    HW118458   2.633   0.854   7.473 -2.1261 -1.1858  0.4751
 2274SOL    HW218459   2.755   0.826   7.391 -0.0306  1.9227  1.9882
 2275SOL     OW18460   0.274   2.016  12.616 -0.0344  0.0378 -0.0801
 2275SOL    HW118461   0.245   2.049  12.531  2.7482 -0.2812 -1.1558
 2275SOL    HW218462   0.237   1.927  12.612 -0.2973  0.1307  0.3217
 2276SOL     OW18463   3.627   4.071   8.000 -0.1542  0.3217 -0.6269
 2276SOL    HW118464   3.653   3.982   7.976  0.7861  0.7120 -1.0231
 2276SOL    HW218465   3.534   4.056   8.020 -0.1199  2.4803  1.1741
 2277SOL     OW18466   2.858   0.127   6.033 -0.2409 -0.1185  0.4862
 2277SOL    HW118467   2.847   0.036   6.060  3.1762 -0.4588  0.6656
 2277SOL    HW218468   2.838   0.174   6.114  0.3549 -0.9136  1.0844
 2278SOL     OW18469   2.836   4.104   8.126 -0.3319 -0.3755  0.4557
 2278SOL    HW118470   2.831   4.190   8.167 -2.0041 -0.8570  1.2565
 2278SOL    HW218471   2.779   4.061   8.190  0.3583  0.7907  1.8345
 2279SOL     OW18472   3.851   4.667   6.587  0.0443  0.3269 -0.2330
 2279SOL    HW118473   3.820   0.023   6.585  3.5775  1.5403 -0.1779
 2279SOL    HW218474   3.937   4.686   6.625 -0.9566  0.0406  2.1957
 2280SOL     OW18475   0.799   2.661   5.931  0.0859  0.2862 -0.0890
 2280SOL    HW118476   0.752   2.729   5.978 -0.6370 -0.7400  0.6642
 2280SOL    HW218477   0.788   2.685   5.839  1.2872  1.2141  0.0019
 2281SOL     OW18478   0.762   2.607   9.299 -0.2488  0.5524  0.2496
 2281SOL    HW118479   0.819   2.557   9.240  0.9517  1.0205  1.0215
 2281SOL    HW218480   0.819   2.657   9.358 -0.8375  1.1216  0.3299
 2282SOL     OW18481   4.255   1.556  12.160  0.3032  0.2358 -0.0579
 2282SOL    HW118482   4.214   1.593  12.238 -0.0239  1.9216 -1.0340
 2282SOL    HW218483   4.183   1.503  12.127 -0.3268  0.8628  0.3298
 2283SOL     OW18484   3.253   2.823   1.999 -0.3090 -0.2277 -0.1682
 2283SOL    HW118485   3.226   2.848   2.088 -1.2798  1.1479 -0.8405
 2283SOL    HW218486   3.311   2.894   1.971 -0.0166  0.5503  2.4291
 2284SOL     OW18487   0.670   3.935  10.556  0.3234  0.2587 -0.3870
 2284SOL    HW118488   0.612   4.012  10.556  1.5904  1.2058 -0.9572
 2284SOL    HW218489   0.738   3.964  10.616  1.1205  0.0944 -1.2232
 2285SOL     OW18490   4.369   1.287  14.438  0.6064  0.6209  0.4736
 2285SOL    HW118491   4.354   1.193  14.429 -1.6194  0.9781  0.3501
 2285SOL    HW218492   4.459   1.295  14.405  0.6686  0.0460  0.5186
 2286SOL     OW18493   3.170   0.355   6.012  0.3987 -0.0893  0.2569
 2286SOL    HW118494   3.132   0.294   6.075  0.8063 -1.0935 -0.4721
 2286SOL    HW218495   3.259   0.355   6.047  0.5083  0.8785 -0.0098
 2287SOL     OW18496   3.226   1.202   5.509 -0.0535 -0.0030 -0.0144
 2287SOL    HW118497   3.299   1.215   5.569  1.3426 -2.0453 -1.2984
 2287SOL    HW218498   3.235   1.108   5.497  0.7361  0.1633 -0.6838
 2288SOL     OW18499   1.803   0.595   2.805  0.2529 -0.1371  0.0309
 2288SOL    HW118500   1.894   0.589   2.779  1.0571  1.1093  2.5351
 2288SOL    HW218501   1.758   0.513   2.783  1.5475 -1.6553  3.0427
 2289SOL     OW18502   1.538   4.312   9.576  0.4793 -0.3898  0.3538
 2289SOL    HW118503   1.554   4.399   9.540  0.5290 -0.4201  0.3035
 2289SOL    HW218504   1.600   4.266   9.520  3.4744  1.6543  1.9779
 2290SOL     OW18505   3.609   0.807   3.324  0.1942 -0.1389  0.1127
 2290SOL    HW118506   3.575   0.750   3.392 -0.6824 -0.6517 -0.7510
 2290SOL    HW218507   3.551   0.779   3.253  1.1377 -0.9611 -0.3302
 2291SOL     OW18508   1.623   1.536  13.940  0.1856  0.2938  0.0153
 2291SOL    HW118509   1.584   1.488  13.867  2.5774  0.2097 -1.2302
 2291SOL    HW218510   1.680   1.470  13.978  0.1082  0.5506  0.5747
 2292SOL     OW18511   4.586   2.043   3.487 -0.7356 -0.3548 -0.8893
 2292SOL    HW118512   4.649   2.093   3.539 -0.1835 -0.7432 -1.1839
 2292SOL    HW218513   4.649   1.984   3.444 -0.6552 -0.0813 -1.1399
 2293SOL     OW18514   3.424   3.861   3.198 -0.2768  0.1599 -0.8587
 2293SOL    HW118515   3.397   3.934   3.253  0.6702  0.4611 -0.8008
 2293SOL    HW218516   3.374   3.785   3.227  2.1772 -1.5413 -1.0834
 2294SOL     OW18517   3.748   1.222   4.152  0.2133  0.2259 -0.1916
 2294SOL    HW118518   3.842   1.233   4.166  0.1457 -1.5223  1.6320
 2294SOL    HW218519   3.726   1.257   4.239  1.8796  1.3087 -0.2054
 2295SOL     OW18520   1.312   1.844  14.280  0.4128  0.2609 -0.3160
 2295SOL    HW118521   1.220   1.858  14.301  0.5240  0.3452  0.1066
 2295SOL    HW218522   1.326   1.750  14.297 -0.1175 -0.0175 -1.3783
 2296SOL     OW18523   4.670   0.395   3.538  0.3514 -0.4627  0.3099
 2296SOL    HW118524   4.628   0.317   3.573  0.9956 -0.8336  0.2600
 2296SOL    HW218525   4.729   0.410   3.611  3.3271 -0.8902 -1.9971
 2297SOL     OW18526   3.462   2.927  12.126 -0.0886 -0.5325 -0.2443
 2297SOL    HW118527   3.368   2.939  12.141  0.0469  0.8002 -0.3900
 2297SOL    HW218528   3.488   2.911  12.217  0.3105 -0.9170 -0.4294
 2298SOL     OW18529   1.340   1.938   3.623 -0.2028 -0.0211  0.5127
 2298SOL    HW118530   1.314   1.848   3.643 -1.1186  0.0450 -0.3759
 2298SOL    HW218531   1.334   1.988   3.704  0.7069  0.6004  0.1964
 2299SOL     OW18532   0.967   3.892   5.523 -0.1020  0.0458 -0.6569
 2299SOL    HW118533   0.969   3.959   5.590 -0.6323 -0.2236 -0.3693
 2299SOL    HW218534   1.056   3.861   5.536 -0.7650 -0.8318  1.8212
 2300SOL     OW18535   3.533   1.212   2.386 -0.2467  0.2112  0.2227
 2300SOL    HW118536   3.525   1.264   2.466  2.0234 -2.0530  1.9108
 2300SOL    HW218537   3.614   1.246   2.348 -1.3868 -0.5487 -2.8515
 2301SOL     OW18538   0.987   1.823   5.568  0.2960 -0.6450 -0.0239
 2301SOL    HW118539   1.072   1.801   5.529  1.1690  0.2744  1.3571
 2301SOL    HW218540   0.999   1.918   5.561  0.0560 -0.6436 -0.3832
 2302SOL     OW18541   1.389   1.761   0.169  0.2076  0.5932 -0.0343
 2302SOL    HW118542   1.452   1.723   0.108  1.2410  0.5769  1.0293
 2302SOL    HW218543   1.385   1.694   0.238  1.0197  1.1190  0.5174
 2303SOL     OW18544   0.589   0.934  15.830 -0.6265 -0.0881 -0.4719
 2303SOL    HW118545   0.524   0.911  15.897  0.2645  1.3711  0.8781
 2303SOL    HW218546   0.580   1.027  15.812  0.5993  0.0770 -0.2312
 2304SOL     OW18547   1.258   1.664   4.988 -0.2247  0.1450  0.3939
 2304SOL    HW118548   1.226   1.742   5.034 -2.9381 -1.2265  0.8780
 2304SOL    HW218549   1.319   1.629   5.054 -0.5812 -1.3890 -0.0908
 2305SOL     OW18550   0.918   3.884   8.732  0.4249 -0.5280  0.5220
 2305SOL    HW118551   0.952   3.795   8.735  1.2492 -0.1862  1.4573
 2305SOL    HW218552   0.929   3.898   8.638  0.5596  1.0213  0.7594
 2306SOL     OW18553   0.755   3.230   6.433  0.2505  0.4603  0.3303
 2306SOL    HW118554   0.810   3.269   6.365  0.4190  2.1658  1.4443
 2306SOL    HW218555   0.825   3.234   6.497  0.8548  3.0005 -0.4884
 2307SOL     OW18556   2.859   2.703   6.225 -0.1087  0.6856 -0.9654
 2307SOL    HW118557   2.866   2.638   6.155 -0.0040  0.0734 -0.3887
 2307SOL    HW218558   2.937   2.753   6.202  0.6649  0.1019  0.3918
 2308SOL     OW18559   0.045   0.658   8.567 -0.8058  0.1121  0.1652
 2308SOL    HW118560   0.005   0.620   8.489 -0.9911 -0.8918  0.7534
 2308SOL    HW218561   0.120   0.599   8.578 -0.8263 -0.2152 -1.4289
 2309SOL     OW18562   3.630   3.790   7.308 -0.2407  0.1632 -0.2091
 2309SOL    HW118563   3.691   3.817   7.377 -0.2112  1.8075 -0.8881
 2309SOL    HW218564   3.542   3.816   7.337  0.4548  1.6326  0.5691
 2310SOL     OW18565   3.110   1.243  15.536  0.2212 -0.4239  0.0885
 2310SOL    HW118566   3.072   1.310  15.480  1.6747  0.1138 -0.2504
 2310SOL    HW218567   3.048   1.247  15.608  1.9109 -0.8187  1.5612
 2311SOL     OW18568   4.518   2.930   6.673  1.0666  0.0076 -0.1379
 2311SOL    HW118569   4.477   2.867   6.615 -1.0514  2.4277 -1.2505
 2311SOL    HW218570   4.448   2.955   6.733  0.6378 -1.2749 -0.0964
 2312SOL     OW18571   1.511   2.189  10.610 -0.1773  0.1400 -0.4879
 2312SOL    HW118572   1.441   2.253  10.620  0.3673  0.6074  0.3265
 2312SOL    HW218573   1.592   2.239  10.619  0.9330 -1.4551 -1.4278
 2313SOL     OW18574   4.310   1.090   8.962 -0.5401  0.2636 -0.0482
 2313SOL    HW118575   4.292   0.996   8.950 -1.6634  0.2655  1.6445
 2313SOL    HW218576   4.378   1.094   9.030 -1.4497  2.4845  0.7153
 2314SOL     OW18577   3.441   1.455  17.687  0.2091  0.0719 -0.0101
 2314SOL    HW118578   3.512   1.485  17.631  1.5074  0.2512  1.7529
 2314SOL    HW218579   3.403   1.397  17.621 -0.7961 -0.3394  0.9285
 2315SOL     OW18580   1.525   3.848   6.172 -0.3381  0.1734 -0.2778
 2315SOL    HW118581   1.505   3.809   6.087 -3.1799  0.3058  0.3211
 2315SOL    HW218582   1.540   3.939   6.147  0.5534  0.0515 -0.1794
 2316SOL     OW18583   0.773   2.581  10.749 -0.0670 -0.0295  0.0125
 2316SOL    HW118584   0.729   2.648  10.696  2.2348  0.5031 -1.2189
 2316SOL    HW218585   0.776   2.617  10.838 -1.3046 -0.3871  0.2051
 2317SOL     OW18586   0.496   3.524   4.267  0.1387  0.2067 -0.4518
 2317SOL    HW118587   0.443   3.598   4.235  0.0710  0.0229 -0.7710
 2317SOL    HW218588   0.526   3.480   4.187  2.7908 -0.9293  1.1493
 2318SOL     OW18589   3.267   4.600   6.345 -0.7209  0.0699  0.2427
 2318SOL    HW118590   3.298   4.658   6.276 -0.8813  1.5526  1.4094
 2318SOL    HW218591   3.289   4.644   6.427  0.2537 -2.1425  1.1826
 2319SOL     OW18592   1.357   2.049   7.375  0.3725  0.3458 -0.0893
 2319SOL    HW118593   1.297   2.010   7.312  0.6493 -0.2965  0.0431
 2319SOL    HW218594   1.364   2.140   7.347  0.0542  0.0028 -1.2862
 2320SOL     OW18595   1.665   1.341  16.603 -0.6715  0.0897 -0.1311
 2320SOL    HW118596   1.606   1.352  16.678  1.1653 -0.2339  1.3438
 2320SOL    HW218597   1.603   1.332  16.530 -2.0653  3.6047  0.6254
 2321SOL     OW18598   4.234   1.316  11.467 -0.9703 -0.2585  0.6304
 2321SOL    HW118599   4.191   1.400  11.480 -0.6288  0.5824 -3.6805
 2321SOL    HW218600   4.274   1.285  11.549  1.8417  0.5235 -0.4528
 2322SOL     OW18601   3.978   0.728  11.655 -0.3362  0.2283  0.2416
 2322SOL    HW118602   3.937   0.761  11.576  0.6162 -0.0261 -0.3605
 2322SOL    HW218603   3.910   0.730  11.723  1.6702  1.4469  2.2155
 2323SOL     OW18604   4.206   3.473   5.947 -0.6273  0.5267 -0.3474
 2323SOL    HW118605   4.237   3.405   6.006  2.7139  2.0454 -0.3255
 2323SOL    HW218606   4.114   3.449   5.939 -0.4695  0.3777 -1.8828
 2324SOL     OW18607   1.826   3.555   7.488  0.0267 -0.3552  0.0492
 2324SOL    HW118608   1.848   3.522   7.401  0.6683 -1.4196  0.6189
 2324SOL    HW218609   1.797   3.474   7.531 -3.0944  0.7819  0.0679
 2325SOL     OW18610   0.438   2.920   8.068 -0.1927  0.1108  0.0333
 2325SOL    HW118611   0.368   2.939   8.006 -0.9061  0.3701  0.9200
 2325SOL    HW218612   0.462   2.829   8.047 -0.9548 -0.4606  1.6663
 2326SOL     OW18613   2.871   1.370   4.203  0.7348 -0.5638 -0.1516
 2326SOL    HW118614   2.862   1.445   4.262  1.0730 -1.7336  1.3479
 2326SOL    HW218615   2.834   1.408   4.123  0.6594  1.1860  0.7187
 2327SOL     OW18616   4.515   1.334  11.113  0.1719 -0.2182  0.4092
 2327SOL    HW118617   4.455   1.263  11.138 -1.2814  0.6401 -0.6825
 2327SOL    HW218618   4.593   1.325  11.168 -0.3868 -0.3030  1.1940
 2328SOL     OW18619   2.664   1.370  10.561 -0.0292 -0.3009 -0.1385
 2328SOL    HW118620   2.634   1.446  10.511 -0.3956 -0.1260  0.3457
 2328SOL    HW218621   2.710   1.424  10.624 -1.0570  0.9191 -0.4212
 2329SOL     OW18622   0.574   3.747   2.187  0.2154 -0.7899  0.3133
 2329SOL    HW118623   0.523   3.686   2.134  1.0905 -2.1896  1.0936
 2329SOL    HW218624   0.516   3.823   2.182  2.1278  0.7157  0.8217
 2330SOL     OW18625   0.180   4.097   5.805  0.4610 -0.2198  0.0981
 2330SOL    HW118626   0.270   4.124   5.823 -0.0555  0.2493  1.9483
 2330SOL    HW218627   0.142   4.093   5.893  1.6378 -1.2738  0.5583
 2331SOL     OW18628   2.513   4.189   7.489 -0.1326 -0.1479  0.3172
 2331SOL    HW118629   2.488   4.281   7.489  0.9569  0.1392  0.6240
 2331SOL    HW218630   2.488   4.163   7.578  3.4141 -0.6643  1.1413
 2332SOL     OW18631   2.574   3.892   3.240 -0.1549 -0.1103 -0.5173
 2332SOL    HW118632   2.495   3.945   3.237 -1.3361 -1.8571 -0.0309
 2332SOL    HW218633   2.617   3.918   3.322  1.1134  0.4130 -1.3408
 2333SOL     OW18634   1.115   1.689  11.320  0.2481 -0.4188 -0.0581
 2333SOL    HW118635   1.058   1.613  11.311 -1.6160  0.8805  0.7558
 2333SOL    HW218636   1.129   1.682  11.414 -0.4220  3.6802  0.3534
 2334SOL     OW18637   4.085   4.482   6.101  0.1408  0.5727 -0.2020
 2334SOL    HW118638   4.027   4.550   6.068  0.4728  0.2166 -1.5230
 2334SOL    HW218639   4.131   4.533   6.168 -1.5429  2.5559 -0.5567
 2335SOL     OW18640   0.794   2.731   0.141 -0.0246 -0.5477 -0.3136
 2335SOL    HW118641   0.727   2.673   0.105  0.4570 -0.7937 -0.7966
 2335SOL    HW218642   0.816   2.679   0.218 -0.1523  0.4600  0.4060
 2336SOL     OW18643   1.409   1.657   4.587 -0.1140 -0.2590  0.1731
 2336SOL    HW118644   1.338   1.593   4.596  0.9646 -1.4102  0.5155
 2336SOL    HW218645   1.475   1.602   4.543 -0.5963 -1.3966  0.8664
 2337SOL     OW18646   4.219   0.974   1.355  0.2577 -0.1498  0.4447
 2337SOL    HW118647   4.182   0.915   1.421 -0.7348 -0.7137 -0.6164
 2337SOL    HW218648   4.284   0.912   1.321  1.1528  1.7224 -1.2755
 2338SOL     OW18649   2.673   4.667  14.459 -0.4404  0.1660 -0.7797
 2338SOL    HW118650   2.739   4.681  14.528 -0.3682  1.6595 -1.1630
 2338SOL    HW218651   2.709   4.702  14.378 -0.6605  0.6310 -0.6765
 2339SOL     OW18652   4.201   3.077   8.628  0.3393 -0.0363 -0.1538
 2339SOL    HW118653   4.210   3.165   8.591 -0.5462 -0.3058 -0.9950
 2339SOL    HW218654   4.146   3.084   8.706 -2.2112 -0.7497 -1.9174
 2340SOL     OW18655   2.476   0.629   5.730  0.1494  0.4628  0.4436
 2340SOL    HW118656   2.482   0.571   5.654  4.8681  1.5973 -0.0933
 2340SOL    HW218657   2.569   0.633   5.754  0.9540  2.2797 -3.0330
 2341SOL     OW18658   2.215   3.092   5.238 -0.8697 -0.4359 -0.1791
 2341SOL    HW118659   2.259   3.129   5.315 -0.9383  2.7905 -1.6971
 2341SOL    HW218660   2.255   3.144   5.168  1.7146 -1.8370  0.2304
 2342SOL     OW18661   1.756   1.693   9.072 -0.2361 -0.3931 -0.5266
 2342SOL    HW118662   1.697   1.669   9.144  0.7326  0.6215  0.6011
 2342SOL    HW218663   1.710   1.766   9.031  1.3905 -0.4674 -2.5034
 2343SOL     OW18664   1.972   0.039   5.132  0.8182 -0.4731  0.4482
 2343SOL    HW118665   1.938   0.103   5.195  5.0102  0.6241  1.5523
 2343SOL    HW218666   2.062   0.070   5.119  1.0521 -1.3781 -0.0322
 2344SOL     OW18667   0.999   3.538   1.518 -0.8597 -0.2720  0.3212
 2344SOL    HW118668   1.013   3.513   1.609  1.1465 -0.1497  0.0379
 2344SOL    HW218669   0.956   3.458   1.485 -1.6838  0.5200 -0.5337
 2345SOL     OW18670   1.169   3.855  11.803  0.0648  0.4188  0.0760
 2345SOL    HW118671   1.226   3.901  11.865  2.0348 -1.8870 -0.0113
 2345SOL    HW218672   1.230   3.823  11.736 -0.3206 -0.0586 -0.0422
 2346SOL     OW18673   4.422   1.578  11.162  0.2197 -0.3450 -0.4131
 2346SOL    HW118674   4.456   1.495  11.130  2.4841  0.4523 -0.0520
 2346SOL    HW218675   4.430   1.627  11.080  0.5093  1.9276  0.9938
 2347SOL     OW18676   4.622   3.549  13.411  0.5565 -0.1927  0.3603
 2347SOL    HW118677   4.604   3.484  13.344 -1.7436  0.3172  0.4903
 2347SOL    HW218678   4.577   3.624  13.373  0.7217  0.0844  0.7124
 2348SOL     OW18679   2.108   2.205   6.326 -0.3060  1.0811  0.3557
 2348SOL    HW118680   2.162   2.222   6.249  0.2822  1.9825  0.9571
 2348SOL    HW218681   2.166   2.161   6.389  0.3823  0.1652 -0.9204
 2349SOL     OW18682   1.804   0.260   7.226 -0.3919  0.4908  0.2678
 2349SOL    HW118683   1.740   0.279   7.157  1.6268 -0.7527 -1.9462
 2349SOL    HW218684   1.753   0.292   7.301  0.1101  0.2327  0.7174
 2350SOL     OW18685   0.605   4.550   1.720 -0.1462 -0.3017 -0.1556
 2350SOL    HW118686   0.568   4.527   1.635 -0.3835 -1.1634  0.1834
 2350SOL    HW218687   0.532   4.521   1.776  0.4564 -2.4762 -0.5251
 2351SOL     OW18688   1.266   2.311   8.864  0.4494 -0.2736 -0.1060
 2351SOL    HW118689   1.272   2.405   8.878  1.4377 -0.5640  1.4275
 2351SOL    HW218690   1.217   2.311   8.782 -2.0194  0.0784  1.3556
 2352SOL     OW18691   3.168   3.289   4.500 -0.2056  0.1557 -0.8164
 2352SOL    HW118692   3.092   3.252   4.545 -1.6814  0.6308 -2.9612
 2352SOL    HW218693   3.204   3.336   4.576  0.3700 -2.2985  0.4231
 2353SOL     OW18694   0.383   2.226  14.999 -0.1840  0.1139  1.1732
 2353SOL    HW118695   0.462   2.272  15.028  0.4410 -1.7116  2.3475
 2353SOL    HW218696   0.370   2.151  15.058  0.8030 -2.2022 -1.5618
 2354SOL     OW18697   1.434   2.491   4.430 -0.8576 -0.0323  0.1248
 2354SOL    HW118698   1.451   2.566   4.488 -1.3426 -0.2745  0.5710
 2354SOL    HW218699   1.376   2.528   4.363 -1.7639 -1.5545  0.0851
 2355SOL     OW18700   3.353   2.828  11.062 -0.0186  0.1300 -0.0942
 2355SOL    HW118701   3.339   2.739  11.093  0.3384  0.2496  0.4050
 2355SOL    HW218702   3.448   2.827  11.053 -0.0138  1.8236 -0.2846
 2356SOL     OW18703   4.265   2.926   2.929  0.6035  0.3766 -0.0558
 2356SOL    HW118704   4.270   3.021   2.918  0.2935  0.5670  1.4381
 2356SOL    HW218705   4.355   2.912   2.957  0.6913  1.6664  0.3500
 2357SOL     OW18706   1.097   2.706   2.012  0.7818 -0.5455 -0.1104
 2357SOL    HW118707   1.083   2.799   2.024  2.0076 -0.5631  1.4715
 2357SOL    HW218708   1.192   2.699   2.000  0.9722  1.1429  0.4784
 2358SOL     OW18709   1.619   1.220  11.730 -0.3096  0.6129 -0.4540
 2358SOL    HW118710   1.658   1.196  11.815 -0.8119  1.1480 -0.0757
 2358SOL    HW218711   1.617   1.141  11.676 -0.3472  1.1677 -1.2632
 2359SOL     OW18712   1.526   1.864  13.764 -0.3494  0.3121 -0.5079
 2359SOL    HW118713   1.494   1.782  13.800 -0.8736  0.0522 -1.5429
 2359SOL    HW218714   1.618   1.876  13.786 -0.5707 -2.8716  2.0191
 2360SOL     OW18715   1.094   2.436   6.864 -0.2166 -0.3847  0.0658
 2360SOL    HW118716   1.093   2.503   6.932  0.9071  1.0587 -1.3323
 2360SOL    HW218717   1.060   2.481   6.786 -0.9238 -0.6948  0.1987
 2361SOL     OW18718   0.132   2.212   7.259 -0.1604 -0.0866  0.1967
 2361SOL    HW118719   0.197   2.279   7.241 -0.3912 -0.3487 -1.6652
 2361SOL    HW218720   0.064   2.224   7.192 -0.6858  0.1628  0.7808
 2362SOL     OW18721   1.992   0.112   8.654 -0.3560 -0.3148  0.1264
 2362SOL    HW118722   1.913   0.097   8.705 -0.8211  0.1933 -0.4375
 2362SOL    HW218723   1.943   0.116   8.572  1.1999 -0.6993 -0.8333
 2363SOL     OW18724   3.644   3.935   9.509  0.5588  0.1714 -0.0189
 2363SOL    HW118725   3.680   3.937   9.421 -0.6939 -0.4415 -0.5469
 2363SOL    HW218726   3.584   4.009   9.508  1.8211  1.2118  0.9130
 2364SOL     OW18727   3.689   0.482   0.721  0.2344  0.4052 -0.1209
 2364SOL    HW118728   3.710   0.567   0.760 -4.2919  1.0830  0.9254
 2364SOL    HW218729   3.748   0.483   0.646 -1.6914 -0.6681 -1.6542
 2365SOL     OW18730   2.339   4.548   0.609 -0.1099  0.0466  0.4615
 2365SOL    HW118731   2.260   4.563   0.661 -0.4971  0.6301 -0.3070
 2365SOL    HW218732   2.313   4.469   0.562  1.0538 -0.8440  1.3001
 2366SOL     OW18733   0.117   2.294   6.425  0.0792  0.5728  0.4243
 2366SOL    HW118734   0.034   2.246   6.435 -0.2262  0.7798 -1.1214
 2366SOL    HW218735   0.181   2.247   6.477 -1.3648  0.8409  2.4417
 2367SOL     OW18736   4.612   4.068   8.326 -0.0505 -0.2021  0.1030
 2367SOL    HW118737   4.652   4.018   8.397 -0.3664 -0.7324 -0.0913
 2367SOL    HW218738   4.567   4.133   8.380  2.5591  0.3086  1.6645
 2368SOL     OW18739   1.658   1.376   7.440 -0.3449  0.2083 -0.0588
 2368SOL    HW118740   1.661   1.329   7.524 -2.4305 -1.9065 -1.1510
 2368SOL    HW218741   1.637   1.458   7.484  0.1096 -0.6755  1.8509
 2369SOL     OW18742   0.224   1.540  14.811 -1.0849  0.8318  0.2457
 2369SOL    HW118743   0.220   1.550  14.716 -0.0220  1.3409  0.2485
 2369SOL    HW218744   0.228   1.445  14.818 -0.8658  0.9438  1.6774
 2370SOL     OW18745   1.499   1.189  16.419  0.0228  0.1811  0.2478
 2370SOL    HW118746   1.409   1.222  16.411 -1.0912 -2.2345  2.7908
 2370SOL    HW218747   1.485   1.115  16.479  0.5205  0.5105  0.7678
 2371SOL     OW18748   4.364   0.090   2.412  0.7724 -0.3160  0.3784
 2371SOL    HW118749   4.297   0.130   2.355 -0.1081 -0.3538  1.3822
 2371SOL    HW218750   4.432   0.157   2.409  1.4766 -1.1175 -1.4209
 2372SOL     OW18751   3.918   0.058   5.869 -0.2460 -0.0593 -0.4415
 2372SOL    HW118752   3.911   0.030   5.960  2.0566  0.1044 -0.2079
 2372SOL    HW218753   3.883   4.720   5.817 -1.0955  0.8714 -1.1577
 2373SOL     OW18754   1.972   2.380   0.964 -0.4862 -0.2115  0.2684
 2373SOL    HW118755   2.064   2.373   0.991 -0.8250 -1.0388  1.2033
 2373SOL    HW218756   1.987   2.412   0.875  0.0891 -0.4536  0.2761
 2374SOL     OW18757   1.868   0.608  12.772  0.0175 -0.0676 -0.1515
 2374SOL    HW118758   1.946   0.634  12.724 -1.2382 -1.1196 -2.7438
 2374SOL    HW218759   1.838   0.529  12.727 -2.5094  0.8919 -0.1746
 2375SOL     OW18760   0.013   2.384   5.417 -0.8008 -0.0315  0.1264
 2375SOL    HW118761   4.669   2.433   5.442 -0.9553  0.2547 -0.9224
 2375SOL    HW218762   0.053   2.439   5.349  2.1032 -0.0773  1.7706
 2376SOL     OW18763   0.572   0.914   2.205 -0.1901 -0.1069  0.6099
 2376SOL    HW118764   0.524   0.996   2.198  0.8095  0.6423  2.3612
 2376SOL    HW218765   0.510   0.855   2.161  1.3446 -0.5315 -1.0130
 2377SOL     OW18766   1.871   2.427   6.684 -0.2372 -0.0344  0.0624
 2377SOL    HW118767   1.939   2.365   6.657 -0.5465 -0.3266 -0.0371
 2377SOL    HW218768   1.925   2.506   6.686 -0.0438 -0.1396 -1.0959
 2378SOL     OW18769   0.506   0.918   6.875  0.3472  0.1651 -0.3734
 2378SOL    HW118770   0.431   0.877   6.918  0.1023 -0.1070 -1.0493
 2378SOL    HW218771   0.577   0.864   6.908  0.3694 -0.2969 -1.1631
 2379SOL     OW18772   3.191   1.183   9.057  0.1102 -0.0989 -0.3400
 2379SOL    HW118773   3.259   1.251   9.054 -1.3595  1.3755  0.1082
 2379SOL    HW218774   3.214   1.142   9.140 -2.1526  1.6265  1.1253
 2380SOL     OW18775   1.078   2.158   4.090 -0.0217  0.2151 -0.0699
 2380SOL    HW118776   1.010   2.158   4.157  0.4330  1.1666  0.3896
 2380SOL    HW218777   1.112   2.069   4.099  2.1534  0.9498 -0.8951
 2381SOL     OW18778   4.105   2.501   1.827  0.3588  0.4104  0.3850
 2381SOL    HW118779   4.157   2.547   1.761  0.7994  0.3639  0.6995
 2381SOL    HW218780   4.044   2.467   1.762 -0.3618  0.5295  1.0031
 2382SOL     OW18781   2.315   1.849   8.274 -0.3240  0.4502  0.4001
 2382SOL    HW118782   2.368   1.843   8.195  0.9702  1.3049  1.2036
 2382SOL    HW218783   2.225   1.865   8.248 -0.0129  1.1861 -0.1822
 2383SOL     OW18784   0.345   1.954  15.759  0.0460  0.1638 -0.1946
 2383SOL    HW118785   0.377   1.977  15.672  0.9252 -1.3497 -0.2716
 2383SOL    HW218786   0.321   1.861  15.748  0.6662 -0.1096  0.7512
 2384SOL     OW18787   0.889   2.910  12.643 -0.6397  0.1367  0.3489
 2384SOL    HW118788   0.934   2.987  12.606  1.5872 -0.6336  1.4810
 2384SOL    HW218789   0.824   2.886  12.577  0.0632  0.1283 -0.3498
 2385SOL     OW18790   2.646   2.795   3.635 -0.0991  0.0784 -0.5220
 2385SOL    HW118791   2.605   2.801   3.549 -1.5877  0.4431  0.2144
 2385SOL    HW218792   2.697   2.876   3.632  1.1348 -0.7441 -2.0928
 2386SOL     OW18793   2.130   4.087   2.095  0.2038 -0.2764 -0.0454
 2386SOL    HW118794   2.038   4.080   2.123  0.8123 -1.3232  1.7010
 2386SOL    HW218795   2.182   4.033   2.154  1.0971  0.0307 -0.5638
 2387SOL     OW18796   4.704   3.428  16.568  0.0841 -1.2134 -0.8252
 2387SOL    HW118797   4.629   3.388  16.525 -1.6665  1.6118 -0.4232
 2387SOL    HW218798   4.707   3.394  16.657 -0.5610  0.1774 -0.2811
 2388SOL     OW18799   3.632   3.590   8.230  0.2849 -0.6739 -0.0077
 2388SOL    HW118800   3.694   3.526   8.266 -0.7581 -1.3394  0.5930
 2388SOL    HW218801   3.576   3.612   8.304 -1.4343 -0.6854 -1.3229
 2389SOL     OW18802   4.617   1.900  10.736 -0.0559 -0.2114  0.0932
 2389SOL    HW118803   4.709   1.922  10.721 -1.0212  2.4917 -1.7740
 2389SOL    HW218804   4.578   1.984  10.760  3.3719  2.0043 -2.0695
 2390SOL     OW18805   2.061   3.433   5.760  0.0802  0.2248  0.4813
 2390SOL    HW118806   2.066   3.376   5.683 -0.4945  0.2448  0.4295
 2390SOL    HW218807   2.014   3.386   5.829 -2.4822  1.0838 -0.6656
 2391SOL     OW18808   1.328   3.180   5.087 -0.5357 -0.4525  0.1114
 2391SOL    HW118809   1.273   3.203   5.012 -0.0534 -0.6371 -0.3001
 2391SOL    HW218810   1.345   3.086   5.081  1.1986 -0.0800 -0.8590
 2392SOL     OW18811   0.276   2.721   1.190 -0.2070  0.2085 -0.2297
 2392SOL    HW118812   0.187   2.705   1.158 -0.1733  1.6754 -1.0613
 2392SOL    HW218813   0.261   2.810   1.223 -1.1877 -0.0306 -0.0338
 2393SOL     OW18814   1.650   4.665   7.665 -0.4565  0.5255 -0.1168
 2393SOL    HW118815   1.675   4.573   7.667  1.0063  0.8576 -3.2563
 2393SOL    HW218816   1.675   4.689   7.754  0.1289  1.0852 -0.4308
 2394SOL     OW18817   4.714   0.600   4.748 -0.4024 -0.1123 -0.5085
 2394SOL    HW118818   4.632   0.575   4.706 -0.8054 -0.4932  0.5232
 2394SOL    HW218819   0.032   0.526   4.715 -0.2531  1.0917 -3.0261
 2395SOL     OW18820   1.909   2.016   5.406  0.1716 -0.2492  0.4717
 2395SOL    HW118821   1.855   1.954   5.356 -0.2276 -0.1497  0.7777
 2395SOL    HW218822   1.971   1.955   5.445  2.3134  1.6781  0.0747
 2396SOL     OW18823   1.462   1.439  15.344 -0.5503 -0.8201  0.2799
 2396SOL    HW118824   1.503   1.523  15.364 -1.1575 -0.1078 -1.4339
 2396SOL    HW218825   1.369   1.457  15.331 -0.0620  1.1535 -0.4552
 2397SOL     OW18826   3.023   2.740   9.896  0.1441  0.1384  0.2375
 2397SOL    HW118827   3.092   2.732   9.963 -0.0060  0.6153  0.4445
 2397SOL    HW218828   2.965   2.667   9.918  0.9210 -0.7837 -0.7657
 2398SOL     OW18829   2.238   1.317   5.941 -0.5710 -0.0945  0.0979
 2398SOL    HW118830   2.251   1.283   6.030 -2.2875 -0.4277  0.2214
 2398SOL    HW218831   2.146   1.339   5.954 -0.6706 -1.0164  1.0051
 2399SOL     OW18832   3.343   2.862   1.277 -0.4432 -0.2937  0.6288
 2399SOL    HW118833   3.437   2.858   1.260  0.0752  0.6576  3.1959
 2399SOL    HW218834   3.324   2.956   1.268 -1.8061 -0.6074  0.1971
 2400SOL     OW18835   1.795   2.176   3.869  0.2192  0.3980  0.2686
 2400SOL    HW118836   1.868   2.144   3.816 -0.7813 -1.3832 -0.0171
 2400SOL    HW218837   1.830   2.263   3.890  1.2271 -0.1569  0.8962
 2401SOL     OW18838   2.082   3.622  17.187 -0.7990  0.5883 -0.1042
 2401SOL    HW118839   2.131   3.613  17.269 -3.0962  0.2981  1.2284
 2401SOL    HW218840   2.016   3.684  17.217 -1.4413  0.3002 -0.9140
 2402SOL     OW18841   4.694   1.897   8.293  0.2587 -0.9146 -0.8424
 2402SOL    HW118842   4.672   1.949   8.370  1.0925  0.2907 -1.4130
 2402SOL    HW218843   0.007   1.829   8.341 -0.5212 -0.5321  0.4831
 2403SOL     OW18844   3.804   3.073   6.408 -0.2756  0.2423  0.3974
 2403SOL    HW118845   3.837   3.021   6.334  0.0340 -1.9922  2.0985
 2403SOL    HW218846   3.709   3.059   6.403  0.0235 -1.3378 -0.8980
 2404SOL     OW18847   0.845   2.159  14.570  0.0592 -0.1407  0.2690
 2404SOL    HW118848   0.823   2.246  14.603 -0.9940 -0.8246  1.3496
 2404SOL    HW218849   0.914   2.178  14.506 -0.4104  2.2056  0.4642
 2405SOL     OW18850   3.101   1.172  11.693 -0.4313 -0.2268  0.0071
 2405SOL    HW118851   3.133   1.109  11.629 -1.4447 -0.7043 -0.0231
 2405SOL    HW218852   3.066   1.243  11.638  3.0805 -0.0901 -2.0783
 2406SOL     OW18853   4.199   1.406  10.348  0.0386 -0.2000 -0.1137
 2406SOL    HW118854   4.126   1.454  10.388 -1.0524 -1.3670 -0.6855
 2406SOL    HW218855   4.254   1.394  10.425 -0.6583 -0.6779  0.3052
 2407SOL     OW18856   2.986   2.808   7.629 -0.3220  0.2134  0.8252
 2407SOL    HW118857   2.945   2.798   7.714  1.5226  3.7132  2.1518
 2407SOL    HW218858   2.921   2.863   7.585 -1.3390 -0.7793  1.0995
 2408SOL     OW18859   4.495   2.511   8.983 -0.1947  0.4545  0.2172
 2408SOL    HW118860   4.523   2.472   8.900 -4.0090 -3.4927  0.8199
 2408SOL    HW218861   4.411   2.555   8.968 -1.1341 -0.4112  3.0241
 2409SOL     OW18862   4.560   3.741   1.034 -0.6240 -0.0827  0.5637
 2409SOL    HW118863   4.637   3.704   1.076 -0.8782 -0.5871  0.5805
 2409SOL    HW218864   4.599   3.778   0.955  1.3482 -0.4282  1.3763
 2410SOL     OW18865   4.556   0.819   7.762  0.1852  0.7362  0.0135
 2410SOL    HW118866   4.648   0.825   7.786 -0.3942 -0.8564  2.7423
 2410SOL    HW218867   4.529   0.909   7.782  0.8300  0.7765  0.7032
 2411SOL     OW18868   3.862   1.020   3.129  0.0813  0.6609 -0.7041
 2411SOL    HW118869   3.876   0.942   3.075 -1.2490  0.6500 -1.0196
 2411SOL    HW218870   3.814   1.070   3.063  0.8896  0.4129 -1.4865
 2412SOL     OW18871   2.012   0.994   6.021 -0.0971  0.2610 -0.2734
 2412SOL    HW118872   1.995   0.926   6.086  1.2811 -1.7117 -2.0013
 2412SOL    HW218873   1.989   1.067   6.079  0.9335 -0.5301  1.1425
 2413SOL     OW18874   1.897   1.593   5.581  0.5983 -0.0435 -0.1313
 2413SOL    HW118875   1.860   1.619   5.665  2.4169  0.3264  0.5743
 2413SOL    HW218876   1.828   1.606   5.516 -1.3517 -1.4422  1.6555
 2414SOL     OW18877   2.504   0.799   0.285 -0.4213 -0.1078  0.0970
 2414SOL    HW118878   2.582   0.810   0.339  0.6210  0.4989 -1.5419
 2414SOL    HW218879   2.498   0.704   0.286  1.5744 -0.2423  0.0933
 2415SOL     OW18880   2.012   2.770   0.115 -0.1089 -0.1372 -0.1564
 2415SOL    HW118881   1.950   2.697   0.122 -0.3156 -0.0139 -0.7114
 2415SOL    HW218882   2.029   2.763   0.021  0.1998 -1.1641 -0.0262
 2416SOL     OW18883   4.224   4.590  10.237  0.1397 -0.1307  0.4103
 2416SOL    HW118884   4.312   4.591  10.200 -1.2880  1.2025 -2.9773
 2416SOL    HW218885   4.242   4.558  10.326 -1.6450 -2.8176 -0.1853
 2417SOL     OW18886   2.438   2.420   4.078 -0.3031  0.2325 -0.1336
 2417SOL    HW118887   2.450   2.413   3.984 -0.9452  2.3460 -0.3829
 2417SOL    HW218888   2.374   2.350   4.065 -0.4501  0.2913  0.2619
 2418SOL     OW18889   1.901   3.125   7.021  0.4816 -0.2796 -0.1624
 2418SOL    HW118890   1.815   3.139   7.059  0.6435 -1.2010  0.5574
 2418SOL    HW218891   1.920   3.211   6.983  0.2845  0.0630  0.5184
 2419SOL     OW18892   3.464   3.086  13.026 -0.5808  0.3758 -0.3721
 2419SOL    HW118893   3.542   3.032  13.023 -2.2145 -1.8400 -2.7054
 2419SOL    HW218894   3.419   3.042  13.098 -0.6848 -2.0387 -1.9298
 2420SOL     OW18895   0.161   3.953   9.281 -0.2606  0.6910 -0.1254
 2420SOL    HW118896   0.249   3.961   9.318  0.0262 -1.0296 -0.4308
 2420SOL    HW218897   0.181   3.961   9.188 -1.2853  0.2364 -0.3748
 2421SOL     OW18898   4.491   1.012   6.038  0.0092  0.1045 -0.1057
 2421SOL    HW118899   4.554   0.960   5.988 -0.0533  0.9862 -1.0910
 2421SOL    HW218900   4.475   1.090   5.985 -0.0529  1.3501  1.7321
 2422SOL     OW18901   3.024   2.897   2.494  0.0501  0.8214 -0.1094
 2422SOL    HW118902   2.931   2.886   2.516  0.4748  0.4520  1.5094
 2422SOL    HW218903   3.038   2.817   2.442  0.1909 -0.4421  1.8662
 2423SOL     OW18904   3.343   4.404   2.582  0.7664 -0.0687  0.5684
 2423SOL    HW118905   3.323   4.325   2.633  0.1097 -1.8957 -2.5139
 2423SOL    HW218906   3.353   4.371   2.492 -1.8455 -1.0780  0.6360
 2424SOL     OW18907   0.021   1.561  11.262 -0.1146  0.1378 -0.2162
 2424SOL    HW118908   4.723   1.480  11.302 -1.4037  0.0527 -1.4587
 2424SOL    HW218909   0.023   1.541  11.169 -1.3082 -0.3850 -0.1232
 2425SOL     OW18910   1.167   1.077   8.613  0.3762 -0.3569  0.0643
 2425SOL    HW118911   1.230   1.111   8.550  0.4946 -1.8430 -0.6189
 2425SOL    HW218912   1.212   1.090   8.696  2.4724 -0.7029 -1.0200
 2426SOL     OW18913   3.536   3.092   6.423  0.2376  0.5245 -0.4365
 2426SOL    HW118914   3.459   3.139   6.456  0.4309 -0.6088  1.6193
 2426SOL    HW218915   3.503   3.007   6.395 -0.2256  0.0956  1.4208
 2427SOL     OW18916   1.570   0.667   6.661  0.2161 -0.4569  0.5797
 2427SOL    HW118917   1.613   0.728   6.602 -0.1897  0.1312  0.8992
 2427SOL    HW218918   1.501   0.723   6.695  0.6721  0.7077 -0.3970
 2428SOL     OW18919   3.746   0.476   5.415 -0.0184  0.0830 -0.4093
 2428SOL    HW118920   3.773   0.475   5.324 -1.3384  2.0691 -0.8205
 2428SOL    HW218921   3.749   0.567   5.444 -1.6287  0.4740 -1.4529
 2429SOL     OW18922   4.166   2.164   8.822 -0.4380 -0.0725 -0.6249
 2429SOL    HW118923   4.180   2.246   8.776  1.4560  0.4982  0.9456
 2429SOL    HW218924   4.221   2.105   8.771  1.6151  0.0765  1.3693
 2430SOL     OW18925   3.805   3.392  12.327  0.4190 -0.6726 -0.1034
 2430SOL    HW118926   3.848   3.475  12.350  0.0393 -0.3565 -0.5427
 2430SOL    HW218927   3.765   3.410  12.242 -0.4401 -1.8505  0.0448
 2431SOL     OW18928   2.630   1.804   3.920 -0.3081  0.4053  0.4956
 2431SOL    HW118929   2.604   1.819   4.011  1.2376 -0.3039  1.0632
 2431SOL    HW218930   2.723   1.780   3.916 -0.5296 -0.0440 -1.7909
 2432SOL     OW18931   1.040   1.361  16.215 -0.0223  0.0875  0.2265
 2432SOL    HW118932   0.993   1.279  16.231  0.4468 -0.3575 -0.6588
 2432SOL    HW218933   1.116   1.330  16.167  0.7028  1.6030  0.4012
 2433SOL     OW18934   3.134   2.270   4.180 -0.0279  0.0712  0.6798
 2433SOL    HW118935   3.157   2.212   4.108 -1.1276 -0.3682  0.6829
 2433SOL    HW218936   3.039   2.273   4.171 -0.0129 -0.9068  0.2494
 2434SOL     OW18937   2.363   0.622   9.018  0.3018  0.0657  0.0038
 2434SOL    HW118938   2.323   0.703   9.049  2.1665  1.0063 -0.0613
 2434SOL    HW218939   2.438   0.652   8.967  1.7368  0.1033  2.1426
 2435SOL     OW18940   0.825   4.268   2.178  0.5213  0.1042 -0.3352
 2435SOL    HW118941   0.803   4.354   2.142 -1.1796  0.5192  1.6382
 2435SOL    HW218942   0.804   4.224   2.096 -2.6538  1.1150 -0.0713
 2436SOL     OW18943   1.241   2.218   5.029 -0.4005  0.0861 -0.5140
 2436SOL    HW118944   1.329   2.182   5.020  0.5631  2.3866 -0.3454
 2436SOL    HW218945   1.215   2.250   4.942  0.1756  1.4054 -0.2100
 2437SOL     OW18946   4.127   3.294   6.966  0.0715  0.2469 -0.5104
 2437SOL    HW118947   4.169   3.322   7.048 -0.7071  0.1059 -0.0570
 2437SOL    HW218948   4.034   3.290   6.990 -0.3907 -0.3348 -2.4052
 2438SOL     OW18949   0.002   4.163   6.539  0.2010  0.2201  0.0173
 2438SOL    HW118950   0.002   4.099   6.611  1.0325 -2.4690 -2.3725
 2438SOL    HW218951   0.080   4.212   6.564 -1.3468  2.0131  1.3588
 2439SOL     OW18952   3.095   2.262  13.303  0.0152  0.1861 -0.8117
 2439SOL    HW118953   3.116   2.348  13.266  2.2636 -0.0811 -0.1017
 2439SOL    HW218954   3.168   2.210  13.271 -0.6111  0.1623 -2.1993
 2440SOL     OW18955   0.163   0.970   7.606 -0.1239 -0.2366  0.5260
 2440SOL    HW118956   0.205   1.056   7.612  1.0391 -0.6631 -1.4350
 2440SOL    HW218957   0.108   0.994   7.530  1.4499 -0.2293 -0.6044
 2441SOL     OW18958   2.817   4.253   2.031 -0.4128  0.0679  0.4437
 2441SOL    HW118959   2.884   4.320   2.048  0.7816 -0.7042 -1.1604
 2441SOL    HW218960   2.827   4.187   2.099  0.7849  0.3285  0.5229
 2442SOL     OW18961   2.727   3.811  10.608 -0.0867 -0.0072 -0.3644
 2442SOL    HW118962   2.670   3.800  10.532 -0.1857 -2.5595  0.0583
 2442SOL    HW218963   2.813   3.817  10.567  1.1800 -1.0912  2.1283
 2443SOL     OW18964   2.782   1.322  13.309  0.4705 -0.5775  0.0453
 2443SOL    HW118965   2.752   1.413  13.321 -0.3109 -0.9260  0.7367
 2443SOL    HW218966   2.843   1.333  13.236  1.3509  0.9329  1.0061
 2444SOL     OW18967   2.653   0.287   6.381 -0.0337 -0.1897 -0.1734
 2444SOL    HW118968   2.577   0.293   6.323 -0.6273 -1.7637  0.4471
 2444SOL    HW218969   2.621   0.256   6.466  0.2913 -0.9387 -0.3255
 2445SOL     OW18970   3.608   0.195   1.302  0.0233  0.6834  0.7292
 2445SOL    HW118971   3.545   0.147   1.247  1.7882 -0.4453 -0.3149
 2445SOL    HW218972   3.556   0.223   1.378 -1.1846  3.7148 -1.2025
 2446SOL     OW18973   1.394   2.600   5.048 -0.6788 -0.2251 -0.0512
 2446SOL    HW118974   1.440   2.516   5.045  1.4106  0.7967  3.3622
 2446SOL    HW218975   1.428   2.637   5.130  0.1063  0.0567 -0.5057
 2447SOL     OW18976   4.109   3.620   7.542  0.2995  0.2960 -0.3933
 2447SOL    HW118977   4.036   3.558   7.548  0.4559  0.5494  4.0097
 2447SOL    HW218978   4.167   3.557   7.499  0.5251  0.3839 -0.2178
 2448SOL     OW18979   0.730   2.416  15.319 -0.0947  0.4691  0.5477
 2448SOL    HW118980   0.774   2.375  15.393  1.0590 -0.0613 -0.4364
 2448SOL    HW218981   0.800   2.471  15.282 -2.1670  0.4395 -3.4217
 2449SOL     OW18982   1.322   4.352   1.753  0.1863  0.1292 -0.2043
 2449SOL    HW118983   1.342   4.438   1.790 -0.1723 -0.1963  0.7246
 2449SOL    HW218984   1.235   4.336   1.789  0.0249 -1.5532 -1.3234
 2450SOL     OW18985   2.103   3.511   1.977  0.0450 -0.3628  0.1311
 2450SOL    HW118986   2.149   3.442   1.929 -2.1419 -0.0033 -2.5022
 2450SOL    HW218987   2.178   3.540   2.030 -0.4500  0.4769  0.3706
 2451SOL     OW18988   2.020   3.538  17.518 -0.9302 -0.4847  0.2675
 2451SOL    HW118989   2.005   3.527  17.611  2.3455 -1.5013  0.6976
 2451SOL    HW218990   1.957   3.605  17.492 -1.4723 -0.6667  1.1464
 2452SOL     OW18991   2.881   0.919   3.489  0.1581 -0.2419  0.3824
 2452SOL    HW118992   2.882   0.971   3.569 -0.3270  0.8903 -0.3464
 2452SOL    HW218993   2.830   0.983   3.439  0.9982 -0.4985 -0.8299
 2453SOL     OW18994   2.720   1.029   8.677 -0.4220 -0.5809  0.1439
 2453SOL    HW118995   2.771   1.036   8.758  0.7074  0.2383 -0.6419
 2453SOL    HW218996   2.724   0.934   8.672 -0.0728 -0.6830  2.1576
 2454SOL     OW18997   0.260   1.649   0.694 -0.7262  0.1363 -0.4389
 2454SOL    HW118998   0.295   1.560   0.690 -0.3938  0.2053  1.1179
 2454SOL    HW218999   0.325   1.708   0.732 -0.7166 -0.5650  0.6317
 2455SOL     OW19000   3.484   0.822   3.078  0.0625 -0.2682 -0.2844
 2455SOL    HW119001   3.470   0.779   2.993  0.3668 -2.3653  0.7450
 2455SOL    HW219002   3.394   0.837   3.109 -0.1633 -1.2431 -0.4695
 2456SOL     OW19003   2.369   4.093  14.965  0.2325 -0.3124 -0.2205
 2456SOL    HW119004   2.341   4.147  14.891  1.3907 -0.0526 -0.4574
 2456SOL    HW219005   2.360   4.162  15.031  0.4440  0.5042 -1.0471
 2457SOL     OW19006   3.023   4.502   3.744  0.5970  0.0027 -0.2565
 2457SOL    HW119007   2.973   4.440   3.692  0.0452 -1.2196  1.7845
 2457SOL    HW219008   2.962   4.567   3.779  0.8014  0.1679 -0.2026
 2458SOL     OW19009   0.916   4.133   5.144 -0.0209  0.2883  0.3574
 2458SOL    HW119010   0.940   4.161   5.055  1.1896 -2.8784 -0.3331
 2458SOL    HW219011   1.003   4.116   5.182  0.8754  1.9999 -0.9467
 2459SOL     OW19012   1.678   2.636   8.945  1.0148  0.6778  0.0369
 2459SOL    HW119013   1.631   2.715   8.916 -0.7498 -0.1976  0.5063
 2459SOL    HW219014   1.632   2.567   8.896 -0.0682  2.0547 -0.8931
 2460SOL     OW19015   4.695   1.397   8.139  0.0886  0.2489  0.2471
 2460SOL    HW119016   4.679   1.450   8.061  0.0827  0.2307  0.2356
 2460SOL    HW219017   4.629   1.329   8.120  2.0717 -2.1384  1.8987
 2461SOL     OW19018   4.610   3.820   0.452 -0.6599  0.0215 -0.3107
 2461SOL    HW119019   4.661   3.901   0.458  0.3013 -0.4142 -2.2847
 2461SOL    HW219020   4.529   3.856   0.415 -1.4469 -0.0982  1.3309
 2462SOL     OW19021   2.654   3.529  10.990 -0.5897 -0.1683 -0.3779
 2462SOL    HW119022   2.564   3.557  11.010 -0.8221 -0.8898 -0.4224
 2462SOL    HW219023   2.668   3.468  11.062  1.9877 -0.1216 -0.8600
 2463SOL     OW19024   1.955   1.342   5.917 -0.6013 -0.0200  0.1576
 2463SOL    HW119025   1.872   1.387   5.902 -0.0150  1.1537  0.3739
 2463SOL    HW219026   1.945   1.257   5.874 -0.0809 -0.0498  0.0948
 2464SOL     OW19027   2.646   3.739   9.205  0.4540 -1.1354 -0.6889
 2464SOL    HW119028   2.706   3.802   9.245  0.9547 -2.0041 -0.0893
 2464SOL    HW219029   2.630   3.774   9.117  1.3906  1.1202  0.0250
 2465SOL     OW19030   3.620   3.751   4.311  0.0577 -0.0278  0.6333
 2465SOL    HW119031   3.705   3.761   4.353 -0.4908  3.4568  0.9566
 2465SOL    HW219032   3.623   3.703   4.228 -0.2992  0.5177  0.3024
 2466SOL     OW19033   1.565   2.333   5.946  0.3951  0.0018  0.2768
 2466SOL    HW119034   1.567   2.339   5.850 -0.8218 -0.5267  0.2207
 2466SOL    HW219035   1.632   2.401   5.957 -0.2628  0.5596  0.8372
 2467SOL     OW19036   4.584   0.622   4.997  0.3346  0.1762  0.0703
 2467SOL    HW119037   4.656   0.627   5.060 -0.3477  0.0399  0.8645
 2467SOL    HW219038   4.637   0.617   4.918 -1.3996 -2.0547 -0.9575
 2468SOL     OW19039   3.834   3.861   6.520  0.9699  0.4474 -0.5704
 2468SOL    HW119040   3.885   3.933   6.559 -0.7889  1.3586  0.0603
 2468SOL    HW219041   3.895   3.789   6.538  1.2764  0.5645 -1.1535
 2469SOL     OW19042   2.015   2.100   7.392  0.1418 -0.1560  0.3610
 2469SOL    HW119043   2.108   2.076   7.385  0.3752  1.1227 -1.0157
 2469SOL    HW219044   2.041   2.191   7.406  0.7038  0.1797 -2.7271
 2470SOL     OW19045   4.729   0.344  10.819 -0.0823  0.3957  0.4675
 2470SOL    HW119046   4.699   0.258  10.848  1.0059  0.7807  2.7305
 2470SOL    HW219047   0.090   0.331  10.820 -0.2584 -1.0082 -1.2584
 2471SOL     OW19048   4.034   4.499  11.949  0.1303  0.1116 -0.2354
 2471SOL    HW119049   4.045   4.576  12.006 -1.8911  0.7540 -0.7332
 2471SOL    HW219050   4.074   4.433  12.005 -0.0070  0.2962  0.0796
 2472SOL     OW19051   2.040   2.653  16.627 -0.4700 -0.2236  0.1277
 2472SOL    HW119052   2.023   2.595  16.701  2.0625 -1.0390  0.0983
 2472SOL    HW219053   2.125   2.613  16.605  0.6645  1.8508  0.7513
 2473SOL     OW19054   2.402   1.671  15.972  0.1542 -0.0733 -0.0518
 2473SOL    HW119055   2.379   1.579  15.983  1.1577 -0.3281 -0.1280
 2473SOL    HW219056   2.492   1.677  15.941  0.3292 -0.4658  0.3743
 2474SOL     OW19057   2.757   2.852  16.031 -0.1609 -0.5809  0.5306
 2474SOL    HW119058   2.664   2.864  16.014 -0.3302 -0.9102  1.2451
 2474SOL    HW219059   2.781   2.935  16.073  1.4018 -1.9497  2.3472
 2475SOL     OW19060   1.705   3.579   3.686 -0.0553 -0.1363  0.2470
 2475SOL    HW119061   1.689   3.671   3.707  0.9454  0.1488 -0.2827
 2475SOL    HW219062   1.619   3.540   3.705 -0.0070  0.5631  1.9707
 2476SOL     OW19063   0.293   2.336   2.682  0.1722 -0.1754 -0.0937
 2476SOL    HW119064   0.222   2.310   2.740 -0.1867  1.0256 -0.0053
 2476SOL    HW219065   0.361   2.300   2.738  0.5931 -1.6485 -1.5619
 2477SOL     OW19066   3.965   3.995   5.259 -0.0135 -0.4154  0.5491
 2477SOL    HW119067   3.965   4.001   5.163 -0.0024 -1.1271  0.5075
 2477SOL    HW219068   4.006   3.909   5.271 -1.3499 -1.0973  0.2020
 2478SOL     OW19069   0.969   1.490   5.444  0.1374 -0.3592  0.5357
 2478SOL    HW119070   1.053   1.502   5.489 -0.6981  2.1350  1.3800
 2478SOL    HW219071   1.002   1.458   5.360 -1.3303  1.6067 -0.7820
 2479SOL     OW19072   3.519   2.209   7.905 -0.1782 -0.8528  0.4062
 2479SOL    HW119073   3.609   2.205   7.937  0.7649 -1.2999 -2.3382
 2479SOL    HW219074   3.477   2.240   7.985 -3.3010  0.1113 -1.6247
 2480SOL     OW19075   0.966   2.624   4.831 -0.4184 -0.0241 -0.0066
 2480SOL    HW119076   1.044   2.620   4.886 -0.8771  0.0216  0.6429
 2480SOL    HW219077   0.980   2.551   4.770 -1.6676 -0.4379  0.2084
 2481SOL     OW19078   0.994   1.845   4.891 -0.2511  0.2390 -0.3949
 2481SOL    HW119079   1.015   1.895   4.812 -0.9612 -1.1972 -1.5046
 2481SOL    HW219080   1.018   1.905   4.962 -0.6125 -0.7781  0.5757
 2482SOL     OW19081   3.602   3.451  17.298  0.4633 -0.1091  0.8524
 2482SOL    HW119082   3.509   3.465  17.314 -0.4961 -2.8677 -2.0912
 2482SOL    HW219083   3.626   3.419  17.385  0.3502  1.7100  1.5511
 2483SOL     OW19084   0.794   1.436  11.431 -0.1885 -0.2526  0.5192
 2483SOL    HW119085   0.745   1.481  11.362  0.5073  0.0816  0.2504
 2483SOL    HW219086   0.735   1.364  11.454 -1.0138  1.0557  2.4916
 2484SOL     OW19087   2.948   2.176  11.406 -0.7752  0.1097 -0.0950
 2484SOL    HW119088   2.958   2.268  11.434 -1.0669 -0.1126  0.7310
 2484SOL    HW219089   3.023   2.147  11.458 -0.8385  0.8122  0.3890
 2485SOL     OW19090   4.093   3.077  12.004 -0.5631  0.0940  0.0275
 2485SOL    HW119091   4.136   3.157  12.032 -1.6595  0.0832  1.7413
 2485SOL    HW219092   4.029   3.103  11.937  1.2688 -0.7271 -2.0485
 2486SOL     OW19093   0.469   1.786  10.178 -0.0249 -0.0150 -0.3850
 2486SOL    HW119094   0.543   1.806  10.121  0.1050  1.8033  0.4291
 2486SOL    HW219095   0.483   1.869  10.224  0.0757 -1.8167  2.8303
 2487SOL     OW19096   4.524   2.216   7.396  0.3901 -0.1770  0.3762
 2487SOL    HW119097   4.567   2.223   7.311  2.9845 -0.9602  1.6432
 2487SOL    HW219098   4.493   2.125   7.395 -0.4491  0.1107 -0.4117
 2488SOL     OW19099   3.783   2.466   5.597 -0.3411  0.1011  0.1368
 2488SOL    HW119100   3.695   2.498   5.617 -0.7524 -1.2407  0.4565
 2488SOL    HW219101   3.763   2.432   5.509 -0.4942  1.3144 -0.3036
 2489SOL     OW19102   2.740   4.408   1.316 -0.2842  0.5985 -0.2242
 2489SOL    HW119103   2.780   4.495   1.311  2.8111 -0.6944  1.7579
 2489SOL    HW219104   2.718   4.402   1.409 -0.4831  0.0585 -0.3096
 2490SOL     OW19105   0.045   4.523   1.756 -0.1813 -0.5264 -0.1082
 2490SOL    HW119106   0.026   4.562   1.671 -1.7453  2.6997  1.7330
 2490SOL    HW219107   0.099   4.595   1.788 -2.8061  1.6916 -0.7157
 2491SOL     OW19108   1.154   2.501   2.775  0.2465 -0.3961 -0.4611
 2491SOL    HW119109   1.147   2.483   2.681  1.0431 -2.1258 -0.1765
 2491SOL    HW219110   1.140   2.417   2.817 -0.6141 -0.6348 -1.1990
 2492SOL     OW19111   3.804   1.730   3.456  0.2514 -0.2949  0.0378
 2492SOL    HW119112   3.729   1.746   3.398  1.0731  0.2548 -0.8669
 2492SOL    HW219113   3.873   1.750   3.393 -1.4321  0.3832 -1.5932
 2493SOL     OW19114   4.357   1.756  16.099 -0.1350  0.0221 -0.2259
 2493SOL    HW119115   4.329   1.678  16.146 -0.5362 -0.3028 -0.9969
 2493SOL    HW219116   4.391   1.812  16.169  1.6685  0.1150 -1.1728
 2494SOL     OW19117   0.723   3.095  14.595  0.0195  0.1301 -0.4253
 2494SOL    HW119118   0.699   3.091  14.687 -0.3710  0.3754 -0.5115
 2494SOL    HW219119   0.718   3.000  14.587 -1.1877  0.1966 -0.4791
 2495SOL     OW19120   0.203   1.635  13.251 -0.2084  0.6350 -0.0110
 2495SOL    HW119121   0.281   1.629  13.305  0.3712  0.2084 -0.8948
 2495SOL    HW219122   0.132   1.625  13.315 -1.2225  1.6489 -0.9642
 2496SOL     OW19123   3.599   0.113   8.625 -1.1580 -0.6060 -0.1211
 2496SOL    HW119124   3.520   0.107   8.570 -1.3540 -0.9788  0.2041
 2496SOL    HW219125   3.651   0.187   8.594  0.1056 -1.8071 -0.8254
 2497SOL     OW19126   0.183   0.105   6.012 -0.0231 -0.2870 -0.5888
 2497SOL    HW119127   0.255   0.044   5.995 -0.2620 -0.2946 -1.5914
 2497SOL    HW219128   0.106   0.052   6.032 -0.2052  0.2838  0.2374
 2498SOL     OW19129   3.642   2.990  14.164  0.1893  0.2437 -0.2493
 2498SOL    HW119130   3.712   3.056  14.171 -0.4509  0.7625  1.1470
 2498SOL    HW219131   3.691   2.907  14.168  1.3995  1.0038  0.9662
 2499SOL     OW19132   3.297   0.080   7.809  0.1347 -0.0268 -0.4574
 2499SOL    HW119133   3.315   0.161   7.857  0.1728 -0.2983 -0.0095
 2499SOL    HW219134   3.272   0.020   7.879  0.3411  0.0125 -0.3510
 2500SOL     OW19135   1.724   2.637   8.632 -0.2343  0.6607  0.0990
 2500SOL    HW119136   1.661   2.575   8.596  2.4327 -3.0910  1.8989
 2500SOL    HW219137   1.813   2.607   8.612 -0.5789  0.7476 -1.5195
 2501SOL     OW19138   1.084   3.958   1.565 -0.4290  0.0072 -0.2153
 2501SOL    HW119139   1.150   3.959   1.495 -1.6677  1.4707 -1.3565
 2501SOL    HW219140   1.009   3.916   1.522 -0.3720 -0.6812  0.3557
 2502SOL     OW19141   0.304   3.492   7.926 -0.5071  0.2237 -0.0542
 2502SOL    HW119142   0.292   3.437   7.848  0.4960 -0.4562  0.2815
 2502SOL    HW219143   0.341   3.428   7.987 -0.8412 -0.5110 -0.6190
 2503SOL     OW19144   0.179   3.296   2.274 -1.1300  0.0560 -1.2714
 2503SOL    HW119145   0.181   3.203   2.298  0.7343  0.6656  0.9481
 2503SOL    HW219146   0.246   3.292   2.205 -0.7573 -0.8315 -0.8631
 2504SOL     OW19147   2.931   4.390   4.249  0.3687 -0.1876  0.4317
 2504SOL    HW119148   2.849   4.359   4.212 -0.4545 -0.6317  2.6253
 2504SOL    HW219149   2.971   4.304   4.260 -0.7900 -1.0296 -1.9880
 2505SOL     OW19150   4.336   0.379  17.473 -0.3472 -0.8388  0.2894
 2505SOL    HW119151   4.353   0.285  17.459 -0.1367 -0.4622 -2.0753
 2505SOL    HW219152   4.390   0.412  17.544  1.4042 -0.3319 -1.2615
 2506SOL     OW19153   4.015   0.934   9.360  1.0596 -0.6128  0.0154
 2506SOL    HW119154   3.983   1.024   9.347  1.0463 -0.5045  0.7928
 2506SOL    HW219155   3.962   0.894   9.428 -0.1992  1.5513  0.2975
 2507SOL     OW19156   0.732   0.526   4.166  0.0127 -0.0864 -0.7044
 2507SOL    HW119157   0.709   0.433   4.170 -0.0707 -0.0736 -0.9221
 2507SOL    HW219158   0.750   0.546   4.074 -0.0527 -0.8963 -0.8916
 2508SOL     OW19159   4.213   1.014   6.757  0.0332  0.4919 -0.1350
 2508SOL    HW119160   4.207   1.065   6.837 -1.8467  0.1250 -0.0384
 2508SOL    HW219161   4.294   0.964   6.763 -1.9206 -2.7333 -0.9562
 2509SOL     OW19162   0.388   1.202  15.650  0.3491 -0.5531 -0.2431
 2509SOL    HW119163   0.379   1.131  15.586  2.0878 -0.4113 -0.6512
 2509SOL    HW219164   0.473   1.189  15.693  0.4547 -4.3254 -1.5495
 2510SOL     OW19165   4.406   4.635   9.626 -0.8177  0.0690 -0.1067
 2510SOL    HW119166   4.481   4.581   9.648  0.4516  1.3999 -1.1579
 2510SOL    HW219167   4.404   4.685   9.707  2.0429 -0.5712  0.3305
 2511SOL     OW19168   2.447   0.195   5.368  0.3802 -0.5613  0.3429
 2511SOL    HW119169   2.470   0.208   5.460  0.0162 -2.4126  0.6940
 2511SOL    HW219170   2.524   0.159   5.325  0.8409  0.9178 -0.0748
 2512SOL     OW19171   3.761   2.767   6.491 -0.5591 -0.2469  0.1328
 2512SOL    HW119172   3.690   2.816   6.534 -1.4878 -0.9685 -0.5738
 2512SOL    HW219173   3.718   2.685   6.469  1.5138 -0.9840 -1.1655
 2513SOL     OW19174   2.343   2.473   3.806  0.0355 -0.4411 -0.4047
 2513SOL    HW119175   2.284   2.546   3.786 -1.5040 -1.5124  0.2691
 2513SOL    HW219176   2.402   2.460   3.731 -0.8928 -0.9247 -1.0434
 2514SOL     OW19177   1.168   1.431  14.834  0.5292  0.4862 -0.3759
 2514SOL    HW119178   1.177   1.477  14.750  0.4750 -0.0127 -0.6579
 2514SOL    HW219179   1.200   1.343  14.814  1.0125  0.1746  1.7863
 2515SOL     OW19180   3.037   0.321   4.457 -0.2488  0.0552  0.2738
 2515SOL    HW119181   3.019   0.264   4.532  0.9633 -1.4623 -0.5869
 2515SOL    HW219182   3.126   0.342   4.487  1.1430 -3.2010 -1.5519
 2516SOL     OW19183   1.995   2.976   6.255  0.1202  0.0409 -0.1976
 2516SOL    HW119184   1.928   2.961   6.322  0.3674 -1.6452 -0.3352
 2516SOL    HW219185   1.981   2.902   6.196 -0.0549  2.2675 -2.9692
 2517SOL     OW19186   3.394   3.387   2.556  0.0683 -0.2329 -0.3081
 2517SOL    HW119187   3.428   3.342   2.634  3.0547 -0.0154 -1.4700
 2517SOL    HW219188   3.381   3.473   2.596  0.6190 -0.3744  0.1800
 2518SOL     OW19189   2.954   2.961  10.154 -0.3006  0.3007  0.5518
 2518SOL    HW119190   2.858   2.964  10.155 -0.2492  0.9460  2.2445
 2518SOL    HW219191   2.972   2.877  10.197  0.3838  0.6326  0.9095
 2519SOL     OW19192   0.458   1.223   0.548  0.0841 -0.5600 -0.1749
 2519SOL    HW119193   0.394   1.272   0.600  0.0829  1.0718 -1.6953
 2519SOL    HW219194   0.514   1.296   0.519  0.0576  0.6943  2.9557
 2520SOL     OW19195   3.752   4.424  10.068 -0.1638  0.1920  0.8155
 2520SOL    HW119196   3.843   4.443  10.088 -0.3396  0.7899  1.0757
 2520SOL    HW219197   3.698   4.448  10.144  0.3995  0.1542  1.2286
 2521SOL     OW19198   4.072   3.966   7.153  0.2376 -0.2670  0.2310
 2521SOL    HW119199   4.129   4.037   7.182 -0.0090 -0.0206  0.1150
 2521SOL    HW219200   4.099   3.945   7.063 -0.5454 -2.9565  0.6495
 2522SOL     OW19201   2.602   1.365   0.640  0.1969 -0.0694  1.3657
 2522SOL    HW119202   2.540   1.327   0.579  0.0334  2.6924 -0.2140
 2522SOL    HW219203   2.658   1.405   0.573 -1.1543  0.5163  0.5854
 2523SOL     OW19204   3.271   2.932   3.049  0.1784  0.1284 -0.0298
 2523SOL    HW119205   3.182   2.951   3.020  0.8442  0.9155 -1.5939
 2523SOL    HW219206   3.306   3.001   2.992  0.1637  0.4514  0.3484
 2524SOL     OW19207   1.584   4.306   8.221 -0.8248  0.0769  0.4462
 2524SOL    HW119208   1.580   4.210   8.220 -3.2235  0.1743 -0.0708
 2524SOL    HW219209   1.502   4.342   8.255 -0.8911  1.1233 -0.8173
 2525SOL     OW19210   3.285   3.200   6.529 -0.0397  0.2626  0.3111
 2525SOL    HW119211   3.230   3.247   6.466 -0.2795 -0.9365 -0.3826
 2525SOL    HW219212   3.334   3.268   6.575 -0.9378  0.2171  1.3418
 2526SOL     OW19213   0.095   1.395   8.454  0.2398  0.1420 -0.0717
 2526SOL    HW119214   0.033   1.353   8.513 -0.0187  1.0176  0.2814
 2526SOL    HW219215   0.121   1.319   8.402  0.2589 -0.4325  0.7698
 2527SOL     OW19216   1.932   1.102   5.042  0.1623 -0.3039  0.2043
 2527SOL    HW119217   1.957   1.119   5.133 -2.1979 -1.9404  1.1691
 2527SOL    HW219218   1.881   1.021   5.048 -0.3923  0.0981  0.8872
 2528SOL     OW19219   2.470   0.431   5.545 -0.0509  0.1330  0.0838
 2528SOL    HW119220   2.474   0.360   5.610  1.9555 -3.6078 -4.1656
 2528SOL    HW219221   2.408   0.406   5.476  1.0051  0.1097 -0.8516
 2529SOL     OW19222   0.434   4.220   0.420  0.2466 -0.6461  0.2696
 2529SOL    HW119223   0.346   4.251   0.441  0.0491  0.0231 -1.5366
 2529SOL    HW219224   0.467   4.204   0.508  0.5520 -1.7902 -0.0458
 2530SOL     OW19225   2.748   0.501   4.662 -0.0085 -0.4247 -0.2076
 2530SOL    HW119226   2.763   0.492   4.756 -0.9240 -0.7002 -0.0913
 2530SOL    HW219227   2.658   0.532   4.666  0.1593 -0.2846  2.4156
 2531SOL     OW19228   3.665   3.688   4.036 -0.4322 -0.3686  0.3077
 2531SOL    HW119229   3.731   3.728   3.979 -1.0132 -0.4096 -0.4054
 2531SOL    HW219230   3.697   3.598   4.036  2.4914  0.6835  0.4189
 2532SOL     OW19231   0.255   0.301   7.348 -0.1146 -0.2806  0.4921
 2532SOL    HW119232   0.309   0.267   7.420  0.7588  2.0181  0.9058
 2532SOL    HW219233   0.306   0.381   7.345 -1.8934  0.9511  3.0264
 2533SOL     OW19234   1.072   4.159  12.810 -0.9250  0.1721 -0.2264
 2533SOL    HW119235   1.037   4.100  12.877  3.5120 -2.5014 -0.2865
 2533SOL    HW219236   1.164   4.163  12.833 -1.3984  2.2178  1.2610
 2534SOL     OW19237   4.219   1.285   5.442  0.0258  0.1784 -0.2906
 2534SOL    HW119238   4.146   1.226   5.423 -1.7648  1.6145  2.1887
 2534SOL    HW219239   4.286   1.256   5.380 -3.3195  1.5026 -4.5500
 2535SOL     OW19240   3.014   4.223   1.178 -0.8506  0.3370 -0.2852
 2535SOL    HW119241   2.923   4.246   1.161 -0.6797  0.7938 -0.6001
 2535SOL    HW219242   3.063   4.269   1.109 -1.7436 -1.4399 -2.1080
 2536SOL     OW19243   1.642   0.444   4.322  0.6482  0.0465  0.2462
 2536SOL    HW119244   1.693   0.380   4.272 -0.5491  0.8066 -1.9633
 2536SOL    HW219245   1.584   0.383   4.368  1.3678 -1.2379 -0.5368
 2537SOL     OW19246   1.597   1.846   0.412 -0.6862  0.5231 -0.4873
 2537SOL    HW119247   1.578   1.808   0.498 -1.0674 -1.2844 -1.3752
 2537SOL    HW219248   1.522   1.905   0.412  0.3983  1.9319  1.1913
 2538SOL     OW19249   0.606   2.141   2.615  0.5861  0.6536 -0.3167
 2538SOL    HW119250   0.643   2.057   2.642 -0.0921  0.4228 -0.0948
 2538SOL    HW219251   0.551   2.168   2.688 -1.8581 -1.7105 -1.2824
 2539SOL     OW19252   3.118   0.173   1.884 -0.2406  0.1009 -0.0512
 2539SOL    HW119253   3.050   0.238   1.868 -1.1881 -1.0862 -0.8275
 2539SOL    HW219254   3.141   0.214   1.967  0.5207 -0.7488  0.1578
 2540SOL     OW19255   1.110   0.586   4.338 -0.8527  0.0929  0.4661
 2540SOL    HW119256   1.157   0.537   4.271  0.5500  0.8141  0.9288
 2540SOL    HW219257   1.030   0.621   4.299 -1.8500 -1.7057  0.8914
 2541SOL     OW19258   1.383   4.369  16.093 -0.1688  0.0643 -0.3278
 2541SOL    HW119259   1.415   4.456  16.119 -2.5707  0.3596  1.5938
 2541SOL    HW219260   1.299   4.387  16.052 -1.0585 -2.4976  0.4225
 2542SOL     OW19261   1.997   4.718   9.517 -0.2048 -0.1180  0.0592
 2542SOL    HW119262   2.008   0.079   9.522  0.6651 -0.2014 -0.1886
 2542SOL    HW219263   2.018   4.685   9.605 -1.3226  3.3411  1.6457
 2543SOL     OW19264   2.635   1.314   8.933 -0.1760 -0.0639  0.0643
 2543SOL    HW119265   2.656   1.402   8.965 -1.9259  1.7365 -3.6680
 2543SOL    HW219266   2.710   1.298   8.877 -1.0957  0.9219 -1.4786
 2544SOL     OW19267   3.115   1.884   3.892  0.7925  0.3575 -0.6070
 2544SOL    HW119268   3.083   1.800   3.858 -2.0142  0.4000  1.9410
 2544SOL    HW219269   3.146   1.923   3.811 -2.3475  2.1247 -0.9396
 2545SOL     OW19270   4.608   0.525   7.314  0.6266 -0.4428  0.6426
 2545SOL    HW119271   4.545   0.467   7.358  1.4571 -0.4837  1.7967
 2545SOL    HW219272   4.681   0.540   7.375  1.1680 -0.2456 -0.0636
 2546SOL     OW19273   3.424   3.122   3.345 -0.2892  0.1155 -0.2933
 2546SOL    HW119274   3.493   3.060   3.368  0.8453  1.1912 -0.7987
 2546SOL    HW219275   3.347   3.070   3.367 -0.5753  1.4042  1.6949
 2547SOL     OW19276   3.636   4.694   1.623  0.4873  0.0577  0.4142
 2547SOL    HW119277   3.599   0.047   1.609 -0.4846 -0.7090 -1.7086
 2547SOL    HW219278   3.667   4.680   1.534  0.4154 -3.0527  0.8635
 2548SOL     OW19279   3.305   3.367  14.955 -0.0442  0.0281 -0.7848
 2548SOL    HW119280   3.257   3.448  14.971  0.3733 -0.1372  1.3100
 2548SOL    HW219281   3.396   3.398  14.960  0.6181 -1.9213 -0.7222
 2549SOL     OW19282   1.256   4.204  14.325  0.4693  0.0713 -0.0816
 2549SOL    HW119283   1.349   4.182  14.334  0.3892 -0.2126  0.0651
 2549SOL    HW219284   1.269   4.296  14.346 -0.8795  0.4788 -1.0250
 2550SOL     OW19285   3.856   4.209  10.226 -0.1380 -0.1631 -0.1328
 2550SOL    HW119286   3.864   4.177  10.136  0.7282 -0.8346  0.1794
 2550SOL    HW219287   3.783   4.271  10.220 -0.7581 -0.6398  2.2738
 2551SOL     OW19288   4.052   1.122   0.100 -0.2633 -0.2439 -0.2846
 2551SOL    HW119289   4.144   1.105   0.079 -0.2848  0.0740 -0.6455
 2551SOL    HW219290   4.013   1.035   0.089  0.0142 -0.5880  1.4432
 2552SOL     OW19291   0.004   0.889  10.320 -0.0451 -0.0763  0.4407
 2552SOL    HW119292   4.707   0.967  10.274 -0.5405 -0.0166  0.8677
 2552SOL    HW219293   0.096   0.907  10.338 -1.1196  2.5559  3.3911
 2553SOL     OW19294   4.280   3.455   5.306 -0.1982 -0.0808 -0.1588
 2553SOL    HW119295   4.217   3.502   5.360 -2.6714 -1.5659 -1.7637
 2553SOL    HW219296   4.270   3.370   5.348  0.5239 -1.0819 -1.9955
 2554SOL     OW19297   2.791   3.630  15.678 -0.1992 -0.1126 -0.0158
 2554SOL    HW119298   2.842   3.636  15.759  0.6217 -0.4130 -0.5107
 2554SOL    HW219299   2.805   3.539  15.650 -0.8616  0.6047 -2.5902
 2555SOL     OW19300   1.171   3.159   5.501 -0.3265  0.3175 -1.6791
 2555SOL    HW119301   1.226   3.183   5.426  1.1391 -0.0582 -0.7320
 2555SOL    HW219302   1.188   3.065   5.504 -1.3858  0.1617 -0.6499
 2556SOL     OW19303   2.473   1.762   6.326 -0.8343 -0.1172  0.1347
 2556SOL    HW119304   2.439   1.846   6.357 -1.9390 -1.1627  1.7732
 2556SOL    HW219305   2.478   1.776   6.232 -0.4547 -2.0254 -0.1183
 2557SOL     OW19306   4.645   0.743   8.137 -0.4056 -0.9693  0.2781
 2557SOL    HW119307   4.725   0.784   8.104 -0.3261 -0.9964  0.4375
 2557SOL    HW219308   4.673   0.699   8.217  0.1771 -2.5758 -0.8000
 2558SOL     OW19309   0.403   0.113   3.331  0.1362  0.0872 -0.1898
 2558SOL    HW119310   0.416   0.067   3.248  1.8926  2.3865 -1.1693
 2558SOL    HW219311   0.478   0.089   3.385  0.1530 -1.9896 -1.1650
 2559SOL     OW19312   2.432   0.187   8.258 -0.0323 -0.1969  0.4127
 2559SOL    HW119313   2.383   0.240   8.320  0.7871  1.6304 -0.5276
 2559SOL    HW219314   2.378   0.109   8.242 -0.0439 -0.7673  3.2406
 2560SOL     OW19315   2.625   3.724   8.548  0.1445  0.2354  0.2533
 2560SOL    HW119316   2.556   3.769   8.500 -1.2182  1.0988  3.0378
 2560SOL    HW219317   2.703   3.740   8.495  1.4256  0.4896  2.2088
 2561SOL     OW19318   2.193   2.612   6.044 -0.4365 -0.5250  0.1682
 2561SOL    HW119319   2.198   2.533   5.990  2.9070 -2.6841  3.6065
 2561SOL    HW219320   2.279   2.652   6.032  0.4450 -2.1114  1.1815
 2562SOL     OW19321   1.622   4.693   5.805 -0.5323 -0.3671  0.3000
 2562SOL    HW119322   1.546   4.644   5.836 -0.5476 -0.9428 -0.6519
 2562SOL    HW219323   1.664   4.631   5.745  2.3629  1.7345  0.1419
 2563SOL     OW19324   3.971   1.878   6.722  0.0047 -0.1712 -0.4813
 2563SOL    HW119325   3.921   1.949   6.761 -0.6827 -1.1959  0.5065
 2563SOL    HW219326   3.986   1.820   6.797  2.3888 -0.6778 -1.3516
 2564SOL     OW19327   0.583   0.648   6.438 -0.5498 -0.1961  0.9752
 2564SOL    HW119328   0.532   0.660   6.359  1.1273 -0.6561 -0.1798
 2564SOL    HW219329   0.523   0.691   6.499 -1.9951  0.2944 -0.8205
 2565SOL     OW19330   3.907   2.319  15.261  0.1913 -0.1675  0.5539
 2565SOL    HW119331   3.920   2.413  15.272  0.8162 -0.0951 -0.8064
 2565SOL    HW219332   3.998   2.288  15.257 -0.3732 -1.4991 -2.3620
 2566SOL     OW19333   3.985   1.838  14.925 -0.5969  0.7082  0.2245
 2566SOL    HW119334   3.962   1.820  14.834  2.1646 -0.4384 -0.2502
 2566SOL    HW219335   3.952   1.926  14.947 -2.6624  0.3720 -1.5360
 2567SOL     OW19336   4.677   4.192   9.644 -0.2232  0.2416 -0.3141
 2567SOL    HW119337   0.023   4.184   9.696  1.5784 -2.5297 -3.5032
 2567SOL    HW219338   4.627   4.116   9.675  0.4444  0.6151  1.7136
 2568SOL     OW19339   1.097   3.268   4.087  0.2890  0.5439 -0.3638
 2568SOL    HW119340   1.177   3.215   4.084  0.2236  0.3422  1.3017
 2568SOL    HW219341   1.112   3.324   4.012  0.3632  2.2349  0.9157
 2569SOL     OW19342   0.204   1.535  14.555 -0.1584 -0.3420  0.2769
 2569SOL    HW119343   0.170   1.620  14.526  1.8899  0.3578 -0.0365
 2569SOL    HW219344   0.223   1.499  14.468 -1.2972  1.0550 -0.5429
 2570SOL     OW19345   3.128   0.401  14.704 -0.4594  0.1979  0.2094
 2570SOL    HW119346   3.042   0.412  14.664 -1.5177  0.4655  2.5364
 2570SOL    HW219347   3.176   0.441  14.631  0.5171  0.5967  1.0636
 2571SOL     OW19348   4.018   3.581   1.580 -0.4269 -0.1453 -0.0230
 2571SOL    HW119349   3.934   3.598   1.538 -0.1097 -0.7915 -0.9262
 2571SOL    HW219350   4.074   3.644   1.534 -0.9062  0.8228  0.7186
 2572SOL     OW19351   4.296   1.227   1.966  0.1144 -0.1743  0.2239
 2572SOL    HW119352   4.317   1.204   1.875  2.0223  0.1468  0.5818
 2572SOL    HW219353   4.352   1.302   1.986  0.6831 -0.7017  0.6012
 2573SOL     OW19354   0.479   0.907  13.589 -0.1474 -0.3538 -0.0465
 2573SOL    HW119355   0.501   0.852  13.664  1.9979 -0.1447 -0.5418
 2573SOL    HW219356   0.443   0.848  13.522 -0.2143 -0.6711  0.2700
 2574SOL     OW19357   3.624   4.658  15.348 -0.0598  0.7387  0.0319
 2574SOL    HW119358   3.553   4.717  15.375 -1.8612 -0.6360 -1.6572
 2574SOL    HW219359   3.695   4.702  15.394 -0.8876  2.2171 -0.0997
 2575SOL     OW19360   3.856   1.691  11.615 -0.0869  0.5959  0.6835
 2575SOL    HW119361   3.865   1.617  11.675  1.2624  1.8739  2.0791
 2575SOL    HW219362   3.947   1.691  11.583 -0.7285 -2.6235 -1.1480
 2576SOL     OW19363   3.637   2.453   5.328  0.3921 -0.2600  0.7037
 2576SOL    HW119364   3.597   2.488   5.248 -0.8954 -2.7554  0.2527
 2576SOL    HW219365   3.587   2.496   5.397 -0.6263 -0.1645 -0.0849
 2577SOL     OW19366   3.234   2.159   4.421  0.5753 -0.1799 -0.2177
 2577SOL    HW119367   3.192   2.201   4.346  1.8962  1.9528  0.2165
 2577SOL    HW219368   3.324   2.187   4.404  0.5445 -0.8729 -1.5524
 2578SOL     OW19369   1.634   4.653   9.195 -0.9108 -0.4727 -0.2198
 2578SOL    HW119370   1.550   4.699   9.202 -0.5330  0.0551  0.8096
 2578SOL    HW219371   1.687   4.731   9.207 -0.0844 -1.4145  2.2319
 2579SOL     OW19372   0.310   2.495   9.633  0.0169  0.2403 -0.5527
 2579SOL    HW119373   0.379   2.561   9.626  0.5632 -0.0426  2.3204
 2579SOL    HW219374   0.358   2.415   9.610 -0.6171  0.5320 -2.9822
 2580SOL     OW19375   3.061   1.651   0.119 -0.4477  0.2252 -0.1090
 2580SOL    HW119376   3.093   1.719   0.179 -2.3661 -0.1078  1.3181
 2580SOL    HW219377   3.072   1.565   0.159  0.4661 -0.2443 -1.3812
 2581SOL     OW19378   4.044   1.400   4.002  0.1005  0.8214 -0.3419
 2581SOL    HW119379   4.104   1.385   3.929 -3.4488  0.5198 -3.2152
 2581SOL    HW219380   4.025   1.314   4.040 -1.2793  2.1715  2.0540
 2582SOL     OW19381   0.721   0.684  10.810  0.5568 -0.0360 -0.0569
 2582SOL    HW119382   0.750   0.683  10.901 -0.8590 -3.6444  0.3541
 2582SOL    HW219383   0.804   0.682  10.762  0.6024  0.5017 -0.0019
 2583SOL     OW19384   1.831   1.640   1.172 -0.1023  0.2338 -0.3202
 2583SOL    HW119385   1.830   1.710   1.237 -0.4398  0.2142 -0.3055
 2583SOL    HW219386   1.861   1.693   1.098  3.1738 -2.4179 -0.8769
 2584SOL     OW19387   3.815   0.802   6.366 -0.2095 -0.0662  0.4214
 2584SOL    HW119388   3.814   0.714   6.403  1.7380  0.7419  2.4715
 2584SOL    HW219389   3.910   0.809   6.357 -0.1435 -0.9171  0.4973
 2585SOL     OW19390   2.919   3.413   1.214 -0.0701  0.0713  0.2057
 2585SOL    HW119391   2.882   3.455   1.136  1.5720  0.8064 -0.1852
 2585SOL    HW219392   2.968   3.483   1.257 -1.1082  0.2221  1.1315
 2586SOL     OW19393   3.639   2.029   3.642 -0.0787  0.1950  0.1939
 2586SOL    HW119394   3.669   2.069   3.560  0.9149  0.0501  0.4852
 2586SOL    HW219395   3.712   1.982   3.682 -1.0115 -1.5393 -0.1540
 2587SOL     OW19396   1.121   0.506  15.199 -0.2549 -0.4839 -0.1357
 2587SOL    HW119397   1.075   0.424  15.218  1.5308 -1.1927  1.0436
 2587SOL    HW219398   1.134   0.543  15.286 -0.3760  0.3891 -0.4870
 2588SOL     OW19399   2.002   3.465   4.410  0.0794 -0.0191 -0.5767
 2588SOL    HW119400   1.966   3.514   4.336 -1.0515 -0.5544 -0.3814
 2588SOL    HW219401   1.997   3.533   4.477  1.8232 -0.5803  0.1166
 2589SOL     OW19402   3.644   3.952   3.073 -0.5039 -0.2265  0.2357
 2589SOL    HW119403   3.715   3.893   3.045  0.3488  0.9757 -0.1375
 2589SOL    HW219404   3.583   3.888   3.110 -0.9989 -0.0140 -0.2183
 2590SOL     OW19405   0.521   0.860  15.054  0.3573  0.4584 -0.0752
 2590SOL    HW119406   0.579   0.829  14.985 -1.9317  1.0908 -2.2741
 2590SOL    HW219407   0.482   0.936  15.010  1.2977  0.6313 -0.6031
 2591SOL     OW19408   3.839   3.569   8.551 -0.5850 -0.0021 -0.4728
 2591SOL    HW119409   3.797   3.559   8.637 -1.9540  1.9161 -0.9327
 2591SOL    HW219410   3.805   3.654   8.522 -0.6287 -0.3684 -1.4870
 2592SOL     OW19411   2.463   1.762   4.406  0.0917  0.0586  0.0235
 2592SOL    HW119412   2.395   1.761   4.473  0.5757 -0.6678  0.4968
 2592SOL    HW219413   2.462   1.854   4.378  0.1769 -1.0452 -3.6667
 2593SOL     OW19414   3.739   1.637   1.778 -0.8209  0.2324  0.6495
 2593SOL    HW119415   3.712   1.585   1.702 -0.5170 -1.2930  1.5717
 2593SOL    HW219416   3.738   1.720   1.730  0.0673 -0.2853 -0.2868
 2594SOL     OW19417   3.094   3.094   7.104 -0.2255 -0.5157 -0.0548
 2594SOL    HW119418   3.024   3.138   7.153 -0.2963 -1.5273  0.7440
 2594SOL    HW219419   3.157   3.073   7.174 -0.5517 -1.3021 -0.0024
 2595SOL     OW19420   2.028   2.437  16.819 -0.6176 -0.4127 -0.3574
 2595SOL    HW119421   1.983   2.386  16.886  1.8427 -1.6304  0.3634
 2595SOL    HW219422   2.121   2.421  16.836 -0.2637  1.8667 -0.1071
 2596SOL     OW19423   2.137   4.609   0.774 -0.4214  0.1115 -0.9034
 2596SOL    HW119424   2.190   4.578   0.848 -0.6915 -2.7312 -1.9192
 2596SOL    HW219425   2.063   4.647   0.820 -0.3568 -0.5779 -0.2362
 2597SOL     OW19426   3.818   0.221   6.580 -0.3023  0.1145  0.2185
 2597SOL    HW119427   3.868   0.294   6.542 -1.2617  0.6885  0.0751
 2597SOL    HW219428   3.726   0.247   6.580 -0.3382 -0.0099  1.2278
 2598SOL     OW19429   1.378   4.000   5.503 -0.0645  0.0356  0.0178
 2598SOL    HW119430   1.303   3.949   5.473  0.7367 -2.0180  1.5276
 2598SOL    HW219431   1.383   3.954   5.587 -1.7401  0.8492  0.5493
 2599SOL     OW19432   2.652   0.642   0.853  0.4983  0.3027 -0.1097
 2599SOL    HW119433   2.624   0.734   0.857  0.0394  0.1909 -0.8533
 2599SOL    HW219434   2.702   0.638   0.935  1.3212  2.4171 -0.5094
 2600SOL     OW19435   2.614   3.705   1.824  0.3344  0.3811  0.1046
 2600SOL    HW119436   2.586   3.647   1.895 -0.4710 -2.0276 -2.1468
 2600SOL    HW219437   2.588   3.647   1.752 -2.3162  1.1205  0.4801
 2601SOL     OW19438   1.559   3.751   6.916  0.0379  0.8444  0.1666
 2601SOL    HW119439   1.481   3.787   6.958 -1.9044 -1.9590 -1.0918
 2601SOL    HW219440   1.623   3.816   6.946  4.0033 -3.3210  0.8386
 2602SOL     OW19441   4.099   3.894   7.608  0.2914  0.0864 -0.2015
 2602SOL    HW119442   4.119   3.802   7.593 -1.2825 -0.2391 -0.3119
 2602SOL    HW219443   4.173   3.928   7.658  1.4792  0.8686 -2.4544
 2603SOL     OW19444   1.937   3.379   9.245  0.3680  0.5922  0.2734
 2603SOL    HW119445   1.980   3.463   9.227  0.4151  0.7176  0.9864
 2603SOL    HW219446   2.009   3.316   9.249  1.4190  1.8486  1.1313
 2604SOL     OW19447   3.665   0.924   7.000  0.0978 -0.1898 -0.7352
 2604SOL    HW119448   3.756   0.911   7.028  0.0971 -0.7898 -1.0159
 2604SOL    HW219449   3.626   0.898   7.083  0.3439  0.1267 -0.5191
 2605SOL     OW19450   3.222   1.470  14.629 -0.6275  0.1189 -0.5131
 2605SOL    HW119451   3.261   1.432  14.550 -0.5935  0.4444 -0.6542
 2605SOL    HW219452   3.270   1.553  14.639 -0.6959  0.0756  0.1371
 2606SOL     OW19453   0.465   1.894   4.900  0.0735  0.3833  0.0443
 2606SOL    HW119454   0.518   1.959   4.945 -1.7947  1.1708  1.1102
 2606SOL    HW219455   0.425   1.858   4.979  1.5628  1.7846  1.4513
 2607SOL     OW19456   3.269   1.292   4.899 -0.0400 -0.1235  0.2376
 2607SOL    HW119457   3.204   1.356   4.872 -1.0941 -1.5645 -0.6286
 2607SOL    HW219458   3.355   1.328   4.877 -0.5914  0.6701 -0.6161
 2608SOL     OW19459   3.135   3.139  10.320 -0.6151 -0.1151  0.4051
 2608SOL    HW119460   3.191   3.084  10.374  0.4236  0.2206 -0.3195
 2608SOL    HW219461   3.085   3.075  10.269 -0.6228  0.2682 -0.0766
 2609SOL     OW19462   1.502   3.037   5.412 -0.3012 -0.2293 -1.0142
 2609SOL    HW119463   1.426   2.993   5.373 -0.7187 -1.6155  1.3839
 2609SOL    HW219464   1.574   2.975   5.406  0.3552  0.3332  1.2029
 2610SOL     OW19465   1.495   2.984   4.473  0.5028  0.0293  0.2238
 2610SOL    HW119466   1.477   2.965   4.381 -0.1033 -0.0567  0.3602
 2610SOL    HW219467   1.587   3.008   4.463  0.6609 -0.0325  1.5588
 2611SOL     OW19468   3.305   2.973   6.667  0.6712  0.3476 -0.3513
 2611SOL    HW119469   3.273   3.036   6.602  0.0539  0.1622 -0.2234
 2611SOL    HW219470   3.325   3.019   6.749 -0.6707 -0.2157  0.2901
 2612SOL     OW19471   0.335   3.173  15.381  0.1799 -0.1405 -0.0029
 2612SOL    HW119472   0.274   3.212  15.317  1.0404  2.4963  0.7855
 2612SOL    HW219473   0.420   3.211  15.360 -0.0576  2.2185  3.3287
 2613SOL     OW19474   4.112   3.621   5.432 -0.3321  0.1279  0.7157
 2613SOL    HW119475   4.032   3.612   5.380  0.4086 -1.0016 -0.2227
 2613SOL    HW219476   4.154   3.695   5.389  1.8108 -1.2647  0.4331
 2614SOL     OW19477   0.247   1.065   0.203  0.5793 -0.1871 -0.6794
 2614SOL    HW119478   0.180   0.997   0.206 -0.2052  0.5593 -1.6702
 2614SOL    HW219479   0.307   1.031   0.270  1.1907  1.2077 -0.5332
 2615SOL     OW19480   3.817   4.217  14.002 -0.4677 -0.3642  0.2248
 2615SOL    HW119481   3.806   4.204  14.096  0.7524 -0.9242  0.2819
 2615SOL    HW219482   3.726   4.208  13.974 -0.7281 -0.0786  0.9713
 2616SOL     OW19483   0.975   1.758   7.462  0.0044  0.1202 -0.1314
 2616SOL    HW119484   1.048   1.727   7.515  1.5956  1.7447 -1.3762
 2616SOL    HW219485   0.960   1.689   7.397  0.1376  0.6522 -0.7273
 2617SOL     OW19486   0.197   3.157   7.156  0.2060  0.5385  0.0195
 2617SOL    HW119487   0.159   3.069   7.148 -1.6026  1.3594 -0.4851
 2617SOL    HW219488   0.270   3.143   7.217  0.0327 -3.2954 -0.6299
 2618SOL     OW19489   2.167   4.197   3.613  1.5028 -0.6088  0.1706
 2618SOL    HW119490   2.158   4.102   3.620  1.2144 -0.5270  0.9213
 2618SOL    HW219491   2.225   4.224   3.684  0.2519  2.1873  0.1306
 2619SOL     OW19492   3.355   2.098  14.909  0.1922  0.1076  0.3044
 2619SOL    HW119493   3.354   2.145  14.992 -0.9961  0.7029 -0.0387
 2619SOL    HW219494   3.423   2.033  14.927  1.7440  1.0923 -1.8980
 2620SOL     OW19495   2.526   0.459  17.420 -0.4853  0.2409  0.3043
 2620SOL    HW119496   2.550   0.547  17.447 -0.5815  0.2843  0.2490
 2620SOL    HW219497   2.432   0.462  17.440 -0.1361 -3.3519  2.3376
 2621SOL     OW19498   3.314   0.454  14.525  0.4181  0.1862 -0.8152
 2621SOL    HW119499   3.397   0.480  14.567  0.1778  0.7925 -0.7327
 2621SOL    HW219500   3.349   0.409  14.448  0.0659  0.4519 -1.1255
 2622SOL     OW19501   2.672   2.028   8.930 -0.1988  0.6095 -0.0096
 2622SOL    HW119502   2.752   2.001   8.975  1.0719 -2.1201 -3.9536
 2622SOL    HW219503   2.661   2.111   8.976  2.5154  1.2074 -0.4131
 2623SOL     OW19504   0.903   3.503  14.090 -0.1215 -0.4682 -0.3621
 2623SOL    HW119505   0.950   3.531  14.168  1.0604 -0.6402 -1.0148
 2623SOL    HW219506   0.828   3.562  14.096  0.1237 -0.2787  0.8331
 2624SOL     OW19507   2.212   3.231   0.301 -1.0142 -0.1521  0.0757
 2624SOL    HW119508   2.171   3.173   0.237  1.5716 -1.0708 -0.7280
 2624SOL    HW219509   2.303   3.211   0.279 -1.5055 -0.8565 -1.2940
 2625SOL     OW19510   2.576   4.615  10.082  0.0882 -0.0183  0.2223
 2625SOL    HW119511   2.542   4.541  10.032  0.2865  0.4784 -0.6526
 2625SOL    HW219512   2.533   4.606  10.167  0.8041  0.6351  0.6550
 2626SOL     OW19513   4.158   3.252   5.109  0.5880  0.2669  0.2483
 2626SOL    HW119514   4.203   3.274   5.027  1.2776  1.3242  0.9139
 2626SOL    HW219515   4.217   3.188   5.151  0.5416  0.5159  0.6934
 2627SOL     OW19516   3.606   3.705   2.282  0.2763 -0.5187 -0.1172
 2627SOL    HW119517   3.676   3.762   2.314  1.3011 -2.3918  0.9591
 2627SOL    HW219518   3.607   3.629   2.340  1.3292 -0.4365 -0.0375
 2628SOL     OW19519   3.635   0.495   5.769 -0.0171  0.2434  0.4950
 2628SOL    HW119520   3.644   0.552   5.692  1.9264  0.6788  1.0545
 2628SOL    HW219521   3.676   0.413   5.743 -0.0643  0.8730 -1.6124
 2629SOL     OW19522   0.988   4.684   4.445 -0.0151 -0.6049  0.7536
 2629SOL    HW119523   0.894   4.674   4.428 -0.5105  2.7923  1.6251
 2629SOL    HW219524   0.996   4.603   4.496 -0.4148 -0.2550  1.3711
 2630SOL     OW19525   1.913   4.558  17.195 -0.0220  0.0627  0.0065
 2630SOL    HW119526   1.944   4.627  17.255  3.1534 -0.4228 -1.0419
 2630SOL    HW219527   1.891   4.495  17.263  0.9351 -1.6608 -1.2768
 2631SOL     OW19528   3.237   3.989   5.803 -0.2097  0.5654  0.5040
 2631SOL    HW119529   3.280   4.064   5.845  1.9092  0.2932 -1.1859
 2631SOL    HW219530   3.286   3.917   5.842  1.9050  0.6779 -1.9266
 2632SOL     OW19531   3.595   4.708  16.190 -0.2656 -0.4790 -0.5803
 2632SOL    HW119532   3.558   0.031  16.122 -2.0368 -0.8470  0.0745
 2632SOL    HW219533   3.656   0.034  16.232 -0.6579 -0.5767  0.1341
 2633SOL     OW19534   0.582   2.271   5.540 -0.0231  0.7370  0.3065
 2633SOL    HW119535   0.613   2.186   5.508  0.7446  0.9781  0.3914
 2633SOL    HW219536   0.666   2.314   5.559 -0.4652  1.5874  0.3197
 2634SOL     OW19537   2.820   2.656   2.965 -0.5608 -0.7996  0.1651
 2634SOL    HW119538   2.883   2.606   2.913 -1.4191 -0.8534 -0.8391
 2634SOL    HW219539   2.872   2.691   3.036 -1.9653 -0.5551  1.0720
 2635SOL     OW19540   4.562   3.827   9.183 -0.0900  0.0564 -0.4454
 2635SOL    HW119541   4.487   3.815   9.125  0.0953  2.0047 -1.0919
 2635SOL    HW219542   4.629   3.784   9.130  0.5422  0.1141  0.3043
 2636SOL     OW19543   0.911   1.923   6.988 -0.5398  0.5582  0.5231
 2636SOL    HW119544   1.002   1.919   6.958 -1.1258  0.5791 -1.2943
 2636SOL    HW219545   0.880   1.994   6.931 -1.6323  0.2670  0.7542
 2637SOL     OW19546   2.909   1.316   3.007  0.4534  0.0898  0.5131
 2637SOL    HW119547   2.835   1.375   3.017 -0.3507 -0.8110 -0.0261
 2637SOL    HW219548   2.969   1.349   2.941 -1.3479 -1.0515 -1.7142
 2638SOL     OW19549   0.218   2.761   5.031 -0.5552 -0.4831 -0.0258
 2638SOL    HW119550   0.250   2.727   4.947 -0.6466 -1.3094  0.2686
 2638SOL    HW219551   0.296   2.742   5.082 -0.6999  1.4267  0.8676
 2639SOL     OW19552   0.208   3.253   8.091 -0.2442 -0.5843  0.2066
 2639SOL    HW119553   0.200   3.203   8.171  0.1187  0.0619  0.6499
 2639SOL    HW219554   0.298   3.231   8.066 -0.7826 -1.7124 -0.7034
 2640SOL     OW19555   0.968   2.804   2.432 -0.4572 -0.0265  0.3208
 2640SOL    HW119556   0.988   2.820   2.524 -1.2573 -2.5334  0.9241
 2640SOL    HW219557   1.044   2.850   2.395  0.9914 -1.8685  1.0036
 2641SOL     OW19558   3.306   2.511   1.657  0.4582 -0.3059 -0.0099
 2641SOL    HW119559   3.241   2.460   1.608 -0.7135  1.1005  0.0786
 2641SOL    HW219560   3.388   2.492   1.612 -0.1966 -0.2374 -1.2565
 2642SOL     OW19561   3.645   3.252   5.244 -0.6426 -0.5213 -0.5424
 2642SOL    HW119562   3.733   3.223   5.219 -0.0942  1.1627 -0.6034
 2642SOL    HW219563   3.646   3.329   5.187  0.4395  0.5430  0.9212
 2643SOL     OW19564   2.552   0.670   7.008 -0.0299  0.1913  0.5017
 2643SOL    HW119565   2.565   0.595   6.949 -1.3815  0.2822  0.0751
 2643SOL    HW219566   2.483   0.718   6.962  1.1023  0.2585 -1.1432
 2644SOL     OW19567   3.015   1.224   0.379  0.0780 -0.0553 -0.0378
 2644SOL    HW119568   3.046   1.162   0.445 -0.0624  1.0374  1.0528
 2644SOL    HW219569   2.925   1.230   0.411  0.5913  3.3064  0.7908
 2645SOL     OW19570   3.604   0.118   4.584 -0.6888  0.2873 -0.2107
 2645SOL    HW119571   3.648   0.177   4.523 -1.7830 -0.4848 -1.7660
 2645SOL    HW219572   3.562   0.176   4.647  0.6856  1.2517 -0.2052
 2646SOL     OW19573   2.971   4.264   5.410  0.6515  0.2129  0.0199
 2646SOL    HW119574   3.020   4.250   5.491 -0.2820  1.1835  0.7512
 2646SOL    HW219575   2.893   4.213   5.429 -0.2697  1.3929 -0.6168
 2647SOL     OW19576   0.633   4.362   1.286 -0.0420  0.3020 -0.6123
 2647SOL    HW119577   0.692   4.287   1.291  1.1691  1.2257 -1.2574
 2647SOL    HW219578   0.685   4.433   1.250  0.2094  1.4114  1.9364
 2648SOL     OW19579   1.234   0.424   6.979  0.1571  0.3127  0.1230
 2648SOL    HW119580   1.179   0.490   6.937  0.6459  0.5813 -0.0871
 2648SOL    HW219581   1.269   0.374   6.905  1.2758  2.0822 -0.5414
 2649SOL     OW19582   1.587   0.346  14.132 -0.0856 -0.5921 -0.0810
 2649SOL    HW119583   1.563   0.344  14.039  1.5923  2.0328 -0.5607
 2649SOL    HW219584   1.676   0.379  14.122 -0.2420 -0.5272 -1.3830
 2650SOL     OW19585   2.243   0.618   4.411 -0.0870 -0.4355 -0.6334
 2650SOL    HW119586   2.267   0.686   4.349 -0.6628  0.8909  0.6172
 2650SOL    HW219587   2.330   0.600   4.447 -0.1016  0.5022 -0.1445
 2651SOL     OW19588   1.955   2.382   6.961  0.7576 -0.3298  0.3189
 2651SOL    HW119589   1.947   2.453   6.897 -0.3317 -0.1228  0.6812
 2651SOL    HW219590   2.038   2.338   6.941  0.8605 -0.4288  0.9528
 2652SOL     OW19591   3.928   1.408   4.553  0.2984 -0.0425 -0.3296
 2652SOL    HW119592   3.993   1.467   4.591  1.0611 -0.7331 -0.5547
 2652SOL    HW219593   3.903   1.367   4.636  0.6298  1.4185  0.4914
 2653SOL     OW19594   3.821   4.591   4.818 -0.0347  0.3042 -0.5549
 2653SOL    HW119595   3.785   4.600   4.729 -1.0429  1.2605 -0.0509
 2653SOL    HW219596   3.765   4.652   4.866  2.3909  1.5789  0.6510
 2654SOL     OW19597   4.494   2.172  12.511 -0.4864  0.0335 -0.1691
 2654SOL    HW119598   4.571   2.136  12.555 -0.3358  0.8911  0.2605
 2654SOL    HW219599   4.512   2.170  12.417  2.4223 -3.5495  0.4341
 2655SOL     OW19600   3.019   3.884   1.435  0.0853  0.0031  0.5098
 2655SOL    HW119601   2.958   3.955   1.415  0.9641  1.0132  1.4560
 2655SOL    HW219602   2.972   3.825   1.493  0.1363 -1.2797 -0.7406
 2656SOL     OW19603   2.439   1.691  11.221 -0.3638  0.4557 -0.1417
 2656SOL    HW119604   2.525   1.730  11.236 -0.2741  0.4941 -0.7697
 2656SOL    HW219605   2.455   1.630  11.149  0.6199  0.9282 -0.3265
 2657SOL     OW19606   4.221   0.179   2.741 -0.9115  0.3081 -0.3523
 2657SOL    HW119607   4.289   0.117   2.769 -2.3389 -1.5663 -1.0769
 2657SOL    HW219608   4.252   0.269   2.750 -3.1752  0.9044  1.2754
 2658SOL     OW19609   3.594   3.169  14.880  0.0075 -0.1754 -0.0880
 2658SOL    HW119610   3.514   3.116  14.886 -1.3183  1.7600 -0.6748
 2658SOL    HW219611   3.639   3.118  14.813  0.4515 -0.8642  0.7266
 2659SOL     OW19612   3.751   2.969   1.005  0.4938 -0.2627 -0.2706
 2659SOL    HW119613   3.746   2.951   0.911 -1.2102  0.1516 -0.2644
 2659SOL    HW219614   3.845   2.983   1.016  0.2474  0.3275  1.0099
 2660SOL     OW19615   3.578   1.940   1.738  0.0795 -0.1770 -0.2440
 2660SOL    HW119616   3.543   2.029   1.746  1.1049  0.2448 -0.5591
 2660SOL    HW219617   3.657   1.945   1.684  2.3142  1.3471  3.1809
 2661SOL     OW19618   0.970   4.707   9.472 -0.0646  0.0441 -0.0920
 2661SOL    HW119619   0.949   4.704   9.378  0.2687 -2.5849 -0.0709
 2661SOL    HW219620   0.993   0.066   9.477  0.6181 -0.1255 -0.1844
 2662SOL     OW19621   2.212   4.342   0.504 -0.4297 -0.7315 -0.1577
 2662SOL    HW119622   2.288   4.294   0.470 -1.2825 -0.9493 -1.7158
 2662SOL    HW219623   2.141   4.290   0.466 -1.4325  0.0114  0.7072
 2663SOL     OW19624   0.575   2.398   3.227  0.8644  0.5331  0.1793
 2663SOL    HW119625   0.625   2.356   3.157 -0.0730 -0.8562  0.3370
 2663SOL    HW219626   0.591   2.488   3.200  0.9638  1.6453  3.9296
 2664SOL     OW19627   4.069   2.249   3.958 -0.5574  0.1988 -0.2836
 2664SOL    HW119628   4.100   2.197   3.884  1.8145  3.0727 -1.2801
 2664SOL    HW219629   3.992   2.287   3.915 -0.1650 -0.1875 -1.3349
 2665SOL     OW19630   4.179   0.323  17.129 -0.4317  0.2286 -0.0448
 2665SOL    HW119631   4.195   0.389  17.063  0.0777  0.4443  0.2896
 2665SOL    HW219632   4.094   0.349  17.165 -1.9164 -3.6424 -0.6955
 2666SOL     OW19633   0.070   0.407   3.788  0.5946  0.0092 -0.0289
 2666SOL    HW119634   0.138   0.470   3.765  0.1645 -0.0204 -1.3765
 2666SOL    HW219635   0.112   0.361   3.861  0.4662  0.1963  0.1635
 2667SOL     OW19636   3.758   3.581   1.494  0.2291 -0.1000  0.6675
 2667SOL    HW119637   3.689   3.560   1.432 -0.1838  0.2244  1.0178
 2667SOL    HW219638   3.722   3.632   1.566  1.2919  1.7394 -0.0885
 2668SOL     OW19639   0.394   4.161  11.159 -0.0037 -0.0570  0.8252
 2668SOL    HW119640   0.306   4.181  11.127 -0.1357  0.5919  1.5865
 2668SOL    HW219641   0.373   4.174  11.252  0.0457 -0.0496  0.8351
 2669SOL     OW19642   3.328   3.764   7.099  0.4999  0.3109 -0.0031
 2669SOL    HW119643   3.412   3.742   7.139 -0.2085 -0.0092  1.2794
 2669SOL    HW219644   3.299   3.834   7.157 -3.6919  1.3040 -3.2768
 2670SOL     OW19645   2.077   2.022   2.233 -0.4371 -0.5443  0.0611
 2670SOL    HW119646   2.148   1.961   2.251 -1.2072 -1.3544  0.3908
 2670SOL    HW219647   2.110   2.105   2.266 -2.0274 -0.1856  0.7323
 2671SOL     OW19648   3.647   1.126   9.289 -0.4545  0.2757  0.1578
 2671SOL    HW119649   3.618   1.213   9.263  1.5438  0.2633 -2.1096
 2671SOL    HW219650   3.739   1.144   9.311 -0.8363  2.1385  0.1839
 2672SOL     OW19651   3.222   3.411   4.753  0.5535 -0.5773 -0.2568
 2672SOL    HW119652   3.268   3.379   4.831  1.2210 -0.1447 -0.4691
 2672SOL    HW219653   3.146   3.461   4.783 -0.7267 -2.4199 -0.4766
 2673SOL     OW19654   4.351   1.628   8.378 -0.5852 -0.5715  0.3403
 2673SOL    HW119655   4.321   1.711   8.414  1.6090  0.3725 -0.0599
 2673SOL    HW219656   4.445   1.638   8.370 -1.0289  2.0972 -1.5996
 2674SOL     OW19657   3.440   3.248  16.807  0.3424  0.0131  0.2023
 2674SOL    HW119658   3.392   3.324  16.841 -2.6348 -0.9299 -1.9488
 2674SOL    HW219659   3.525   3.293  16.810 -0.4011  1.4212  0.3385
 2675SOL     OW19660   1.995   4.172   3.168 -0.4473  0.4228 -0.3476
 2675SOL    HW119661   1.990   4.113   3.093  0.3632  0.7446 -0.6576
 2675SOL    HW219662   2.015   4.250   3.117  0.2764  0.8567  0.5954
 2676SOL     OW19663   3.786   1.501   3.615 -0.4415  0.4600  0.0156
 2676SOL    HW119664   3.846   1.457   3.555 -0.3762 -1.2270  1.3126
 2676SOL    HW219665   3.798   1.590   3.581 -1.4454  0.4412 -0.3778
 2677SOL     OW19666   4.068   1.472   2.454  0.4321  0.5198 -0.0620
 2677SOL    HW119667   4.111   1.543   2.502 -0.8187  0.6927  0.7997
 2677SOL    HW219668   4.012   1.444   2.527  1.4220  2.7467  1.5838
 2678SOL     OW19669   1.525   0.069   6.867 -0.5359  0.0075 -0.1813
 2678SOL    HW119670   1.543   4.714   6.897 -1.4346 -0.3270 -0.6168
 2678SOL    HW219671   1.515   0.064   6.772 -1.0369  0.2781 -0.1433
 2679SOL     OW19672   0.421   2.443   5.393 -0.3808  0.3836 -0.0550
 2679SOL    HW119673   0.449   2.366   5.442 -0.1564  0.8981  0.6137
 2679SOL    HW219674   0.390   2.388   5.321 -1.7285 -0.4400  1.1696
 2680SOL     OW19675   3.077   3.884  16.438 -0.1997 -0.0424 -0.5492
 2680SOL    HW119676   3.139   3.905  16.509  2.0385 -2.2010 -1.8460
 2680SOL    HW219677   2.998   3.874  16.491 -0.3087  0.5574 -0.5947
 2681SOL     OW19678   0.871   4.449   5.152 -0.5979  0.3908  0.2053
 2681SOL    HW119679   0.858   4.405   5.236 -1.0732 -1.3173 -0.7589
 2681SOL    HW219680   0.825   4.391   5.091 -0.1114  1.5667 -1.2811
 2682SOL     OW19681   2.904   3.062   8.365  0.0578  0.5689 -0.5510
 2682SOL    HW119682   2.828   3.121   8.363 -0.5492 -0.1327  1.8789
 2682SOL    HW219683   2.956   3.090   8.290  1.3335 -0.7890 -0.1739
 2683SOL     OW19684   2.886   0.044   4.115 -0.4214 -0.1854 -0.5166
 2683SOL    HW119685   2.879   0.140   4.118  0.6078 -0.0637 -1.6260
 2683SOL    HW219686   2.803   0.029   4.159 -2.0697 -0.6841 -3.8528
 2684SOL     OW19687   1.139   3.001   3.278  0.2448 -0.3334 -0.5128
 2684SOL    HW119688   1.215   3.015   3.334 -0.4600 -0.5964  0.5038
 2684SOL    HW219689   1.084   3.078   3.292  1.1363 -0.0472  1.4338
 2685SOL     OW19690   4.116   0.004   5.018 -0.7359  0.4765 -0.2999
 2685SOL    HW119691   4.186   0.022   5.081 -2.2950  0.7186  1.3689
 2685SOL    HW219692   4.145   4.664   4.964 -0.4016  1.4158 -1.3919
 2686SOL     OW19693   3.893   4.249  17.099  0.2192  0.2363 -0.2688
 2686SOL    HW119694   3.867   4.233  17.190 -0.2211  2.8468  0.0863
 2686SOL    HW219695   3.849   4.177  17.054  1.4981 -0.9265  0.3282
 2687SOL     OW19696   4.719   4.343   5.835 -0.2398  0.6936  0.5123
 2687SOL    HW119697   0.042   4.270   5.811 -0.5082  0.3175  1.0163
 2687SOL    HW219698   4.658   4.331   5.762  0.8555 -1.8137 -0.0018
 2688SOL     OW19699   2.002   0.534  16.941  0.0381  0.3967 -0.5594
 2688SOL    HW119700   1.997   0.606  17.003 -0.7836  1.1789 -1.5321
 2688SOL    HW219701   1.920   0.542  16.892 -0.1840  1.3030 -0.0242
 2689SOL     OW19702   3.158   3.627   3.742  0.4913 -0.1282 -0.0479
 2689SOL    HW119703   3.215   3.703   3.752 -0.1092  0.3620 -0.3506
 2689SOL    HW219704   3.136   3.619   3.649  2.5021 -0.8468 -0.4680
 2690SOL     OW19705   3.891   1.525   5.015  0.0142 -0.2982 -0.0860
 2690SOL    HW119706   3.888   1.610   4.972 -0.0645 -0.5147 -0.5189
 2690SOL    HW219707   3.827   1.474   4.964 -2.4912  2.2367  0.5143
 2691SOL     OW19708   1.477   1.679   3.257 -0.0251 -0.2197  0.4992
 2691SOL    HW119709   1.480   1.623   3.335  0.8923 -1.0506 -0.1390
 2691SOL    HW219710   1.390   1.648   3.232 -0.6765  2.4827 -0.6185
 2692SOL     OW19711   3.465   4.560  10.038 -0.1798  0.0607  0.1163
 2692SOL    HW119712   3.433   4.478  10.003 -3.1458  0.3522  2.1072
 2692SOL    HW219713   3.490   4.529  10.125  0.5808 -1.7673 -0.7705
 2693SOL     OW19714   0.675   1.552   3.811  0.1257 -0.1379  0.8317
 2693SOL    HW119715   0.666   1.511   3.725 -1.7469  2.0104 -0.0119
 2693SOL    HW219716   0.686   1.645   3.793 -0.3391  0.3403  3.1003
 2694SOL     OW19717   3.477   2.352   7.236  0.5079  0.1334  0.0792
 2694SOL    HW119718   3.419   2.306   7.175 -1.0897  0.1269  1.5896
 2694SOL    HW219719   3.459   2.442   7.208 -0.6838 -0.0894  0.1233
 2695SOL     OW19720   4.621   2.982   1.100 -0.3168  0.1050  0.2677
 2695SOL    HW119721   4.594   3.074   1.099 -0.7000 -0.0251 -0.7653
 2695SOL    HW219722   4.648   2.971   1.191  0.8953 -2.2609 -0.3956
 2696SOL     OW19723   0.094   1.754   8.480  0.5329 -0.3681  0.5673
 2696SOL    HW119724   0.083   1.808   8.559  0.9343 -0.7295  0.8673
 2696SOL    HW219725   0.172   1.709   8.511  0.2381 -0.2124  1.5335
 2697SOL     OW19726   2.898   3.929  12.211  0.1595 -0.4028  0.0200
 2697SOL    HW119727   2.937   3.967  12.289  1.9846 -1.7121 -0.2498
 2697SOL    HW219728   2.965   3.862  12.193  1.3562  0.3622  1.6327
 2698SOL     OW19729   2.674   2.751   9.237 -0.4524  0.4049  0.2052
 2698SOL    HW119730   2.625   2.684   9.190 -0.6548 -0.3626  1.5231
 2698SOL    HW219731   2.617   2.825   9.216 -0.2308 -0.0474 -2.0291
 2699SOL     OW19732   2.443   3.034   5.865  0.3564  0.4094 -0.2929
 2699SOL    HW119733   2.462   2.978   5.940  0.3893 -0.3179 -0.8460
 2699SOL    HW219734   2.368   2.991   5.823 -0.7054  0.2007  1.8364
 2700SOL     OW19735   4.618   3.629   1.864  0.3797  0.1289  0.2840
 2700SOL    HW119736   4.530   3.662   1.849  0.0402 -0.6017  0.7040
 2700SOL    HW219737   4.675   3.697   1.826  2.0067 -1.1564  0.4116
 2701SOL     OW19738   3.195   3.553   6.087  0.8120 -0.4980 -0.5468
 2701SOL    HW119739   3.119   3.572   6.141  0.6712  1.2612 -1.3747
 2701SOL    HW219740   3.150   3.533   6.004  2.1850  1.0767 -1.6517
 2702SOL     OW19741   2.222   4.235   3.308 -0.8985 -0.0677 -0.3889
 2702SOL    HW119742   2.204   4.200   3.395 -0.9091 -1.9070 -1.1280
 2702SOL    HW219743   2.134   4.227   3.271 -0.8119  1.2331 -0.8740
 2703SOL     OW19744   3.475   1.550  11.303  0.8328 -0.0789  0.7153
 2703SOL    HW119745   3.462   1.638  11.266 -0.2548 -0.6286 -0.2001
 2703SOL    HW219746   3.567   1.554  11.328  1.1198  0.0926 -0.3538
 2704SOL     OW19747   2.050   4.306  10.296  0.1493 -0.0506 -0.1910
 2704SOL    HW119748   2.130   4.283  10.250 -0.4323 -0.0924 -1.1815
 2704SOL    HW219749   1.989   4.289  10.224  1.0434 -1.4204 -0.6193
 2705SOL     OW19750   1.405   4.313   3.337  0.2904 -0.0855 -0.6953
 2705SOL    HW119751   1.355   4.372   3.394  0.1205 -1.8008  0.9125
 2705SOL    HW219752   1.420   4.369   3.260 -1.6449 -0.2341 -1.1898
 2706SOL     OW19753   3.212   2.754  16.083  0.3777  0.2233  0.3527
 2706SOL    HW119754   3.241   2.663  16.077 -1.2695 -0.3098  0.5983
 2706SOL    HW219755   3.142   2.748  16.019  2.2462 -0.5654 -1.6021
 2707SOL     OW19756   0.580   4.132   0.217 -0.4490  0.1319 -0.0281
 2707SOL    HW119757   0.530   4.159   0.294  1.5144  1.4105  0.8044
 2707SOL    HW219758   0.646   4.080   0.263  0.0494 -0.1967 -1.1099
 2708SOL     OW19759   2.554   2.975   1.830 -0.5491  0.4472 -0.0800
 2708SOL    HW119760   2.535   2.931   1.747  0.8320 -0.3099  0.0151
 2708SOL    HW219761   2.643   3.002   1.809  0.5730  0.0286  4.3074
 2709SOL     OW19762   2.222   2.935   5.764  0.5107  0.1577  0.0074
 2709SOL    HW119763   2.221   2.842   5.739  0.7935  0.8829 -2.7044
 2709SOL    HW219764   2.142   2.967   5.721 -0.6876 -0.7645  1.5460
 2710SOL     OW19765   2.130   0.039   6.966 -0.2100 -0.6137  0.0096
 2710SOL    HW119766   2.079   0.050   7.047  0.3311 -1.2590  0.4429
 2710SOL    HW219767   2.096   0.111   6.913  0.4921 -0.9313 -0.8722
 2711SOL     OW19768   3.939   4.356  11.713  0.2723  0.7713 -0.0074
 2711SOL    HW119769   3.980   4.271  11.729 -0.8268  0.3692  0.6798
 2711SOL    HW219770   3.981   4.397  11.790 -0.0971  0.5863  0.2929
 2712SOL     OW19771   3.243   1.166   8.016 -0.3504 -0.1592  0.2553
 2712SOL    HW119772   3.229   1.208   8.101  1.4271  0.5220  0.2072
 2712SOL    HW219773   3.245   1.075   8.044 -0.0415 -0.2442 -0.0466
 2713SOL     OW19774   0.412   0.806   0.820  0.1155  0.5994  0.2353
 2713SOL    HW119775   0.409   0.860   0.741 -0.5778 -0.4287 -0.4499
 2713SOL    HW219776   0.337   0.752   0.792 -0.8554  1.5435  0.9914
 2714SOL     OW19777   2.660   1.440  12.314  0.1348  0.2051  0.2614
 2714SOL    HW119778   2.662   1.493  12.235 -0.4310 -0.4392 -0.1825
 2714SOL    HW219779   2.569   1.412  12.312  1.0933 -2.9340  0.6947
 2715SOL     OW19780   2.809   1.890   3.308  0.3869  0.0345 -0.2853
 2715SOL    HW119781   2.714   1.895   3.293  0.6042  0.4902 -1.4731
 2715SOL    HW219782   2.834   1.931   3.225 -2.5092  1.9107 -0.2413
 2716SOL     OW19783   2.009   3.552   1.695  1.1908 -0.6755 -0.1707
 2716SOL    HW119784   2.040   3.517   1.779 -0.7319  0.3452  0.9704
 2716SOL    HW219785   2.066   3.506   1.634  0.7529 -2.6436  0.8816
 2717SOL     OW19786   2.728   4.154   5.459 -0.5254  0.5721 -0.0212
 2717SOL    HW119787   2.756   4.073   5.500 -0.4700 -0.1545 -1.4878
 2717SOL    HW219788   2.668   4.191   5.524 -0.8812  0.0694 -0.0664
 2718SOL     OW19789   3.106   2.336   7.312  0.6259  0.3811  0.1294
 2718SOL    HW119790   3.181   2.373   7.266  0.2127  1.3944  0.2716
 2718SOL    HW219791   3.078   2.416   7.356  0.6764  0.6371 -0.3123
 2719SOL     OW19792   2.520   3.976  17.128  0.0686 -0.3045  0.5632
 2719SOL    HW119793   2.548   4.038  17.060  2.0811 -2.2213 -0.3548
 2719SOL    HW219794   2.454   3.937  17.071  1.8217 -0.0285 -1.6355
 2720SOL     OW19795   1.845   3.019   2.489  0.2124 -0.5824 -0.1021
 2720SOL    HW119796   1.889   2.975   2.562  0.1294  0.8374  0.8311
 2720SOL    HW219797   1.914   3.022   2.423 -2.3845 -0.4978 -2.8077
 2721SOL     OW19798   1.001   1.022   0.920 -1.2286  0.1230  0.0080
 2721SOL    HW119799   1.051   1.051   0.844 -0.8678  0.6435  0.4433
 2721SOL    HW219800   0.914   1.022   0.879 -1.3749 -2.6507  0.3126
 2722SOL     OW19801   1.475   2.041   0.043  0.1703  1.1764 -0.4341
 2722SOL    HW119802   1.499   2.033  17.685  2.0066 -0.2692  0.1769
 2722SOL    HW219803   1.399   1.982   0.050  0.8073  0.4874  0.6291
 2723SOL     OW19804   2.149   3.101   7.476  0.3858  0.1606  0.5420
 2723SOL    HW119805   2.205   3.172   7.445  2.8886 -2.5922 -1.1885
 2723SOL    HW219806   2.074   3.132   7.425 -1.2288 -1.3188  2.0054
 2724SOL     OW19807   2.517   0.055   9.577  0.3628 -1.1278 -0.0362
 2724SOL    HW119808   2.605   0.021   9.596  0.6733 -1.7056 -2.5424
 2724SOL    HW219809   2.542   0.096   9.495 -0.1273  1.1040  0.9372
 2725SOL     OW19810   0.426   1.635  16.698 -0.4233  0.0502 -0.1378
 2725SOL    HW119811   0.479   1.640  16.618  1.9930 -0.5260  1.4529
 2725SOL    HW219812   0.495   1.629  16.764 -0.5652  1.2886  0.1218
 2726SOL     OW19813   1.422   2.856   2.512 -0.8332 -0.3335  0.2781
 2726SOL    HW119814   1.486   2.830   2.577  0.1650  1.7937  0.1396
 2726SOL    HW219815   1.384   2.768   2.502 -0.6500 -0.1324 -2.2577
 2727SOL     OW19816   3.813   2.925   2.211  0.6591  0.3240 -0.1814
 2727SOL    HW119817   3.851   3.011   2.194 -1.6698  1.7358  1.7406
 2727SOL    HW219818   3.721   2.925   2.185  0.9355 -0.8332 -1.1378
 2728SOL     OW19819   0.954   1.584  13.943  0.4922  0.1698 -0.1485
 2728SOL    HW119820   0.880   1.529  13.969 -0.6828  0.9730 -1.7799
 2728SOL    HW219821   0.999   1.602  14.025  0.7813 -0.2921 -0.2032
 2729SOL     OW19822   0.235   2.148   5.995  0.2949 -0.5122  0.1922
 2729SOL    HW119823   0.170   2.097   5.948 -0.8588  1.4065 -0.3055
 2729SOL    HW219824   0.301   2.165   5.928  2.5764 -0.6536  2.3858
 2730SOL     OW19825   0.727   1.684   5.027  0.3318  0.1122 -0.3584
 2730SOL    HW119826   0.772   1.661   4.946  0.6951 -2.4585  0.5755
 2730SOL    HW219827   0.674   1.759   5.001 -0.1303 -0.0515  0.1102
 2731SOL     OW19828   1.042   4.548   2.062 -0.2103 -0.0169 -0.2001
 2731SOL    HW119829   0.954   4.510   2.057  1.3873 -3.8874  0.7658
 2731SOL    HW219830   1.031   4.622   2.122  1.2864 -1.3877  1.7742
 2732SOL     OW19831   4.681   4.012   2.337  0.2950 -0.9636  0.5254
 2732SOL    HW119832   4.722   4.097   2.319 -0.5969 -1.0754 -2.1274
 2732SOL    HW219833   4.587   4.031   2.333  0.2225 -1.4229  0.0016
 2733SOL     OW19834   2.417   4.018   6.718  0.6248  0.3516  0.7036
 2733SOL    HW119835   2.479   3.985   6.783 -0.0763  0.9614  1.6848
 2733SOL    HW219836   2.402   4.108   6.746  1.1794  0.2851  1.2045
 2734SOL     OW19837   3.405   0.452   1.723 -0.2545 -0.5445  0.1982
 2734SOL    HW119838   3.480   0.510   1.709 -0.4024 -0.5247 -0.5137
 2734SOL    HW219839   3.354   0.511   1.779 -2.4905 -1.1707 -1.1767
 2735SOL     OW19840   2.667   3.875   7.640 -0.2110  0.1272 -0.1591
 2735SOL    HW119841   2.707   3.934   7.704 -1.0457 -0.9859  1.4214
 2735SOL    HW219842   2.589   3.851   7.690  0.5553 -0.1276  0.9284
 2736SOL     OW19843   2.889   0.286   5.806  0.4442  0.1788 -0.4602
 2736SOL    HW119844   2.881   0.208   5.862  0.1802  0.0249 -0.7113
 2736SOL    HW219845   2.983   0.300   5.816  0.1543  1.4940  0.3945
 2737SOL     OW19846   2.985   3.895   6.819  0.2729  0.1668  0.5319
 2737SOL    HW119847   3.023   3.885   6.732 -1.2725 -1.3514  0.0487
 2737SOL    HW219848   3.049   3.842   6.865  1.8359  2.2528  0.7788
 2738SOL     OW19849   1.856   3.910   6.365 -0.5741  0.4108 -0.3496
 2738SOL    HW119850   1.783   3.903   6.426  2.1835 -1.4654  2.7644
 2738SOL    HW219851   1.846   3.821   6.332 -1.5742 -0.0295  1.1297
 2739SOL     OW19852   2.693   1.355  15.990 -0.0130 -0.2542 -0.3357
 2739SOL    HW119853   2.713   1.417  16.060 -2.7478 -0.9336  1.0653
 2739SOL    HW219854   2.774   1.355  15.939  1.4527 -1.9641  2.0553
 2740SOL     OW19855   4.164   4.644   6.957  0.4271  0.2883 -0.5097
 2740SOL    HW119856   4.079   4.623   6.920 -0.2654  1.6759  0.3059
 2740SOL    HW219857   4.219   4.644   6.878  0.0868 -1.9179 -0.7569
 2741SOL     OW19858   0.466   4.366   9.518 -0.1728 -0.6583 -0.7727
 2741SOL    HW119859   0.509   4.441   9.476  0.3324 -1.5113 -1.7767
 2741SOL    HW219860   0.377   4.387   9.491 -0.1132 -0.5934 -0.9221
 2742SOL     OW19861   0.372   1.933  12.948  0.1255  0.4467 -0.4484
 2742SOL    HW119862   0.301   1.890  12.996  0.5004  0.3451  0.0247
 2742SOL    HW219863   0.323   2.004  12.907 -1.4059  0.9892  2.2664
 2743SOL     OW19864   1.244   0.500   8.946  0.3813  0.3042 -0.1200
 2743SOL    HW119865   1.286   0.537   9.023 -1.1134 -0.8520  1.2631
 2743SOL    HW219866   1.163   0.550   8.946  0.6236  0.6799  0.9445
 2744SOL     OW19867   2.066   3.604   8.491 -0.1705  0.0796  0.4863
 2744SOL    HW119868   2.015   3.570   8.417  1.9610  0.7732 -1.2929
 2744SOL    HW219869   2.140   3.545   8.502  0.3240  0.3399 -1.3302
 2745SOL     OW19870   1.102   2.093   5.556  0.0103  0.5688 -0.1997
 2745SOL    HW119871   1.118   2.160   5.622  1.3664 -0.8304  0.8757
 2745SOL    HW219872   1.183   2.080   5.508 -0.5826 -0.6272 -0.8909
 2746SOL     OW19873   3.588   3.289   4.643  0.6077 -0.3249 -0.0771
 2746SOL    HW119874   3.611   3.295   4.736  0.5286  0.6093 -0.1223
 2746SOL    HW219875   3.566   3.380   4.626  0.5891 -0.4444 -0.6690
 2747SOL     OW19876   2.938   3.098   9.910 -0.4178  0.3277  0.3227
 2747SOL    HW119877   2.951   3.023   9.967  1.2221 -0.0194 -0.5120
 2747SOL    HW219878   2.886   3.157   9.965 -0.0245  0.4602  0.5528
 2748SOL     OW19879   2.703   1.824   4.267 -0.6061 -0.0376 -0.3130
 2748SOL    HW119880   2.623   1.822   4.318 -1.0484  1.6267 -0.9485
 2748SOL    HW219881   2.764   1.887   4.308  0.1126 -1.7134  1.1948
 2749SOL     OW19882   3.875   3.727   9.215  0.2450 -0.4748  0.0533
 2749SOL    HW119883   3.900   3.804   9.266  0.9122 -2.0659  2.0960
 2749SOL    HW219884   3.944   3.736   9.149 -1.4140  0.2672 -1.5939
 2750SOL     OW19885   2.125   1.319  14.436  0.3772 -0.0210 -0.7714
 2750SOL    HW119886   2.064   1.324  14.363  1.3697  0.1929 -1.5813
 2750SOL    HW219887   2.091   1.386  14.496 -0.5463 -1.5258  0.4008
 2751SOL     OW19888   2.941   4.035   4.063 -0.7613 -0.1540  0.0272
 2751SOL    HW119889   2.987   4.067   3.985 -0.7196  0.9463  0.5158
 2751SOL    HW219890   2.989   4.067   4.140  0.9875 -0.1293 -1.0590
 2752SOL     OW19891   0.023   4.721  15.567  0.2684 -0.4218  0.0215
 2752SOL    HW119892   4.674   4.674  15.558  0.0848 -0.1668  0.4244
 2752SOL    HW219893   0.030   0.020  15.656  0.7316 -0.3830 -0.0323
 2753SOL     OW19894   2.759   4.237   3.850 -0.0418  0.0981 -0.2184
 2753SOL    HW119895   2.798   4.299   3.788 -0.2942 -1.8080 -2.2494
 2753SOL    HW219896   2.819   4.164   3.848 -1.2784 -0.9676  1.4911
 2754SOL     OW19897   2.241   3.636   2.346  0.0463  0.1229 -0.4477
 2754SOL    HW119898   2.273   3.704   2.287  2.2959  1.6369  2.5043
 2754SOL    HW219899   2.150   3.662   2.333 -0.7139 -2.1429  0.3251
 2755SOL     OW19900   1.966   0.930  13.071  0.4575 -0.0653  0.4183
 2755SOL    HW119901   1.971   0.835  13.061  1.6599  0.0860 -0.4097
 2755SOL    HW219902   2.034   0.959  13.132 -0.8235  2.7352  0.5709
 2756SOL     OW19903   4.061   0.634   4.546 -0.1286 -0.2154 -0.0289
 2756SOL    HW119904   4.117   0.682   4.606 -0.4942 -0.3532  0.4275
 2756SOL    HW219905   4.032   0.572   4.612 -0.6224 -1.4379 -1.3810
 2757SOL     OW19906   0.382   0.345   5.708  0.6557 -0.6184  0.5852
 2757SOL    HW119907   0.299   0.303   5.687  0.6333 -0.0072 -0.5886
 2757SOL    HW219908   0.353   0.436   5.701  2.2334 -0.1254  0.3401
 2758SOL     OW19909   2.465   0.371   3.896  0.1252 -0.2510 -0.2545
 2758SOL    HW119910   2.500   0.444   3.845 -1.7522 -0.1229 -1.3322
 2758SOL    HW219911   2.427   0.417   3.971 -1.1096 -2.2081  0.3150
 2759SOL     OW19912   3.366   2.473   4.453  0.5843 -0.1952 -0.8381
 2759SOL    HW119913   3.437   2.535   4.435  1.0704  0.0612  2.0722
 2759SOL    HW219914   3.307   2.498   4.381  2.6141  0.1262 -2.3878
 2760SOL     OW19915   1.090   2.064   9.469 -0.5615  0.8855 -0.9452
 2760SOL    HW119916   0.999   2.065   9.499  0.4354  0.7521  2.0128
 2760SOL    HW219917   1.080   2.137   9.407 -0.6164  2.0291  0.4223
 2761SOL     OW19918   3.780   3.767   5.239  0.3903 -0.3991 -0.0176
 2761SOL    HW119919   3.685   3.765   5.223  0.9517 -4.1618 -2.9858
 2761SOL    HW219920   3.792   3.831   5.309  0.2664 -0.1881 -0.1884
 2762SOL     OW19921   1.718   4.013   4.072  0.2522 -0.2777  0.5993
 2762SOL    HW119922   1.789   4.057   4.025  0.3700  1.1660  2.1171
 2762SOL    HW219923   1.650   4.080   4.075 -2.3448 -3.0176  3.0426
 2763SOL     OW19924   0.789   4.181   1.753  0.2489  0.4370  0.0275
 2763SOL    HW119925   0.829   4.108   1.707 -2.3271 -1.5808  1.0094
 2763SOL    HW219926   0.792   4.150   1.843  1.9374  3.2257  0.9328
 2764SOL     OW19927   3.739   1.798   7.175 -0.1470  0.0808 -0.2869
 2764SOL    HW119928   3.756   1.720   7.122 -1.9757 -0.3205 -0.3072
 2764SOL    HW219929   3.811   1.786   7.236  0.0324  0.4895 -0.4243
 2765SOL     OW19930   3.563   3.311   8.574 -0.2668  0.2139 -0.1114
 2765SOL    HW119931   3.608   3.352   8.500 -0.8288  1.3705  0.1951
 2765SOL    HW219932   3.636   3.286   8.630 -3.0500 -0.8409  3.0531
 2766SOL     OW19933   0.790   2.146   2.354 -0.0364 -0.8756 -0.4200
 2766SOL    HW119934   0.857   2.083   2.328  0.9544  0.1268 -0.2873
 2766SOL    HW219935   0.843   2.167   2.431  0.2529 -1.5230 -0.4443
 2767SOL     OW19936   1.809   3.277   5.013 -0.7517  0.0016  0.4516
 2767SOL    HW119937   1.732   3.319   4.976 -1.5345 -0.7617  1.2304
 2767SOL    HW219938   1.821   3.337   5.088  2.2500  0.4673 -0.3873
 2768SOL     OW19939   4.242   0.756  10.577  0.1828  0.0972 -0.4371
 2768SOL    HW119940   4.318   0.702  10.555  0.2738 -0.3532  0.9863
 2768SOL    HW219941   4.217   0.719  10.662  0.8106  0.1336 -0.2395
 2769SOL     OW19942   3.653   4.083  15.556 -0.3530 -0.5589 -0.0164
 2769SOL    HW119943   3.726   4.040  15.602  1.6412  3.1594  0.3380
 2769SOL    HW219944   3.674   4.175  15.573  1.0520 -1.1765  1.6148
 2770SOL     OW19945   3.001   3.929   8.577  0.6418 -0.0222 -0.6662
 2770SOL    HW119946   2.982   3.886   8.494 -3.3244  0.0043  0.2384
 2770SOL    HW219947   2.997   3.849   8.630  1.0716  1.2888  1.3404
 2771SOL     OW19948   3.117   3.009   3.626  0.4692  0.4041  0.4596
 2771SOL    HW119949   3.060   2.938   3.655 -0.4052  1.0596  0.3544
 2771SOL    HW219950   3.110   3.002   3.531 -0.3474  0.9811  0.4799
 2772SOL     OW19951   2.748   4.024   9.533  0.5611  1.0928 -0.2481
 2772SOL    HW119952   2.763   4.069   9.616  2.5816  0.1919 -0.1282
 2772SOL    HW219953   2.816   4.070   9.483  2.0776  1.0855  1.7914
 2773SOL     OW19954   4.290   0.148  10.196 -0.1712 -0.0133 -0.4240
 2773SOL    HW119955   4.385   0.162  10.203 -0.0899 -0.8864  0.1919
 2773SOL    HW219956   4.284   0.082  10.127 -1.7232  0.1967 -0.4942
 2774SOL     OW19957   1.088   4.065  11.625  0.5194  0.4633  0.0947
 2774SOL    HW119958   1.082   4.005  11.699  0.2719 -0.1121 -0.3913
 2774SOL    HW219959   1.033   4.140  11.650  0.6820 -0.0876  2.0577
 2775SOL     OW19960   2.680   2.771   7.383 -0.4904 -0.8077  0.3142
 2775SOL    HW119961   2.646   2.842   7.330  0.1047 -2.3141 -2.0707
 2775SOL    HW219962   2.743   2.820   7.435 -1.1225  0.5490 -0.2134
 2776SOL     OW19963   2.104   4.280   6.361  0.1163 -0.5693 -0.2630
 2776SOL    HW119964   2.171   4.257   6.297  1.0215  3.1474 -0.6422
 2776SOL    HW219965   2.091   4.198   6.409  0.1679  0.3023  1.2318
 2777SOL     OW19966   0.630   4.521  14.535  0.1266  0.5429 -0.1352
 2777SOL    HW119967   0.554   4.466  14.557  0.7276 -0.9153 -1.7376
 2777SOL    HW219968   0.659   4.469  14.461 -1.3173 -1.5410  0.7639
 2778SOL     OW19969   1.132   1.069   0.700 -0.0826  0.5140 -0.5951
 2778SOL    HW119970   1.134   1.040   0.609  0.1672 -1.8355  0.1464
 2778SOL    HW219971   1.122   1.164   0.692 -3.2777  0.2458  0.1235
 2779SOL     OW19972   0.013   1.171   6.118  0.0164 -0.2638 -0.1962
 2779SOL    HW119973   4.652   1.173   6.132  0.2163 -1.3777  1.3488
 2779SOL    HW219974   0.031   1.087   6.160  1.4322 -0.6704 -1.6307
 2780SOL     OW19975   1.764   4.206   3.321  0.0099  0.0068  0.2191
 2780SOL    HW119976   1.705   4.133   3.299 -0.2020  0.6278 -1.2667
 2780SOL    HW219977   1.853   4.189   3.290 -0.4831  2.0403 -2.3395
 2781SOL     OW19978   0.957   2.703  12.046 -0.1873  0.3253  0.0312
 2781SOL    HW119979   0.935   2.781  11.994 -2.4739  0.8832  1.8560
 2781SOL    HW219980   1.038   2.682  12.000 -0.2399  1.7139 -0.7129
 2782SOL     OW19981   4.063   4.640  16.455 -0.7544  0.1400 -0.5194
 2782SOL    HW119982   4.009   4.588  16.513  0.5158 -2.3548 -1.5833
 2782SOL    HW219983   4.022   4.724  16.478 -1.7735 -1.0853  2.0678
 2783SOL     OW19984   2.737   2.622   5.318  0.0760  0.2627  0.5207
 2783SOL    HW119985   2.712   2.545   5.267 -1.0289  0.3061  1.0085
 2783SOL    HW219986   2.696   2.692   5.267  0.6756  0.1820 -0.0667
 2784SOL     OW19987   1.287   3.131   6.325  0.6189  0.3239 -0.3381
 2784SOL    HW119988   1.217   3.163   6.268  0.0733 -0.6417 -0.2185
 2784SOL    HW219989   1.242   3.055   6.361 -0.5451  0.7751 -0.8362
 2785SOL     OW19990   4.053   0.629   6.855  0.0879  0.1873 -0.1660
 2785SOL    HW119991   3.995   0.554   6.865 -0.6467  1.0607  2.2099
 2785SOL    HW219992   3.988   0.693   6.826 -1.3471 -1.9111 -1.5459
 2786SOL     OW19993   4.310   1.771   2.917 -0.2756 -0.2497 -0.2056
 2786SOL    HW119994   4.229   1.749   2.964 -0.5644  1.6298  0.1689
 2786SOL    HW219995   4.277   1.838   2.857  0.2891 -0.2174 -0.4834
 2787SOL     OW19996   0.336   1.533   2.068 -0.7459  0.6197 -0.6244
 2787SOL    HW119997   0.318   1.459   2.126  0.8469  1.9521  1.5398
 2787SOL    HW219998   0.390   1.499   1.997  1.3807  2.2830  0.1843
 2788SOL     OW19999   3.777   2.934   7.348  0.0132 -0.0134 -0.4278
 2788SOL    HW120000   3.822   2.878   7.410 -1.8284  0.9242  1.7597
 2788SOL    HW220001   3.716   2.872   7.308  0.1079  0.3440 -1.1399
 2789SOL     OW20002   1.700   0.715   3.135 -0.3710 -0.2369  0.1004
 2789SOL    HW120003   1.739   0.739   3.219 -1.7259 -4.2984  1.9313
 2789SOL    HW220004   1.762   0.643   3.126 -1.6405 -1.4043  0.6350
 2790SOL     OW20005   1.810   3.609   8.296  0.1354  0.4326  0.2533
 2790SOL    HW120006   1.779   3.629   8.207  2.0643  0.3693 -0.4315
 2790SOL    HW220007   1.803   3.694   8.340 -0.4087 -1.2889  3.4590
 2791SOL     OW20008   0.968   2.894   4.935 -0.6938  0.0983 -0.1844
 2791SOL    HW120009   0.995   2.878   5.025  1.3770  0.4830 -0.7288
 2791SOL    HW220010   0.960   2.807   4.894 -1.6119 -0.6041  1.4994
 2792SOL     OW20011   0.984   0.561  13.339 -0.1667 -0.5946 -0.0084
 2792SOL    HW120012   1.047   0.582  13.407  0.2767 -1.3059 -0.2051
 2792SOL    HW220013   1.040   0.564  13.261 -2.5459  0.9638 -1.6690
 2793SOL     OW20014   0.451   3.455  14.463  0.3847 -0.6855 -0.5672
 2793SOL    HW120015   0.358   3.442  14.445  0.1431  1.9867 -1.2669
 2793SOL    HW220016   0.475   3.521  14.399  0.5579  1.4490  1.6909
 2794SOL     OW20017   4.062   4.332   4.438 -0.2706  0.0401  0.2498
 2794SOL    HW120018   4.117   4.293   4.371 -2.5679 -1.8932 -0.5143
 2794SOL    HW220019   4.036   4.413   4.395 -1.4887 -0.6272 -0.2779
 2795SOL     OW20020   3.106   3.696   6.971 -0.2181 -0.1141 -0.5672
 2795SOL    HW120021   3.192   3.722   7.005 -1.0931  0.8077  0.9019
 2795SOL    HW220022   3.050   3.714   7.046 -0.4996  0.1107 -0.8318
 2796SOL     OW20023   0.565   0.027   3.004  0.5949 -0.3475  0.1402
 2796SOL    HW120024   0.609   0.104   2.969  0.1514 -0.4064 -0.5529
 2796SOL    HW220025   0.566   4.703   2.928  0.8201  2.0563 -1.6873
 2797SOL     OW20026   3.176   0.010  15.598  0.1485  0.3585  0.5564
 2797SOL    HW120027   3.229   0.006  15.678 -0.6096 -0.9044  0.9883
 2797SOL    HW220028   3.098   0.044  15.642 -0.2195 -0.3438  0.4479
 2798SOL     OW20029   2.856   3.660   2.502 -0.2473 -0.0515 -0.0303
 2798SOL    HW120030   2.941   3.639   2.540 -1.4355 -2.6208  1.2588
 2798SOL    HW220031   2.805   3.587   2.538  0.5157 -1.3968 -1.6515
 2799SOL     OW20032   4.114   4.461  11.225 -0.3192  0.0709  0.4912
 2799SOL    HW120033   4.102   4.375  11.186 -1.3436  0.7636 -0.7150
 2799SOL    HW220034   4.115   4.441  11.319  2.8720 -0.0113  0.4687
 2800SOL     OW20035   4.433   4.357  15.379 -0.2676  0.2293 -0.2663
 2800SOL    HW120036   4.446   4.307  15.299 -0.8568 -0.0000 -0.2119
 2800SOL    HW220037   4.399   4.295  15.443 -1.2194  0.6032 -0.4085
 2801SOL     OW20038   1.257   0.537   8.375 -0.1013 -0.4853 -0.3000
 2801SOL    HW120039   1.286   0.618   8.334 -1.2248 -0.4489 -1.0180
 2801SOL    HW220040   1.255   0.558   8.468  3.0382  2.7912 -0.9436
 2802SOL     OW20041   0.079   1.853  16.811 -0.7970 -0.1183 -0.3539
 2802SOL    HW120042   0.027   1.806  16.877 -0.9723 -2.8622 -2.4501
 2802SOL    HW220043   0.045   1.823  16.727 -0.8019 -1.1766  0.0183
 2803SOL     OW20044   1.246   2.986   7.772  0.0875  0.6613 -0.9682
 2803SOL    HW120045   1.298   2.906   7.780  1.6147  1.5969 -1.5375
 2803SOL    HW220046   1.179   2.996   7.840  0.2723  1.2997 -0.8762
 2804SOL     OW20047   0.145   2.658   7.812 -0.0393  0.4353 -0.0451
 2804SOL    HW120048   0.180   2.629   7.896  0.0753 -1.3323 -0.7101
 2804SOL    HW220049   0.160   2.587   7.749  0.8903 -0.1812  0.8853
 2805SOL     OW20050   4.202   1.625   7.732 -0.5706 -0.2875 -0.1121
 2805SOL    HW120051   4.237   1.714   7.721 -1.3668 -0.0746 -0.9307
 2805SOL    HW220052   4.127   1.648   7.786 -0.4005 -1.5158  0.6455
 2806SOL     OW20053   4.458   1.354  17.652  0.0742  0.4793  0.2473
 2806SOL    HW120054   4.505   1.344  17.569  1.2780 -0.7244  1.0729
 2806SOL    HW220055   4.490   1.439  17.681  1.8624  0.1667 -0.7514
 2807SOL     OW20056   0.455   3.796  17.670 -0.2932  0.1619 -0.1991
 2807SOL    HW120057   0.448   3.891  17.661  1.6640  0.4424  1.3154
 2807SOL    HW220058   0.513   3.787  17.594 -1.5336  0.8349 -1.2344
 2808SOL     OW20059   2.195   0.633   5.337 -0.2160 -0.2079  0.5044
 2808SOL    HW120060   2.116   0.623   5.284  1.0560 -0.8374 -1.2493
 2808SOL    HW220061   2.208   0.542   5.364 -0.5877 -1.2969 -2.9543
 2809SOL     OW20062   1.601   1.808   3.951 -0.3721  0.2582 -0.0660
 2809SOL    HW120063   1.594   1.860   4.031 -1.5914  1.5993 -1.0508
 2809SOL    HW220064   1.691   1.823   3.920  0.1621 -1.1375  0.8157
 2810SOL     OW20065   3.351   3.498   4.145  0.0307  0.7759  0.5051
 2810SOL    HW120066   3.433   3.468   4.185  0.3402 -0.0166 -0.7299
 2810SOL    HW220067   3.297   3.418   4.150  0.1695  0.5748 -1.4783
 2811SOL     OW20068   4.555   3.409   3.179 -0.5373 -0.4337 -0.1274
 2811SOL    HW120069   4.642   3.377   3.154 -1.3913 -1.3843 -1.8344
 2811SOL    HW220070   4.564   3.462   3.258 -1.4261 -2.2485  1.1945
 2812SOL     OW20071   2.500   1.302   8.488 -0.6010  0.4136  0.0162
 2812SOL    HW120072   2.466   1.273   8.572 -1.0341 -1.1996 -0.7115
 2812SOL    HW220073   2.551   1.224   8.463 -0.6957  0.0938  0.8165
 2813SOL     OW20074   3.678   1.549  17.540 -0.5246 -0.2254  0.2448
 2813SOL    HW120075   3.772   1.558  17.558 -0.7193  0.9823  0.6654
 2813SOL    HW220076   3.675   1.481  17.472  0.0318  0.7874 -0.8076
 2814SOL     OW20077   2.850   3.374   4.982  0.7883 -0.3337  0.2005
 2814SOL    HW120078   2.798   3.333   5.052  0.0057 -0.3223 -0.3664
 2814SOL    HW220079   2.937   3.349   5.010  0.4449  0.5278  2.0654
 2815SOL     OW20080   3.013   3.973  10.276 -0.9093  0.3693 -0.3841
 2815SOL    HW120081   2.982   3.990  10.365  0.7496 -0.1229  0.2901
 2815SOL    HW220082   2.969   3.890  10.260 -0.1754 -0.4963  2.1161
 2816SOL     OW20083   1.996   0.321  16.476  0.4271  0.4763 -0.2529
 2816SOL    HW120084   1.938   0.380  16.523  0.9086  1.0901 -0.4359
 2816SOL    HW220085   2.084   0.353  16.496  1.9680 -3.7318 -0.1807
 2817SOL     OW20086   4.643   1.313   9.540 -0.1583  0.0711 -0.2573
 2817SOL    HW120087   4.634   1.400   9.577  2.9130 -0.4037  1.5578
 2817SOL    HW220088   4.651   1.263   9.621 -0.1843  0.1854 -0.1850
 2818SOL     OW20089   0.607   1.518   8.775 -0.2968  0.2291 -0.1867
 2818SOL    HW120090   0.675   1.498   8.711  1.3347 -0.4147  1.7550
 2818SOL    HW220091   0.591   1.432   8.813  1.6189  0.4709  1.1842
 2819SOL     OW20092   0.688   4.531   6.833  0.3055 -0.0632  0.0781
 2819SOL    HW120093   0.669   4.589   6.906 -1.4858 -0.7729  0.1872
 2819SOL    HW220094   0.623   4.463   6.854  1.0368 -1.3485 -1.7886
 2820SOL     OW20095   4.353   4.400   4.847 -0.7141 -0.1521  0.0831
 2820SOL    HW120096   4.274   4.348   4.861  0.2685 -1.7027 -0.1924
 2820SOL    HW220097   4.403   4.366   4.921  0.7567 -0.5503 -1.0868
 2821SOL     OW20098   0.978   3.852   0.429 -0.2555 -0.7186 -0.0841
 2821SOL    HW120099   0.927   3.886   0.356  3.2166 -0.8001 -2.5065
 2821SOL    HW220100   1.023   3.932   0.458 -1.8793 -0.5292  1.9742
 2822SOL     OW20101   3.721   2.423   6.143 -0.0361  0.6112  0.0086
 2822SOL    HW120102   3.640   2.448   6.098  0.0545 -1.0014 -1.0565
 2822SOL    HW220103   3.688   2.424   6.233 -2.7629 -0.2060 -0.9717
 2823SOL     OW20104   4.323   1.522   3.551 -0.1155 -0.5089 -0.2757
 2823SOL    HW120105   4.393   1.458   3.539  0.6001 -0.2467  2.6400
 2823SOL    HW220106   4.330   1.536   3.645 -0.8277  2.7823 -0.7014
 2824SOL     OW20107   1.869   1.825   6.414  0.3049  0.5438 -0.2615
 2824SOL    HW120108   1.893   1.907   6.458 -2.3505  0.6302  1.0250
 2824SOL    HW220109   1.775   1.843   6.413  0.2799  0.4264  0.3944
 2825SOL     OW20110   3.632   0.290   9.161  0.0740  0.5895  0.1740
 2825SOL    HW120111   3.692   0.220   9.136 -0.4914  0.8706 -1.9796
 2825SOL    HW220112   3.603   0.256   9.245  3.0095  1.5052  1.5744
 2826SOL     OW20113   3.851   4.093   7.283 -0.0884 -0.2933 -0.1235
 2826SOL    HW120114   3.943   4.089   7.260 -0.2228  1.2344 -0.8793
 2826SOL    HW220115   3.840   3.999   7.296  0.8644 -0.3001  0.6389
 2827SOL     OW20116   0.554   3.696  10.478  0.6514  0.4250 -0.3192
 2827SOL    HW120117   0.598   3.773  10.515  0.8508  0.8074 -1.3496
 2827SOL    HW220118   0.618   3.633  10.511 -0.7671 -0.5437  0.6097
 2828SOL     OW20119   3.336   2.303   7.520  0.5539 -0.1738  0.4277
 2828SOL    HW120120   3.350   2.393   7.493 -2.2490 -0.6760 -2.7402
 2828SOL    HW220121   3.277   2.287   7.446 -1.8956 -3.0190  3.0005
 2829SOL     OW20122   1.035   4.311   4.130 -0.9290  0.4095 -0.4654
 2829SOL    HW120123   1.128   4.336   4.131 -0.6993 -0.4876  1.9624
 2829SOL    HW220124   1.025   4.278   4.219  0.7612 -1.3113 -0.9139
 2830SOL     OW20125   1.997   0.857   1.801  0.0412  0.1912  0.3151
 2830SOL    HW120126   1.943   0.785   1.835 -2.4587  1.6395 -0.5413
 2830SOL    HW220127   2.028   0.890   1.885 -0.1856  0.4417  0.3036
 2831SOL     OW20128   3.263   0.881   4.707  0.2068  0.2455 -0.5427
 2831SOL    HW120129   3.183   0.832   4.692  0.3880 -0.5213  1.0260
 2831SOL    HW220130   3.301   0.873   4.619 -0.7952  0.7003 -1.0126
 2832SOL     OW20131   1.699   0.387   6.348 -0.7807 -0.6272  0.4805
 2832SOL    HW120132   1.781   0.377   6.300 -0.6168  0.1221  0.5996
 2832SOL    HW220133   1.653   0.441   6.284  0.6045  0.0367  0.0548
 2833SOL     OW20134   4.240   0.453   9.031  0.9529 -0.3898  0.0317
 2833SOL    HW120135   4.155   0.444   9.075  1.2963  0.0371  0.7765
 2833SOL    HW220136   4.221   0.467   8.938  0.1993  0.5126  0.3191
 2834SOL     OW20137   1.673   3.163  13.265  0.1080  1.0373 -0.0881
 2834SOL    HW120138   1.684   3.129  13.354  2.5957 -1.0567 -1.1951
 2834SOL    HW220139   1.725   3.243  13.271  1.0552  0.3690  0.8246
 2835SOL     OW20140   4.443   1.622   6.832  0.2721  0.2242  0.3479
 2835SOL    HW120141   4.410   1.533   6.819 -2.2416  1.2868 -0.6050
 2835SOL    HW220142   4.384   1.679   6.782 -0.8405 -1.5393 -0.3414
 2836SOL     OW20143   3.236   0.813   8.806 -0.3686  0.1802  0.2191
 2836SOL    HW120144   3.278   0.764   8.877 -0.9441  1.3772  1.3831
 2836SOL    HW220145   3.196   0.741   8.757  0.5747 -1.3352  1.6749
 2837SOL     OW20146   0.880   1.536   4.506 -0.1211  0.0370  0.3879
 2837SOL    HW120147   0.830   1.618   4.504  1.4082  1.0004  1.0518
 2837SOL    HW220148   0.835   1.495   4.580 -0.2888  0.6528  0.6283
 2838SOL     OW20149   2.958   1.252   3.268 -0.4521 -0.3966 -0.1763
 2838SOL    HW120150   2.933   1.266   3.177  2.9203 -2.2336 -1.3801
 2838SOL    HW220151   2.876   1.272   3.312 -1.5119 -0.9047 -1.9104
 2839SOL     OW20152   0.104   3.903   8.121 -0.1034 -1.1154 -0.0501
 2839SOL    HW120153   0.136   3.890   8.210  1.2623  2.2802 -0.0342
 2839SOL    HW220154   0.147   3.830   8.077  1.8367  0.3481 -0.5823
 2840SOL     OW20155   1.825   0.404   8.586 -0.5712 -0.3553  0.3566
 2840SOL    HW120156   1.807   0.392   8.679 -1.1631  0.8867  0.3960
 2840SOL    HW220157   1.735   0.410   8.554 -1.3727  0.8669  2.8347
 2841SOL     OW20158   4.425   1.605   4.434 -0.9158 -0.2815  0.2280
 2841SOL    HW120159   4.409   1.695   4.464  0.0218 -0.2385  0.5816
 2841SOL    HW220160   4.463   1.562   4.510  0.1106 -0.6440 -0.5038
 2842SOL     OW20161   4.551   0.691  10.267 -0.2952  0.0613  0.6848
 2842SOL    HW120162   4.495   0.679  10.345  0.5673 -0.1600  1.2684
 2842SOL    HW220163   4.617   0.749  10.305  2.0864 -0.9877 -1.8961
 2843SOL     OW20164   0.930   4.078   5.733  0.0178 -0.2927  0.5769
 2843SOL    HW120165   0.929   4.173   5.733 -0.5897 -0.2941 -0.2302
 2843SOL    HW220166   0.933   4.052   5.825  0.0467 -0.4340  0.5371
 2844SOL     OW20167   3.973   0.520   1.741 -0.4849  0.4479  0.3564
 2844SOL    HW120168   3.974   0.596   1.682 -3.2215  0.7319  0.6718
 2844SOL    HW220169   3.946   0.451   1.681  1.8814  0.3060 -0.5536
 2845SOL     OW20170   3.523   1.696   2.740  0.0424  0.0140 -0.0320
 2845SOL    HW120171   3.532   1.742   2.823  0.7566  0.4780 -0.3740
 2845SOL    HW220172   3.524   1.605   2.772  1.3546 -0.0164 -0.1775
 2846SOL     OW20173   3.139   0.618   8.659  0.5539 -0.5948 -0.1457
 2846SOL    HW120174   3.132   0.524   8.680 -1.5479 -0.4697 -0.3238
 2846SOL    HW220175   3.150   0.617   8.564  0.2790 -1.4781 -0.1771
 2847SOL     OW20176   0.743   0.278  15.449 -0.0149  0.4649  0.0145
 2847SOL    HW120177   0.772   0.271  15.539  0.6800  0.0189 -0.2471
 2847SOL    HW220178   0.694   0.196  15.442 -0.4644  0.7059  0.3632
 2848SOL     OW20179   0.590   1.611   9.577 -0.5036  1.0418 -0.0153
 2848SOL    HW120180   0.614   1.538   9.635 -0.7183  0.4733 -0.6385
 2848SOL    HW220181   0.501   1.585   9.552 -0.3826 -1.2863  1.9378
 2849SOL     OW20182   3.076   0.353   5.335  0.0586  0.5029  0.2908
 2849SOL    HW120183   3.151   0.396   5.294  0.3841 -0.5172 -0.1969
 2849SOL    HW220184   3.086   0.392   5.422  1.6593 -0.1030  0.3920
 2850SOL     OW20185   1.567   4.259   8.836  0.0446 -0.6309 -0.2730
 2850SOL    HW120186   1.579   4.328   8.901 -1.2389 -0.9919  0.3450
 2850SOL    HW220187   1.513   4.195   8.882 -1.5751  0.7345 -0.2432
 2851SOL     OW20188   1.649   2.648  12.801 -0.1420 -0.0294 -0.0619
 2851SOL    HW120189   1.558   2.625  12.821 -0.2021  1.0153  0.8749
 2851SOL    HW220190   1.700   2.583  12.849 -0.7267  0.8739  1.7856
 2852SOL     OW20191   4.187   2.170   6.880  0.7479  0.0336  0.1509
 2852SOL    HW120192   4.217   2.120   6.804 -1.9247 -0.6877 -0.4159
 2852SOL    HW220193   4.117   2.225   6.844  0.6198 -1.9582 -2.6772
 2853SOL     OW20194   0.732   2.866  10.855 -0.2824  0.3560  0.5189
 2853SOL    HW120195   0.826   2.885  10.847 -0.0691 -0.4583  1.1183
 2853SOL    HW220196   0.727   2.816  10.937 -0.7528  2.7350  1.9515
 2854SOL     OW20197   2.287   2.694   4.273  0.1844 -0.1554 -0.1686
 2854SOL    HW120198   2.264   2.737   4.191 -0.9686  1.0785  0.8041
 2854SOL    HW220199   2.216   2.629   4.277  1.9065 -2.0001  0.5872
 2855SOL     OW20200   3.950   1.714   7.823 -0.3978 -0.1281 -0.1514
 2855SOL    HW120201   3.896   1.735   7.747  1.0739  1.9820 -0.6377
 2855SOL    HW220202   3.912   1.770   7.890 -0.9111  0.4973 -0.9523
 2856SOL     OW20203   3.913   2.072  11.834 -0.0667 -0.0405  0.4936
 2856SOL    HW120204   4.008   2.081  11.839 -0.0312 -0.8642  1.2955
 2856SOL    HW220205   3.877   2.157  11.809  0.7130  0.7605  2.0662
 2857SOL     OW20206   3.190   2.482  11.961  0.3137  0.5441  0.6500
 2857SOL    HW120207   3.230   2.513  12.042  1.2471  1.3535 -0.1139
 2857SOL    HW220208   3.197   2.566  11.914  3.0172 -0.1800 -0.2543
 2858SOL     OW20209   3.798   4.589   1.814 -0.3583  0.3665  0.7922
 2858SOL    HW120210   3.766   4.647   1.883 -1.2455  1.7983 -0.8048
 2858SOL    HW220211   3.756   4.634   1.740 -4.1473 -1.2097  2.0137
 2859SOL     OW20212   3.640   2.480   2.745 -0.2708  0.1902 -0.4527
 2859SOL    HW120213   3.547   2.499   2.756  0.3365  0.4613  3.8553
 2859SOL    HW220214   3.685   2.556   2.782  0.6263  0.0965 -1.3519
 2860SOL     OW20215   4.668   0.567  16.564  0.3451  0.6386  0.5949
 2860SOL    HW120216   4.688   0.528  16.649 -0.1161  1.4469  1.0733
 2860SOL    HW220217   4.684   0.492  16.506  1.1059 -0.3321  2.0599
 2861SOL     OW20218   4.003   4.346   9.626  0.8306 -0.2510 -0.2246
 2861SOL    HW120219   4.021   4.439   9.613 -1.5018  0.1165 -0.8596
 2861SOL    HW220220   4.031   4.339   9.717 -0.5290 -1.2604  0.1243
 2862SOL     OW20221   4.572   2.267   9.977 -0.0743 -0.0427 -0.3106
 2862SOL    HW120222   4.525   2.189  10.005 -0.2755  0.6690  1.3382
 2862SOL    HW220223   4.609   2.302  10.058 -0.1029  0.6025 -0.5801
 2863SOL     OW20224   0.329   1.093   2.984  0.1901 -0.3589  0.3674
 2863SOL    HW120225   0.253   1.129   3.029 -0.2247  1.3388 -1.6662
 2863SOL    HW220226   0.306   1.127   2.897  0.3048 -3.1183 -0.7431
 2864SOL     OW20227   2.377   2.910  12.311 -0.4814 -0.0189 -0.0483
 2864SOL    HW120228   2.311   2.977  12.326  0.0011  0.5191 -0.3300
 2864SOL    HW220229   2.450   2.947  12.360  0.3189 -1.3027 -0.2491
 2865SOL     OW20230   2.701   0.596   9.169 -0.3038 -0.1175 -0.2532
 2865SOL    HW120231   2.679   0.689   9.181  0.7541  0.1691 -0.5167
 2865SOL    HW220232   2.718   0.611   9.076 -0.2546  0.4248 -0.1564
 2866SOL     OW20233   0.921   3.389   6.260 -0.9051  0.2794  0.1515
 2866SOL    HW120234   0.973   3.445   6.318 -0.1599 -0.6521  0.3824
 2866SOL    HW220235   0.991   3.335   6.223 -2.6213 -1.9593  0.1766
 2867SOL     OW20236   1.523   2.213  14.984 -0.0035 -0.6763  0.5085
 2867SOL    HW120237   1.582   2.289  14.975 -0.7920  0.0262  1.2428
 2867SOL    HW220238   1.439   2.258  14.980  1.2549  1.7427  0.9201
 2868SOL     OW20239   4.354   3.731   5.864  0.3912  0.1609  0.6399
 2868SOL    HW120240   4.336   3.643   5.899 -2.3411  0.4428 -0.0628
 2868SOL    HW220241   4.337   3.716   5.771 -0.7471  2.6984  0.4489
 2869SOL     OW20242   1.755   4.110   1.610  0.6685  0.0020 -0.1776
 2869SOL    HW120243   1.665   4.118   1.641  0.8293 -0.3265  0.3837
 2869SOL    HW220244   1.793   4.080   1.693 -1.4563  1.2267  1.2471
 2870SOL     OW20245   2.935   0.907   8.880 -0.2405 -0.2073 -0.2106
 2870SOL    HW120246   2.981   0.979   8.836  0.8119  0.2132  1.5833
 2870SOL    HW220247   3.007   0.855   8.914  0.5510 -0.2353 -1.9475
 2871SOL     OW20248   2.765   4.624   2.151 -0.4863 -0.3521 -0.5033
 2871SOL    HW120249   2.806   4.699   2.108  0.8838 -0.1354  1.1369
 2871SOL    HW220250   2.793   4.645   2.240 -1.1059 -0.6709 -0.2294
 2872SOL     OW20251   4.578   1.766   4.950  0.2093  0.8665  0.2101
 2872SOL    HW120252   4.521   1.694   4.925  0.4861  0.7454 -0.0836
 2872SOL    HW220253   4.664   1.724   4.942 -1.0514 -1.9308  1.8320
 2873SOL     OW20254   2.888   2.360   0.360  0.0771  0.4869  0.0847
 2873SOL    HW120255   2.958   2.295   0.370  1.9154  2.1312 -2.1031
 2873SOL    HW220256   2.927   2.428   0.414 -0.2443  0.4184  0.3963
 2874SOL     OW20257   3.917   4.399   7.889  0.2086 -0.3839 -0.5841
 2874SOL    HW120258   3.845   4.357   7.843 -1.3871  0.0260  1.5238
 2874SOL    HW220259   3.918   4.485   7.848 -2.0183  0.3261  0.8589
 2875SOL     OW20260   2.532   1.131  10.460 -0.0914  0.0734  0.2011
 2875SOL    HW120261   2.530   1.169  10.372  1.2716 -0.6003 -0.1275
 2875SOL    HW220262   2.544   1.206  10.519 -1.1791  0.3377  0.0711
 2876SOL     OW20263   3.538   1.089   3.284 -0.4777  0.4181  0.6035
 2876SOL    HW120264   3.443   1.099   3.281 -0.6985 -1.6845  0.6466
 2876SOL    HW220265   3.552   1.003   3.244 -1.6540  0.1632  0.7426
 2877SOL     OW20266   2.398   4.237   1.933  0.2135 -0.0617  0.8186
 2877SOL    HW120267   2.323   4.179   1.946  0.1051 -0.2840 -0.7023
 2877SOL    HW220268   2.467   4.176   1.907 -0.9078 -1.7908  1.8430
 2878SOL     OW20269   1.313   4.229   6.111 -0.5214  0.1041  0.0180
 2878SOL    HW120270   1.314   4.319   6.143 -0.3560 -0.4628  1.6557
 2878SOL    HW220271   1.321   4.236   6.016  2.0676  0.0337  0.2448
 2879SOL     OW20272   3.604   4.574   6.417 -1.2293 -0.5789 -0.0850
 2879SOL    HW120273   3.586   4.502   6.477  0.3676  0.0069  1.0895
 2879SOL    HW220274   3.629   4.645   6.475 -2.4029  0.0481 -0.3378
 2880SOL     OW20275   1.429   4.061   8.983  0.3664  0.2356  0.2382
 2880SOL    HW120276   1.391   4.008   9.053  1.6567 -1.1375 -0.1000
 2880SOL    HW220277   1.351   4.105   8.948 -1.2520 -2.6830  0.1588
 2881SOL     OW20278   2.171   3.696   5.497 -0.1357 -0.3678 -0.3767
 2881SOL    HW120279   2.234   3.671   5.565 -1.7693  0.8178  1.5721
 2881SOL    HW220280   2.152   3.614   5.451  1.1867 -0.2890 -1.0430
 2882SOL     OW20281   4.259   0.863   5.889  0.1229  0.1542 -0.0113
 2882SOL    HW120282   4.178   0.910   5.911 -0.8731 -1.5062 -0.0958
 2882SOL    HW220283   4.329   0.915   5.928  0.7234  0.5681 -1.6645
 2883SOL     OW20284   2.867   2.738   1.889  0.3747  0.2854 -0.5151
 2883SOL    HW120285   2.823   2.687   1.821 -3.0161  2.9785 -0.3202
 2883SOL    HW220286   2.953   2.696   1.884 -1.0135 -2.2850 -2.7856
 2884SOL     OW20287   2.918   2.301  11.956 -0.3758  0.3541  0.2184
 2884SOL    HW120288   2.881   2.303  11.868  1.4430 -1.5247 -0.6076
 2884SOL    HW220289   3.009   2.274  11.939 -0.3704 -0.6836  1.9064
 2885SOL     OW20290   0.098   4.324   1.911  0.4310 -0.3135  0.2634
 2885SOL    HW120291   0.105   4.387   1.983 -0.9186 -0.1113  0.2217
 2885SOL    HW220292   0.084   4.385   1.839  0.5900  1.2950  1.5995
 2886SOL     OW20293   3.442   1.992   5.279 -0.4253 -0.1313 -0.1285
 2886SOL    HW120294   3.522   1.940   5.275 -1.1305 -0.9638 -3.2004
 2886SOL    HW220295   3.398   1.963   5.199 -0.7920  1.0325 -0.3554
 2887SOL     OW20296   0.969   2.531  13.400  0.6550  0.0867 -0.0046
 2887SOL    HW120297   0.876   2.545  13.378  0.4815 -0.1832  0.5707
 2887SOL    HW220298   1.017   2.595  13.347 -0.0412 -0.9497 -1.8990
 2888SOL     OW20299   4.527   2.507   5.619 -0.5224 -0.0610 -0.1537
 2888SOL    HW120300   4.574   2.583   5.654 -1.0617  0.0205  0.3873
 2888SOL    HW220301   4.588   2.439   5.646 -0.0415  0.8676  1.1124
 2889SOL     OW20302   3.629   4.462   2.455  0.1699  0.0568  0.5432
 2889SOL    HW120303   3.610   4.382   2.504 -0.4927 -1.4526 -2.1628
 2889SOL    HW220304   3.723   4.466   2.473  0.1880  0.0613  0.4456
 2890SOL     OW20305   3.591   0.904  15.808 -0.1681 -0.1827 -0.2045
 2890SOL    HW120306   3.580   0.812  15.781  0.1097  0.1323 -1.3691
 2890SOL    HW220307   3.624   0.891  15.897 -3.0515  1.2274  1.0656
 2891SOL     OW20308   4.494   2.275  13.783  0.2963 -0.6689  0.5731
 2891SOL    HW120309   4.555   2.274  13.856  3.4602 -0.9449 -2.0410
 2891SOL    HW220310   4.511   2.187  13.747  1.9605 -1.2218  2.7402
 2892SOL     OW20311   1.620   3.668  10.254  0.3487  0.1311 -0.2241
 2892SOL    HW120312   1.631   3.583  10.298  0.9349  1.1155  1.5367
 2892SOL    HW220313   1.550   3.704  10.309  1.0497  0.3275  0.5413
 2893SOL     OW20314   2.775   2.075   3.064 -0.0324  0.0595  0.1732
 2893SOL    HW120315   2.824   2.047   2.987 -0.6845 -1.1496  0.1922
 2893SOL    HW220316   2.687   2.072   3.026  0.3419  1.1419 -0.7535
 2894SOL     OW20317   1.852   1.876   2.230  0.2946 -0.2968 -0.9130
 2894SOL    HW120318   1.929   1.932   2.219 -0.2630  1.0261  1.8560
 2894SOL    HW220319   1.788   1.928   2.181 -1.5914 -0.4859  1.3592
 2895SOL     OW20320   2.797   0.267   2.897 -0.3365 -0.4388  0.2804
 2895SOL    HW120321   2.821   0.355   2.866 -1.0913 -0.4489 -0.3375
 2895SOL    HW220322   2.873   0.273   2.955 -1.1843 -2.7665  1.5943
 2896SOL     OW20323   0.808   1.664  10.726 -0.0618  0.4807 -0.0972
 2896SOL    HW120324   0.903   1.678  10.731 -0.0627  0.6405 -0.5419
 2896SOL    HW220325   0.787   1.632  10.638 -1.8269  2.1194 -0.2464
 2897SOL     OW20326   4.514   2.799   4.580 -0.8818 -0.2227  0.0155
 2897SOL    HW120327   4.559   2.719   4.607 -0.4697 -1.0174 -3.0624
 2897SOL    HW220328   4.431   2.764   4.548 -0.1361 -1.3891 -0.6448
 2898SOL     OW20329   0.827   0.534   3.883  0.5279 -0.3864  0.5200
 2898SOL    HW120330   0.737   0.544   3.851  0.8767 -0.9514 -0.6562
 2898SOL    HW220331   0.868   0.618   3.864  0.7478 -0.4168  0.8768
 2899SOL     OW20332   0.173   3.748   3.692  0.5441 -0.5498 -0.4465
 2899SOL    HW120333   0.087   3.718   3.724  1.1291 -1.5627  0.1729
 2899SOL    HW220334   0.148   3.803   3.618 -1.3729 -0.0663  0.5591
 2900SOL     OW20335   0.172   4.521   4.110 -0.0648  0.4124  0.1625
 2900SOL    HW120336   0.231   4.543   4.182  0.7436 -1.9081  0.2138
 2900SOL    HW220337   0.238   4.523   4.041 -0.9223  1.3964 -0.6112
 2901SOL     OW20338   3.202   2.800  14.946 -0.6786  0.1364 -0.0961
 2901SOL    HW120339   3.218   2.841  15.030 -0.1436 -0.4222  0.0752
 2901SOL    HW220340   3.181   2.877  14.893  0.6133  1.3297  1.1547
 2902SOL     OW20341   2.155   3.487  12.546 -0.6119  0.0379  0.4976
 2902SOL    HW120342   2.138   3.396  12.526  1.0773  0.1117 -1.2699
 2902SOL    HW220343   2.146   3.523  12.458  0.3564 -3.0457 -0.8571
 2903SOL     OW20344   1.642   3.196   5.583  0.1909  0.0849 -0.1315
 2903SOL    HW120345   1.584   3.190   5.507  1.4102  1.4044 -1.1519
 2903SOL    HW220346   1.589   3.160   5.654 -0.9040  1.3362 -0.2972
 2904SOL     OW20347   2.442   4.355  14.021 -0.4702  0.2605  0.5918
 2904SOL    HW120348   2.348   4.367  14.034 -0.9013 -2.0080 -0.5530
 2904SOL    HW220349   2.451   4.434  13.967 -1.4867  0.3807  0.6013
 2905SOL     OW20350   2.390   1.232   4.167 -0.2005 -0.1501  0.3652
 2905SOL    HW120351   2.302   1.245   4.200  0.9343  1.4210  2.8193
 2905SOL    HW220352   2.386   1.295   4.095  0.6716 -0.8871 -0.3270
 2906SOL     OW20353   0.758   0.564   6.736 -0.6803  0.1564 -0.1299
 2906SOL    HW120354   0.793   0.533   6.820  1.6617  0.6284 -0.9372
 2906SOL    HW220355   0.820   0.634   6.717 -0.3413  0.0110  0.4356
 2907SOL     OW20356   4.658   3.401   7.271 -0.0770 -0.3424 -0.2513
 2907SOL    HW120357   4.677   3.487   7.235 -2.3147  0.1283 -0.2991
 2907SOL    HW220358   4.667   3.419   7.364  1.1960 -0.8403 -0.2701
 2908SOL     OW20359   0.159   3.406  16.165 -0.8001  0.2051  0.3037
 2908SOL    HW120360   0.147   3.423  16.258 -0.3315  2.0367  0.0196
 2908SOL    HW220361   0.128   3.482  16.116 -2.3361 -0.2728  0.5453
 2909SOL     OW20362   0.340   4.107   4.892 -0.0782  0.0870 -1.0436
 2909SOL    HW120363   0.378   4.152   4.968  1.2706 -0.8212 -1.1713
 2909SOL    HW220364   0.248   4.116   4.916  0.2973  1.2874 -0.1046
 2910SOL     OW20365   1.018   1.994   5.879 -0.1085  0.2650  0.1223
 2910SOL    HW120366   0.957   1.946   5.823  0.5485  1.3739 -1.5171
 2910SOL    HW220367   0.991   1.965   5.966 -0.2974  2.5287  0.8076
 2911SOL     OW20368   1.995   1.673   2.692 -0.1201 -0.0106  0.1453
 2911SOL    HW120369   2.028   1.664   2.603  0.8893  1.7556  0.3397
 2911SOL    HW220370   1.906   1.697   2.665 -0.8259 -2.0041  0.7493
 2912SOL     OW20371   4.038   0.485  11.582  0.3549  0.3148  0.2078
 2912SOL    HW120372   4.103   0.521  11.523  0.8050  0.1835  0.6179
 2912SOL    HW220373   4.013   0.569  11.620  0.5959 -0.2624  1.6555
 2913SOL     OW20374   2.817   4.241   4.542 -0.1877 -0.0353  0.1955
 2913SOL    HW120375   2.854   4.308   4.600 -1.0412  0.5294  0.0850
 2913SOL    HW220376   2.867   4.173   4.587  1.7486  0.1375 -1.6844
 2914SOL     OW20377   3.330   1.418   0.207 -0.4020  0.2809 -0.0492
 2914SOL    HW120378   3.239   1.420   0.178 -0.3739 -3.3045 -0.3694
 2914SOL    HW220379   3.371   1.420   0.121 -2.5841 -2.6697 -1.1500
 2915SOL     OW20380   3.014   3.236  11.858 -0.1159  0.7492  0.1798
 2915SOL    HW120381   2.997   3.191  11.941  2.0812 -0.8325 -0.2238
 2915SOL    HW220382   3.109   3.246  11.865  0.1313 -0.6821 -1.1531
 2916SOL     OW20383   0.646   4.522   6.412 -0.1265 -0.2562  0.4579
 2916SOL    HW120384   0.557   4.494   6.432 -0.4553  0.9118  0.6628
 2916SOL    HW220385   0.643   4.594   6.475  2.0533 -0.7841  1.1396
 2917SOL     OW20386   2.629   3.926   0.891  0.5386 -0.6213  0.0706
 2917SOL    HW120387   2.624   3.992   0.822 -1.3182 -1.2460 -0.4052
 2917SOL    HW220388   2.540   3.932   0.926  0.8793  2.5200  0.4188
 2918SOL     OW20389   2.299   3.166   6.798  0.3147  0.5006 -0.2954
 2918SOL    HW120390   2.344   3.086   6.824  1.2058  1.4520  1.0718
 2918SOL    HW220391   2.304   3.211   6.882  1.3679 -0.2888  0.0579
 2919SOL     OW20392   0.998   1.674  14.193  0.7559 -0.4138  0.0413
 2919SOL    HW120393   0.922   1.733  14.196  0.0963 -1.3357  1.1933
 2919SOL    HW220394   1.015   1.679  14.287  0.7983  2.9590 -0.1351
 2920SOL     OW20395   2.896   2.039   0.924  0.3409 -0.0944 -0.4000
 2920SOL    HW120396   2.927   2.078   0.842  0.2946  0.7643 -0.0050
 2920SOL    HW220397   2.960   1.972   0.947 -1.0523 -1.3511 -0.1886
 2921SOL     OW20398   1.063   2.859   5.187 -0.1951  0.6925  0.1446
 2921SOL    HW120399   1.013   2.845   5.268  0.0510  0.7275  0.3018
 2921SOL    HW220400   1.080   2.768   5.160  2.0254  1.4727 -1.0062
 2922SOL     OW20401   2.982   3.544   3.973 -0.3122  0.1963  0.2119
 2922SOL    HW120402   2.917   3.594   3.923  0.6749  0.1654 -1.0801
 2922SOL    HW220403   3.063   3.560   3.925 -0.1920  0.9685  0.6787
 2923SOL     OW20404   4.060   3.544   2.443 -0.7376  0.0216  0.5309
 2923SOL    HW120405   4.115   3.554   2.365 -1.5586  0.2292 -0.0181
 2923SOL    HW220406   3.975   3.555   2.401  0.4526  0.3542 -1.7942
 2924SOL     OW20407   0.057   4.261   2.316  0.1004  0.1018 -0.0553
 2924SOL    HW120408   0.147   4.288   2.334 -2.0424  5.1096  3.2535
 2924SOL    HW220409   0.026   4.345   2.282 -3.4597 -1.2102 -0.0633
 2925SOL     OW20410   2.336   3.896   0.923  0.6626  0.1656  0.0213
 2925SOL    HW120411   2.268   3.829   0.914  0.9624 -0.2213  0.6036
 2925SOL    HW220412   2.298   3.946   0.996  0.8824 -0.0596  0.2908
 2926SOL     OW20413   1.973   2.550   3.663 -0.2572  0.0613  0.2214
 2926SOL    HW120414   1.993   2.614   3.595  0.4152  0.9334  1.2396
 2926SOL    HW220415   2.043   2.485   3.667 -0.3237 -0.0681 -0.6706
 2927SOL     OW20416   1.185   2.734  13.562 -0.0623 -0.0564 -0.3158
 2927SOL    HW120417   1.158   2.824  13.577 -1.9834 -0.5854 -0.5594
 2927SOL    HW220418   1.184   2.738  13.466  1.8648 -1.2879 -0.3833
 2928SOL     OW20419   3.364   2.525   2.773 -0.1131 -0.1680 -0.2224
 2928SOL    HW120420   3.310   2.603   2.786  0.5417  0.1415  0.6569
 2928SOL    HW220421   3.313   2.467   2.829 -1.0588  0.4856 -0.4163
 2929SOL     OW20422   0.690   3.318   8.265 -0.5664 -0.3548  0.3036
 2929SOL    HW120423   0.758   3.300   8.331 -1.2496  1.6857  1.5749
 2929SOL    HW220424   0.651   3.230   8.264 -2.3558  0.4385  0.5717
 2930SOL     OW20425   3.069   4.519   8.434  0.0776 -0.6618 -0.0635
 2930SOL    HW120426   3.050   4.593   8.376  2.3245  0.0032  0.0461
 2930SOL    HW220427   3.143   4.482   8.386 -0.2348 -1.3924  0.0223
 2931SOL     OW20428   0.969   1.368  17.191  0.2559 -0.1472 -0.3758
 2931SOL    HW120429   0.995   1.286  17.233  1.0520 -0.1955 -0.9648
 2931SOL    HW220430   1.056   1.406  17.177  0.1730 -0.2651 -1.2411
 2932SOL     OW20431   0.100   3.263   3.826  0.0552  0.2798 -0.1668
 2932SOL    HW120432   0.125   3.170   3.832 -0.9655 -0.0915 -1.5886
 2932SOL    HW220433   0.144   3.304   3.900 -1.3431 -0.2785  0.9607
 2933SOL     OW20434   1.648   0.631   8.315 -0.0549 -0.1431  0.7972
 2933SOL    HW120435   1.640   0.611   8.222 -0.8112  2.4666  0.2938
 2933SOL    HW220436   1.558   0.615   8.344 -0.5876  2.2165  0.5190
 2934SOL     OW20437   0.710   2.302   2.991  0.2914 -1.3084  0.5018
 2934SOL    HW120438   0.728   2.320   2.899  0.3529 -0.2134  0.7301
 2934SOL    HW220439   0.789   2.257   3.020  1.1813  1.2721  2.0918
 2935SOL     OW20440   3.997   0.078   4.778  0.5584  0.5200  0.2836
 2935SOL    HW120441   3.928   0.014   4.798  0.2151  0.7696 -0.0872
 2935SOL    HW220442   4.033   0.096   4.865  1.4648  0.2890 -0.0439
 2936SOL     OW20443   1.473   0.827   8.026  0.7281 -0.2501  0.2952
 2936SOL    HW120444   1.538   0.757   8.015  0.7895 -0.0360 -0.6525
 2936SOL    HW220445   1.512   0.879   7.956  0.0985 -0.6611 -0.3614
 2937SOL     OW20446   0.905   3.815  13.381 -0.3711  0.3920  0.2856
 2937SOL    HW120447   0.919   3.801  13.287 -2.1109 -0.0276  0.0838
 2937SOL    HW220448   0.994   3.835  13.408  0.2954 -0.9943 -0.8662
 2938SOL     OW20449   4.197   2.545  11.986 -0.0277 -0.3068  0.6751
 2938SOL    HW120450   4.262   2.499  11.933 -0.6087 -0.5710  0.1828
 2938SOL    HW220451   4.242   2.620  12.024 -1.4879  0.6612  0.4871
 2939SOL     OW20452   0.736   1.560   2.540  0.0608 -0.0177 -0.4313
 2939SOL    HW120453   0.753   1.648   2.506  0.0790  0.1803  0.0861
 2939SOL    HW220454   0.749   1.570   2.635 -2.2350  2.9594 -0.4452
 2940SOL     OW20455   2.746   4.589   9.559 -0.0023 -0.3328 -0.2740
 2940SOL    HW120456   2.689   4.579   9.483 -0.2635 -0.5521 -0.0490
 2940SOL    HW220457   2.829   4.625   9.527  1.4102  0.0620  3.8865
 2941SOL     OW20458   1.556   4.552   6.987  0.4456  0.0625 -0.4410
 2941SOL    HW120459   1.521   4.529   7.073  2.0878 -1.4192 -0.1572
 2941SOL    HW220460   1.503   4.494   6.933 -0.4652  0.4306  0.0612
 2942SOL     OW20461   2.448   4.490  10.316 -0.2450  0.0768 -0.6108
 2942SOL    HW120462   2.439   4.401  10.352 -0.4785  0.9272  1.4067
 2942SOL    HW220463   2.482   4.525  10.398 -1.2165 -0.1588 -0.1137
 2943SOL     OW20464   0.316   2.927   8.456 -0.5897 -0.3684  0.6038
 2943SOL    HW120465   0.253   2.954   8.523 -1.7516  4.6941 -2.5023
 2943SOL    HW220466   0.389   2.904   8.512 -0.7257  0.3338  1.0764
 2944SOL     OW20467   1.147   2.908   9.586 -0.0869  0.6681  0.0210
 2944SOL    HW120468   1.132   2.981   9.525  1.1569  0.5395 -0.4398
 2944SOL    HW220469   1.216   2.944   9.643  0.2555 -0.0100  0.0373
 2945SOL     OW20470   2.319   4.622   9.638 -0.2428  0.6195 -0.1550
 2945SOL    HW120471   2.404   4.667   9.633  0.1684 -0.3589 -1.8554
 2945SOL    HW220472   2.305   4.592   9.548 -0.1671 -0.1349  0.0849
 2946SOL     OW20473   2.220   1.660   3.800 -0.3811  0.3219  0.2820
 2946SOL    HW120474   2.310   1.668   3.767  0.3355  0.9482  2.3488
 2946SOL    HW220475   2.197   1.747   3.832 -2.5226 -1.1826  2.8649
 2947SOL     OW20476   1.242   0.779   4.962 -0.5145 -0.5097  0.0934
 2947SOL    HW120477   1.152   0.792   4.931 -0.2672  0.8856 -0.0239
 2947SOL    HW220478   1.273   0.869   4.968 -0.2824 -0.4801 -1.4255
 2948SOL     OW20479   1.375   1.156   8.413 -0.5368 -0.1875  0.4667
 2948SOL    HW120480   1.323   1.103   8.353 -0.4706  0.3584 -0.0709
 2948SOL    HW220481   1.463   1.139   8.378 -0.0575  2.1436  0.4863
 2949SOL     OW20482   2.489   2.603   7.143 -0.5352 -0.2833 -0.0383
 2949SOL    HW120483   2.498   2.670   7.211  2.7427  0.3421 -1.0731
 2949SOL    HW220484   2.579   2.570   7.142  0.4256  2.2431  4.6293
 2950SOL     OW20485   3.223   4.095   8.471  0.4797  0.0083  0.7467
 2950SOL    HW120486   3.141   4.058   8.503  2.1243 -0.7947  4.0537
 2950SOL    HW220487   3.258   4.029   8.411 -0.8874  1.3140 -1.4547
 2951SOL     OW20488   1.496   3.571   8.786  0.1222  0.2196  0.6302
 2951SOL    HW120489   1.537   3.557   8.700 -0.7018  1.3604  0.0509
 2951SOL    HW220490   1.437   3.645   8.772  0.3532  0.6664  2.0524
 2952SOL     OW20491   0.416   0.825   6.633  0.1785 -0.3527  0.1326
 2952SOL    HW120492   0.374   0.754   6.681  0.0288 -1.5311 -1.7457
 2952SOL    HW220493   0.465   0.872   6.700  0.6050  0.6652 -0.8919
 2953SOL     OW20494   3.806   4.537   4.137 -0.4043 -0.2173 -0.2019
 2953SOL    HW120495   3.895   4.522   4.169 -0.0412  1.8665 -0.2398
 2953SOL    HW220496   3.838   4.572   4.053 -0.4305 -0.2044 -0.2064
 2954SOL     OW20497   0.474   1.420   6.045  0.4280 -0.2146  0.4667
 2954SOL    HW120498   0.426   1.483   5.991 -1.4817 -1.0367  1.1703
 2954SOL    HW220499   0.401   1.374   6.089 -0.7259  0.3027 -0.9048
 2955SOL     OW20500   2.296   1.914  10.300  0.3227  0.0021  0.1756
 2955SOL    HW120501   2.248   1.841  10.339  0.8828 -0.0429  0.7766
 2955SOL    HW220502   2.316   1.869  10.218  0.2331  0.4595 -0.0959
 2956SOL     OW20503   3.952   0.850   4.993 -0.6775  0.6914 -0.4461
 2956SOL    HW120504   3.931   0.881   5.081 -1.3325 -0.7265 -0.0964
 2956SOL    HW220505   4.014   0.780   5.014 -1.6181 -0.9599 -3.1851
 2957SOL     OW20506   3.506   4.316   7.527  0.0082  0.2180  0.2710
 2957SOL    HW120507   3.514   4.352   7.616 -2.3627  1.8760 -0.1670
 2957SOL    HW220508   3.589   4.349   7.494 -1.1244  1.6035 -1.2121
 2958SOL     OW20509   3.832   4.700   7.256 -0.0574  0.4841  0.4364
 2958SOL    HW120510   3.825   4.696   7.160  1.4655  0.5391  0.3273
 2958SOL    HW220511   3.785   0.049   7.267 -1.8603 -0.5558  0.5700
 2959SOL     OW20512   4.314   4.688   4.138  0.7452  0.7023  0.5011
 2959SOL    HW120513   4.363   4.714   4.216  2.2956 -1.0392  0.1081
 2959SOL    HW220514   4.314   0.037   4.090 -1.1111 -1.1656 -2.7634
 2960SOL     OW20515   1.006   2.484   3.823  0.6664  0.0217  0.2807
 2960SOL    HW120516   1.085   2.435   3.805  0.2254  0.0536 -1.8261
 2960SOL    HW220517   0.943   2.450   3.760  0.4682  0.9752 -0.0477
 2961SOL     OW20518   4.147   2.636  13.145 -0.2283 -0.4593 -0.2222
 2961SOL    HW120519   4.183   2.565  13.091  1.0476 -0.9809  1.3160
 2961SOL    HW220520   4.225   2.691  13.153 -1.4246  1.0011  1.3035
 2962SOL     OW20521   1.930   1.761  13.602 -0.1211 -0.7148  0.1622
 2962SOL    HW120522   2.012   1.718  13.628 -0.3842 -1.3555 -0.0599
 2962SOL    HW220523   1.869   1.753  13.675 -1.0111  1.9448 -0.3207
 2963SOL     OW20524   3.238   0.280   4.846  0.8658 -0.3606  0.0676
 2963SOL    HW120525   3.240   0.263   4.940 -0.6346 -3.5415 -0.5033
 2963SOL    HW220526   3.234   0.376   4.843  0.6361 -0.3595  0.4381
 2964SOL     OW20527   0.402   2.350   4.730  0.1017  0.0388 -0.5689
 2964SOL    HW120528   0.477   2.295   4.750 -1.3006 -1.1826  1.3328
 2964SOL    HW220529   0.388   2.321   4.639 -0.9905  2.0577 -1.0579
 2965SOL     OW20530   1.365   3.081   8.936  0.1412 -0.5906  0.5473
 2965SOL    HW120531   1.316   3.078   9.018  1.0744 -0.1001  1.1222
 2965SOL    HW220532   1.290   3.086   8.877  0.4508  0.9935  0.2985
 2966SOL     OW20533   2.710   1.358   6.795  1.0567  0.2060  0.3329
 2966SOL    HW120534   2.703   1.396   6.882  0.1308  0.5060  0.1289
 2966SOL    HW220535   2.791   1.307   6.802  0.3201 -0.7496  1.9656
 2967SOL     OW20536   3.272   4.551  11.112 -0.4556  0.1805  0.0848
 2967SOL    HW120537   3.324   4.597  11.178  0.4970  0.3341 -0.7657
 2967SOL    HW220538   3.275   4.614  11.039 -4.0890 -0.0486 -0.2664
 2968SOL     OW20539   4.407   3.274  15.338  0.2841  0.0542 -0.6036
 2968SOL    HW120540   4.339   3.298  15.275 -1.2507 -0.4537  0.8381
 2968SOL    HW220541   4.484   3.302  15.290  2.6697 -1.5381  2.3054
 2969SOL     OW20542   4.604   0.479   6.649 -0.0355 -0.9201 -0.1883
 2969SOL    HW120543   4.536   0.497   6.585  1.0924  0.3250 -1.0233
 2969SOL    HW220544   4.588   0.539   6.722 -1.5025 -1.5532  0.0130
 2970SOL     OW20545   2.058   0.462   5.758 -0.2218  0.0319 -0.0224
 2970SOL    HW120546   2.082   0.462   5.851  0.1780  2.4211 -0.1398
 2970SOL    HW220547   2.104   0.389   5.715  0.0356 -0.9176  1.8307
 2971SOL     OW20548   1.699   3.162   4.161 -0.3480 -0.3390  0.3841
 2971SOL    HW120549   1.687   3.084   4.107 -0.0976  0.6541 -1.0793
 2971SOL    HW220550   1.744   3.138   4.243  0.7338 -0.1096 -0.1439
 2972SOL     OW20551   0.770   1.255   1.856  0.1382  0.1829 -0.2713
 2972SOL    HW120552   0.729   1.186   1.908  2.4123  0.5945  2.0725
 2972SOL    HW220553   0.845   1.274   1.913  0.8808 -2.4490 -0.3695
 2973SOL     OW20554   4.111   3.289   3.228 -0.4722  0.4177 -0.1725
 2973SOL    HW120555   4.103   3.359   3.163  2.0598  1.8707  1.0607
 2973SOL    HW220556   4.071   3.218   3.179 -0.1718 -0.1756  0.4325
 2974SOL     OW20557   0.232   4.184   8.472 -0.3296 -0.3783 -0.0653
 2974SOL    HW120558   0.272   4.183   8.559 -0.0874  1.2657 -0.1634
 2974SOL    HW220559   0.144   4.219   8.489 -0.1410  0.2676 -0.4324
 2975SOL     OW20560   1.021   3.071   7.345 -0.2043 -0.1023  0.2598
 2975SOL    HW120561   0.996   3.052   7.435  1.3613 -0.5237  0.5982
 2975SOL    HW220562   1.032   3.166   7.347 -1.1171  0.0586 -3.2602
 2976SOL     OW20563   2.973   3.565  15.419 -0.6408  0.0746  0.1952
 2976SOL    HW120564   2.918   3.620  15.362  1.5225 -2.0162 -3.8800
 2976SOL    HW220565   2.953   3.477  15.388  1.5822 -0.7696  1.1799
 2977SOL     OW20566   2.272   3.756   6.118  0.5963 -0.5423 -0.1315
 2977SOL    HW120567   2.217   3.821   6.073  1.0980  0.6796  1.0208
 2977SOL    HW220568   2.273   3.688   6.051 -3.3435  0.3148 -1.0642
 2978SOL     OW20569   1.053   0.727   3.196  0.1477  0.1370 -0.3763
 2978SOL    HW120570   1.123   0.703   3.256  0.9980 -2.3490 -2.3680
 2978SOL    HW220571   1.072   0.818   3.173  1.7554  0.2932  1.5336
 2979SOL     OW20572   0.690   2.554   4.521 -0.3290  0.5269 -0.4730
 2979SOL    HW120573   0.620   2.512   4.473 -0.6849  1.4055 -0.7227
 2979SOL    HW220574   0.770   2.535   4.472 -0.7425 -2.0528 -0.1359
 2980SOL     OW20575   1.592   1.505   1.071  0.5334  0.2362  0.0073
 2980SOL    HW120576   1.542   1.448   1.129 -0.3387  0.2736 -0.7112
 2980SOL    HW220577   1.674   1.524   1.117  0.9188 -1.1331 -0.1273
 2981SOL     OW20578   4.601   0.946   3.172  0.2827 -0.4732 -0.2102
 2981SOL    HW120579   4.581   0.975   3.083  0.0107  2.4664  0.8294
 2981SOL    HW220580   4.534   0.878   3.179 -1.6760  1.4044 -0.7084
 2982SOL     OW20581   3.277   3.371   9.438  0.0007  0.6458  0.1936
 2982SOL    HW120582   3.361   3.416   9.426  0.9567 -1.4690 -1.0592
 2982SOL    HW220583   3.243   3.367   9.349  1.9123 -2.8264 -0.4002
 2983SOL     OW20584   4.202   2.435  17.465  0.0295 -0.1354 -0.3752
 2983SOL    HW120585   4.124   2.421  17.410 -1.0911  1.7051  0.7594
 2983SOL    HW220586   4.231   2.516  17.424  1.0539  0.1563  0.9330
 2984SOL     OW20587   2.299   2.528  16.316  0.2528 -0.0915 -0.3563
 2984SOL    HW120588   2.278   2.572  16.399 -3.0595  0.5811 -1.5626
 2984SOL    HW220589   2.320   2.602  16.259  0.6373 -0.3845 -0.5936
 2985SOL     OW20590   0.796   1.266   4.933  0.6406 -0.2439  0.1750
 2985SOL    HW120591   0.755   1.180   4.936 -2.2237  1.1809  1.8191
 2985SOL    HW220592   0.887   1.240   4.919  0.1769 -1.9224  0.3358
 2986SOL     OW20593   3.183   0.004  17.587  0.3151  0.0974 -0.0331
 2986SOL    HW120594   3.163   4.644  17.580  0.2893  0.0864  0.2005
 2986SOL    HW220595   3.099   0.044  17.611 -1.0111 -1.6770 -1.7343
 2987SOL     OW20596   0.759   0.216   7.376 -0.1025 -0.3473 -0.1798
 2987SOL    HW120597   0.694   0.283   7.354  0.0059  0.5313  2.1397
 2987SOL    HW220598   0.802   0.202   7.291  1.4513 -1.2830  0.7589
 2988SOL     OW20599   3.094   2.957   0.611  0.1265 -0.1158  1.1792
 2988SOL    HW120600   3.010   3.001   0.627  1.2669  1.9280  1.5021
 2988SOL    HW220601   3.117   2.969   0.703  1.8072  1.0721  0.5875
 2989SOL     OW20602   4.625   3.685   0.186 -0.4111  0.1119 -0.3091
 2989SOL    HW120603   4.539   3.646   0.179 -0.3407 -0.2940  1.1724
 2989SOL    HW220604   4.605   3.765   0.235  0.4271  1.4199 -2.0892
 2990SOL     OW20605   2.082   3.207   4.330 -0.5445 -0.4386  0.0168
 2990SOL    HW120606   2.033   3.204   4.412  0.0249 -1.3059  0.3184
 2990SOL    HW220607   2.088   3.301   4.316 -0.3168 -0.7405 -1.9903
 2991SOL     OW20608   1.436   1.092   3.093 -0.3404  0.2030  0.4058
 2991SOL    HW120609   1.351   1.063   3.124 -1.5817  1.4631 -1.8373
 2991SOL    HW220610   1.481   1.010   3.071 -2.3000 -0.8467  0.3595
 2992SOL     OW20611   2.871   4.324   8.292  0.0753 -0.1260 -0.3934
 2992SOL    HW120612   2.903   4.359   8.375 -0.6774  0.8116 -0.5126
 2992SOL    HW220613   2.947   4.341   8.236  0.4453 -0.3692  0.0284
 2993SOL     OW20614   1.885   0.215  16.765  0.1204 -0.0194  0.1950
 2993SOL    HW120615   1.854   0.303  16.742  1.4463 -0.2818 -2.6124
 2993SOL    HW220616   1.977   0.239  16.774  0.5327 -1.1952 -1.0112
 2994SOL     OW20617   3.578   3.950  15.327 -0.2694  0.2503 -0.2912
 2994SOL    HW120618   3.641   3.988  15.265  1.1668 -0.0724  1.0004
 2994SOL    HW220619   3.619   3.999  15.398  0.3695  1.0683 -1.2066
 2995SOL     OW20620   1.246   1.771   7.394  0.4943  0.6116 -0.5733
 2995SOL    HW120621   1.311   1.744   7.329  0.9700 -1.0061  0.5837
 2995SOL    HW220622   1.170   1.797   7.342 -0.1124  0.2407  0.1314
 2996SOL     OW20623   1.609   3.695   4.986  0.1393  0.0968  0.0499
 2996SOL    HW120624   1.574   3.780   4.960 -0.2711 -0.6162 -1.7554
 2996SOL    HW220625   1.687   3.691   4.931  0.7798  0.1754  0.9562
 2997SOL     OW20626   4.477   1.872   5.188  1.0691 -1.1560 -0.1920
 2997SOL    HW120627   4.503   1.793   5.235  2.9363  0.0676  0.8159
 2997SOL    HW220628   4.519   1.856   5.103 -1.8060 -2.5671 -1.3597
 2998SOL     OW20629   1.192   1.475   8.426 -0.2663  0.1493  0.1918
 2998SOL    HW120630   1.240   1.437   8.353 -1.9630 -0.8693 -0.4019
 2998SOL    HW220631   1.103   1.487   8.393 -0.8258 -3.2189  0.4568
 2999SOL     OW20632   2.403   3.248   2.569  0.1987 -0.4275  0.3991
 2999SOL    HW120633   2.377   3.339   2.560 -1.3911 -0.8133  0.9912
 2999SOL    HW220634   2.377   3.232   2.660  1.2076 -1.9153  0.4313
 3000SOL     OW20635   3.213   4.268   7.165 -0.0458 -0.4184  0.7169
 3000SOL    HW120636   3.144   4.269   7.231 -0.2261  1.2394  0.4910
 3000SOL    HW220637   3.171   4.240   7.083  0.6459 -0.1087  0.2564
 3001SOL     OW20638   3.904   2.261   6.280 -0.2853 -0.1997  0.3358
 3001SOL    HW120639   3.956   2.196   6.233 -0.9473  0.1913 -0.9374
 3001SOL    HW220640   3.844   2.285   6.209 -0.2246 -1.2035 -0.0456
 3002SOL     OW20641   3.349   2.938  17.091 -0.5489  0.7212  0.1983
 3002SOL    HW120642   3.348   2.957  17.184  2.5769 -0.5223  0.4787
 3002SOL    HW220643   3.407   3.005  17.054 -2.1082  1.6091 -0.6933
 3003SOL     OW20644   3.636   4.597   4.325  0.3912  0.1262 -0.9660
 3003SOL    HW120645   3.696   4.589   4.251  1.7708 -0.5489  0.2298
 3003SOL    HW220646   3.600   4.682   4.298  0.6895 -0.0263 -1.8423
 3004SOL     OW20647   0.704   1.476   1.703 -0.3546 -0.7188 -0.0562
 3004SOL    HW120648   0.722   1.541   1.770  2.8742 -1.6699  0.0042
 3004SOL    HW220649   0.746   1.400   1.743  0.4000 -0.9300 -1.2723
 3005SOL     OW20650   2.431   4.454   2.592 -0.2021 -0.4887 -0.2242
 3005SOL    HW120651   2.443   4.549   2.597 -0.6019 -0.4277 -0.4140
 3005SOL    HW220652   2.353   4.444   2.537  1.0171  0.3986 -2.1304
 3006SOL     OW20653   1.945   1.162   2.906  0.3508  0.5787  0.4194
 3006SOL    HW120654   2.001   1.216   2.851 -1.6911  0.2447 -1.9646
 3006SOL    HW220655   1.999   1.082   2.903  1.6026  1.3934  1.2689
 3007SOL     OW20656   2.656   0.688   3.272  0.0423 -0.1349 -0.1268
 3007SOL    HW120657   2.619   0.615   3.222 -1.8176  0.3206  0.5509
 3007SOL    HW220658   2.750   0.672   3.279 -0.3785 -1.0559  3.3247
 3008SOL     OW20659   3.110   0.648   3.954  0.1831 -0.2012  0.3444
 3008SOL    HW120660   3.035   0.690   3.912 -0.7731 -1.6406  0.6080
 3008SOL    HW220661   3.111   0.704   4.032 -0.6242 -0.0392  0.2413
 3009SOL     OW20662   3.718   1.175   5.477 -0.2048 -0.1514  0.3151
 3009SOL    HW120663   3.673   1.249   5.519 -1.4466  0.0258 -1.2940
 3009SOL    HW220664   3.686   1.184   5.387  0.5354 -0.2435  0.0442
 3010SOL     OW20665   3.809   4.110  17.324  0.8747 -0.5201 -0.4064
 3010SOL    HW120666   3.834   4.020  17.346  1.2783 -0.7140 -1.6269
 3010SOL    HW220667   3.779   4.135  17.411  0.6649  1.1154 -0.9535
 3011SOL     OW20668   0.070   1.648   2.004 -0.3239  0.2569 -0.3550
 3011SOL    HW120669   0.046   1.556   2.007 -1.4715  0.5571 -0.2448
 3011SOL    HW220670   0.163   1.653   2.026  0.0552 -2.8921 -1.2769
 3012SOL     OW20671   3.479   1.918   2.007 -0.1743  0.4728  0.2044
 3012SOL    HW120672   3.534   1.915   1.929 -0.5030 -0.0344 -0.0061
 3012SOL    HW220673   3.398   1.874   1.982  2.3251 -4.5503  0.9711
 3013SOL     OW20674   2.720   3.972   4.461  0.4035 -0.4222  0.3485
 3013SOL    HW120675   2.764   3.910   4.519  0.6176  0.7898  1.4678
 3013SOL    HW220676   2.753   4.059   4.484  1.0272 -0.6715  0.3949
 3014SOL     OW20677   1.656   1.557   5.435 -0.2425  0.5421 -0.6866
 3014SOL    HW120678   1.641   1.518   5.349 -1.9481 -2.2877  0.9158
 3014SOL    HW220679   1.644   1.484   5.495  0.8480  0.9792  0.0533
 3015SOL     OW20680   3.343   3.313   3.563 -0.0987 -0.7708 -0.3875
 3015SOL    HW120681   3.269   3.339   3.507 -1.0389  0.8803  1.6201
 3015SOL    HW220682   3.344   3.218   3.549 -1.3120 -0.7132 -0.9061
 3016SOL     OW20683   2.189   2.590   2.850  0.5104  0.1621 -0.0775
 3016SOL    HW120684   2.118   2.651   2.870  3.0292  2.6256  1.4325
 3016SOL    HW220685   2.190   2.524   2.919 -2.2352  0.3838  0.1618
 3017SOL     OW20686   0.908   0.406   2.510 -0.5142 -0.5816  1.6161
 3017SOL    HW120687   0.907   0.501   2.520 -0.0725 -0.5031  0.9226
 3017SOL    HW220688   0.953   0.386   2.592  2.3601 -0.3851  0.0697
 3018SOL     OW20689   4.607   4.307   2.991 -0.0433  0.1277 -0.0163
 3018SOL    HW120690   4.539   4.241   3.003 -0.8609  1.3495  2.0413
 3018SOL    HW220691   4.679   4.263   3.037  0.3194 -0.0954 -0.7832
 3019SOL     OW20692   2.641   3.797   6.287 -0.2146 -0.4412 -0.1257
 3019SOL    HW120693   2.636   3.805   6.382  0.6938 -1.2118 -0.0073
 3019SOL    HW220694   2.589   3.718   6.272 -1.3534 -0.0983  2.0551
 3020SOL     OW20695   4.364   2.118  14.023 -0.1933  0.1920  0.7792
 3020SOL    HW120696   4.295   2.058  13.996  0.3408 -0.6083  1.1773
 3020SOL    HW220697   4.315   2.181  14.076  1.2167  0.6979  1.4975
 3021SOL     OW20698   1.390   3.806   8.339  0.2086  0.2718 -0.0202
 3021SOL    HW120699   1.366   3.791   8.248  0.7006 -0.9940  0.0594
 3021SOL    HW220700   1.319   3.864   8.366  1.3591  1.8589 -0.3548
 3022SOL     OW20701   1.020   1.023   2.093 -0.0848  0.1968  0.1635
 3022SOL    HW120702   0.938   1.057   2.059 -0.9142 -2.1559 -0.1760
 3022SOL    HW220703   1.001   0.933   2.121 -1.1816  0.8382  1.4798
 3023SOL     OW20704   2.168   2.058   4.788 -0.5640 -0.4049  0.0392
 3023SOL    HW120705   2.217   2.042   4.707  0.4593  0.2325  0.5368
 3023SOL    HW220706   2.205   1.991   4.844 -1.5437  0.5471  1.8108
 3024SOL     OW20707   1.694   3.403  10.612 -0.4527 -0.3706  0.0513
 3024SOL    HW120708   1.647   3.371  10.689 -0.1800 -1.1928 -0.1280
 3024SOL    HW220709   1.784   3.422  10.637 -0.8399 -0.6761  1.6588
 3025SOL     OW20710   0.060   2.893   3.223  0.2490 -0.1104 -0.0542
 3025SOL    HW120711   4.726   2.903   3.290  0.9572 -0.5871  0.7197
 3025SOL    HW220712   0.062   2.798   3.212  0.0991 -0.1495  0.2482
 3026SOL     OW20713   3.425   2.349   0.981  0.4949  0.3666 -0.0679
 3026SOL    HW120714   3.503   2.303   1.012 -0.7261 -2.3610 -1.0131
 3026SOL    HW220715   3.347   2.299   1.006  1.2657 -1.0206 -0.4044
 3027SOL     OW20716   0.406   1.172   5.733  0.2339 -0.3500 -0.1292
 3027SOL    HW120717   0.368   1.095   5.690  0.2610 -1.7180  2.2926
 3027SOL    HW220718   0.359   1.253   5.711 -0.0690 -0.9278 -1.6005
 3028SOL     OW20719   3.470   1.823   0.584 -0.4592  0.2156  0.4846
 3028SOL    HW120720   3.452   1.741   0.539  1.6677 -0.4823  0.9230
 3028SOL    HW220721   3.517   1.873   0.517 -0.0574  0.4485  0.9381
 3029SOL     OW20722   0.810   2.028   0.705  0.2680 -0.4346 -0.0300
 3029SOL    HW120723   0.780   1.961   0.766  0.4253 -1.2437 -0.8293
 3029SOL    HW220724   0.900   2.004   0.684  1.0190  1.7577  0.6652
 3030SOL     OW20725   0.719   0.340  12.543 -0.0553  0.0598  0.1192
 3030SOL    HW120726   0.757   0.417  12.585  1.5753 -1.7456  1.9922
 3030SOL    HW220727   0.637   0.381  12.513 -0.2737 -3.0313 -3.4757
 3031SOL     OW20728   0.255   3.964   2.636  0.7727  0.1014  0.0168
 3031SOL    HW120729   0.199   3.894   2.604 -0.4739  0.1823  2.0231
 3031SOL    HW220730   0.199   3.990   2.709  0.7959  0.3074 -0.0365
 3032SOL     OW20731   1.948   2.693   5.340 -0.6706 -0.1556  0.4511
 3032SOL    HW120732   1.952   2.786   5.361 -0.8683  0.1493 -0.8501
 3032SOL    HW220733   1.907   2.699   5.254 -1.5932 -0.8588  0.8387
 3033SOL     OW20734   3.479   3.895  10.530  0.6290  0.2798 -0.2007
 3033SOL    HW120735   3.504   3.982  10.498  2.2079 -1.0859 -2.6091
 3033SOL    HW220736   3.388   3.913  10.552  0.1701  0.2140 -2.0940
 3034SOL     OW20737   3.167   1.224   0.759  0.3021 -0.3248 -0.3692
 3034SOL    HW120738   3.220   1.232   0.838  0.2613  2.3494 -0.6040
 3034SOL    HW220739   3.164   1.315   0.731  3.2760 -0.2839 -0.4959
 3035SOL     OW20740   4.123   1.575   4.645 -0.4372  0.0764  0.5697
 3035SOL    HW120741   4.139   1.628   4.723 -0.3829  1.3700 -0.3148
 3035SOL    HW220742   4.124   1.634   4.569  0.0489  0.1022  0.5977
 3036SOL     OW20743   4.482   2.646   1.167 -0.0882  0.1172 -0.0088
 3036SOL    HW120744   4.511   2.600   1.088 -0.3230 -0.3542  0.1762
 3036SOL    HW220745   4.470   2.571   1.226  0.7750  0.6762  0.8746
 3037SOL     OW20746   1.469   2.696   7.559 -0.4053 -1.2218  0.2088
 3037SOL    HW120747   1.471   2.601   7.552 -1.7205 -1.0678 -2.1626
 3037SOL    HW220748   1.415   2.712   7.481 -2.3669 -3.7338  1.0801
 3038SOL     OW20749   3.939   4.031   5.889 -0.1123 -0.2548 -0.3332
 3038SOL    HW120750   3.956   3.950   5.842  1.2825 -0.1075 -0.0865
 3038SOL    HW220751   3.916   4.094   5.820  2.2180 -0.6281 -1.4822
 3039SOL     OW20752   3.710   2.929  11.818 -0.3222 -0.0295 -0.7738
 3039SOL    HW120753   3.805   2.915  11.812 -0.0607  0.5333  1.7227
 3039SOL    HW220754   3.711   3.017  11.857  2.5007  0.3379 -1.6535
 3040SOL     OW20755   4.474   2.372   2.441 -0.0286  0.4736 -0.1331
 3040SOL    HW120756   4.453   2.328   2.524  1.7029 -0.3908 -0.1632
 3040SOL    HW220757   4.565   2.343   2.436 -0.9181 -2.3937  0.0406
 3041SOL     OW20758   2.259   0.470   8.782 -0.0728 -0.2446 -0.3013
 3041SOL    HW120759   2.256   0.389   8.833 -0.7976  0.3804  0.6610
 3041SOL    HW220760   2.244   0.530   8.855 -0.2662 -0.6067 -0.0440
 3042SOL     OW20761   4.152   2.224   0.746  0.2179  0.1658 -0.1346
 3042SOL    HW120762   4.095   2.176   0.806  1.3801  0.2323  1.0140
 3042SOL    HW220763   4.228   2.166   0.747  1.7994  2.2156 -1.1042
 3043SOL     OW20764   2.052   2.341  10.864 -0.3044  0.4526 -0.2914
 3043SOL    HW120765   2.020   2.251  10.870 -1.7329  0.9448 -0.5279
 3043SOL    HW220766   2.105   2.346  10.943  0.1704  0.3611 -0.6033
 3044SOL     OW20767   2.230   2.669  13.301  0.0160  0.4689  0.1725
 3044SOL    HW120768   2.185   2.674  13.217 -0.5853  1.2730  0.5437
 3044SOL    HW220769   2.311   2.719  13.292  0.1514  0.4081  1.0007
 3045SOL     OW20770   3.481   3.593   7.688 -0.6194  0.2084 -0.1923
 3045SOL    HW120771   3.392   3.616   7.662 -0.9319 -0.8947 -0.1214
 3045SOL    HW220772   3.534   3.656   7.638 -2.4047 -0.8533 -3.4736
 3046SOL     OW20773   0.460   4.441   1.484  0.3204  0.5097 -0.3541
 3046SOL    HW120774   0.395   4.499   1.445  0.4217  0.6611 -0.3010
 3046SOL    HW220775   0.520   4.430   1.410 -0.3108 -0.2408 -0.7438
 3047SOL     OW20776   2.566   1.719   1.639  0.2727  0.1786  0.1937
 3047SOL    HW120777   2.646   1.738   1.689  0.9044 -1.4011 -0.2344
 3047SOL    HW220778   2.592   1.773   1.565  2.0768 -1.4930 -0.3896
 3048SOL     OW20779   3.232   0.623   2.302 -0.0170 -0.0238 -0.0789
 3048SOL    HW120780   3.228   0.713   2.269 -1.4662  0.5807  1.7504
 3048SOL    HW220781   3.137   0.612   2.295  0.2128 -1.7188 -0.6648
 3049SOL     OW20782   2.203   0.506   2.123 -0.0024  0.1576 -0.1315
 3049SOL    HW120783   2.272   0.562   2.158 -0.2349  0.9845 -0.9886
 3049SOL    HW220784   2.125   0.550   2.159 -0.3610 -0.1220 -0.5633
 3050SOL     OW20785   0.401   0.559  13.131 -0.0757 -0.2162  0.4715
 3050SOL    HW120786   0.327   0.500  13.118 -0.2343  0.6012 -2.2102
 3050SOL    HW220787   0.405   0.618  13.056  1.8367  2.2646  2.4983
 3051SOL     OW20788   2.442   3.261   8.788  0.2658  0.3572 -0.0067
 3051SOL    HW120789   2.443   3.307   8.704 -1.1914 -0.5415 -0.5144
 3051SOL    HW220790   2.373   3.197   8.774 -1.8948  2.4919  1.0282
 3052SOL     OW20791   0.376   0.976  15.500 -0.4937 -0.3653 -0.2750
 3052SOL    HW120792   0.292   0.944  15.534 -1.2712  0.4760 -1.3840
 3052SOL    HW220793   0.349   0.993  15.409  2.1796 -0.6373 -1.1102
 3053SOL     OW20794   4.504   4.723   7.437 -0.7148 -0.1657  0.9396
 3053SOL    HW120795   4.545   4.643   7.406 -2.1265 -0.7605  0.6420
 3053SOL    HW220796   4.527   4.726   7.530  0.4817  1.2972  0.6093
 3054SOL     OW20797   2.504   2.400   8.211 -0.3583 -0.2421  0.1858
 3054SOL    HW120798   2.425   2.453   8.217 -0.3037 -0.1385  0.0077
 3054SOL    HW220799   2.461   2.318   8.185 -1.6181  0.2056  0.8692
 3055SOL     OW20800   2.470   1.696   3.730  0.3061 -0.4866  0.0582
 3055SOL    HW120801   2.538   1.740   3.780 -1.5711 -0.6455  2.7346
 3055SOL    HW220802   2.503   1.702   3.640 -3.3768 -0.2892 -1.2904
 3056SOL     OW20803   0.882   0.361   8.079  0.4613  0.0108 -0.0633
 3056SOL    HW120804   0.965   0.410   8.082  0.7352 -0.3589 -1.3598
 3056SOL    HW220805   0.887   0.316   7.995 -1.2922  0.5693 -0.4642
 3057SOL     OW20806   2.585   2.969   7.208 -0.9753 -0.3099  0.6107
 3057SOL    HW120807   2.610   2.934   7.122  1.7529 -2.8463  2.4410
 3057SOL    HW220808   2.621   3.057   7.211 -2.6383  0.2908  2.6610
 3058SOL     OW20809   4.386   2.868   5.419 -0.3498 -0.2717 -0.0640
 3058SOL    HW120810   4.322   2.857   5.490 -0.7157  1.9535 -0.0422
 3058SOL    HW220811   4.337   2.827   5.348 -1.1289  2.1517 -0.9308
 3059SOL     OW20812   1.730   0.974   7.094 -0.0258 -0.4865 -0.2275
 3059SOL    HW120813   1.737   0.958   7.000 -1.3106  0.2477 -0.4423
 3059SOL    HW220814   1.811   1.022   7.111 -0.0373 -0.3467 -0.5687
 3060SOL     OW20815   1.840   2.476   3.869  0.1813  0.1804  0.3550
 3060SOL    HW120816   1.884   2.522   3.797 -0.5804  1.3288  0.6396
 3060SOL    HW220817   1.922   2.452   3.912  0.7618  0.3308 -0.6574
 3061SOL     OW20818   1.905   4.214   0.650 -0.2695 -0.2945  0.1869
 3061SOL    HW120819   1.871   4.303   0.656 -1.1458 -0.5880 -0.4137
 3061SOL    HW220820   1.986   4.217   0.702  0.8449  1.0292 -1.6097
 3062SOL     OW20821   4.503   3.105   4.141 -0.3654 -0.2997 -0.1477
 3062SOL    HW120822   4.535   3.026   4.185 -1.8325 -1.6407 -1.4646
 3062SOL    HW220823   4.549   3.094   4.058 -0.2905  1.4897 -0.3377
 3063SOL     OW20824   0.443   1.812   3.751  0.3679  0.3296 -0.3123
 3063SOL    HW120825   0.375   1.878   3.735  0.3275  0.0599 -1.2386
 3063SOL    HW220826   0.394   1.735   3.780  0.3794 -0.1781 -1.6776
 3064SOL     OW20827   2.961   2.685   2.326  0.0253  0.1262  0.4247
 3064SOL    HW120828   2.932   2.762   2.277  0.6302 -0.6882 -1.2148
 3064SOL    HW220829   3.025   2.642   2.269  0.3892  1.0287  0.1430
 3065SOL     OW20830   1.684   0.206   3.232  0.4014  0.1958 -0.1417
 3065SOL    HW120831   1.717   0.131   3.282  1.7145  0.9888  0.1951
 3065SOL    HW220832   1.730   0.208   3.148  0.5441  1.0653 -0.0436
 3066SOL     OW20833   4.089   1.874   4.631 -0.4010  0.0085  0.0688
 3066SOL    HW120834   4.123   1.820   4.703  2.3241  0.9072 -0.5571
 3066SOL    HW220835   4.034   1.943   4.669 -0.4346 -0.7664  1.4328
 3067SOL     OW20836   4.049   0.780  10.408  0.8491 -0.2143 -0.0804
 3067SOL    HW120837   4.121   0.765  10.470 -2.1196  0.4488  3.5596
 3067SOL    HW220838   4.070   0.710  10.346 -1.6511 -2.1754  1.3115
 3068SOL     OW20839   0.320   0.353   4.438 -0.3480  0.1438 -0.0174
 3068SOL    HW120840   0.353   0.440   4.413  1.0097 -0.4858 -0.4319
 3068SOL    HW220841   0.259   0.324   4.370 -1.8414  2.7741  0.1833
 3069SOL     OW20842   4.617   3.503   5.954 -0.1687 -0.6901  0.0609
 3069SOL    HW120843   4.613   3.537   5.864  2.5702 -0.1238  0.1730
 3069SOL    HW220844   4.701   3.458   5.952  1.3477  2.1929 -1.2332
 3070SOL     OW20845   0.044   0.156   1.020 -0.1694 -0.1656 -0.3875
 3070SOL    HW120846   0.107   0.102   0.973  0.2206 -0.2943  0.2838
 3070SOL    HW220847   4.710   0.089   1.022  0.5212 -0.7801  1.6799
 3071SOL     OW20848   2.215   4.284   8.663 -0.2375 -0.7480  0.7010
 3071SOL    HW120849   2.268   4.206   8.676 -0.2928 -1.4795 -3.4720
 3071SOL    HW220850   2.261   4.328   8.591  0.0477 -3.8043 -0.9947
 3072SOL     OW20851   4.664   3.872   8.522 -0.1267 -0.1018  0.0302
 3072SOL    HW120852   4.702   3.784   8.523  0.7252  0.2182 -2.8418
 3072SOL    HW220853   4.584   3.845   8.568  0.2324 -0.6941  0.3047
 3073SOL     OW20854   2.843   1.051  16.343  0.4309  0.2776  0.4679
 3073SOL    HW120855   2.748   1.060  16.354  0.4515  1.5690 -0.4492
 3073SOL    HW220856   2.864   1.085  16.257 -0.2981  0.6309  0.4314
 3074SOL     OW20857   2.298   3.251   9.150  0.1100 -0.3658  0.1866
 3074SOL    HW120858   2.290   3.306   9.228 -0.3438 -0.4868  0.2213
 3074SOL    HW220859   2.360   3.308   9.104 -0.8134  0.7465  0.3148
 3075SOL     OW20860   2.752   3.815   4.927  0.4104  0.2700 -0.9606
 3075SOL    HW120861   2.812   3.873   4.973 -0.3063  1.0175 -0.9627
 3075SOL    HW220862   2.728   3.748   4.991  0.1340 -0.3361 -1.6953
 3076SOL     OW20863   2.680   2.559   4.502 -0.3562 -0.3806 -0.3066
 3076SOL    HW120864   2.597   2.588   4.538  0.6499  0.9962  0.8863
 3076SOL    HW220865   2.666   2.469   4.472  0.6288 -0.4456 -0.5847
 3077SOL     OW20866   3.009   2.161   3.723 -0.2416 -0.0744  0.4523
 3077SOL    HW120867   2.929   2.110   3.734 -0.1796 -0.0768  0.8712
 3077SOL    HW220868   3.062   2.095   3.677 -0.8315 -1.6865  2.1171
 3078SOL     OW20869   2.268   2.465   2.252  0.1660  0.3554 -0.4035
 3078SOL    HW120870   2.269   2.554   2.285 -3.5922  0.1025  0.3985
 3078SOL    HW220871   2.361   2.443   2.264 -0.3265 -0.7021  1.4415
 3079SOL     OW20872   3.563   3.720   3.517 -0.3065 -0.4999  0.4365
 3079SOL    HW120873   3.553   3.627   3.539  1.6286 -1.3121 -2.0062
 3079SOL    HW220874   3.551   3.700   3.424 -0.2480  1.4793  0.0209
 3080SOL     OW20875   1.273   1.380   1.488  0.3028  0.2998  0.5615
 3080SOL    HW120876   1.282   1.423   1.573  0.4199 -1.7084  1.5680
 3080SOL    HW220877   1.185   1.342   1.487  0.9263 -1.1505  1.3391
 3081SOL     OW20878   2.601   3.106   2.435  0.8750 -0.1684  0.1262
 3081SOL    HW120879   2.644   3.030   2.474 -0.4336 -1.1804 -0.4053
 3081SOL    HW220880   2.510   3.111   2.463  0.4339  0.2629 -1.3719
 3082SOL     OW20881   1.756   2.536   2.424  0.2171  0.1295 -0.4814
 3082SOL    HW120882   1.685   2.573   2.373  0.7816 -1.1684 -2.2104
 3082SOL    HW220883   1.831   2.563   2.371 -0.5708  2.7531 -0.2677
 3083SOL     OW20884   3.249   1.257   6.506  0.0898 -0.3225  0.1500
 3083SOL    HW120885   3.294   1.341   6.513 -0.4815 -0.0091  0.0672
 3083SOL    HW220886   3.168   1.294   6.470 -0.7730 -1.6621  0.7429
 3084SOL     OW20887   1.224   0.229   7.783  0.4283 -0.4871 -0.5838
 3084SOL    HW120888   1.142   0.276   7.796  1.3420  0.3480  2.1944
 3084SOL    HW220889   1.198   0.142   7.753 -2.2165 -0.1463  0.7366
 3085SOL     OW20890   4.240   3.278  15.550  0.1800  0.2226 -0.1612
 3085SOL    HW120891   4.223   3.372  15.544  0.8354  0.3340 -0.3115
 3085SOL    HW220892   4.310   3.270  15.484  0.4239  2.4017 -0.1743
 3086SOL     OW20893   0.637   1.722   4.550  0.2440 -0.2422 -0.1407
 3086SOL    HW120894   0.587   1.689   4.625  1.7182  0.2216  1.0507
 3086SOL    HW220895   0.573   1.771   4.499  1.1034 -0.6082 -1.5933
 3087SOL     OW20896   1.515   2.245  17.377  0.7236  0.2593  0.1241
 3087SOL    HW120897   1.553   2.183  17.439  0.1791 -0.9233 -0.7394
 3087SOL    HW220898   1.521   2.330  17.422  1.3088  1.7407 -2.7556
 3088SOL     OW20899   1.160   1.881  16.555  0.7510 -0.2218  0.5285
 3088SOL    HW120900   1.251   1.870  16.527  0.3006  0.3015 -1.1101
 3088SOL    HW220901   1.136   1.964  16.514  0.3629  0.2511  1.7113
 3089SOL     OW20902   0.672   0.732   3.128  0.5133  0.4839 -0.0234
 3089SOL    HW120903   0.595   0.730   3.184  1.0957 -1.4704  0.7186
 3089SOL    HW220904   0.712   0.647   3.148  0.1601  0.0737 -1.0528
 3090SOL     OW20905   3.588   2.114  17.680  0.2094 -0.1494  0.1500
 3090SOL    HW120906   3.542   2.198  17.670  2.9312  1.4038  0.5774
 3090SOL    HW220907   3.663   2.120  17.620 -0.8922 -3.8395 -1.5951
 3091SOL     OW20908   0.035   4.095   4.580 -0.2287  0.1688  0.3564
 3091SOL    HW120909   0.065   4.185   4.563 -1.3982  0.6099  0.6381
 3091SOL    HW220910   0.114   4.045   4.560  1.2534  1.6739  2.5196
 3092SOL     OW20911   3.904   3.769   6.072  0.2014  0.1408  0.2322
 3092SOL    HW120912   3.846   3.725   6.134  0.4542 -0.3339  0.1299
 3092SOL    HW220913   3.986   3.725   6.093 -0.3447  0.4793  3.0651
 3093SOL     OW20914   2.899   4.203   7.692  0.1284 -0.0365 -0.5653
 3093SOL    HW120915   2.840   4.175   7.762  0.3890  3.5536  1.0519
 3093SOL    HW220916   2.845   4.271   7.655 -0.5947  0.0557  0.6523
 3094SOL     OW20917   1.270   4.672   8.244 -0.7615 -0.1024 -0.0603
 3094SOL    HW120918   1.338   4.695   8.307  0.2204  0.1827 -1.2326
 3094SOL    HW220919   1.258   0.023   8.202  0.3651 -0.5076 -1.1816
 3095SOL     OW20920   3.446   2.249   3.755  0.0419  0.0842 -0.9114
 3095SOL    HW120921   3.470   2.206   3.673  0.3096 -0.8961 -0.3209
 3095SOL    HW220922   3.489   2.181   3.807 -2.2894 -0.0588  0.8248
 3096SOL     OW20923   1.573   3.309   5.311 -0.1434 -0.4149  0.2213
 3096SOL    HW120924   1.484   3.344   5.319  0.0323 -0.0142  0.4577
 3096SOL    HW220925   1.548   3.226   5.272 -1.6112 -0.3203  0.9493
 3097SOL     OW20926   3.867   2.885   8.594  0.5861 -0.3243 -0.5999
 3097SOL    HW120927   3.836   2.805   8.637 -0.6108 -0.5374 -1.8706
 3097SOL    HW220928   3.896   2.936   8.670  4.0961 -2.1808 -0.7313
 3098SOL     OW20929   4.565   1.066  10.225 -0.4385  0.1881 -0.3261
 3098SOL    HW120930   4.523   1.010  10.160  0.6356  1.3866 -2.0724
 3098SOL    HW220931   4.487   1.073  10.280 -1.0038  1.3282 -1.2677
 3099SOL     OW20932   0.348   3.268   0.137  0.4725 -0.8910  0.3041
 3099SOL    HW120933   0.355   3.313   0.053  0.7595 -1.0970  0.2197
 3099SOL    HW220934   0.370   3.344   0.191 -2.0103  0.6879 -0.9037
 3100SOL     OW20935   4.482   4.274   8.449  0.1969  0.7030  0.0712
 3100SOL    HW120936   4.466   4.324   8.530  1.1225  0.0583  0.6491
 3100SOL    HW220937   4.398   4.278   8.404  2.3456  1.9022 -3.8118
 3101SOL     OW20938   0.613   2.659   2.652 -0.0032  0.2760  0.0139
 3101SOL    HW120939   0.654   2.737   2.690  2.7522 -1.2321  0.1328
 3101SOL    HW220940   0.686   2.597   2.654  0.0785  0.4051  1.6790
 3102SOL     OW20941   4.671   3.304   1.885 -0.2117  0.1972  0.4854
 3102SOL    HW120942   4.635   3.266   1.805  0.9301 -1.1108  0.5921
 3102SOL    HW220943   4.656   3.398   1.869 -0.6837 -0.1442 -1.1546
 3103SOL     OW20944   1.932   3.773   5.601 -0.6372  0.1006  0.3614
 3103SOL    HW120945   2.013   3.747   5.556  0.1707  0.6914  1.4940
 3103SOL    HW220946   1.881   3.692   5.607  1.8619 -1.5709 -0.7243
 3104SOL     OW20947   1.052   3.574   1.809  0.1267 -0.1157 -0.1390
 3104SOL    HW120948   1.141   3.609   1.812 -0.9177  2.3797  1.2197
 3104SOL    HW220949   1.006   3.638   1.864  0.1876 -1.2562  1.2506
 3105SOL     OW20950   4.025   1.547   6.697 -0.0818 -0.6310  0.1568
 3105SOL    HW120951   4.035   1.458   6.662  0.4821 -0.3568 -0.3796
 3105SOL    HW220952   4.110   1.580   6.666 -1.0057  2.2459  0.7078
 3106SOL     OW20953   2.551   1.333  11.246 -0.0781  0.2452 -0.3231
 3106SOL    HW120954   2.582   1.348  11.335 -0.0827 -2.4788  0.1437
 3106SOL    HW220955   2.632   1.330  11.196  0.3560  0.1078  0.3818
 3107SOL     OW20956   0.418   3.272   6.453 -0.5085 -0.4301  0.0950
 3107SOL    HW120957   0.376   3.352   6.485  0.8387  0.1230  0.4616
 3107SOL    HW220958   0.431   3.287   6.359  2.5789 -1.0747  0.4221
 3108SOL     OW20959   3.557   2.703  11.872  0.4251  0.2039 -0.3761
 3108SOL    HW120960   3.477   2.755  11.878 -1.3585 -2.6675  0.5312
 3108SOL    HW220961   3.626   2.764  11.845 -1.2251  3.1524  2.0375
 3109SOL     OW20962   3.188   3.388   9.183  0.1290  0.0947 -0.4238
 3109SOL    HW120963   3.264   3.410   9.130 -0.4160  1.2744 -0.7261
 3109SOL    HW220964   3.146   3.334   9.116 -0.8862 -1.9719  1.8679
 3110SOL     OW20965   0.420   3.221  11.386  0.0428 -0.1103 -0.4990
 3110SOL    HW120966   0.470   3.152  11.343  0.6199  0.2808 -0.4595
 3110SOL    HW220967   0.343   3.167  11.407  0.1487 -1.6418 -4.0815
 3111SOL     OW20968   4.416   1.755   9.601  0.0939  0.1850 -0.0645
 3111SOL    HW120969   4.377   1.777   9.686 -0.3722 -1.3478  0.1100
 3111SOL    HW220970   4.337   1.724   9.557  1.1692 -0.8121 -1.2818
 3112SOL     OW20971   0.095   4.431   2.624  0.3952  0.1717  0.6451
 3112SOL    HW120972   0.013   4.438   2.576  0.7964 -0.1223 -0.0948
 3112SOL    HW220973   0.090   4.340   2.655  0.9639 -0.4682 -1.1100
 3113SOL     OW20974   2.005   0.262   6.897 -0.0578 -0.3151  0.1253
 3113SOL    HW120975   1.959   0.289   6.817  1.1198 -0.9426 -0.7582
 3113SOL    HW220976   1.944   0.288   6.967  0.9772  1.9355  0.2042
 3114SOL     OW20977   2.357   0.902  13.239 -0.1828 -0.4293 -0.6997
 3114SOL    HW120978   2.408   0.890  13.319  0.3574 -2.1654 -1.3020
 3114SOL    HW220979   2.277   0.868  13.279  0.3899 -1.4215 -0.4093
 3115SOL     OW20980   3.822   4.693   4.546 -0.5288  0.5133 -0.3317
 3115SOL    HW120981   3.745   0.012   4.566 -0.0082  2.2029 -2.7868
 3115SOL    HW220982   3.781   4.659   4.467  1.6891 -1.0891 -0.8014
 3116SOL     OW20983   4.439   3.131   6.339  0.1549  0.1358  0.0798
 3116SOL    HW120984   4.527   3.147   6.373  1.1124  0.1021 -2.3337
 3116SOL    HW220985   4.394   3.080   6.405 -1.5531  0.5564 -0.7619
 3117SOL     OW20986   0.356   0.602   4.088  0.2709  0.5817 -0.5272
 3117SOL    HW120987   0.266   0.577   4.110  1.3534 -1.7061  1.3469
 3117SOL    HW220988   0.386   0.635   4.173 -0.0783  2.2193 -1.0445
 3118SOL     OW20989   1.850   1.308   9.142 -0.0623  0.1801 -0.0838
 3118SOL    HW120990   1.834   1.302   9.236 -0.5257 -0.3323 -0.1952
 3118SOL    HW220991   1.770   1.346   9.107  0.4583 -1.2313 -2.8454
 3119SOL     OW20992   2.302   0.920   3.181  0.2655  0.0014  0.0927
 3119SOL    HW120993   2.214   0.956   3.185 -0.0444 -0.1706 -4.4213
 3119SOL    HW220994   2.278   0.835   3.218  0.6849 -1.0645 -2.0673
 3120SOL     OW20995   4.103   3.324   1.447  0.0763  0.3239  0.0559
 3120SOL    HW120996   4.093   3.256   1.514 -1.6320  0.1938 -0.3309
 3120SOL    HW220997   4.107   3.409   1.491 -1.2649 -0.0360  0.8552
 3121SOL     OW20998   4.084   2.951   5.118  0.4981  0.0780  0.0985
 3121SOL    HW120999   4.175   2.934   5.094  0.3711 -0.0547 -0.2872
 3121SOL    HW221000   4.068   3.011   5.046 -0.2753  0.9165  0.9617
 3122SOL     OW21001   4.415   2.382   5.954  0.5718 -0.3899  0.1971
 3122SOL    HW121002   4.390   2.428   6.034  1.1011  2.3193 -1.2058
 3122SOL    HW221003   4.496   2.430   5.937  0.5917 -1.2223 -2.0589
 3123SOL     OW21004   3.329   3.710  10.937  0.2587  0.3857 -0.3072
 3123SOL    HW121005   3.309   3.671  11.021  3.7052  1.7195  1.1304
 3123SOL    HW221006   3.352   3.798  10.966  0.6606 -0.1168  0.8740
 3124SOL     OW21007   2.571   3.892  13.383 -0.2861  0.4904 -0.1237
 3124SOL    HW121008   2.603   3.808  13.414 -0.3635 -0.1014 -1.6671
 3124SOL    HW221009   2.533   3.875  13.297  0.0668 -1.3772  0.1018
 3125SOL     OW21010   2.424   3.058   6.573 -0.5674 -0.3576 -0.1037
 3125SOL    HW121011   2.388   3.115   6.640  0.5717 -1.6941  1.6199
 3125SOL    HW221012   2.364   3.070   6.499 -0.7756  0.8756  0.2691
 3126SOL     OW21013   1.707   3.542   2.785  0.6912 -0.4230  0.2657
 3126SOL    HW121014   1.734   3.634   2.778  2.4631 -1.0347 -0.9665
 3126SOL    HW221015   1.681   3.511   2.698 -2.1197  2.0596  0.2246
 3127SOL     OW21016   3.335   3.626   2.696 -0.0700 -0.5377 -0.0309
 3127SOL    HW121017   3.388   3.703   2.716 -0.0568 -0.1252 -1.6410
 3127SOL    HW221018   3.312   3.605   2.787  0.2544  1.9842  0.6407
 3128SOL     OW21019   3.371   3.370   1.532 -0.3697  0.2392 -0.1119
 3128SOL    HW121020   3.328   3.329   1.606  0.2115 -1.2549 -0.6092
 3128SOL    HW221021   3.396   3.290   1.486  0.5479  0.9329 -0.8427
 3129SOL     OW21022   1.195   0.946   7.320 -0.6048 -0.1043  0.1832
 3129SOL    HW121023   1.107   0.959   7.285  0.3235  1.4192 -1.5437
 3129SOL    HW221024   1.256   0.964   7.248  1.0822  0.4294  1.7467
 3130SOL     OW21025   0.431   1.293   1.299 -0.6934  0.4194 -0.4598
 3130SOL    HW121026   0.418   1.198   1.293 -1.0529  0.5285 -1.4042
 3130SOL    HW221027   0.503   1.303   1.236  1.8674  1.2342  2.6096
 3131SOL     OW21028   2.621   3.301   1.687 -0.0695 -0.0204 -0.0020
 3131SOL    HW121029   2.545   3.274   1.635 -0.4176 -0.5193  0.7687
 3131SOL    HW221030   2.663   3.359   1.624 -0.9156 -0.1051 -0.6373
 3132SOL     OW21031   4.360   3.590  16.554  0.3280  0.0152  0.7087
 3132SOL    HW121032   4.409   3.510  16.536  0.7842  0.7734 -1.4040
 3132SOL    HW221033   4.409   3.649  16.497 -0.6152  1.0028  0.9279
 3133SOL     OW21034   4.673   4.722   2.637 -0.1174 -0.4559  0.1340
 3133SOL    HW121035   0.015   4.697   2.689  0.6598 -0.8373 -1.1998
 3133SOL    HW221036   4.667   4.658   2.566 -1.1543 -1.5246  1.1825
 3134SOL     OW21037   1.683   3.005  13.521 -0.3856 -0.3281  0.1089
 3134SOL    HW121038   1.716   3.021  13.610 -2.0267  2.2177  0.2516
 3134SOL    HW221039   1.609   2.951  13.548  1.0970 -1.7269  1.3708
 3135SOL     OW21040   3.351   1.485   3.349  0.1431  0.7146  0.1515
 3135SOL    HW121041   3.316   1.491   3.438 -0.3310  1.9841 -0.1229
 3135SOL    HW221042   3.429   1.433   3.369 -0.2247  0.0187 -0.2651
 3136SOL     OW21043   1.020   2.987   9.345  0.4150 -0.1736 -0.1999
 3136SOL    HW121044   0.973   2.906   9.368 -0.5514  0.3868 -0.1700
 3136SOL    HW221045   0.961   3.031   9.284 -1.6794  0.9172  2.6069
 3137SOL     OW21046   1.288   1.717   0.475 -0.6522 -0.3150  0.7087
 3137SOL    HW121047   1.272   1.794   0.420  0.7099  0.1102  0.8938
 3137SOL    HW221048   1.290   1.758   0.561  0.4128  1.6508 -0.2474
 3138SOL     OW21049   4.393   1.589   4.880  0.0860 -0.1351  0.5931
 3138SOL    HW121050   4.356   1.584   4.968  1.1863 -2.0983  0.9475
 3138SOL    HW221051   4.325   1.649   4.849  0.2011 -0.9742 -1.2644
 3139SOL     OW21052   2.111   0.123   0.515  0.1750  0.8416 -0.1510
 3139SOL    HW121053   2.109   0.027   0.509  0.9051  0.7533  0.9016
 3139SOL    HW221054   2.120   0.149   0.424 -0.1225  0.0620 -0.4079
 3140SOL     OW21055   2.295   3.714   3.789  0.1430 -0.2937 -0.4653
 3140SOL    HW121056   2.215   3.662   3.781 -1.1853  1.8681 -1.1495
 3140SOL    HW221057   2.324   3.688   3.876  0.7978  1.6965 -0.0959
 3141SOL     OW21058   4.639   1.617   4.246  0.2674 -0.4918 -0.2098
 3141SOL    HW121059   4.564   1.616   4.306  0.7168 -0.5208  0.3520
 3141SOL    HW221060   4.631   1.531   4.206  1.9380 -1.2344  1.0551
 3142SOL     OW21061   1.186   1.886   7.914  0.0386 -0.0471 -0.1268
 3142SOL    HW121062   1.243   1.879   7.838 -0.8123  0.7755 -0.8464
 3142SOL    HW221063   1.123   1.816   7.901 -0.9033  0.6713  0.5509
 3143SOL     OW21064   2.975   3.933   4.985  0.0421  0.2268  0.0003
 3143SOL    HW121065   3.028   3.927   5.065  2.4005  0.4297 -1.5350
 3143SOL    HW221066   2.977   4.028   4.972  1.3740 -0.2217 -3.0677
 3144SOL     OW21067   4.338   2.892   5.095  0.6214 -0.0008  0.3851
 3144SOL    HW121068   4.424   2.850   5.089 -0.0053 -1.2583  0.3545
 3144SOL    HW221069   4.287   2.832   5.148 -1.1631 -0.3127 -1.7044
 3145SOL     OW21070   3.247   0.929   5.507 -0.1703  0.5625 -0.0331
 3145SOL    HW121071   3.237   0.846   5.461 -1.2754  0.3772  0.5531
 3145SOL    HW221072   3.313   0.904   5.572 -0.4542  3.1145  1.2413
 3146SOL     OW21073   3.347   3.161   2.352 -0.1327  0.0071 -0.2135
 3146SOL    HW121074   3.366   3.221   2.424 -0.3279 -0.8256  0.5241
 3146SOL    HW221075   3.409   3.181   2.282  1.3292  1.2037  1.4096
 3147SOL     OW21076   2.509   0.525   6.543 -0.7920 -0.0867  0.4470
 3147SOL    HW121077   2.551   0.544   6.459  0.1850 -1.7309  0.5530
 3147SOL    HW221078   2.420   0.550   6.518 -0.7405 -2.2609 -1.9889
 3148SOL     OW21079   3.855   3.497   5.672  0.1155 -0.1984  0.7261
 3148SOL    HW121080   3.767   3.529   5.689 -0.2514 -0.7096 -0.2388
 3148SOL    HW221081   3.907   3.578   5.678 -2.7052  1.5470  1.3634
 3149SOL     OW21082   2.736   0.807   2.922  0.2455 -0.0882  0.2806
 3149SOL    HW121083   2.642   0.817   2.936 -0.0873 -2.0909 -0.5796
 3149SOL    HW221084   2.761   0.899   2.928  1.2591 -0.3353 -0.0703
 3150SOL     OW21085   0.514   0.015  11.520  0.3640  0.5187  0.0791
 3150SOL    HW121086   0.597   4.709  11.494  0.6789  0.4674  1.1690
 3150SOL    HW221087   0.505   0.080  11.451 -0.8144  0.5827  0.2808
 3151SOL     OW21088   2.876   1.160  15.251  0.3285 -0.0740  0.5224
 3151SOL    HW121089   2.916   1.246  15.261 -0.6124  0.6161 -1.5484
 3151SOL    HW221090   2.917   1.136  15.168 -1.7301  0.3944 -0.6367
 3152SOL     OW21091   1.686   4.266  12.911 -0.2385  0.1480 -0.2946
 3152SOL    HW121092   1.662   4.300  12.997  1.5518  0.1413  0.1974
 3152SOL    HW221093   1.653   4.176  12.919 -0.8422  0.6162  2.4102
 3153SOL     OW21094   1.556   1.758   6.947  0.0025  0.2649  0.2046
 3153SOL    HW121095   1.565   1.847   6.981 -3.5118  1.0892 -1.0197
 3153SOL    HW221096   1.544   1.778   6.854  1.9152  0.7762  0.0791
 3154SOL     OW21097   3.090   1.200   4.415  0.1541 -0.4418  0.3290
 3154SOL    HW121098   3.183   1.212   4.394  0.1581  0.1204  0.6598
 3154SOL    HW221099   3.078   1.256   4.492 -0.7602 -2.9258  1.9927
 3155SOL     OW21100   4.712   3.885   5.694  0.6336 -0.4351  0.0713
 3155SOL    HW121101   0.046   3.952   5.700  1.1920 -1.0526  0.7785
 3155SOL    HW221102   0.025   3.820   5.641 -0.3016 -2.6930  1.9811
 3156SOL     OW21103   2.316   1.745   1.734  0.2640  0.4492  0.1955
 3156SOL    HW121104   2.298   1.651   1.740  3.5197 -0.1558  0.3571
 3156SOL    HW221105   2.407   1.735   1.707  0.0680 -1.8558  0.4016
 3157SOL     OW21106   4.487   3.333  14.530  0.1308  0.1394 -0.0260
 3157SOL    HW121107   4.481   3.381  14.447  0.6780  1.5663  0.7514
 3157SOL    HW221108   4.582   3.326  14.539 -0.3476 -3.3683  2.2765
 3158SOL     OW21109   1.346   1.310   1.036  1.0734 -0.1722 -0.4386
 3158SOL    HW121110   1.269   1.297   1.092  2.4491  0.5450  1.5843
 3158SOL    HW221111   1.419   1.295   1.096  0.7711  0.3175  0.0500
 3159SOL     OW21112   1.166   0.974   5.455  0.4704  0.0415 -0.3346
 3159SOL    HW121113   1.138   0.901   5.400 -0.8566  0.0425  0.3406
 3159SOL    HW221114   1.201   0.921   5.526 -0.6109  0.2221  0.3436
 3160SOL     OW21115   3.670   2.024  11.102  0.4820 -0.5013 -0.4205
 3160SOL    HW121116   3.653   2.047  11.194 -0.1592  0.0417 -0.6741
 3160SOL    HW221117   3.701   2.109  11.069 -1.6415  0.4218 -0.0255
 3161SOL     OW21118   2.616   2.118   6.969 -0.2887 -0.0054 -0.1602
 3161SOL    HW121119   2.635   2.114   7.063 -1.3358  1.2087  0.1038
 3161SOL    HW221120   2.588   2.209   6.961  2.4887  1.2521  4.5846
 3162SOL     OW21121   3.454   1.975   2.272  0.4168 -0.2694  0.4313
 3162SOL    HW121122   3.467   1.966   2.178 -2.4088  3.2069 -0.2827
 3162SOL    HW221123   3.538   1.944   2.307  0.6652  0.5558  0.5607
 3163SOL     OW21124   2.850   0.286   3.744  0.1239 -0.6406  0.6267
 3163SOL    HW121125   2.822   0.370   3.781  0.1496 -1.6113  2.8695
 3163SOL    HW221126   2.920   0.321   3.688  2.2254  0.5175  3.9698
 3164SOL     OW21127   1.476   3.736  17.073  0.4169 -0.4934 -0.6934
 3164SOL    HW121128   1.488   3.825  17.041  0.8865 -0.4336 -0.3477
 3164SOL    HW221129   1.539   3.696  17.014  2.3064  2.0868 -0.3771
 3165SOL     OW21130   4.018   2.378   6.503  0.6686 -0.1528  0.3384
 3165SOL    HW121131   3.984   2.347   6.419 -1.5011  2.6784  0.1698
 3165SOL    HW221132   4.075   2.452   6.484  3.2213 -1.2567  3.6648
 3166SOL     OW21133   2.706   1.330  12.006 -0.0832 -0.6240 -0.1516
 3166SOL    HW121134   2.798   1.307  12.019 -0.0396 -0.3546  0.0282
 3166SOL    HW221135   2.663   1.275  12.071  1.9072  0.4942  2.0944
 3167SOL     OW21136   3.219   3.109   7.795  0.1392  0.5611 -0.1807
 3167SOL    HW121137   3.274   3.181   7.764  0.7871  0.6714  1.2653
 3167SOL    HW221138   3.290   3.051   7.822  0.4445  0.9426 -0.1557
 3168SOL     OW21139   2.579   4.266   4.362 -0.1571 -0.5408  0.2138
 3168SOL    HW121140   2.644   4.247   4.430 -0.5427 -2.9056 -0.0749
 3168SOL    HW221141   2.624   4.245   4.280  0.5977 -1.1905  0.7903
 3169SOL     OW21142   3.347   2.647   3.709 -0.2122 -0.4493 -0.2376
 3169SOL    HW121143   3.323   2.578   3.647 -1.5263 -0.6817  0.5319
 3169SOL    HW221144   3.284   2.634   3.779  0.8278  0.8294  0.9248
 3170SOL     OW21145   3.281   1.026  15.533 -0.0948 -0.0811 -0.0511
 3170SOL    HW121146   3.375   1.044  15.529 -0.1577  0.5493  1.3563
 3170SOL    HW221147   3.245   1.115  15.537 -1.7378 -0.7902  0.8765
 3171SOL     OW21148   3.331   2.742   8.462 -0.5577  0.1492 -0.2082
 3171SOL    HW121149   3.244   2.729   8.422  0.8153 -1.5047 -2.7081
 3171SOL    HW221150   3.367   2.656   8.438  1.2708  1.2520 -1.4284
 3172SOL     OW21151   4.481   3.366   2.724  0.0388 -0.5023 -0.7732
 3172SOL    HW121152   4.462   3.434   2.660  0.5820 -1.0240 -1.4802
 3172SOL    HW221153   4.567   3.333   2.699  0.4573 -1.6292  2.1731
 3173SOL     OW21154   1.999   2.363   4.554 -0.0258  0.0413 -0.3499
 3173SOL    HW121155   1.910   2.391   4.530 -0.3114  1.1273  1.9752
 3173SOL    HW221156   1.974   2.309   4.629  0.4523 -1.1602 -1.0456
 3174SOL     OW21157   3.003   0.463  15.392 -0.0837  0.1563  0.4907
 3174SOL    HW121158   2.992   0.368  15.398 -1.5752  0.3328  0.6454
 3174SOL    HW221159   3.050   0.477  15.310 -3.2735  0.7347 -1.2618
 3175SOL     OW21160   1.890   3.829   0.271 -0.0130 -0.0581  1.0034
 3175SOL    HW121161   1.949   3.867   0.336  2.2296 -0.1885 -0.9263
 3175SOL    HW221162   1.859   3.907   0.225  0.3932  0.4783  1.6472
 3176SOL     OW21163   1.999   2.725   4.438  0.3582  0.1772 -0.0910
 3176SOL    HW121164   2.028   2.657   4.499  0.6715  0.9828  0.6619
 3176SOL    HW221165   1.998   2.800   4.498 -0.7928 -0.4366  0.6471
 3177SOL     OW21166   3.281   2.653   8.147  0.4278 -0.3418 -0.0779
 3177SOL    HW121167   3.250   2.707   8.075 -0.1102 -1.0854 -0.4011
 3177SOL    HW221168   3.235   2.701   8.217 -0.6950 -1.1046 -0.2914
 3178SOL     OW21169   2.376   0.895   8.359  0.4553 -0.1471 -0.6704
 3178SOL    HW121170   2.336   0.973   8.397  0.6688  0.3752 -1.5237
 3178SOL    HW221171   2.310   0.878   8.292  1.5675  2.0060 -2.2975
 3179SOL     OW21172   2.984   1.437   2.457 -0.2858 -0.4236  0.4367
 3179SOL    HW121173   3.053   1.499   2.434  0.2295 -0.1088  2.9133
 3179SOL    HW221174   2.982   1.385   2.376 -1.4512  0.4543 -0.1004
 3180SOL     OW21175   3.948   2.536   8.423 -0.5095 -0.3969 -0.0232
 3180SOL    HW121176   4.028   2.530   8.370  0.0053  2.5567  0.4331
 3180SOL    HW221177   3.977   2.506   8.509  0.8282  2.6522  0.5563
 3181SOL     OW21178   0.265   4.191   4.286  0.3557 -0.0227 -0.1299
 3181SOL    HW121179   0.344   4.244   4.289 -0.9388  1.7951  1.9799
 3181SOL    HW221180   0.205   4.239   4.344  1.1198  1.2354 -0.3809
 3182SOL     OW21181   4.578   3.808   6.460  0.4785  0.1140  0.1347
 3182SOL    HW121182   4.641   3.768   6.400 -0.6807 -2.2683  0.5316
 3182SOL    HW221183   4.561   3.736   6.521  1.3994 -0.6305 -0.4830
 3183SOL     OW21184   3.555   4.194   8.741  0.2662 -0.0776 -0.4107
 3183SOL    HW121185   3.642   4.204   8.780  1.0077 -1.6684 -1.6464
 3183SOL    HW221186   3.513   4.276   8.766 -0.1432 -0.7377  1.0721
 3184SOL     OW21187   1.558   3.404   8.486 -0.9129  0.6347  0.7742
 3184SOL    HW121188   1.585   3.496   8.496  0.9285  0.0983  0.8231
 3184SOL    HW221189   1.509   3.419   8.405  1.3789 -0.9934 -0.8938
 3185SOL     OW21190   2.662   0.824  10.765 -0.2753  0.1498 -0.3864
 3185SOL    HW121191   2.757   0.828  10.769 -0.1358 -0.9936 -2.3159
 3185SOL    HW221192   2.646   0.738  10.804  0.1271  0.6436  0.8424
 3186SOL     OW21193   1.526   2.377   0.239  0.3218  0.3276 -0.0698
 3186SOL    HW121194   1.450   2.420   0.277  0.8193  2.3386 -1.3893
 3186SOL    HW221195   1.497   2.355   0.151 -1.2910  0.5279  0.4175
 3187SOL     OW21196   0.794   4.481   4.362  0.0687 -0.4187  0.1455
 3187SOL    HW121197   0.795   4.416   4.432 -3.2870  0.9866  1.5082
 3187SOL    HW221198   0.799   4.434   4.279 -0.9701 -1.2669  0.5659
 3188SOL     OW21199   3.713   4.030   4.643  0.2870  0.4342 -0.2375
 3188SOL    HW121200   3.773   4.103   4.625  1.7092 -1.3236 -2.7101
 3188SOL    HW221201   3.772   3.955   4.638 -0.5749 -0.1419 -1.7857
 3189SOL     OW21202   4.551   4.194   3.978 -0.6429  0.1357  0.1888
 3189SOL    HW121203   4.486   4.264   3.984 -0.1349  0.3957  2.6474
 3189SOL    HW221204   4.629   4.217   4.029 -0.1785  1.5341 -1.1573
 3190SOL     OW21205   0.543   2.309   9.645  0.6913  0.0345 -0.0971
 3190SOL    HW121206   0.505   2.232   9.601  0.1347  0.7737 -0.9055
 3190SOL    HW221207   0.560   2.366   9.570 -1.6356  2.5449  1.2915
 3191SOL     OW21208   1.353   3.151  14.387  0.3477 -0.5907 -0.5724
 3191SOL    HW121209   1.360   3.056  14.390  0.2659 -0.5246  1.6276
 3191SOL    HW221210   1.443   3.170  14.414 -0.3095  0.6953  0.6927
 3192SOL     OW21211   2.812   4.312   2.852  0.2265 -0.3861  0.0261
 3192SOL    HW121212   2.745   4.361   2.805 -0.1222 -1.8060 -0.9705
 3192SOL    HW221213   2.869   4.283   2.780  0.3632 -1.1746  0.4560
 3193SOL     OW21214   1.282   3.472   2.693  0.8141 -0.1597 -0.4218
 3193SOL    HW121215   1.311   3.548   2.642 -1.7617 -0.4595 -2.3131
 3193SOL    HW221216   1.192   3.455   2.664  1.0277 -0.4655 -0.9000
 3194SOL     OW21217   2.552   1.019   7.171  0.1216  0.0490  0.0668
 3194SOL    HW121218   2.507   1.018   7.256  0.4731 -2.0285  0.2419
 3194SOL    HW221219   2.491   1.075   7.123 -0.3669 -1.8741 -1.5737
 3195SOL     OW21220   2.220   1.829   4.094 -0.2735  0.5542 -0.6301
 3195SOL    HW121221   2.286   1.899   4.096 -1.6858  1.8562  0.0369
 3195SOL    HW221222   2.142   1.872   4.128 -1.5931 -1.5322 -1.0531
 3196SOL     OW21223   0.343   4.123  17.201  0.3508 -0.3966  0.3262
 3196SOL    HW121224   0.357   4.057  17.133 -1.0074 -0.4274  0.0919
 3196SOL    HW221225   0.275   4.181  17.169 -1.3407 -2.1531  0.7601
 3197SOL     OW21226   2.169   3.840   8.450 -0.1280  0.8776 -0.2308
 3197SOL    HW121227   2.228   3.854   8.524 -1.2691  0.3379  0.7876
 3197SOL    HW221228   2.137   3.751   8.468  1.1893  0.1974 -1.2729
 3198SOL     OW21229   2.621   3.116   8.423  0.4215 -0.7270  0.0459
 3198SOL    HW121230   2.560   3.090   8.492  1.1052 -3.0444 -0.2477
 3198SOL    HW221231   2.573   3.101   8.342  0.2747  1.3724 -0.2740
 3199SOL     OW21232   0.904   3.422  12.368 -1.2721  0.1513 -0.7966
 3199SOL    HW121233   0.961   3.366  12.315  0.5511  1.0907  0.1797
 3199SOL    HW221234   0.884   3.487  12.301  0.4433  0.9437 -0.5387
 3200SOL     OW21235   1.883   1.753   7.196  0.3408  0.4838  0.8350
 3200SOL    HW121236   1.957   1.709   7.238  0.4965 -0.0414 -0.0132
 3200SOL    HW221237   1.803   1.724   7.240 -0.8854  1.9888 -0.4219
 3201SOL     OW21238   2.518   4.167  13.364 -0.8095 -0.1894 -0.2759
 3201SOL    HW121239   2.594   4.220  13.340 -0.0312 -1.3825 -0.4618
 3201SOL    HW221240   2.558   4.080  13.354 -0.9038 -0.3346  0.6549
 3202SOL     OW21241   1.737   0.325   8.233  0.6743 -0.2572  0.1039
 3202SOL    HW121242   1.678   0.355   8.302  1.2629 -0.7500  0.8163
 3202SOL    HW221243   1.668   0.298   8.171 -0.9885  0.5681  1.5982
 3203SOL     OW21244   2.452   4.034   8.026  0.4571 -0.1691 -0.1588
 3203SOL    HW121245   2.375   4.085   8.050  1.0908  0.3441  0.8309
 3203SOL    HW221246   2.525   4.078   8.070  2.0432 -0.3653 -2.5566
 3204SOL     OW21247   4.069   0.355  16.133  0.0441  0.3361  0.8859
 3204SOL    HW121248   4.090   0.409  16.057 -3.6378  0.1815 -0.2509
 3204SOL    HW221249   4.028   0.426  16.181  0.4263  0.3438  1.1973
 3205SOL     OW21250   2.570   4.098   5.726  0.3479 -0.2835 -0.3237
 3205SOL    HW121251   2.480   4.126   5.709  0.8655  0.5429 -1.6776
 3205SOL    HW221252   2.617   4.181   5.732 -3.8187  2.1640 -1.8535
 3206SOL     OW21253   3.486   2.688   4.263  0.3149 -0.9898  0.1088
 3206SOL    HW121254   3.418   2.656   4.204 -0.3348 -0.5986  0.6543
 3206SOL    HW221255   3.555   2.719   4.203  1.2766  0.7619  2.1117
 3207SOL     OW21256   1.589   1.491   3.065 -0.0858 -0.4104  0.2633
 3207SOL    HW121257   1.622   1.540   2.990  1.0303 -1.0063  0.3756
 3207SOL    HW221258   1.550   1.560   3.119 -1.1593  0.7008 -1.9253
 3208SOL     OW21259   3.655   1.570   0.193 -0.1214 -0.4029 -0.5279
 3208SOL    HW121260   3.591   1.560   0.122 -2.5317 -0.2971  1.6189
 3208SOL    HW221261   3.689   1.482   0.212  0.0480  0.4075  2.9456
 3209SOL     OW21262   0.007   0.418  17.703  0.7103  0.4502  0.7504
 3209SOL    HW121263   0.008   0.496  17.648 -2.3745  1.3098  1.9322
 3209SOL    HW221264   4.647   0.407  17.719  0.4162  1.0598 -0.5794
 3210SOL     OW21265   4.369   3.461   7.419  0.5156 -0.0003  0.2969
 3210SOL    HW121266   4.401   3.374   7.442  1.6472 -0.2109 -2.0777
 3210SOL    HW221267   4.329   3.445   7.334 -0.6367 -0.6411  0.9690
 3211SOL     OW21268   1.225   3.227   4.827  0.6730 -0.2248  0.6734
 3211SOL    HW121269   1.175   3.308   4.818 -1.2790 -1.6453 -1.3057
 3211SOL    HW221270   1.282   3.234   4.750 -0.8728 -1.2386 -0.5834
 3212SOL     OW21271   2.372   3.664   4.975  0.2757  0.6412 -0.3411
 3212SOL    HW121272   2.299   3.608   4.948 -0.4589  0.6001  1.7829
 3212SOL    HW221273   2.440   3.599   4.960 -0.9907 -0.7696 -0.0073
 3213SOL     OW21274   0.152   0.467   8.135  0.0510  0.2248 -0.4246
 3213SOL    HW121275   0.178   0.529   8.068  2.4106 -1.3688 -0.9851
 3213SOL    HW221276   0.122   0.391   8.086 -0.5778  0.7186 -0.8083
 3214SOL     OW21277   1.928   3.719   6.705  0.3631 -0.1760 -0.6188
 3214SOL    HW121278   1.851   3.761   6.666  0.4203 -0.6454 -1.2408
 3214SOL    HW221279   2.001   3.780   6.693 -2.0444  2.6924 -0.5527
 3215SOL     OW21280   0.932   2.599   9.056 -0.2056  0.8070 -0.4960
 3215SOL    HW121281   0.930   2.534   8.986  0.4787 -0.4965  0.6965
 3215SOL    HW221282   0.983   2.666   9.011  0.1767  1.0046  0.2457
 3216SOL     OW21283   0.182   2.758   4.735 -0.6312 -0.6564  0.0050
 3216SOL    HW121284   0.103   2.807   4.760  0.7061  0.6182  1.6858
 3216SOL    HW221285   0.256   2.817   4.721 -0.7507 -0.4497  0.2429
 3217SOL     OW21286   0.418   2.119  14.373 -0.1562 -0.2529 -0.2932
 3217SOL    HW121287   0.391   2.055  14.438  1.8681 -1.4097 -0.5901
 3217SOL    HW221288   0.457   2.064  14.305  0.1784  0.4684 -0.6930
 3218SOL     OW21289   0.571   1.581   2.830  0.2530  0.1312 -0.3054
 3218SOL    HW121290   0.513   1.599   2.903  1.8414  1.8802  0.5281
 3218SOL    HW221291   0.624   1.510   2.866 -2.6579 -1.6747  0.3677
 3219SOL     OW21292   0.258   3.304  10.663  0.1645 -0.2431  0.4338
 3219SOL    HW121293   0.344   3.340  10.638 -0.7097  1.4936 -0.1147
 3219SOL    HW221294   0.207   3.385  10.656  0.3087 -0.0504  1.5908
 3220SOL     OW21295   1.642   2.336   7.740 -0.6637 -0.0467  0.6756
 3220SOL    HW121296   1.625   2.302   7.652 -0.2664  0.0205  0.5699
 3220SOL    HW221297   1.730   2.373   7.733 -0.5730 -0.5049 -0.5139
 3221SOL     OW21298   2.816   1.806   9.257 -0.7504 -0.4610  0.1170
 3221SOL    HW121299   2.825   1.775   9.348  0.1364 -0.0909  0.1573
 3221SOL    HW221300   2.855   1.891   9.275 -0.5984 -0.5697  0.3118
 3222SOL     OW21301   0.440   1.867   0.347  0.8417  0.4649 -0.8906
 3222SOL    HW121302   0.484   1.952   0.354 -1.1669  1.3218  1.1139
 3222SOL    HW221303   0.360   1.899   0.389  1.4323 -0.0065  0.5956
 3223SOL     OW21304   2.228   3.113   3.633  0.5153  0.8203  0.4578
 3223SOL    HW121305   2.212   3.202   3.664 -0.1917  0.5845  0.7655
 3223SOL    HW221306   2.310   3.098   3.679  1.8704  1.6716 -1.6795
 3224SOL     OW21307   1.318   0.279   5.778  0.3223 -0.0915  0.0282
 3224SOL    HW121308   1.251   0.237   5.832 -0.6697 -0.2611 -1.3411
 3224SOL    HW221309   1.386   0.282   5.846  0.4335  1.9728 -0.1775
 3225SOL     OW21310   1.714   1.016   1.704  0.3470 -0.2273  0.0382
 3225SOL    HW121311   1.774   0.995   1.632  1.0144  2.9263 -0.3144
 3225SOL    HW221312   1.770   0.993   1.778  1.6670 -0.0496 -0.9150
 3226SOL     OW21313   2.154   3.938   4.100  0.0319  0.0055  0.0748
 3226SOL    HW121314   2.156   3.875   4.172 -2.1940 -0.0816  0.0677
 3226SOL    HW221315   2.241   3.937   4.061 -0.4940 -2.3054 -1.0418
 3227SOL     OW21316   0.625   2.695   0.536 -0.2461 -0.5311  0.2438
 3227SOL    HW121317   0.689   2.765   0.524  0.1611 -0.9867 -0.3066
 3227SOL    HW221318   0.672   2.625   0.490 -0.8961 -1.6984  1.3398
 3228SOL     OW21319   0.850   4.329   5.399  0.2481  0.2398  0.0129
 3228SOL    HW121320   0.799   4.248   5.396  0.0662  0.2658  2.7751
 3228SOL    HW221321   0.926   4.300   5.449 -0.8709  0.7946  2.0302
 3229SOL     OW21322   0.223   1.963   3.948  0.0153  0.3660  0.3215
 3229SOL    HW121323   0.293   2.029   3.948  0.5832 -0.2367 -0.7200
 3229SOL    HW221324   0.274   1.889   3.981  0.0294  1.3500  2.5153
 3230SOL     OW21325   3.841   3.654  13.307  0.4722 -0.1247  0.6139
 3230SOL    HW121326   3.854   3.654  13.402  3.1214 -0.8506  0.2640
 3230SOL    HW221327   3.867   3.564  13.287 -0.4960 -0.4276  0.7282
 3231SOL     OW21328   2.002   0.504  15.493 -0.1815  0.0190 -0.6813
 3231SOL    HW121329   1.961   0.591  15.484  1.4588  1.0077  1.3102
 3231SOL    HW221330   1.992   0.490  15.587  0.4748  0.4211 -0.5511
 3232SOL     OW21331   1.876   1.618  16.944  0.1709 -0.2369  0.7760
 3232SOL    HW121332   1.814   1.612  16.871 -0.3350  0.5716  1.1406
 3232SOL    HW221333   1.862   1.532  16.982 -0.6726  0.2409  1.5413
 3233SOL     OW21334   3.148   2.379   5.751 -0.1091 -0.1292 -0.4726
 3233SOL    HW121335   3.169   2.331   5.671 -1.3135  0.1106 -0.9331
 3233SOL    HW221336   3.225   2.435   5.760  1.9211 -2.5949 -2.6781
 3234SOL     OW21337   2.325   2.689   7.824  0.2589 -0.2299  0.4169
 3234SOL    HW121338   2.254   2.719   7.769  0.8422 -2.9226 -1.8055
 3234SOL    HW221339   2.305   2.595   7.823 -2.9513  0.4508  0.9586
 3235SOL     OW21340   0.620   2.913   7.483  0.2566 -0.1711  0.3384
 3235SOL    HW121341   0.624   2.872   7.396  2.1462 -0.9276  0.7960
 3235SOL    HW221342   0.635   3.003   7.456  0.9334 -0.0667  1.0874
 3236SOL     OW21343   4.209   1.738   9.229  0.4975  0.0992  0.2425
 3236SOL    HW121344   4.138   1.785   9.186 -0.1867  0.0106  1.2891
 3236SOL    HW221345   4.283   1.797   9.217 -0.3325  1.2636  0.9430
 3237SOL     OW21346   2.212   0.183   4.945 -0.6839  0.1543 -0.0604
 3237SOL    HW121347   2.250   0.257   4.992 -0.6463 -1.0154  1.7624
 3237SOL    HW221348   2.233   0.111   5.003 -2.2041 -0.0304  0.2659
 3238SOL     OW21349   4.262   0.087  14.421 -0.0821  0.1145 -0.3167
 3238SOL    HW121350   4.279   0.079  14.515 -0.1734  0.8368 -0.2345
 3238SOL    HW221351   4.167   0.093  14.413 -0.1190 -0.6412 -0.4225
 3239SOL     OW21352   2.841   4.551  10.066  0.1928  0.4500  0.1906
 3239SOL    HW121353   2.875   4.512   9.985 -1.5328  0.3327 -0.4733
 3239SOL    HW221354   2.754   4.512  10.073  0.7191 -0.9512 -1.1286
 3240SOL     OW21355   4.069   0.413   4.037  0.1089  0.0842  0.4143
 3240SOL    HW121356   4.147   0.444   3.993 -1.2008  2.4649 -0.2089
 3240SOL    HW221357   4.082   0.435   4.129  3.8571  0.2827 -0.1686
 3241SOL     OW21358   3.203   2.575  10.987 -0.1676 -0.6235  0.3726
 3241SOL    HW121359   3.128   2.521  10.962 -1.4705  1.2825  0.1340
 3241SOL    HW221360   3.255   2.572  10.907 -2.2833  0.2109 -1.0345
 3242SOL     OW21361   0.437   2.155   9.452 -0.2928  0.6354 -0.0590
 3242SOL    HW121362   0.355   2.168   9.404 -0.2820  0.8045 -0.0326
 3242SOL    HW221363   0.495   2.204   9.393  0.7327 -0.5337 -0.0176
 3243SOL     OW21364   3.672   1.234   3.078  0.4396 -0.2668 -0.2286
 3243SOL    HW121365   3.619   1.219   3.156 -0.4256  0.6224 -0.6462
 3243SOL    HW221366   3.636   1.185   3.004 -1.9506  1.3571 -0.1547
 3244SOL     OW21367   2.782   0.820   2.002 -0.0864 -0.1651  0.1155
 3244SOL    HW121368   2.793   0.725   2.002  1.3868  0.0037  0.2146
 3244SOL    HW221369   2.866   0.850   1.967  0.2945 -0.9828  0.3260
 3245SOL     OW21370   3.935   2.630   2.127 -0.0568 -0.0565  0.3414
 3245SOL    HW121371   3.936   2.587   2.212  0.4907  2.3190  1.5159
 3245SOL    HW221372   3.850   2.596   2.098  1.3133 -2.4589 -0.8560
 3246SOL     OW21373   2.182   1.348   7.752 -0.6031 -0.8350 -0.6073
 3246SOL    HW121374   2.191   1.298   7.834 -3.3605  0.9305  0.7788
 3246SOL    HW221375   2.087   1.362   7.747 -0.9119 -3.0512 -1.0239
 3247SOL     OW21376   2.532   4.479   7.460 -0.1485 -0.6586 -0.4490
 3247SOL    HW121377   2.622   4.485   7.491 -1.2564 -1.7920  2.9817
 3247SOL    HW221378   2.541   4.497   7.366 -0.0462 -0.5719 -0.4218
 3248SOL     OW21379   2.747   2.630   6.866  0.0881 -0.2807 -0.0582
 3248SOL    HW121380   2.840   2.637   6.843  0.1905  1.2468  0.7998
 3248SOL    HW221381   2.711   2.588   6.788  0.3375 -0.4917 -0.0577
 3249SOL     OW21382   2.944   1.571  12.789 -0.0712 -0.0120  0.7110
 3249SOL    HW121383   3.018   1.611  12.836 -0.0192  0.5203  0.1828
 3249SOL    HW221384   2.928   1.633  12.717  1.3200  0.2447  0.6182
 3250SOL     OW21385   1.349   2.585   6.008  0.1689  0.5995  0.3295
 3250SOL    HW121386   1.283   2.632   6.059 -1.1237 -1.7212  0.7999
 3250SOL    HW221387   1.432   2.621   6.039 -0.5071  1.4413  1.1983
 3251SOL     OW21388   3.149   4.687  13.108  0.5102 -0.1033 -0.0139
 3251SOL    HW121389   3.100   4.670  13.027 -0.2377 -0.9384  0.6191
 3251SOL    HW221390   3.088   4.658  13.176 -1.0173  1.2289 -0.8169
 3252SOL     OW21391   2.850   3.543   7.126  0.1130 -0.4414 -0.0364
 3252SOL    HW121392   2.852   3.499   7.041 -1.5586 -2.6469  1.0539
 3252SOL    HW221393   2.934   3.520   7.167 -0.3412 -0.4355  0.8934
 3253SOL     OW21394   2.860   2.454   2.122  0.0168 -0.2632 -0.3782
 3253SOL    HW121395   2.803   2.513   2.171 -2.6833 -4.1518  1.1442
 3253SOL    HW221396   2.801   2.436   2.049 -1.3595 -0.8386  0.8765
 3254SOL     OW21397   0.345   1.998   4.654  0.0825 -0.1356 -0.6753
 3254SOL    HW121398   0.343   2.093   4.644 -1.6457 -0.1554 -0.4018
 3254SOL    HW221399   0.333   1.993   4.748 -2.8094 -0.5632 -1.0739
 3255SOL     OW21400   3.675   0.415   6.328  0.0861  0.3957  0.3916
 3255SOL    HW121401   3.675   0.482   6.260 -0.8028 -0.1341 -0.1313
 3255SOL    HW221402   3.726   0.456   6.397  1.1937 -1.6389  0.7912
 3256SOL     OW21403   1.227   3.305   3.826 -0.2808 -0.2874  0.0504
 3256SOL    HW121404   1.169   3.306   3.749 -2.2856  0.0895  1.5612
 3256SOL    HW221405   1.262   3.216   3.817 -1.5854 -0.7430 -0.6313
 3257SOL     OW21406   0.866   0.041  13.033 -0.0900 -0.7383 -0.2446
 3257SOL    HW121407   0.948   0.003  13.004 -0.8860 -2.3730 -0.3542
 3257SOL    HW221408   0.878   0.130  13.000 -0.9209 -0.3636  0.4417
 3258SOL     OW21409   4.009   3.152   5.919  0.2599  0.2160 -0.0207
 3258SOL    HW121410   3.974   3.239   5.896 -1.5824 -0.8790 -1.3465
 3258SOL    HW221411   3.930   3.098   5.912  0.7554 -0.4189 -0.6493
 3259SOL     OW21412   1.473   4.105   5.043  0.1962 -0.4599 -0.0497
 3259SOL    HW121413   1.428   4.188   5.056 -0.1458 -0.2761 -2.3774
 3259SOL    HW221414   1.479   4.064   5.130 -0.6866 -1.5732 -0.5150
 3260SOL     OW21415   3.126   0.472  15.107 -0.2630 -0.3935 -0.5301
 3260SOL    HW121416   3.211   0.428  15.099  1.2192  1.9414  2.3462
 3260SOL    HW221417   3.066   0.397  15.098 -0.0321 -0.7349  0.6941
 3261SOL     OW21418   2.757   0.879   9.286  0.3058  0.4777  0.7244
 3261SOL    HW121419   2.840   0.840   9.316  0.3031  0.0396  0.1512
 3261SOL    HW221420   2.783   0.967   9.258  1.0831 -0.8823 -2.7832
 3262SOL     OW21421   1.834   3.801   9.615 -0.1068 -0.0168  0.8248
 3262SOL    HW121422   1.768   3.733   9.607 -0.7113  0.8321 -1.4066
 3262SOL    HW221423   1.867   3.803   9.525 -0.5570  0.4956  0.6722
 3263SOL     OW21424   0.302   0.148   2.718 -0.1944  0.4040  0.2098
 3263SOL    HW121425   0.290   0.058   2.746 -2.7029  0.3406 -1.0572
 3263SOL    HW221426   0.364   0.126   2.649 -1.0163 -0.7347 -0.1653
 3264SOL     OW21427   1.609   3.286   9.875  0.3498  0.5583  0.4735
 3264SOL    HW121428   1.697   3.286   9.913  0.2457 -0.7631  0.7234
 3264SOL    HW221429   1.570   3.214   9.925 -0.5600  1.5742  1.2233
 3265SOL     OW21430   3.717   3.676   3.031  0.1407  0.4888 -0.2380
 3265SOL    HW121431   3.750   3.652   2.945  0.6497  1.1508 -0.2218
 3265SOL    HW221432   3.800   3.709   3.065  1.3262 -3.0486  0.3056
 3266SOL     OW21433   0.189   3.928   8.982  0.3421 -0.2664 -0.2170
 3266SOL    HW121434   0.156   3.846   8.945 -1.3590  0.5042 -0.4181
 3266SOL    HW221435   0.138   3.995   8.936 -0.2828 -0.0687  0.7575
 3267SOL     OW21436   2.024   2.793   4.876  0.0057 -1.1054 -0.0498
 3267SOL    HW121437   2.082   2.793   4.953  1.2436 -2.8726 -0.9951
 3267SOL    HW221438   2.078   2.749   4.810 -0.6969 -0.9064 -0.7499
 3268SOL     OW21439   0.826   4.626   7.713 -0.3580  0.3198  0.9572
 3268SOL    HW121440   0.789   4.692   7.772  1.1884  2.4131 -0.4371
 3268SOL    HW221441   0.913   4.655   7.686 -0.4889 -2.7185 -2.6615
 3269SOL     OW21442   0.399   2.452  14.683  0.0602  0.0106 -0.1703
 3269SOL    HW121443   0.425   2.464  14.592 -1.1110 -0.5798 -0.5904
 3269SOL    HW221444   0.401   2.357  14.683  0.0127  0.0002  1.3297
 3270SOL     OW21445   0.008   1.046   7.413 -0.1563 -0.0462 -0.4074
 3270SOL    HW121446   4.706   1.125   7.371 -0.7279  0.4073  0.9517
 3270SOL    HW221447   4.668   0.988   7.396 -1.5028  1.9963 -1.5935
 3271SOL     OW21448   1.035   3.637   2.345  0.3906  0.0872  0.1062
 3271SOL    HW121449   1.112   3.581   2.357  0.1523 -0.4097 -0.7240
 3271SOL    HW221450   1.027   3.631   2.250  0.0161 -0.4573  0.1742
 3272SOL     OW21451   2.968   1.316  12.657 -1.1745  0.1029 -0.1857
 3272SOL    HW121452   2.935   1.397  12.695 -0.7067  0.7453 -1.1563
 3272SOL    HW221453   2.896   1.282  12.603 -0.1831 -0.1616 -1.3316
 3273SOL     OW21454   0.250   4.630   2.744  0.0815 -0.4376  0.4420
 3273SOL    HW121455   0.197   4.561   2.706  2.0045 -0.9290 -1.3094
 3273SOL    HW221456   0.335   4.587   2.753  0.1873 -0.2003  0.6161
 3274SOL     OW21457   3.208   2.937   2.275 -0.0626  0.3226  0.0148
 3274SOL    HW121458   3.249   3.020   2.299 -1.1357  1.3966 -1.8999
 3274SOL    HW221459   3.120   2.946   2.311  0.6107 -0.1427  1.7536
 3275SOL     OW21460   1.386   4.537   5.834  0.0176  0.0637 -0.1824
 3275SOL    HW121461   1.382   4.444   5.855 -1.1276 -0.2143 -1.6391
 3275SOL    HW221462   1.325   4.552   5.762  0.1086  0.5792 -0.1571
 3276SOL     OW21463   2.030   3.873   7.352 -0.0429 -0.5112  0.3571
 3276SOL    HW121464   1.974   3.932   7.404 -1.4733 -0.3423 -1.3694
 3276SOL    HW221465   1.967   3.829   7.295 -0.9805 -0.6195  1.4737
 3277SOL     OW21466   3.758   2.335  12.491  0.1571  0.5236  0.3622
 3277SOL    HW121467   3.834   2.393  12.482  1.3674 -1.4701 -2.4253
 3277SOL    HW221468   3.758   2.288  12.407 -1.1840  0.4548  0.4020
 3278SOL     OW21469   2.646   0.353  13.340  0.2131 -1.0695  0.1896
 3278SOL    HW121470   2.662   0.321  13.429  0.9715  1.1622  0.8431
 3278SOL    HW221471   2.552   0.347  13.324  0.0405  0.1272  0.7937
 3279SOL     OW21472   1.231   2.594   8.856  0.0797 -0.2765  0.2195
 3279SOL    HW121473   1.211   2.674   8.905 -1.0559  0.4004 -1.3624
 3279SOL    HW221474   1.174   2.622   8.785  0.7800  1.3375  0.3020
 3280SOL     OW21475   2.527   1.808   7.317 -0.0307 -0.2026 -0.4165
 3280SOL    HW121476   2.557   1.747   7.250 -0.4232 -1.4343  0.5426
 3280SOL    HW221477   2.553   1.760   7.395 -0.1511 -2.5046 -1.8069
 3281SOL     OW21478   1.538   0.682   4.321  0.0910  0.8299 -0.2055
 3281SOL    HW121479   1.567   0.591   4.308  0.6747  1.2968 -2.1075
 3281SOL    HW221480   1.467   0.660   4.382  0.0919  0.2589 -0.4052
 3282SOL     OW21481   1.199   2.296   5.701  0.0819 -0.4336 -0.2256
 3282SOL    HW121482   1.169   2.362   5.764 -0.3667 -0.9898  0.1442
 3282SOL    HW221483   1.287   2.333   5.691 -0.1293  0.4106  1.0732
 3283SOL     OW21484   0.503   1.109   7.721  0.7052 -0.0915 -0.3316
 3283SOL    HW121485   0.591   1.131   7.752  0.6634  0.3871 -0.5589
 3283SOL    HW221486   0.488   1.026   7.766  2.7556  0.9123  2.2307
 3284SOL     OW21487   3.966   1.471   5.654  0.2143  0.2830  0.4883
 3284SOL    HW121488   4.015   1.507   5.581  0.3945  0.6237  0.7746
 3284SOL    HW221489   4.037   1.419   5.692  0.6331  1.1086  0.8378
 3285SOL     OW21490   1.797   4.253  16.144  0.4032  0.4592 -0.1651
 3285SOL    HW121491   1.757   4.208  16.069  0.4291  1.6958 -0.9067
 3285SOL    HW221492   1.834   4.177  16.189  1.1016  0.9886  0.1528
 3286SOL     OW21493   2.716   1.111   3.380  0.0382 -0.1321  0.4619
 3286SOL    HW121494   2.659   1.079   3.310  0.5371  1.8593 -0.8476
 3286SOL    HW221495   2.668   1.181   3.423 -1.2793 -1.4727  1.1693
 3287SOL     OW21496   2.771   3.109  17.678 -0.2624 -0.3784 -0.1264
 3287SOL    HW121497   2.825   3.139   0.017 -0.2886  0.0218 -0.2753
 3287SOL    HW221498   2.728   3.184  17.638  0.4200  0.3429  0.5098
 3288SOL     OW21499   1.117   1.768   6.383 -0.3668  0.2015 -0.1810
 3288SOL    HW121500   1.205   1.766   6.423 -0.2438  0.3582 -0.4482
 3288SOL    HW221501   1.113   1.692   6.327 -2.6885  0.7720 -0.7734
 3289SOL     OW21502   1.257   4.607  17.221  0.1520  0.1599  0.5402
 3289SOL    HW121503   1.227   4.553  17.295  0.1484 -2.0305 -1.0618
 3289SOL    HW221504   1.208   4.687  17.243  1.2366  0.6980  1.0005
 3290SOL     OW21505   2.659   0.321   1.478 -0.9364 -0.1421 -0.3519
 3290SOL    HW121506   2.749   0.344   1.454 -0.7503 -1.1229 -0.6026
 3290SOL    HW221507   2.654   0.234   1.439  0.9320  0.8024 -2.6975
 3291SOL     OW21508   2.268   1.294   2.935  0.0361  0.1925 -0.2121
 3291SOL    HW121509   2.241   1.383   2.960  1.4646  1.1655 -2.0707
 3291SOL    HW221510   2.250   1.245   3.014 -0.3994  0.8488  0.0943
 3292SOL     OW21511   0.991   1.305   1.993  0.1636  0.1832  0.2311
 3292SOL    HW121512   1.011   1.250   2.069 -0.0569  0.1734  0.2841
 3292SOL    HW221513   1.061   1.290   1.931 -1.2633  0.2325 -1.3966
 3293SOL     OW21514   3.747   1.821   8.951 -0.3915  0.3599  0.2762
 3293SOL    HW121515   3.718   1.730   8.946 -0.9583  0.4006  2.7101
 3293SOL    HW221516   3.816   1.827   8.886  1.0053  0.4184  1.7724
 3294SOL     OW21517   1.919   0.610   4.739  0.1203 -0.0546 -0.9259
 3294SOL    HW121518   1.922   0.653   4.653 -0.0537  1.9959  0.1101
 3294SOL    HW221519   1.886   0.524   4.713 -2.0650  0.5109  0.0543
 3295SOL     OW21520   1.484   4.671   0.359 -0.2285  0.4318  0.1455
 3295SOL    HW121521   1.564   4.712   0.390 -0.3173 -0.2856  1.3290
 3295SOL    HW221522   1.441   4.648   0.442  0.7378  0.8191  0.7479
 3296SOL     OW21523   3.566   2.754   4.900 -0.2910  0.3061 -0.7937
 3296SOL    HW121524   3.496   2.779   4.840 -2.8716 -2.9401  0.8845
 3296SOL    HW221525   3.629   2.713   4.840 -1.1387  0.9474 -2.1194
 3297SOL     OW21526   0.439   0.171   5.334  0.3106  0.2982 -0.3304
 3297SOL    HW121527   0.494   0.204   5.263 -0.0741  1.7960  0.0613
 3297SOL    HW221528   0.503   0.177   5.405  0.3206 -1.8484 -0.1392
 3298SOL     OW21529   3.021   1.318  14.754 -0.3728 -0.4364  0.9794
 3298SOL    HW121530   3.097   1.358  14.712 -0.1641 -2.0343 -0.1723
 3298SOL    HW221531   3.049   1.226  14.752  1.2739  0.1679 -3.4399
 3299SOL     OW21532   1.063   1.050   9.422  0.9900  0.1601 -0.9183
 3299SOL    HW121533   0.986   1.022   9.373 -0.3293  1.1205  0.6087
 3299SOL    HW221534   1.031   1.121   9.479 -3.5924 -1.6224 -1.2789
 3300SOL     OW21535   3.482   4.693   2.469  0.1193 -0.3640  0.1131
 3300SOL    HW121536   3.534   4.614   2.456  1.1156  0.1516  0.9301
 3300SOL    HW221537   3.544   0.021   2.509  0.2216 -0.7618  0.5803
 3301SOL     OW21538   0.053   1.930   3.348 -0.1330 -0.2755 -0.1251
 3301SOL    HW121539   0.055   1.931   3.252  0.5511  0.7359 -0.0976
 3301SOL    HW221540   0.084   1.845   3.379  0.0244 -0.1255  0.1294
 3302SOL     OW21541   3.632   1.778   5.565 -0.4298 -0.2937 -0.6208
 3302SOL    HW121542   3.603   1.689   5.544 -1.8089 -0.0807  0.3904
 3302SOL    HW221543   3.699   1.758   5.631 -0.7680 -3.3699 -1.2070
 3303SOL     OW21544   1.119   4.159   4.906 -0.1781  0.5036 -0.0674
 3303SOL    HW121545   1.208   4.185   4.929 -1.1100  2.0297  1.8412
 3303SOL    HW221546   1.130   4.087   4.844  1.2158  0.0581  0.6883
 3304SOL     OW21547   4.379   2.957   7.459 -0.0856 -0.0407 -0.1245
 3304SOL    HW121548   4.396   2.927   7.370  2.1394  1.1041 -0.1058
 3304SOL    HW221549   4.383   2.881   7.517 -0.6840  0.8541  1.0884
 3305SOL     OW21550   1.670   0.603   8.776  0.5274 -0.2175 -0.4736
 3305SOL    HW121551   1.631   0.553   8.847 -0.5151 -0.4590 -1.2230
 3305SOL    HW221552   1.764   0.595   8.794  0.1095 -1.7967  0.9083
 3306SOL     OW21553   0.087   3.079   4.150 -0.3347  0.5003 -0.0428
 3306SOL    HW121554   0.123   3.167   4.136  1.0570 -0.3606 -1.8166
 3306SOL    HW221555   0.071   3.080   4.245  0.7693  0.4970  0.1440
 3307SOL     OW21556   2.697   1.889   7.852  0.6020  0.1242  0.1215
 3307SOL    HW121557   2.689   1.889   7.756 -1.0210 -0.0720  0.2615
 3307SOL    HW221558   2.786   1.857   7.871 -0.5586 -4.2551 -1.8879
 3308SOL     OW21559   1.660   4.349   7.659 -0.8004  0.4902 -0.0319
 3308SOL    HW121560   1.682   4.285   7.727 -1.4444 -0.4743 -0.7247
 3308SOL    HW221561   1.718   4.334   7.585 -0.2439 -0.7333  0.6483
 3309SOL     OW21562   0.242   4.627   1.420 -0.2066  0.0912 -0.2326
 3309SOL    HW121563   0.278   4.714   1.433  0.1546  0.1226 -1.3786
 3309SOL    HW221564   0.170   4.623   1.482 -0.4969  1.8906 -0.4549
 3310SOL     OW21565   3.612   0.632   7.845  0.1127  0.2521 -0.3121
 3310SOL    HW121566   3.541   0.607   7.787 -1.2587 -0.8367  1.8550
 3310SOL    HW221567   3.609   0.573   7.920  0.7856 -1.9524 -2.0087
 3311SOL     OW21568   3.655   0.158   7.929 -0.0540 -0.1153  0.5026
 3311SOL    HW121569   3.734   0.193   7.887 -0.4776 -0.2870 -0.4078
 3311SOL    HW221570   3.679   0.066   7.942 -1.2061 -0.5512 -0.5151
 3312SOL     OW21571   3.546   2.086   5.815 -0.1812  0.1314  0.0252
 3312SOL    HW121572   3.534   2.087   5.721 -2.2297 -1.3450  0.2724
 3312SOL    HW221573   3.507   1.999   5.824  0.6172 -0.0885  1.3711
 3313SOL     OW21574   1.692   0.072  10.868 -0.3082 -0.2693 -0.5910
 3313SOL    HW121575   1.698   4.720  10.827  0.9437  0.2939 -1.5933
 3313SOL    HW221576   1.765   0.121  10.830 -2.0466  2.2515 -0.7291
 3314SOL     OW21577   2.941   3.547   4.670  0.7183  0.4579  0.0010
 3314SOL    HW121578   2.878   3.619   4.675 -0.6283 -0.6403 -1.3033
 3314SOL    HW221579   3.010   3.593   4.622  0.9413 -1.2973 -1.3311
 3315SOL     OW21580   0.117   3.399   5.572  0.2941 -0.4071 -0.3128
 3315SOL    HW121581   0.080   3.484   5.596  2.0176  0.7509 -1.7136
 3315SOL    HW221582   0.120   3.404   5.476 -2.4360 -0.0499 -0.3690
 3316SOL     OW21583   0.116   0.047   4.935 -0.4733  0.2812 -0.2717
 3316SOL    HW121584   0.118   4.685   4.932 -1.4593  0.2789 -1.0617
 3316SOL    HW221585   0.204   0.064   4.901 -0.2251  1.1915  0.8181
 3317SOL     OW21586   4.276   3.547   8.739  0.2877  0.1355 -1.1910
 3317SOL    HW121587   4.241   3.553   8.828  1.7092  0.1594 -0.6394
 3317SOL    HW221588   4.209   3.603   8.699 -0.3666  0.6771  0.6726
 3318SOL     OW21589   2.082   4.327   7.035  0.1502  0.2932 -0.1878
 3318SOL    HW121590   2.147   4.263   7.064 -1.2067 -0.5923  0.8998
 3318SOL    HW221591   2.108   4.401   7.091 -1.1261  1.4998 -1.2031
 3319SOL     OW21592   1.400   0.926  13.167 -0.0076  0.0974 -0.1032
 3319SOL    HW121593   1.308   0.905  13.149 -0.2345  0.5973  0.4647
 3319SOL    HW221594   1.400   1.020  13.146  1.6449 -0.5477 -2.9573
 3320SOL     OW21595   1.382   4.285  11.744 -0.4968 -0.0374  0.5867
 3320SOL    HW121596   1.338   4.312  11.825 -2.7097 -2.9833  0.3720
 3320SOL    HW221597   1.427   4.361  11.708  1.2219 -0.2308  2.3168
 3321SOL     OW21598   1.477   1.992   7.724  0.3492 -0.0199 -0.0048
 3321SOL    HW121599   1.549   2.046   7.691  0.1196 -0.1410 -0.7085
 3321SOL    HW221600   1.443   2.017   7.810  1.2709  1.2543 -0.0173
 3322SOL     OW21601   2.941   3.964   8.918 -0.2083  0.0377  0.0643
 3322SOL    HW121602   2.937   4.053   8.883 -0.2649  0.3071  0.7356
 3322SOL    HW221603   2.861   3.938   8.873 -0.0282  0.9375 -0.7514
 3323SOL     OW21604   3.016   0.618   5.816 -0.1867  0.9637 -0.0821
 3323SOL    HW121605   3.107   0.593   5.829 -0.7835 -1.6294 -1.0230
 3323SOL    HW221606   3.017   0.698   5.762  2.7188  0.9284 -0.0741
 3324SOL     OW21607   3.884   1.805   6.481  0.3052 -0.3386  0.3160
 3324SOL    HW121608   3.837   1.722   6.487  1.4395 -0.9716  0.4273
 3324SOL    HW221609   3.926   1.816   6.566 -0.4915 -1.1135  0.8011
 3325SOL     OW21610   3.995   0.066   3.492  0.1592 -0.5482 -0.6195
 3325SOL    HW121611   3.979   4.705   3.485 -1.9599 -0.2410  0.1642
 3325SOL    HW221612   3.977   0.098   3.404  1.3786  0.9723 -0.3128
 3326SOL     OW21613   1.424   1.582   6.117 -0.0693  0.0749  0.5962
 3326SOL    HW121614   1.423   1.544   6.029  0.3268  0.7791  0.2838
 3326SOL    HW221615   1.387   1.509   6.167 -0.7545 -0.5346 -0.8027
 3327SOL     OW21616   0.389   3.813   5.113  0.0022  0.6484 -0.0985
 3327SOL    HW121617   0.465   3.777   5.158 -0.6954 -1.5909 -0.7399
 3327SOL    HW221618   0.333   3.832   5.189  0.3640 -1.1803  0.6133
 3328SOL     OW21619   0.016   3.285   0.423  0.8793 -0.6599 -0.1609
 3328SOL    HW121620   4.674   3.227   0.417  0.6037 -0.3392  0.2260
 3328SOL    HW221621   4.713   3.373   0.411  1.3321 -0.7740 -2.4105
 3329SOL     OW21622   3.294   3.689   2.327 -0.0399 -0.0819  0.3922
 3329SOL    HW121623   3.272   3.773   2.285  2.2187  0.0946 -0.4414
 3329SOL    HW221624   3.389   3.688   2.316  0.0617  0.2941  1.2717
 3330SOL     OW21625   3.009   4.652  10.778  0.0940 -0.0336  0.5440
 3330SOL    HW121626   3.023   4.608  10.694 -1.9218 -1.8778  1.1814
 3330SOL    HW221627   2.980   0.005  10.749  0.4123  0.2547  1.0776
 3331SOL     OW21628   3.555   0.155  10.605  0.0807  0.0122 -0.1529
 3331SOL    HW121629   3.583   0.166  10.514 -1.5250 -2.1683 -0.8944
 3331SOL    HW221630   3.501   0.076  10.605  3.3338 -2.1495 -3.3756
 3332SOL     OW21631   1.304   1.574   7.838 -0.7387 -0.2971 -0.1810
 3332SOL    HW121632   1.367   1.645   7.853 -0.9384 -0.3009  0.6786
 3332SOL    HW221633   1.258   1.611   7.763 -0.2268  1.9014  0.5871
 3333SOL     OW21634   2.362   3.606   2.607  0.7567 -0.3252 -0.1407
 3333SOL    HW121635   2.321   3.641   2.687 -2.8779  0.1932 -2.2320
 3333SOL    HW221636   2.304   3.630   2.535  0.8126 -1.5298 -0.5761
 3334SOL     OW21637   3.758   2.065   2.548  0.1396 -0.1492  0.9306
 3334SOL    HW121638   3.852   2.080   2.546  0.0875  0.1158  0.3318
 3334SOL    HW221639   3.723   2.152   2.527  0.3643 -0.2923 -0.0395
 3335SOL     OW21640   3.527   0.290  12.510  0.5915  0.0051  0.1474
 3335SOL    HW121641   3.493   0.257  12.427  4.9650 -3.3541 -0.2887
 3335SOL    HW221642   3.515   0.212  12.564 -1.4438 -0.1642 -0.5609
 3336SOL     OW21643   0.482   0.360   8.316  0.3098 -0.0811  0.0840
 3336SOL    HW121644   0.436   0.431   8.362  1.5353  1.1589 -0.5927
 3336SOL    HW221645   0.546   0.415   8.270  0.9211  0.0553  1.0735
 3337SOL     OW21646   2.011   3.876   8.224 -0.3618 -0.0723  0.2616
 3337SOL    HW121647   2.085   3.862   8.283  0.3943 -1.0594 -0.9356
 3337SOL    HW221648   2.040   3.840   8.141  1.0795 -0.6142  0.9996
 3338SOL     OW21649   2.071   1.833   9.946 -0.4677 -0.0686  0.2902
 3338SOL    HW121650   1.991   1.868   9.906 -0.2477 -1.9442 -1.7682
 3338SOL    HW221651   2.061   1.740   9.925 -2.0081  0.4371 -1.1940
 3339SOL     OW21652   3.355   0.338   7.025  1.0904  0.7282 -0.0130
 3339SOL    HW121653   3.397   0.252   7.022  0.5600  0.3389  3.2744
 3339SOL    HW221654   3.395   0.378   7.102  0.1831  1.0188  0.3125
 3340SOL     OW21655   0.985   4.605   3.331 -0.4140  0.5326 -0.0074
 3340SOL    HW121656   0.899   4.643   3.314 -0.2473  1.3902  1.0150
 3340SOL    HW221657   0.989   4.533   3.268 -1.2830  1.8978 -1.6290
 3341SOL     OW21658   3.745   0.712   5.563 -0.4904  0.1314 -0.3238
 3341SOL    HW121659   3.776   0.793   5.604 -1.9915  0.2928  0.4924
 3341SOL    HW221660   3.652   0.729   5.548 -0.7531 -1.0838 -0.0520
 3342SOL     OW21661   2.465   4.258  10.454  0.1536  0.4220 -0.0912
 3342SOL    HW121662   2.527   4.255  10.527 -0.1436 -0.9810  0.1126
 3342SOL    HW221663   2.387   4.246  10.509 -1.1765  0.7758 -1.8903
 3343SOL     OW21664   3.046   3.456   2.010  1.0151  0.1554  0.2414
 3343SOL    HW121665   2.979   3.521   1.991 -0.2477 -1.4636 -0.8362
 3343SOL    HW221666   2.998   3.380   1.978  2.8077 -0.9044  0.0301
 3344SOL     OW21667   0.110   0.533  17.059  0.6381  0.0933  0.6492
 3344SOL    HW121668   0.200   0.563  17.042  0.6463 -0.2794  0.0075
 3344SOL    HW221669   0.080   0.590  17.129  1.6264 -1.2928  2.2017
 3345SOL     OW21670   4.167   3.071   1.853  0.6275 -0.2323 -0.1741
 3345SOL    HW121671   4.116   3.061   1.933 -0.5696  1.8920 -0.6608
 3345SOL    HW221672   4.238   3.017   1.888 -0.0394 -2.1479 -1.7698
 3346SOL     OW21673   0.987   3.771   4.680 -0.5851 -0.7970  0.3416
 3346SOL    HW121674   1.044   3.818   4.620 -0.4158 -1.8770 -0.3283
 3346SOL    HW221675   0.942   3.842   4.728 -2.0076  0.1272 -2.3401
 3347SOL     OW21676   2.550   0.596   3.751 -0.2094  0.1832 -0.3216
 3347SOL    HW121677   2.496   0.672   3.773  0.0333  0.0774  0.6711
 3347SOL    HW221678   2.540   0.621   3.659 -2.4136 -1.1221 -0.4310
 3348SOL     OW21679   2.900   3.227   4.254  0.0651  0.2563  0.3601
 3348SOL    HW121680   2.864   3.241   4.167 -0.7418  0.6000  0.7464
 3348SOL    HW221681   2.864   3.299   4.307  0.9756  0.4297  0.7544
 3349SOL     OW21682   2.573   3.555   7.816 -0.4069  0.0332 -1.3832
 3349SOL    HW121683   2.546   3.535   7.726  0.6220 -0.3988 -1.5988
 3349SOL    HW221684   2.533   3.642   7.823 -3.6467 -1.2846 -3.4251
 3350SOL     OW21685   2.944   0.172  15.323 -0.0562  0.3798  0.0668
 3350SOL    HW121686   2.896   0.222  15.257 -1.8172 -0.3306  0.8308
 3350SOL    HW221687   2.986   0.106  15.268 -1.4185 -0.6376  0.2506
 3351SOL     OW21688   0.034   4.685   3.136  0.3023 -0.2694 -0.1208
 3351SOL    HW121689   0.021   4.725   3.222 -0.2760 -0.3233 -0.1862
 3351SOL    HW221690   0.053   0.034   3.091  2.6781 -0.1506  1.0549
 3352SOL     OW21691   4.408   0.614   9.196  0.4270  0.2018  0.1791
 3352SOL    HW121692   4.368   0.653   9.274  0.6887  1.7870 -0.4909
 3352SOL    HW221693   4.348   0.541   9.180  1.7326 -0.5496 -1.2620
 3353SOL     OW21694   1.303   0.688   3.326  0.2833  0.2846 -0.3210
 3353SOL    HW121695   1.367   0.759   3.336  0.1523  0.2583  0.7015
 3353SOL    HW221696   1.267   0.670   3.413 -1.6060  1.9560 -0.7559
 3354SOL     OW21697   2.369   4.239  16.753  0.2006 -0.2085  0.4901
 3354SOL    HW121698   2.333   4.215  16.668 -0.5292 -3.0795  1.6177
 3354SOL    HW221699   2.395   4.328  16.730  0.4512 -0.5313 -0.4430
 3355SOL     OW21700   2.976   3.528   3.193  0.2771  0.1945  0.5203
 3355SOL    HW121701   2.899   3.585   3.196 -1.5308 -2.1435 -1.4197
 3355SOL    HW221702   2.963   3.467   3.120  0.8551  0.8733 -0.1573
 3356SOL     OW21703   2.658   3.633   5.930 -0.4396  0.4645  0.4858
 3356SOL    HW121704   2.727   3.699   5.923 -2.0550  2.3487  2.1648
 3356SOL    HW221705   2.582   3.691   5.928 -0.5737  0.2380 -1.3081
 3357SOL     OW21706   0.878   1.714   7.208  0.5126  0.3418  0.5098
 3357SOL    HW121707   0.932   1.757   7.142  0.8617 -1.5339 -0.4421
 3357SOL    HW221708   0.838   1.793   7.243  1.5166  1.2389 -0.3772
 3358SOL     OW21709   1.612   0.480   2.260 -0.3044 -0.4275  0.1469
 3358SOL    HW121710   1.580   0.399   2.220  0.9540 -0.0858 -1.5062
 3358SOL    HW221711   1.551   0.483   2.334 -0.9242 -0.2810 -0.3677
 3359SOL     OW21712   4.301   1.010  10.240 -0.7351 -0.0991 -0.2172
 3359SOL    HW121713   4.278   0.933  10.187  0.6258  0.6192 -1.8484
 3359SOL    HW221714   4.232   1.066  10.206  0.8591  2.8403  1.4448
 3360SOL     OW21715   1.492   0.789   9.114  0.2884 -0.0052  0.2000
 3360SOL    HW121716   1.524   0.875   9.142 -0.9136  0.2790  0.7339
 3360SOL    HW221717   1.510   0.795   9.021  2.4770 -0.8697  0.5653
 3361SOL     OW21718   2.391   2.086  11.821 -0.2108 -0.6683  0.1391
 3361SOL    HW121719   2.418   2.090  11.913 -2.1523  0.9337  0.6448
 3361SOL    HW221720   2.351   1.999  11.824  0.4396 -0.9598  0.2590
 3362SOL     OW21721   2.106   1.033   2.284  0.3574 -0.4181 -0.2095
 3362SOL    HW121722   2.062   1.116   2.301 -0.7982 -0.3572 -3.4455
 3362SOL    HW221723   2.030   0.976   2.271  0.5528  0.0304 -3.2699
 3363SOL     OW21724   0.012   0.902   8.900 -0.7180 -0.1327  0.6242
 3363SOL    HW121725   0.063   0.972   8.940 -0.6641  0.4032 -0.3820
 3363SOL    HW221726   4.655   0.929   8.884 -0.5391 -0.7631 -1.4808
 3364SOL     OW21727   1.869   4.701   4.823  0.7663  0.4649 -0.0022
 3364SOL    HW121728   1.815   4.689   4.745  1.6424 -0.5873 -0.4540
 3364SOL    HW221729   1.820   4.714   4.904  0.8527 -0.0546  0.1356
 3365SOL     OW21730   1.710   2.885   8.454  0.5390  0.2052  0.7949
 3365SOL    HW121731   1.716   2.852   8.544  1.9414 -0.5525  0.4295
 3365SOL    HW221732   1.652   2.823   8.410  0.9430  0.0665  0.4566
 3366SOL     OW21733   2.841   1.902   7.272  0.2278 -0.5473 -0.4815
 3366SOL    HW121734   2.840   1.902   7.368 -1.6668 -0.5861 -0.4945
 3366SOL    HW221735   2.807   1.991   7.265 -0.5835 -0.7546  0.8256
 3367SOL     OW21736   1.462   2.887   1.293  0.8132 -0.3578 -0.1100
 3367SOL    HW121737   1.534   2.827   1.275  0.0213 -1.4340  0.3144
 3367SOL    HW221738   1.510   2.966   1.269  3.0632 -1.5500  0.5122
 3368SOL     OW21739   4.299   2.964   3.307  0.3907  0.1362  0.1697
 3368SOL    HW121740   4.330   2.907   3.377 -0.9208 -1.7750 -0.8344
 3368SOL    HW221741   4.344   3.049   3.313 -0.7315  0.9141 -2.2660
 3369SOL     OW21742   2.794   3.151   8.070  0.8239  0.6227 -0.0378
 3369SOL    HW121743   2.877   3.107   8.088  0.0212 -0.6824  0.4873
 3369SOL    HW221744   2.831   3.238   8.056  3.0310 -0.3458 -0.1175
 3370SOL     OW21745   2.863   0.364   4.060 -0.3893  0.1715 -0.1087
 3370SOL    HW121746   2.839   0.447   4.020  0.1321  0.5582  0.3848
 3370SOL    HW221747   2.928   0.337   3.996 -0.6879 -3.2529  1.0165
 3371SOL     OW21748   2.946   4.121   5.683 -0.2886 -0.2071 -0.1021
 3371SOL    HW121749   2.990   4.166   5.755  0.6901  1.1227 -1.5277
 3371SOL    HW221750   2.857   4.147   5.706 -1.1637 -3.0341 -0.3793
 3372SOL     OW21751   0.373   2.749   5.694  0.3556 -0.0041 -0.2589
 3372SOL    HW121752   0.427   2.822   5.663  0.9185  0.0422  0.8528
 3372SOL    HW221753   0.336   2.716   5.612 -1.9317  1.2762  0.2453
 3373SOL     OW21754   2.585   0.307   8.885 -0.0277  0.0601  0.0145
 3373SOL    HW121755   2.620   0.218   8.895  0.6412  0.2159 -0.9368
 3373SOL    HW221756   2.531   0.332   8.960 -0.6202  0.6526 -0.6234
 3374SOL     OW21757   1.734   1.341   6.976 -0.7761  0.1524  0.0101
 3374SOL    HW121758   1.748   1.435   6.987  0.5042  0.1322 -1.3965
 3374SOL    HW221759   1.687   1.322   7.057 -0.2030 -0.5805  0.1715
 3375SOL     OW21760   1.752   2.461  16.771  0.2472  0.2547 -0.0120
 3375SOL    HW121761   1.847   2.465  16.774  0.2542 -0.3060  0.5269
 3375SOL    HW221762   1.746   2.371  16.804  1.0568  1.0925  2.3958
 3376SOL     OW21763   1.464   4.361  12.702 -0.0249 -0.3742  0.1663
 3376SOL    HW121764   1.523   4.351  12.776 -0.6155 -0.0761  0.6698
 3376SOL    HW221765   1.526   4.372  12.629  2.1908 -3.6090  1.5770
 3377SOL     OW21766   2.144   4.460   7.784  0.4049 -0.4425  0.5462
 3377SOL    HW121767   2.204   4.524   7.747 -1.4115  0.5843 -0.6033
 3377SOL    HW221768   2.059   4.503   7.774  1.7337  1.7243 -1.4480
 3378SOL     OW21769   3.189   2.794   4.199 -0.0744  0.8592 -0.1695
 3378SOL    HW121770   3.159   2.716   4.152 -1.1504  0.8519  0.5384
 3378SOL    HW221771   3.110   2.847   4.198 -2.4585 -2.7454 -2.4170
 3379SOL     OW21772   1.647   3.417   4.240  0.7102  0.0691  0.0777
 3379SOL    HW121773   1.662   3.334   4.194  1.8544 -0.0120  0.5999
 3379SOL    HW221774   1.676   3.478   4.172 -0.7304 -0.5367 -1.0819
 3380SOL     OW21775   1.821   2.859   8.821 -0.1438  0.2157 -0.0789
 3380SOL    HW121776   1.791   2.768   8.828 -0.4833  0.6295  4.0286
 3380SOL    HW221777   1.735   2.899   8.831 -0.6011 -1.6299  3.7514
 3381SOL     OW21778   0.914   2.994   4.315  0.0819 -0.3327  0.3310
 3381SOL    HW121779   0.894   3.077   4.272 -0.8164  0.3352  2.0260
 3381SOL    HW221780   0.954   3.034   4.392  1.7465  1.1853 -1.3291
 3382SOL     OW21781   3.548   3.451  10.345  0.2127  0.1304  0.3480
 3382SOL    HW121782   3.554   3.546  10.358 -0.2025  0.3442 -1.0298
 3382SOL    HW221783   3.453   3.438  10.352 -0.1040  1.6917 -0.9800
 3383SOL     OW21784   1.822   2.280   0.242  0.0042 -0.3691  0.7419
 3383SOL    HW121785   1.732   2.294   0.272 -0.9162 -0.6149 -1.8249
 3383SOL    HW221786   1.813   2.197   0.194 -0.5860  2.1727 -3.6171
 3384SOL     OW21787   1.838   3.790   7.768  0.4708 -0.0226  0.4684
 3384SOL    HW121788   1.816   3.719   7.829 -0.9794 -1.1088 -1.2845
 3384SOL    HW221789   1.924   3.750   7.755 -0.7195 -2.5376  0.2794
 3385SOL     OW21790   0.844   1.626  16.757 -0.0730  0.0375 -0.3808
 3385SOL    HW121791   0.755   1.610  16.788 -0.1651  0.6081 -0.3528
 3385SOL    HW221792   0.814   1.695  16.698  1.3745  0.3655 -0.7230
 3386SOL     OW21793   3.608   0.605   8.340 -0.4380  0.6949  0.0797
 3386SOL    HW121794   3.528   0.604   8.393 -0.2834 -0.5272  0.2925
 3386SOL    HW221795   3.678   0.642   8.394 -0.0836 -0.9774  0.7481
 3387SOL     OW21796   3.553   0.833   9.271 -0.5879  0.2063 -0.1344
 3387SOL    HW121797   3.615   0.894   9.311 -0.0396  0.2970 -1.1161
 3387SOL    HW221798   3.492   0.826   9.344  1.0004 -0.4482  1.1080
 3388SOL     OW21799   4.466   0.173   6.735 -0.3530  0.1589  0.0384
 3388SOL    HW121800   4.428   0.086   6.725 -0.9538  0.5843 -1.4181
 3388SOL    HW221801   4.503   0.178   6.823 -0.5119  0.5673  0.0811
 3389SOL     OW21802   2.240   0.567  12.839  0.1738  0.2781  0.3366
 3389SOL    HW121803   2.277   0.532  12.758  2.5167  0.8445  1.1568
 3389SOL    HW221804   2.224   0.660  12.824 -0.6513 -0.2325 -1.9335
 3390SOL     OW21805   1.951   2.687   6.327  0.4966 -0.2474  0.0142
 3390SOL    HW121806   1.927   2.610   6.378  0.1931  0.7165  1.3195
 3390SOL    HW221807   2.025   2.663   6.270  0.5874 -2.2841  0.9784
 3391SOL     OW21808   4.375   0.618   7.514  0.0634  0.6969 -0.4984
 3391SOL    HW121809   4.368   0.525   7.538 -0.8047  0.5785 -1.1963
 3391SOL    HW221810   4.351   0.614   7.421  0.5625 -1.9776 -0.5241
 3392SOL     OW21811   0.297   3.536  14.213 -0.1929  0.2919 -0.5355
 3392SOL    HW121812   0.206   3.532  14.183 -0.8140  0.2780  1.3452
 3392SOL    HW221813   0.352   3.515  14.138  0.0037 -1.6303  0.1509
 3393SOL     OW21814   3.898   4.265  10.519 -0.2689 -0.0922  0.1350
 3393SOL    HW121815   3.865   4.348  10.485 -1.2834  0.1619  1.7230
 3393SOL    HW221816   3.902   4.202  10.447 -0.9196 -1.1752  1.0461
 3394SOL     OW21817   3.415   3.125  14.219  0.0120 -0.2824 -0.3909
 3394SOL    HW121818   3.352   3.076  14.166  0.0437 -0.4356 -0.2871
 3394SOL    HW221819   3.493   3.111  14.165  0.6531  0.5388  0.3088
 3395SOL     OW21820   1.447   3.938   7.960 -0.5718  0.1580 -0.7054
 3395SOL    HW121821   1.371   3.911   7.909 -1.6162  0.1854  0.8471
 3395SOL    HW221822   1.494   3.865   7.921  0.1955  1.1249 -1.5797
 3396SOL     OW21823   2.580   1.041   6.011 -0.1495 -0.7030 -0.4676
 3396SOL    HW121824   2.511   1.102   5.983  1.0544 -0.2269 -2.3194
 3396SOL    HW221825   2.648   1.065   5.949 -1.4127  2.2524 -0.7157
 3397SOL     OW21826   2.032   1.927   8.228 -0.0801 -0.3301 -0.1330
 3397SOL    HW121827   2.015   1.853   8.169  1.4604 -2.2723  1.8100
 3397SOL    HW221828   1.944   1.962   8.239  0.0086  0.0387 -0.5870
 3398SOL     OW21829   3.260   0.681   5.408  0.4495 -0.1138 -0.1453
 3398SOL    HW121830   3.205   0.633   5.471  0.5262  0.3507  0.2738
 3398SOL    HW221831   3.265   0.616   5.337  0.8099 -0.7836  0.4963
 3399SOL     OW21832   0.083   3.471  17.358  0.2648 -0.6049 -0.3992
 3399SOL    HW121833   0.031   3.488  17.436  3.0567  2.2724  0.8258
 3399SOL    HW221834   0.039   3.392  17.328 -0.9256  0.6217 -1.8646
 3400SOL     OW21835   1.658   1.395   6.229 -0.6740  0.1159 -0.3588
 3400SOL    HW121836   1.627   1.305   6.217  1.3528 -0.5635 -0.5207
 3400SOL    HW221837   1.584   1.430   6.279  1.7746  1.9774  1.9256
 3401SOL     OW21838   4.182   4.205   4.950 -0.4881  0.0193 -0.6138
 3401SOL    HW121839   4.126   4.244   5.017 -0.2767  0.6245 -0.7865
 3401SOL    HW221840   4.127   4.129   4.935 -0.7362  0.2916 -1.0901
 3402SOL     OW21841   0.087   0.403   2.147  0.5356  0.4395 -0.2271
 3402SOL    HW121842   0.176   0.420   2.118  1.7102 -2.9926  1.3457
 3402SOL    HW221843   0.058   0.482   2.192 -1.5473 -0.5174  0.1246
 3403SOL     OW21844   3.549   3.172   1.375  0.4864  0.1423 -0.1575
 3403SOL    HW121845   3.620   3.181   1.439 -1.8138  0.0607  2.3856
 3403SOL    HW221846   3.565   3.081   1.349 -1.8563  0.4846 -2.7346
 3404SOL     OW21847   1.493   3.088   2.123 -0.8653  1.0619 -0.5961
 3404SOL    HW121848   1.570   3.141   2.142  1.0005 -2.0164  0.4754
 3404SOL    HW221849   1.522   3.047   2.041  0.2364 -0.1025  0.3844
 3405SOL     OW21850   1.279   0.748   0.214 -0.1987  0.3383  0.0478
 3405SOL    HW121851   1.207   0.687   0.231  0.8465 -0.3021  2.1726
 3405SOL    HW221852   1.273   0.784   0.303  0.1931  0.1714  0.1414
 3406SOL     OW21853   2.724   4.722  15.499  0.5829  0.0972 -0.7129
 3406SOL    HW121854   2.655   4.656  15.504  1.3135 -0.7475 -1.6775
 3406SOL    HW221855   2.686   0.061  15.449  1.2059 -0.4033 -1.9225
 3407SOL     OW21856   1.239   3.220   9.198  0.2389  0.2541  0.2146
 3407SOL    HW121857   1.297   3.147   9.221 -0.0626 -0.2323 -0.5535
 3407SOL    HW221858   1.296   3.297   9.208  1.1876 -0.2518 -1.2015
 3408SOL     OW21859   0.711   2.311   7.762  0.2150  0.8444  0.3067
 3408SOL    HW121860   0.804   2.315   7.741 -0.1350 -0.8652 -1.5110
 3408SOL    HW221861   0.696   2.221   7.732  2.1146  0.7705 -0.4372
 3409SOL     OW21862   3.790   3.282  16.160 -0.3748  0.0463  0.5929
 3409SOL    HW121863   3.722   3.300  16.094  0.9998  1.7980 -0.3277
 3409SOL    HW221864   3.833   3.367  16.159 -1.7437  0.7344 -2.3374
 3410SOL     OW21865   1.089   0.519  15.476 -0.4609  0.5977  0.3268
 3410SOL    HW121866   0.997   0.510  15.448  0.0729 -0.5056 -1.1010
 3410SOL    HW221867   1.077   0.583  15.546  0.0139 -0.9285  1.7887
 3411SOL     OW21868   0.218   4.724   0.878 -0.2806  0.1211  0.2502
 3411SOL    HW121869   0.307   0.008   0.906 -0.4553 -0.3439  1.0946
 3411SOL    HW221870   0.188   4.679   0.957 -0.0423 -0.2337  0.1397
 3412SOL     OW21871   2.726   3.482   9.474 -0.1847 -0.1570  0.1964
 3412SOL    HW121872   2.745   3.558   9.528 -2.0245 -0.1483  0.8336
 3412SOL    HW221873   2.813   3.463   9.439 -0.1207 -0.5581  0.5696
 3413SOL     OW21874   2.862   4.550   7.059 -0.5849 -0.0474  0.4851
 3413SOL    HW121875   2.873   4.455   7.067  1.1958  0.2729  1.6836
 3413SOL    HW221876   2.936   4.571   7.002 -1.1635 -0.8591 -0.5855
 3414SOL     OW21877   1.583   1.172   8.634 -0.2042 -0.4992  0.3105
 3414SOL    HW121878   1.654   1.118   8.598  0.0032  0.5523 -0.8349
 3414SOL    HW221879   1.622   1.259   8.637 -0.5879 -0.2871 -0.7154
 3415SOL     OW21880   1.578   0.973   9.506  0.3738 -0.4149 -0.2241
 3415SOL    HW121881   1.588   0.887   9.548  3.2522  0.5401  1.0735
 3415SOL    HW221882   1.490   0.952   9.476 -0.8057  2.9454  0.8374
 3416SOL     OW21883   0.033   0.190   7.446 -0.0150  0.2416 -0.4860
 3416SOL    HW121884   4.726   0.132   7.382  1.2938  0.1221 -1.2206
 3416SOL    HW221885   0.112   0.218   7.399  0.2167  0.4236  0.0209
 3417SOL     OW21886   3.931   4.440   0.614 -0.1747 -0.4820  0.1620
 3417SOL    HW121887   3.883   4.519   0.638 -0.4227 -0.4288 -0.4848
 3417SOL    HW221888   3.987   4.472   0.543 -0.9324  0.6720  0.0769
 3418SOL     OW21889   3.259   2.710  10.362 -0.2379 -0.2082  0.4287
 3418SOL    HW121890   3.198   2.748  10.425 -1.3618  2.0616 -1.9922
 3418SOL    HW221891   3.339   2.722  10.413 -0.0812  0.8092 -0.0490
 3419SOL     OW21892   0.687   3.618  10.724  0.7332 -0.1733 -0.2762
 3419SOL    HW121893   0.608   3.574  10.757 -0.5120  2.5246  0.4087
 3419SOL    HW221894   0.651   3.706  10.741  0.8692 -0.4014  1.2419
 3420SOL     OW21895   1.656   3.889   4.772  0.0790  0.0413 -0.3817
 3420SOL    HW121896   1.597   3.873   4.698 -0.3206 -0.2031 -0.0126
 3420SOL    HW221897   1.735   3.841   4.747 -0.6020 -1.9819  1.3669
 3421SOL     OW21898   4.680   2.209   7.651 -0.4694  0.4149  0.0133
 3421SOL    HW121899   4.617   2.248   7.590 -0.6990 -1.3191 -0.8738
 3421SOL    HW221900   4.697   2.282   7.711 -0.7333 -1.7926  2.7616
 3422SOL     OW21901   1.479   4.467   3.117  0.6033  0.0993 -0.0057
 3422SOL    HW121902   1.414   4.509   3.060 -0.8996 -0.8883  0.9753
 3422SOL    HW221903   1.555   4.516   3.087  1.1516 -1.3352 -0.9604
 3423SOL     OW21904   1.544   1.481   0.288  0.6211  0.2410  0.1510
 3423SOL    HW121905   1.564   1.393   0.318  1.5228 -0.1450 -1.6003
 3423SOL    HW221906   1.538   1.471   0.193  2.5211 -1.1711  0.1751
 3424SOL     OW21907   4.087   3.947   9.075  0.2174 -0.3205  0.4691
 3424SOL    HW121908   4.065   4.006   9.003  0.3806 -1.2239 -0.3263
 3424SOL    HW221909   4.132   4.004   9.137 -1.6658  2.0869 -0.4138
 3425SOL     OW21910   0.265   1.033   7.308 -0.2236  0.8370 -0.1984
 3425SOL    HW121911   0.319   1.064   7.381 -0.1150  1.1826 -0.4258
 3425SOL    HW221912   0.177   1.046   7.343 -0.6325  0.0945 -0.9678
 3426SOL     OW21913   0.011   1.555  10.969  0.0200 -0.3281 -0.0668
 3426SOL    HW121914   0.070   1.562  10.894 -0.9611  2.0163 -0.6362
 3426SOL    HW221915   4.670   1.512  10.927  0.1049 -0.6793  0.1485
 3427SOL     OW21916   3.055   2.846  14.587 -0.1751 -0.2080 -0.0092
 3427SOL    HW121917   3.061   2.916  14.522 -1.1619  0.4642  0.6148
 3427SOL    HW221918   2.999   2.783  14.541 -1.8883 -0.1178  1.9310
 3428SOL     OW21919   4.407   4.129   2.893 -0.6459  0.1478  0.1871
 3428SOL    HW121920   4.326   4.179   2.904 -0.1744  1.7717 -3.9287
 3428SOL    HW221921   4.419   4.123   2.799 -0.5836  0.0538  0.2010
 3429SOL     OW21922   2.967   0.699   4.799 -0.4689  0.1911  0.1634
 3429SOL    HW121923   2.915   0.779   4.810  1.1329  1.0340  1.4863
 3429SOL    HW221924   2.909   0.632   4.836  1.3421 -1.1440  0.5663
 3430SOL     OW21925   0.132   1.376   6.537 -0.8143  0.2562 -0.1035
 3430SOL    HW121926   0.093   1.290   6.553 -1.4536  0.3050 -1.3831
 3430SOL    HW221927   0.202   1.370   6.602  0.1216  0.0282 -1.1288
 3431SOL     OW21928   4.344   1.746   1.709  0.6900 -0.8639  0.7742
 3431SOL    HW121929   4.314   1.812   1.773 -0.0767  1.6780 -2.2262
 3431SOL    HW221930   4.439   1.755   1.718  0.7560 -1.3814  0.5779
 3432SOL     OW21931   0.277   0.949   6.429  0.3019  0.6029  0.2983
 3432SOL    HW121932   0.337   0.920   6.497  1.0654 -0.8960 -1.0023
 3432SOL    HW221933   0.259   1.038   6.457  0.1627  0.1718  1.5497
 3433SOL     OW21934   4.730   2.091  12.664 -0.0422  0.6484 -0.4614
 3433SOL    HW121935   0.077   2.104  12.715  0.2685 -1.2381 -0.4945
 3433SOL    HW221936   4.677   2.153  12.714 -1.1949 -1.0606  0.4208
 3434SOL     OW21937   3.754   4.580   5.792  0.1233  0.5290  0.2956
 3434SOL    HW121938   3.691   4.621   5.853 -0.6326 -1.0796  0.5975
 3434SOL    HW221939   3.790   4.510   5.847  0.8704 -2.5220 -4.1525
 3435SOL     OW21940   1.466   3.645   5.671 -0.0266  0.3809  0.4251
 3435SOL    HW121941   1.442   3.609   5.586  0.4184 -0.3898  0.6231
 3435SOL    HW221942   1.448   3.577   5.735  0.3821 -1.5304 -1.4962
 3436SOL     OW21943   1.945   4.334   4.420 -0.1095  0.5060  0.1645
 3436SOL    HW121944   1.964   4.392   4.347  0.1255 -0.0915 -0.2504
 3436SOL    HW221945   2.005   4.260   4.411 -0.8313  0.2077 -2.0376
 3437SOL     OW21946   2.932   2.064   8.446 -0.1524  0.4744  0.0718
 3437SOL    HW121947   2.866   2.049   8.513  1.0832 -1.4160  0.8580
 3437SOL    HW221948   2.979   2.141   8.479  0.5736 -1.0661  2.5614
 3438SOL     OW21949   1.202   3.955   2.149  0.3119 -0.0888 -0.6037
 3438SOL    HW121950   1.138   3.957   2.078  0.2133 -1.1773 -0.5517
 3438SOL    HW221951   1.225   4.048   2.147 -0.3367  0.0835 -0.1445
 3439SOL     OW21952   4.117   4.680   2.470 -0.2118  1.1433 -0.1280
 3439SOL    HW121953   4.085   0.034   2.488  1.0446  1.6769 -0.5726
 3439SOL    HW221954   4.204   4.704   2.439  0.3783  0.3447  0.9078
 3440SOL     OW21955   4.551   2.228   4.640 -0.1560  0.1039 -0.8674
 3440SOL    HW121956   4.533   2.321   4.654 -3.3070 -0.3861 -1.5844
 3440SOL    HW221957   4.511   2.193   4.720 -0.6508  1.8524 -0.3363
 3441SOL     OW21958   3.292   2.011   2.508  0.4185 -0.2936 -0.0251
 3441SOL    HW121959   3.360   1.999   2.442 -0.3056 -2.1362 -0.4455
 3441SOL    HW221960   3.310   2.102   2.532 -0.0475 -0.2370  0.1230
 3442SOL     OW21961   1.151   3.803  15.849 -0.1414 -0.4281 -0.5471
 3442SOL    HW121962   1.146   3.867  15.920 -0.9984 -0.8240 -0.2567
 3442SOL    HW221963   1.079   3.743  15.865 -1.5467  1.2661 -0.5737
 3443SOL     OW21964   0.590   0.532  16.583  0.2975 -0.2336 -0.1360
 3443SOL    HW121965   0.604   0.623  16.608 -0.2218 -0.6175  1.5674
 3443SOL    HW221966   0.666   0.526  16.525  1.0605 -1.8186  1.0310
 3444SOL     OW21967   3.661   3.375  17.052 -0.4766 -0.7160 -0.0996
 3444SOL    HW121968   3.713   3.454  17.039 -0.4295 -0.4832  1.4907
 3444SOL    HW221969   3.639   3.387  17.144 -2.5384  2.9263 -1.1036
 3445SOL     OW21970   1.752   2.537   9.414  0.4830  0.9108  0.6369
 3445SOL    HW121971   1.744   2.609   9.476  0.4677 -0.3115  2.0774
 3445SOL    HW221972   1.810   2.578   9.351  0.7156 -1.3737 -0.6308
 3446SOL     OW21973   3.635   4.568  15.090 -0.5973 -0.0458  0.1953
 3446SOL    HW121974   3.554   4.519  15.102  1.1196 -3.0933 -0.7838
 3446SOL    HW221975   3.652   4.622  15.167  0.0185  1.6445 -1.1096
 3447SOL     OW21976   2.463   4.274   3.003 -0.0784  0.4798 -0.1465
 3447SOL    HW121977   2.547   4.241   2.969 -0.3065 -2.0320  1.6824
 3447SOL    HW221978   2.496   4.360   3.028  0.6053 -0.1800  1.2356
 3448SOL     OW21979   1.170   3.229  12.358  0.1475 -0.0117  0.1087
 3448SOL    HW121980   1.210   3.204  12.441 -1.9769 -0.7943  0.9056
 3448SOL    HW221981   1.113   3.155  12.337  1.0472 -0.1631 -1.7436
 3449SOL     OW21982   4.515   1.480   4.655 -0.4041 -0.1420  0.3086
 3449SOL    HW121983   4.517   1.385   4.668 -0.6754 -0.0576  0.9267
 3449SOL    HW221984   4.483   1.510   4.740 -2.8818 -0.5972 -0.4603
 3450SOL     OW21985   3.485   2.427   9.556  0.1655 -0.0009 -0.2854
 3450SOL    HW121986   3.401   2.472   9.555  1.0212  1.6519  2.3375
 3450SOL    HW221987   3.466   2.340   9.592 -1.2602  0.3839 -0.1290
 3451SOL     OW21988   4.304   1.684   1.200 -0.3783 -0.2243  0.4312
 3451SOL    HW121989   4.303   1.721   1.288 -1.1847  1.0215 -0.1057
 3451SOL    HW221990   4.242   1.614   1.219 -1.1563 -0.2478 -2.2207
 3452SOL     OW21991   1.096   0.084   6.766 -0.3477 -0.1164 -0.1851
 3452SOL    HW121992   1.152   0.029   6.820 -1.0550 -1.3006 -0.6602
 3452SOL    HW221993   1.047   0.127   6.836  1.7170 -0.6192  1.5545
 3453SOL     OW21994   0.993   3.071  10.191  0.0690  0.4553  0.4650
 3453SOL    HW121995   0.989   3.106  10.279  1.4739 -1.2516  1.2191
 3453SOL    HW221996   1.004   3.153  10.143  2.7705 -1.1930 -1.7964
 3454SOL     OW21997   1.720   2.884   3.368 -0.0598  0.0773  0.5456
 3454SOL    HW121998   1.815   2.878   3.360  0.0163  1.2126  0.6495
 3454SOL    HW221999   1.698   2.971   3.401  0.9586 -0.1780  1.8565
 3455SOL     OW22000   4.431   0.179  13.087  0.4737 -0.3922 -0.3516
 3455SOL    HW122001   4.462   0.176  12.996  2.1903  0.0352  0.2206
 3455SOL    HW222002   4.393   0.267  13.082 -0.2628 -0.7461 -1.0286
 3456SOL     OW22003   2.896   0.779   1.267  0.2587 -0.3120 -0.1412
 3456SOL    HW122004   2.808   0.804   1.297  0.8688  1.9212 -0.2496
 3456SOL    HW222005   2.931   0.727   1.339 -0.0981 -1.6842 -0.9584
 3457SOL     OW22006   4.537   3.145   2.136  0.2471 -0.1478  0.4136
 3457SOL    HW122007   4.564   3.056   2.116  1.6122 -0.3464  3.0175
 3457SOL    HW222008   4.534   3.186   2.050  0.1503  0.3880  0.6694
 3458SOL     OW22009   3.812   3.617  14.770 -0.2115  0.0840 -0.0198
 3458SOL    HW122010   3.820   3.525  14.797 -0.1380  0.3709  0.9132
 3458SOL    HW222011   3.899   3.625  14.731 -1.0181 -1.8462 -2.2654
 3459SOL     OW22012   2.391   2.050   8.530 -0.4045  0.1197  0.3766
 3459SOL    HW122013   2.397   2.113   8.458 -4.0578 -0.3059 -0.2893
 3459SOL    HW222014   2.299   2.063   8.553 -0.5076 -0.3196  0.1923
 3460SOL     OW22015   0.298   3.525   6.536 -0.0795  0.0573  0.3908
 3460SOL    HW122016   0.345   3.608   6.551 -0.4963  0.5076 -0.7575
 3460SOL    HW222017   0.233   3.539   6.604 -0.6641  1.6497 -0.4755
 3461SOL     OW22018   3.777   0.002   1.382 -0.4339  0.4323 -0.0342
 3461SOL    HW122019   3.827   0.066   1.432  4.2392 -0.5220 -3.5505
 3461SOL    HW222020   3.719   0.063   1.335  0.7137  1.5519  0.0255
 3462SOL     OW22021   0.667   4.682   5.140  0.2193 -0.1118  0.0807
 3462SOL    HW122022   0.716   4.600   5.142  0.1429 -0.1713 -0.3502
 3462SOL    HW222023   0.732   0.003   5.183 -1.3684  0.7504  1.3477
 3463SOL     OW22024   1.668   1.231   2.749 -0.3113 -0.4890 -0.0681
 3463SOL    HW122025   1.608   1.156   2.747 -0.3756 -0.4527  0.3832
 3463SOL    HW222026   1.728   1.212   2.821  0.9788  0.3564 -0.9169
 3464SOL     OW22027   3.466   0.004  13.478  0.0353 -0.2411 -0.2631
 3464SOL    HW122028   3.384   0.042  13.511 -1.0986 -0.8461 -2.3921
 3464SOL    HW222029   3.458   0.026  13.385 -0.6678 -0.6574 -0.2974
 3465SOL     OW22030   2.469   0.375   7.412  0.4010  0.3665  0.4390
 3465SOL    HW122031   2.525   0.431   7.358  0.6150  2.0441  2.3991
 3465SOL    HW222032   2.440   0.314   7.344  1.0320  0.9327 -0.3359
 3466SOL     OW22033   2.183   3.038   6.011 -0.8213  0.3008 -0.3693
 3466SOL    HW122034   2.191   2.973   5.941 -0.5511 -1.3188  1.1653
 3466SOL    HW222035   2.102   3.005   6.047  0.0058 -1.5091 -0.1595
 3467SOL     OW22036   0.716   1.887  17.272 -0.2283  0.1334 -0.0461
 3467SOL    HW122037   0.764   1.809  17.248 -1.5650  0.0655 -2.5103
 3467SOL    HW222038   0.702   1.931  17.188 -1.2728  0.2607  0.1857
 3468SOL     OW22039   3.396   3.475  16.951 -0.6608  0.1403  0.1810
 3468SOL    HW122040   3.488   3.502  16.954 -0.8659  1.0517 -1.2762
 3468SOL    HW222041   3.383   3.440  17.039 -2.5300 -2.4614 -1.1238
 3469SOL     OW22042   2.047   4.680   2.362  0.0709 -0.0727  0.4703
 3469SOL    HW122043   2.012   0.031   2.334  0.9849  0.4565  0.9172
 3469SOL    HW222044   2.137   4.690   2.332 -0.5583  2.7076 -0.5085
 3470SOL     OW22045   2.552   1.051   7.480  0.2255  0.0862  0.1261
 3470SOL    HW122046   2.474   1.090   7.520  1.0952 -1.1533  3.0091
 3470SOL    HW222047   2.622   1.104   7.519  0.4998 -1.6179  1.9136
 3471SOL     OW22048   1.437   3.725   2.554 -0.3804 -0.1276  0.1845
 3471SOL    HW122049   1.388   3.802   2.522  1.1798  0.6955 -0.2155
 3471SOL    HW222050   1.453   3.679   2.472 -2.1260 -1.0205  0.3416
 3472SOL     OW22051   2.159   1.181   5.282  0.5669  0.1889 -0.5061
 3472SOL    HW122052   2.214   1.243   5.235  1.1436  1.6040  2.0447
 3472SOL    HW222053   2.229   1.142   5.334 -1.1676 -1.0793  0.8821
 3473SOL     OW22054   1.728   2.694   4.702  0.0882  0.4764  0.1399
 3473SOL    HW122055   1.733   2.782   4.740  2.0101 -0.0133  0.9975
 3473SOL    HW222056   1.802   2.650   4.744  0.6047  1.9127  0.7286
 3474SOL     OW22057   1.089   3.665   8.335  0.4857 -0.2058  0.2605
 3474SOL    HW122058   1.105   3.745   8.386  1.6266 -1.3282  1.6702
 3474SOL    HW222059   1.166   3.665   8.278 -1.1453  0.9472 -1.9189
 3475SOL     OW22060   0.831   3.850  11.246  0.1417 -0.1564 -0.3111
 3475SOL    HW122061   0.782   3.928  11.272 -0.3102 -0.5506  0.0062
 3475SOL    HW222062   0.883   3.839  11.325  0.9473 -0.7905 -0.9171
 3476SOL     OW22063   2.442   3.401   3.250 -0.2361  0.1130  0.1366
 3476SOL    HW122064   2.421   3.488   3.215 -0.1606  0.5638  1.1858
 3476SOL    HW222065   2.359   3.357   3.233 -1.3862  2.3212  0.0605
 3477SOL     OW22066   2.298   3.756  15.965 -0.3612 -0.0814 -0.2492
 3477SOL    HW122067   2.213   3.734  15.926 -1.8269  0.7807  2.4412
 3477SOL    HW222068   2.351   3.792  15.894  1.1640  1.7214  1.7962
 3478SOL     OW22069   2.686   4.237   0.575  0.5051  0.4594  0.2414
 3478SOL    HW122070   2.774   4.216   0.542  0.2929 -0.6265  0.3824
 3478SOL    HW222071   2.696   4.253   0.669  0.0082 -1.2807  0.5858
 3479SOL     OW22072   1.933   0.504   7.356 -0.4615 -0.2198 -0.6952
 3479SOL    HW122073   1.987   0.428   7.335  1.9862  1.2441  0.3180
 3479SOL    HW222074   1.993   0.563   7.400  0.2314 -1.9398  0.6490
 3480SOL     OW22075   3.011   0.909   7.039 -0.8929  0.1956 -0.0745
 3480SOL    HW122076   3.028   0.862   6.957 -0.3290 -0.6539  0.5297
 3480SOL    HW222077   2.917   0.891   7.042 -0.9124  0.5581  1.4384
 3481SOL     OW22078   2.121   2.113   5.187  1.1013  0.3390 -0.2852
 3481SOL    HW122079   2.094   2.026   5.158  0.6684  0.1913  0.5705
 3481SOL    HW222080   2.082   2.110   5.274  1.4143 -1.0785 -0.1903
 3482SOL     OW22081   2.857   0.275   3.344 -0.0356 -0.2239 -0.4397
 3482SOL    HW122082   2.863   0.326   3.425 -1.3733  1.2406 -1.2709
 3482SOL    HW222083   2.810   0.194   3.367  0.3782 -0.5906 -0.9035
 3483SOL     OW22084   2.691   4.363  13.217 -0.2230 -0.3094  0.3383
 3483SOL    HW122085   2.707   4.319  13.133  0.0335 -1.9402  1.2509
 3483SOL    HW222086   2.673   4.456  13.200 -0.1602  0.0176  2.1036
 3484SOL     OW22087   2.844   1.595  13.603  0.0067 -0.6304  0.6595
 3484SOL    HW122088   2.916   1.532  13.601 -0.6268 -1.3025 -0.9116
 3484SOL    HW222089   2.795   1.580  13.522  1.1443 -1.4309  0.1168
 3485SOL     OW22090   1.962   3.994   4.572  0.4391  0.2263  0.3826
 3485SOL    HW122091   1.877   4.016   4.534  0.0095  0.1809  1.3122
 3485SOL    HW222092   1.990   4.079   4.607  0.3278  0.0517  0.9035
 3486SOL     OW22093   4.606   0.471  10.152 -0.2039 -0.2744  0.1555
 3486SOL    HW122094   4.571   0.556  10.179 -1.5316 -0.8720  0.3084
 3486SOL    HW222095   4.695   0.496  10.178 -0.5590  1.8888 -0.6338
 3487SOL     OW22096   2.915   2.142   7.376  0.2953 -0.0694 -0.1712
 3487SOL    HW122097   2.877   2.227   7.352  0.4451  0.1464  0.3606
 3487SOL    HW222098   3.004   2.176   7.368  0.8523 -2.0443 -2.4916
 3488SOL     OW22099   4.654   2.076   8.511 -0.0399  0.2724  0.0116
 3488SOL    HW122100   4.566   2.092   8.546 -0.5829 -3.2216  0.2853
 3488SOL    HW222101   4.704   2.074   8.592 -1.9009  0.0003  1.1553
 3489SOL     OW22102   3.487   3.614   6.840  0.4744  0.0887 -0.1145
 3489SOL    HW122103   3.443   3.664   6.909  1.9343  0.1645  0.7543
 3489SOL    HW222104   3.560   3.577   6.890  0.6251  0.9862  0.3444
 3490SOL     OW22105   3.145   3.256   5.706 -0.5606 -0.4342 -0.2752
 3490SOL    HW122106   3.051   3.241   5.702 -0.2507 -2.3791 -0.2066
 3490SOL    HW222107   3.176   3.197   5.775  2.2838 -0.6808 -1.7512
 3491SOL     OW22108   3.047   1.739   6.593  0.5581  0.6179 -0.4697
 3491SOL    HW122109   2.986   1.810   6.615 -1.6508 -1.5475  0.4262
 3491SOL    HW222110   3.133   1.780   6.587  1.1321  0.0156  3.5789
 3492SOL     OW22111   0.495   4.122   4.673 -0.0644 -0.2151  0.3478
 3492SOL    HW122112   0.544   4.040   4.675  0.5086  0.1599  1.5455
 3492SOL    HW222113   0.438   4.105   4.747  0.1553 -2.3069  0.0380
 3493SOL     OW22114   2.767   3.803   8.774 -0.4732 -0.2215 -0.1697
 3493SOL    HW122115   2.722   3.766   8.699  0.4647 -2.6714  0.4738
 3493SOL    HW222116   2.698   3.804   8.840 -1.0582 -2.4098 -0.7692
 3494SOL     OW22117   0.863   3.623   9.113  0.2731 -0.7244  0.7334
 3494SOL    HW122118   0.839   3.661   9.029  0.9508  0.5768  1.1325
 3494SOL    HW222119   0.783   3.583   9.147  0.7719 -3.6018 -1.4740
 3495SOL     OW22120   2.370   3.482  16.090 -0.1814  0.5049 -0.2678
 3495SOL    HW122121   2.334   3.465  16.177  0.0134 -0.9417 -0.4807
 3495SOL    HW222122   2.370   3.578  16.088  0.4988  0.5172  0.4849
 3496SOL     OW22123   0.629   2.918   2.463 -0.2528 -0.6268  0.3884
 3496SOL    HW122124   0.551   2.882   2.504  1.2411 -1.7799  2.1842
 3496SOL    HW222125   0.651   2.993   2.518  2.2405 -0.0391 -1.3907
 3497SOL     OW22126   1.942   0.840  17.248  0.6160 -0.2597 -0.2544
 3497SOL    HW122127   1.947   0.935  17.265 -3.2968 -0.5164  2.4316
 3497SOL    HW222128   1.919   0.810  17.335  2.2613 -0.6810  0.0336
 3498SOL     OW22129   3.359   1.141   4.674 -0.1568 -0.3398  0.3952
 3498SOL    HW122130   3.347   1.047   4.683  0.8665 -0.1930  3.2100
 3498SOL    HW222131   3.296   1.177   4.735 -1.1110  0.2854 -0.9678
 3499SOL     OW22132   3.025   2.557   7.420  0.1577  0.1961 -0.0660
 3499SOL    HW122133   2.978   2.630   7.380 -0.5279  0.5188  1.2931
 3499SOL    HW222134   3.084   2.615   7.467 -1.5195  0.7446  1.3543
 3500SOL     OW22135   0.225   0.807   3.480 -0.5882  0.8870 -0.1460
 3500SOL    HW122136   0.132   0.793   3.497  0.0107  0.9675  3.2375
 3500SOL    HW222137   0.258   0.717   3.486  2.5135  1.8887 -2.1925
 3501SOL     OW22138   0.424   0.888   0.364  0.2031 -0.0194 -1.0415
 3501SOL    HW122139   0.409   0.793   0.358  2.5082 -0.4240 -0.5799
 3501SOL    HW222140   0.500   0.897   0.306  1.2880  0.8088  0.5020
 3502SOL     OW22141   1.696   3.197  13.739 -0.0140  0.3325  0.3121
 3502SOL    HW122142   1.768   3.243  13.782 -1.4929  1.6727  1.3429
 3502SOL    HW222143   1.656   3.263  13.682  0.4484  0.5184  0.2036
 3503SOL     OW22144   4.443   0.343  17.198  0.0831  0.6212 -0.7055
 3503SOL    HW122145   4.352   0.329  17.173 -0.1868  1.1683 -0.0074
 3503SOL    HW222146   4.439   0.371  17.289  0.0757 -2.0202  0.1089
 3504SOL     OW22147   0.178   3.808   6.366 -0.1064  0.0173 -0.6039
 3504SOL    HW122148   0.176   3.889   6.417  2.1104  1.0122 -2.1063
 3504SOL    HW222149   0.181   3.839   6.275 -2.0212  2.4927  0.1678
 3505SOL     OW22150   3.021   3.919   4.481  0.6934  0.0797  0.8306
 3505SOL    HW122151   3.038   3.959   4.566 -0.3120  0.1065  1.0211
 3505SOL    HW222152   3.086   3.848   4.482  0.3079 -0.2858  0.1473
 3506SOL     OW22153   3.363   0.505   9.761  0.3911 -0.2479  0.4448
 3506SOL    HW122154   3.295   0.444   9.790 -0.0773 -0.8921 -1.9412
 3506SOL    HW222155   3.439   0.466   9.805  2.4653  2.7424 -0.4524
 3507SOL     OW22156   2.277   1.090  14.300  0.0384  0.4978  0.4923
 3507SOL    HW122157   2.200   1.033  14.304 -0.9903  1.7646 -1.2585
 3507SOL    HW222158   2.272   1.154  14.371  0.6510  0.0578  0.9355
 3508SOL     OW22159   0.148   4.202   7.002 -0.1639 -0.2865  0.2614
 3508SOL    HW122160   0.211   4.174   7.068  0.3679 -1.3470 -0.6989
 3508SOL    HW222161   0.159   4.296   7.008  1.5295 -0.3700 -1.7081
 3509SOL     OW22162   4.732   1.295   5.451  0.8287 -0.3577 -0.5528
 3509SOL    HW122163   4.728   1.244   5.533  0.1548  0.6694  0.0561
 3509SOL    HW222164   0.041   1.373   5.487  0.1234 -0.2227 -0.0059
 3510SOL     OW22165   0.602   1.533   6.745  0.6081  0.1475 -0.6481
 3510SOL    HW122166   0.682   1.531   6.693  0.3320  0.9198 -1.1136
 3510SOL    HW222167   0.640   1.513   6.831  2.2568 -0.2083 -1.4584
 3511SOL     OW22168   3.471   2.628   7.947  0.6572 -0.0689 -0.0151
 3511SOL    HW122169   3.391   2.636   7.998  0.4936  0.2745 -0.3261
 3511SOL    HW222170   3.508   2.705   7.989 -1.8033 -0.0804  2.1347
 3512SOL     OW22171   3.348   3.358   7.068 -0.3334 -0.0836  0.4339
 3512SOL    HW122172   3.439   3.359   7.038 -0.5146 -1.3877 -0.1454
 3512SOL    HW222173   3.365   3.337   7.160  0.7415  1.5599  0.6260
 3513SOL     OW22174   2.849   0.367   7.542  0.2472  0.0855  0.2945
 3513SOL    HW122175   2.806   0.430   7.600  1.4501  1.8558 -0.7372
 3513SOL    HW222176   2.882   0.295   7.596  3.3303  1.5947  0.4588
 3514SOL     OW22177   2.670   2.245   5.143 -0.1916  0.6420  0.0072
 3514SOL    HW122178   2.742   2.228   5.204  0.5124 -1.1207 -1.3198
 3514SOL    HW222179   2.656   2.339   5.145 -0.9248  0.5466 -1.0106
 3515SOL     OW22180   3.057   1.082   4.872  0.4006  0.6201  0.1957
 3515SOL    HW122181   3.069   1.162   4.822 -0.5962 -0.4266 -1.7138
 3515SOL    HW222182   2.990   1.029   4.828 -0.0849  1.9500 -0.6525
 3516SOL     OW22183   4.060   4.468  13.184 -0.1954 -0.4974  0.0121
 3516SOL    HW122184   4.142   4.485  13.231 -0.8093 -1.4914  1.4578
 3516SOL    HW222185   4.094   4.396  13.131 -1.2330 -1.3470  0.5050
 3517SOL     OW22186   4.085   2.355   7.914 -0.2585 -0.6601 -0.1842
 3517SOL    HW122187   4.087   2.260   7.902 -1.2198 -0.3488 -2.7516
 3517SOL    HW222188   4.176   2.370   7.888 -1.4607  0.8093 -3.6440
 3518SOL     OW22189   0.424   2.843  14.513 -0.0623  0.1712  0.0102
 3518SOL    HW122190   0.441   2.859  14.606 -1.1786 -1.2798  0.4612
 3518SOL    HW222191   0.372   2.763  14.505  0.0862  0.2414 -1.6778
 3519SOL     OW22192   2.019   4.154   9.257  0.4410 -0.2208 -0.0150
 3519SOL    HW122193   2.108   4.186   9.243  0.5205 -0.9159 -1.1733
 3519SOL    HW222194   1.968   4.213   9.201  2.1647  1.6340  0.3847
 3520SOL     OW22195   0.854   3.484   3.044 -0.1598  0.0174  0.4782
 3520SOL    HW122196   0.851   3.402   2.994  0.6862  1.0840 -1.3489
 3520SOL    HW222197   0.777   3.483   3.101 -1.2847 -1.2132 -1.0327
 3521SOL     OW22198   0.934   2.899   7.137 -0.1903  0.3980  0.1446
 3521SOL    HW122199   1.019   2.898   7.093  0.8810  3.7287  2.0599
 3521SOL    HW222200   0.942   2.975   7.195 -0.2520 -0.3763  1.1747
 3522SOL     OW22201   3.803   4.517  16.110 -0.1211 -0.0165 -0.2869
 3522SOL    HW122202   3.750   4.531  16.189  0.5755 -0.5967  0.2748
 3522SOL    HW222203   3.747   4.459  16.058  0.8420 -0.0875 -1.2514
 3523SOL     OW22204   0.126   1.383   9.251 -0.1179  0.7059 -0.0099
 3523SOL    HW122205   0.178   1.452   9.292  0.8389  0.8824 -1.5231
 3523SOL    HW222206   0.056   1.431   9.206 -2.7496 -2.9135  0.1917
 3524SOL     OW22207   1.765   0.477  11.096 -0.3474  0.3221 -0.6579
 3524SOL    HW122208   1.783   0.562  11.137  0.7833  0.8488 -2.2706
 3524SOL    HW222209   1.673   0.464  11.122 -0.2877  1.9954  0.3626
 3525SOL     OW22210   3.993   4.178   0.389 -0.3702  0.2244 -0.1659
 3525SOL    HW122211   4.010   4.264   0.427 -0.4436  0.2474 -0.1847
 3525SOL    HW222212   3.999   4.190   0.294 -0.0446  1.3575 -0.0038
 3526SOL     OW22213   1.729   0.622   9.317  0.5235 -0.3136  0.0536
 3526SOL    HW122214   1.780   0.622   9.398  0.3020 -1.3558  0.1950
 3526SOL    HW222215   1.769   0.697   9.273 -2.5186 -0.3891 -2.8912
 3527SOL     OW22216   3.398   0.934   5.222  0.6214 -0.4633  0.7561
 3527SOL    HW122217   3.373   0.943   5.130 -0.1896 -1.8048  0.8491
 3527SOL    HW222218   3.316   0.934   5.271  0.6831 -1.8286  0.8515
 3528SOL     OW22219   1.958   0.195   4.465  0.9029  0.6651  0.0684
 3528SOL    HW122220   2.042   0.229   4.494  1.6716 -2.7404  1.8830
 3528SOL    HW222221   1.891   0.244   4.512  1.1855 -0.4320  1.6173
 3529SOL     OW22222   1.545   1.109   7.476  0.0903  0.6386  0.0837
 3529SOL    HW122223   1.622   1.158   7.447  0.9181 -0.1797  0.9004
 3529SOL    HW222224   1.509   1.133   7.391  1.2275  0.6134 -0.4138
 3530SOL     OW22225   0.828   3.506   3.759  0.6908 -0.0183 -0.2062
 3530SOL    HW122226   0.775   3.529   3.683 -0.3025 -0.0207  0.4880
 3530SOL    HW222227   0.893   3.575   3.750  1.1398 -0.6120 -1.4834
 3531SOL     OW22228   1.172   1.347   0.411 -0.4652 -0.6417 -0.5861
 3531SOL    HW122229   1.257   1.384   0.435 -1.7033  0.2580  2.4413
 3531SOL    HW222230   1.169   1.389   0.325  1.7212  1.9298  0.6042
 3532SOL     OW22231   0.483   0.857   4.353 -0.3753 -0.3449  0.8115
 3532SOL    HW122232   0.432   0.902   4.287  2.5676  4.3678  1.7728
 3532SOL    HW222233   0.511   0.932   4.405 -0.6136  0.4691 -0.2314
 3533SOL     OW22234   1.553   0.833   9.871 -0.1113  0.0530 -0.3123
 3533SOL    HW122235   1.515   0.759   9.824  0.6204 -0.7658  0.4102
 3533SOL    HW222236   1.498   0.904   9.838  1.3245  0.7145 -1.2808
 3534SOL     OW22237   0.742   0.710   9.612  0.0682  0.3767 -0.3953
 3534SOL    HW122238   0.654   0.680   9.588  0.5968 -2.0298  0.7951
 3534SOL    HW222239   0.805   0.655   9.565 -0.6893 -1.0375  0.2546
 3535SOL     OW22240   4.395   2.816   6.969  0.0560  0.4184 -0.3172
 3535SOL    HW122241   4.487   2.803   6.946 -0.2547  2.1112 -2.4960
 3535SOL    HW222242   4.382   2.904   6.934 -1.5283 -0.7628 -2.6756
 3536SOL     OW22243   0.178   2.778  16.317 -0.4912  0.4826  0.1960
 3536SOL    HW122244   0.100   2.834  16.319 -0.9539 -0.0959 -1.6815
 3536SOL    HW222245   0.183   2.741  16.229 -0.6082 -0.3429  0.5330
 3537SOL     OW22246   0.217   2.479   6.255  0.0793  0.2474  0.0616
 3537SOL    HW122247   0.194   2.424   6.330 -0.3421  0.6790  0.2471
 3537SOL    HW222248   0.294   2.517   6.297 -0.2631  0.4665  0.4952
 3538SOL     OW22249   2.986   2.390  16.813 -0.2139 -0.8066 -0.2116
 3538SOL    HW122250   2.983   2.398  16.718  1.8436  2.8269  0.0412
 3538SOL    HW222251   3.010   2.476  16.848 -0.1199 -1.0071  0.2257
 3539SOL     OW22252   4.575   0.327   7.098 -0.3311  0.2453 -0.6391
 3539SOL    HW122253   4.504   0.299   7.156 -2.9648  1.1188 -3.3754
 3539SOL    HW222254   4.602   0.400   7.153  1.6409  0.5955 -2.0624
 3540SOL     OW22255   0.646   1.745   0.510 -0.2679  0.1565  0.4114
 3540SOL    HW122256   0.738   1.746   0.484 -0.0891  1.1104  1.0475
 3540SOL    HW222257   0.612   1.813   0.452 -0.9853 -0.7504 -0.2241
 3541SOL     OW22258   1.189   3.606   0.543  0.3705 -0.2256 -0.0852
 3541SOL    HW122259   1.269   3.636   0.587 -0.5930  0.8046  0.9513
 3541SOL    HW222260   1.139   3.598   0.624 -1.3722  1.6805 -0.9664
 3542SOL     OW22261   2.543   3.716  12.377 -0.2361 -0.2925 -0.0093
 3542SOL    HW122262   2.637   3.723  12.394 -0.5682 -0.5709  1.8920
 3542SOL    HW222263   2.519   3.647  12.439  0.4395  0.6662  1.3318
 3543SOL     OW22264   2.447   4.154   8.664 -0.4185 -0.5992 -0.2159
 3543SOL    HW122265   2.413   4.074   8.625  0.5403 -1.3866  0.5666
 3543SOL    HW222266   2.477   4.215   8.596 -0.0721 -0.9306 -0.3591
 3544SOL     OW22267   1.363   2.313   7.354  0.8408 -0.3989  0.0637
 3544SOL    HW122268   1.433   2.364   7.313  0.5362  0.4028  0.5330
 3544SOL    HW222269   1.362   2.367   7.433  1.5003 -0.8603  0.3911
 3545SOL     OW22270   2.389   0.838  16.045  0.3448 -0.0734  0.0965
 3545SOL    HW122271   2.483   0.819  16.042  0.2955 -0.8319  4.1690
 3545SOL    HW222272   2.393   0.933  16.032  1.1416 -0.1356 -0.1642
 3546SOL     OW22273   1.179   0.297   3.914  0.4124 -0.3915 -0.0574
 3546SOL    HW122274   1.113   0.345   3.864 -0.1283  0.4610  1.4655
 3546SOL    HW222275   1.174   0.214   3.866 -0.2306 -0.0224 -0.6219
 3547SOL     OW22276   0.142   3.284   7.438 -0.4463  0.1496 -0.6537
 3547SOL    HW122277   0.119   3.208   7.492  1.0235 -0.8590 -1.4441
 3547SOL    HW222278   0.090   3.272   7.359 -0.2089 -0.1455 -0.7645
 3548SOL     OW22279   0.377   2.544  17.283  0.3470 -0.5912  0.6817
 3548SOL    HW122280   0.303   2.501  17.240  0.1881  0.3700  0.0001
 3548SOL    HW222281   0.369   2.634  17.252  1.3114 -1.0596 -0.9381
 3549SOL     OW22282   0.149   1.525   3.203 -0.0060  0.2055  0.0718
 3549SOL    HW122283   0.146   1.435   3.235 -0.7983  0.6023  1.1259
 3549SOL    HW222284   0.175   1.565   3.286  0.0818  1.5299 -0.5915
 3550SOL     OW22285   0.548   4.071   8.029  0.4412 -0.2883  0.1895
 3550SOL    HW122286   0.631   4.038   8.064  0.1284 -2.2246 -0.8840
 3550SOL    HW222287   0.500   4.091   8.109  0.0362  0.1306 -0.1597
 3551SOL     OW22288   2.345   1.315   5.680 -0.2976 -0.4586  0.1779
 3551SOL    HW122289   2.312   1.298   5.768 -0.3711  3.0054  0.8238
 3551SOL    HW222290   2.282   1.382   5.654  2.0807  1.4477 -0.6092
 3552SOL     OW22291   4.164   1.068  15.603  0.1173 -0.3833  0.2731
 3552SOL    HW122292   4.198   1.150  15.638  1.1948 -0.6863 -0.0712
 3552SOL    HW222293   4.163   1.094  15.510 -0.8934  1.9417  0.9284
 3553SOL     OW22294   2.376   4.516  12.374  0.1067  0.0696 -0.2144
 3553SOL    HW122295   2.445   4.579  12.396  0.3057  0.3778 -1.7438
 3553SOL    HW222296   2.382   4.455  12.448  0.3212  1.0321  0.5778
 3554SOL     OW22297   1.595   4.046   8.159 -0.3817 -0.2825  0.1456
 3554SOL    HW122298   1.579   3.986   8.231 -0.8605 -0.9587 -0.5196
 3554SOL    HW222299   1.542   4.004   8.091 -0.3624 -0.3174  0.1522
 3555SOL     OW22300   4.014   3.028   2.752  0.1974 -0.3066  0.2941
 3555SOL    HW122301   3.941   2.987   2.707  0.9072 -1.4288  0.1606
 3555SOL    HW222302   4.065   3.057   2.676  1.5285 -0.3886  1.1482
 3556SOL     OW22303   1.168   0.253   8.367  0.7539 -0.1352 -0.2049
 3556SOL    HW122304   1.090   0.204   8.341  1.0081 -0.4672 -0.3295
 3556SOL    HW222305   1.201   0.265   8.278  0.6725  2.0903  0.0663
 3557SOL     OW22306   3.591   1.911  13.658  0.1630  0.2740  0.2467
 3557SOL    HW122307   3.686   1.922  13.659  0.3945 -1.6910 -0.0163
 3557SOL    HW222308   3.584   1.884  13.567 -1.7336 -0.7164  0.6753
 3558SOL     OW22309   3.195   2.477   3.008 -0.0304 -0.7307 -0.8144
 3558SOL    HW122310   3.129   2.449   3.071 -0.9748  1.0007 -1.0567
 3558SOL    HW222311   3.138   2.496   2.934  1.5994 -1.6961 -2.3292
 3559SOL     OW22312   1.442   2.224   5.442 -0.7633  0.0790 -0.0876
 3559SOL    HW122313   1.434   2.144   5.494  0.6654 -0.3072 -0.4818
 3559SOL    HW222314   1.537   2.235   5.435 -1.2869  4.7030  0.0310
 3560SOL     OW22315   3.027   0.486   1.879 -0.1628 -0.1225 -0.2039
 3560SOL    HW122316   3.033   0.533   1.963 -0.1204  2.9324 -1.9153
 3560SOL    HW222317   2.934   0.509   1.868 -0.2617 -1.1099 -1.3852
 3561SOL     OW22318   1.356   0.163   4.831  0.5868  0.2913 -0.3643
 3561SOL    HW122319   1.327   0.136   4.744 -1.6418 -1.0190  0.7993
 3561SOL    HW222320   1.407   0.087   4.858  0.8723  0.8757  0.7037
 3562SOL     OW22321   4.083   1.375   7.677  0.3503 -0.3850  0.1285
 3562SOL    HW122322   4.045   1.377   7.765  0.5760  1.2062  0.1969
 3562SOL    HW222323   4.130   1.458   7.679 -0.3862  0.0170  1.0856
 3563SOL     OW22324   1.172   0.292   2.634 -0.2689 -0.4722  0.2767
 3563SOL    HW122325   1.247   0.325   2.684  0.1477 -0.3197 -0.4400
 3563SOL    HW222326   1.104   0.308   2.699  0.1512  0.2941  0.5332
 3564SOL     OW22327   1.008   1.915   8.330  0.1057  0.6686 -0.6129
 3564SOL    HW122328   0.914   1.925   8.315 -0.0544 -1.0621 -0.7505
 3564SOL    HW222329   1.024   1.823   8.306  1.0272  0.5939  0.2711
 3565SOL     OW22330   3.050   0.316  11.643 -0.3879 -0.1107  0.1713
 3565SOL    HW122331   3.112   0.388  11.637 -0.6070 -0.0405 -1.4170
 3565SOL    HW222332   2.975   0.351  11.691 -0.4934  1.2907 -1.0463
 3566SOL     OW22333   3.472   4.381   9.013  0.5433  0.1339 -0.5601
 3566SOL    HW122334   3.387   4.408   8.978 -0.7085 -0.8702  1.6912
 3566SOL    HW222335   3.507   4.467   9.034  0.8920  0.0302 -0.7269
 3567SOL     OW22336   0.231   1.678   3.428  0.0354 -0.2901 -0.7320
 3567SOL    HW122337   0.306   1.737   3.435 -0.5685  0.2494  1.1918
 3567SOL    HW222338   0.271   1.612   3.485 -1.3256 -0.6948 -0.2439
 3568SOL     OW22339   0.355   1.217   2.738  0.9535 -0.2137  0.9481
 3568SOL    HW122340   0.372   1.309   2.717  1.2225 -0.7049 -1.0057
 3568SOL    HW222341   0.382   1.185   2.651 -1.9220 -1.2358  0.4531
 3569SOL     OW22342   3.658   3.809  13.763 -0.1218  0.0885 -0.4884
 3569SOL    HW122343   3.564   3.818  13.780  0.6314  2.8406  2.1722
 3569SOL    HW222344   3.681   3.895  13.728 -1.7688  1.1792  1.0991
 3570SOL     OW22345   3.586   0.117  15.937 -0.3013  0.3285  0.2110
 3570SOL    HW122346   3.579   0.073  15.852  1.4966  0.4330 -0.0033
 3570SOL    HW222347   3.681   0.128  15.946 -0.3459  0.7645  0.1615
 3571SOL     OW22348   1.538   0.390  14.675  0.3024 -0.2915  0.0584
 3571SOL    HW122349   1.554   0.305  14.717  1.1730  0.2409  0.7958
 3571SOL    HW222350   1.558   0.374  14.583 -1.3882 -2.2458  0.0156
 3572SOL     OW22351   3.610   2.889   8.359  0.0650 -0.1182 -0.7449
 3572SOL    HW122352   3.551   2.921   8.428  0.3747  1.2877 -1.1429
 3572SOL    HW222353   3.692   2.929   8.386 -0.8045  0.3455  1.2297
 3573SOL     OW22354   3.643   2.774   5.176 -0.5781 -0.7883 -0.2652
 3573SOL    HW122355   3.627   2.755   5.084  0.3255 -0.7257 -0.4298
 3573SOL    HW222356   3.736   2.752   5.182  0.0935  1.8581 -0.5761
 3574SOL     OW22357   0.162   4.457   3.203  0.5742  0.3594  0.3081
 3574SOL    HW122358   0.140   4.533   3.150  0.5684  0.2197  0.1106
 3574SOL    HW222359   0.156   4.484   3.295  1.7556  1.7318 -0.0157
 3575SOL     OW22360   1.883   4.522   4.197  0.5355  0.2010  0.0586
 3575SOL    HW122361   1.867   4.603   4.149  2.0254  2.8212  3.9962
 3575SOL    HW222362   1.923   4.457   4.139  0.1579 -0.1872  0.2343
 3576SOL     OW22363   4.400   0.740   1.774  0.0821  0.0994 -0.0707
 3576SOL    HW122364   4.448   0.822   1.759  0.0776 -0.1035 -1.2279
 3576SOL    HW222365   4.374   0.721   1.684 -3.5119  0.0750  0.9796
 3577SOL     OW22366   1.200   0.272   5.456 -0.2368  0.2015  0.0883
 3577SOL    HW122367   1.234   0.301   5.541  2.4299 -2.2113 -0.1639
 3577SOL    HW222368   1.259   0.205   5.423  0.0265  0.8739 -0.7773
 3578SOL     OW22369   0.128   0.910   8.627 -0.4516  0.1285  0.2269
 3578SOL    HW122370   0.108   0.821   8.653 -2.4991  1.1398  2.1111
 3578SOL    HW222371   0.065   0.965   8.673 -2.1596 -0.7334 -1.1051
 3579SOL     OW22372   1.986   3.045   3.806  0.2794  0.0239 -0.1803
 3579SOL    HW122373   2.060   3.070   3.750 -0.2328  1.3837 -0.2617
 3579SOL    HW222374   2.034   3.024   3.886  1.0828  0.2583 -0.5940
 3580SOL     OW22375   2.436   3.237   0.136 -0.1272  0.1460 -0.7025
 3580SOL    HW122376   2.532   3.245   0.138 -0.2949  1.7490  0.6527
 3580SOL    HW222377   2.410   3.324   0.166  0.7058  0.4984 -0.9880
 3581SOL     OW22378   0.990   3.763   7.186 -0.3484 -0.0996 -0.9238
 3581SOL    HW122379   1.035   3.786   7.105 -1.4961 -1.4157 -1.9446
 3581SOL    HW222380   0.910   3.813   7.168 -2.1804 -2.1907  1.2781
 3582SOL     OW22381   3.842   3.397   6.355  0.0513  0.0646 -0.2128
 3582SOL    HW122382   3.858   3.303   6.357 -0.1035 -0.0620 -5.5495
 3582SOL    HW222383   3.930   3.429   6.336  0.4601  0.1102  1.7596
 3583SOL     OW22384   2.783   0.272   1.090 -0.0254  0.3539  0.0008
 3583SOL    HW122385   2.732   0.352   1.083 -1.6836 -0.8857 -2.0148
 3583SOL    HW222386   2.822   0.281   1.177  0.0194 -0.2846  0.0455
 3584SOL     OW22387   3.976   3.879   9.807 -0.1577  0.1094  0.2561
 3584SOL    HW122388   4.001   3.824   9.733  0.9078  0.1784  0.5603
 3584SOL    HW222389   3.892   3.843   9.835  0.6174 -1.0971  1.0091
 3585SOL     OW22390   3.068   3.531  15.052 -0.0061  0.7479  0.1716
 3585SOL    HW122391   3.009   3.580  14.995 -0.4956  0.2181  0.2224
 3585SOL    HW222392   3.013   3.498  15.123  1.4673 -0.4934  0.7548
 3586SOL     OW22393   0.223   3.108   3.151  0.4552  0.0241 -0.1125
 3586SOL    HW122394   0.155   3.050   3.184  0.2121 -0.8149 -2.1397
 3586SOL    HW222395   0.170   3.184   3.129 -0.8321 -0.3483  1.6880
 3587SOL     OW22396   4.279   0.965   3.892  0.7197  0.1572  0.4505
 3587SOL    HW122397   4.259   0.923   3.808 -2.8430  2.7742 -0.0129
 3587SOL    HW222398   4.279   1.059   3.874 -0.9359  0.5692  2.5927
 3588SOL     OW22399   3.773   2.682   2.859 -0.0730 -0.0843  0.2022
 3588SOL    HW122400   3.796   2.668   2.951  2.6890  1.9835 -0.1605
 3588SOL    HW222401   3.714   2.757   2.863  0.3478  0.2399  0.4189
 3589SOL     OW22402   3.801   0.100  16.366  0.1444  0.0277  0.4517
 3589SOL    HW122403   3.846   0.106  16.450 -0.3173  0.4991  0.6683
 3589SOL    HW222404   3.731   0.165  16.377  0.0951 -0.1187  1.0036
 3590SOL     OW22405   2.277   0.594  13.105 -0.1839 -0.2281 -0.0271
 3590SOL    HW122406   2.291   0.612  13.012  0.1933  0.4216  0.1557
 3590SOL    HW222407   2.205   0.656  13.114 -0.1892 -0.1999 -0.2717
 3591SOL     OW22408   3.218   1.088   6.726  0.0552 -0.5895  0.8810
 3591SOL    HW122409   3.134   1.104   6.770 -0.1220  1.9842 -0.4133
 3591SOL    HW222410   3.230   1.172   6.681  2.2583 -0.4387  1.7258
 3592SOL     OW22411   1.207   1.501   5.567 -0.4876 -0.0674  0.2769
 3592SOL    HW122412   1.254   1.427   5.531 -0.2585 -0.1611  0.7757
 3592SOL    HW222413   1.275   1.549   5.614 -0.8449  2.0255 -1.3111
 3593SOL     OW22414   3.798   0.615   1.514 -0.1175  0.2283  0.7968
 3593SOL    HW122415   3.761   0.703   1.514 -0.3503  0.1245 -2.0048
 3593SOL    HW222416   3.784   0.581   1.426  2.5668 -0.9219  0.8273
 3594SOL     OW22417   2.591   1.185   8.107  0.1798 -0.2157  0.4785
 3594SOL    HW122418   2.588   1.136   8.189  0.9950  1.1815  1.3512
 3594SOL    HW222419   2.550   1.270   8.126  1.1051  0.2946  0.2070
 3595SOL     OW22420   0.928   3.147  15.082  0.6787  0.7573  0.6900
 3595SOL    HW122421   0.945   3.092  15.005 -1.5393  0.0487  0.7260
 3595SOL    HW222422   0.834   3.135  15.086  0.9162 -0.9564  1.0540
 3596SOL     OW22423   2.713   0.920   3.819 -0.4451 -0.1550 -0.3566
 3596SOL    HW122424   2.697   0.946   3.909 -1.7658 -0.6057 -0.4658
 3596SOL    HW222425   2.627   0.924   3.777 -0.3442  0.5834 -0.4920
 3597SOL     OW22426   2.460   1.988   4.725 -0.1439  0.3511  0.0174
 3597SOL    HW122427   2.500   2.053   4.782  0.8465 -1.2309  1.1372
 3597SOL    HW222428   2.414   1.926   4.781  2.9614 -1.1678  0.9293
 3598SOL     OW22429   2.631   3.541   4.064  0.1135 -0.2459  0.7038
 3598SOL    HW122430   2.699   3.492   4.111  1.0075 -0.7759 -1.1394
 3598SOL    HW222431   2.682   3.618   4.038 -0.3169 -0.7187 -1.5897
 3599SOL     OW22432   1.842   0.384  14.738  0.9831 -0.0121 -0.5766
 3599SOL    HW122433   1.752   0.405  14.713  1.1407  2.4245  0.9140
 3599SOL    HW222434   1.870   0.454  14.796  1.3742 -0.7920  0.1682
 3600SOL     OW22435   1.340   3.096  12.578 -0.0615 -0.3009 -0.7383
 3600SOL    HW122436   1.429   3.097  12.543  1.1593  1.1479  2.4780
 3600SOL    HW222437   1.322   3.002  12.582 -0.9430 -0.1604 -1.4062
 3601SOL     OW22438   3.368   3.684   7.919  0.3686 -0.8070 -0.3630
 3601SOL    HW122439   3.315   3.755   7.884  1.6722  1.0276  1.4271
 3601SOL    HW222440   3.421   3.662   7.843  0.7531  0.5957 -0.4854
 3602SOL     OW22441   1.448   0.297   3.857 -0.2419 -0.0871 -0.2449
 3602SOL    HW122442   1.421   0.315   3.768 -0.3712  3.3496  0.5075
 3602SOL    HW222443   1.364   0.286   3.902  1.0800  0.4370  2.3609
 3603SOL     OW22444   4.144   1.742   4.861  0.3857 -0.0521 -0.1375
 3603SOL    HW122445   4.156   1.816   4.921  1.3956  1.2480 -1.9479
 3603SOL    HW222446   4.126   1.673   4.925 -1.4563 -0.6171 -1.2530
 3604SOL     OW22447   3.922   3.542   5.245 -0.6475  0.4197 -0.3820
 3604SOL    HW122448   3.901   3.451   5.224  1.0740 -0.2339  0.7229
 3604SOL    HW222449   3.849   3.598   5.217 -0.7863  1.3043  1.7814
 3605SOL     OW22450   4.651   0.393  16.349 -0.0459 -0.2568  0.1403
 3605SOL    HW122451   4.642   0.370  16.257  0.6504 -0.0563  0.0245
 3605SOL    HW222452   0.002   0.352  16.369  0.0200 -0.7079 -1.1053
 3606SOL     OW22453   3.537   0.586   3.712  0.6465 -0.3437  0.0390
 3606SOL    HW122454   3.497   0.526   3.775 -0.5394  2.9692  2.4373
 3606SOL    HW222455   3.546   0.664   3.767 -2.2758  1.8223 -2.4922
 3607SOL     OW22456   0.904   1.395   5.157  0.2925  0.4473  0.5316
 3607SOL    HW122457   0.851   1.469   5.188  0.7296  0.3280  1.5459
 3607SOL    HW222458   0.887   1.382   5.063 -1.2289  1.7601  0.6345
 3608SOL     OW22459   3.168   1.945   2.733  0.0576 -0.3391  0.0836
 3608SOL    HW122460   3.230   1.971   2.800  0.9709  1.5042 -1.4738
 3608SOL    HW222461   3.223   1.955   2.656 -1.4688  1.6565 -0.7352
 3609SOL     OW22462   4.691   0.697   5.999  0.0052  0.4590  0.0406
 3609SOL    HW122463   0.016   0.622   5.996 -1.2640 -0.6279  1.7781
 3609SOL    HW222464   4.622   0.658   6.053 -0.8784  1.6359 -0.2231
 3610SOL     OW22465   3.205   3.245   1.757  0.2720 -0.3813  0.1318
 3610SOL    HW122466   3.138   3.314   1.761 -0.2813 -0.8842 -0.5936
 3610SOL    HW222467   3.185   3.203   1.674  1.4432 -0.8268  0.0765
 3611SOL     OW22468   1.973   0.443   8.110  0.0703 -0.6685  0.4883
 3611SOL    HW122469   2.027   0.431   8.188 -0.8047  1.0848  1.3565
 3611SOL    HW222470   1.890   0.422   8.151 -1.3067 -0.0688 -1.9691
 3612SOL     OW22471   4.029   0.833   2.223 -0.1360 -0.1122 -0.0546
 3612SOL    HW122472   4.117   0.797   2.215  0.3120  1.2617 -1.3677
 3612SOL    HW222473   3.977   0.760   2.257 -0.4093 -0.0184 -0.2743
 3613SOL     OW22474   2.265   0.876   3.509 -0.0213 -0.3733  0.7407
 3613SOL    HW122475   2.185   0.921   3.482 -0.2686 -0.5134  1.2528
 3613SOL    HW222476   2.224   0.795   3.537  0.8638 -1.0270  0.1348
 3614SOL     OW22477   1.261   1.625   3.082 -0.1050 -0.0768 -0.2157
 3614SOL    HW122478   1.187   1.575   3.047  0.4280  0.1932 -1.7580
 3614SOL    HW222479   1.296   1.651   2.997  1.5896 -0.7034  0.2933
 3615SOL     OW22480   1.598   1.883   8.925  0.2789 -0.5297 -0.5267
 3615SOL    HW122481   1.553   1.967   8.914  0.1171 -0.3474  1.6217
 3615SOL    HW222482   1.571   1.831   8.849  0.6131  1.6193 -2.1467
 3616SOL     OW22483   4.118   2.055   4.146 -0.2721 -0.1490 -0.4983
 3616SOL    HW122484   4.053   2.087   4.207  0.7569  1.8201 -0.4320
 3616SOL    HW222485   4.122   2.119   4.075 -0.3562 -2.1200 -2.2608
 3617SOL     OW22486   4.702   1.250   9.799 -0.3266  0.3059 -0.1058
 3617SOL    HW122487   4.680   1.240   9.892 -2.0662 -0.2189 -0.5757
 3617SOL    HW222488   4.734   1.163   9.774  0.3932  0.9034 -1.2783
 3618SOL     OW22489   3.996   1.072   2.789 -0.1462  0.4829 -0.3066
 3618SOL    HW122490   4.039   1.037   2.712 -0.4370 -0.2359 -0.1439
 3618SOL    HW222491   3.937   0.999   2.806  0.1050  0.8026  2.0482
 3619SOL     OW22492   2.252   1.446  12.796 -0.6035  0.4738  0.0358
 3619SOL    HW122493   2.345   1.466  12.809 -0.6433  0.5715  0.1664
 3619SOL    HW222494   2.232   1.390  12.870 -1.6338  0.8531  0.0409
 3620SOL     OW22495   3.388   3.162   8.430  0.1550  0.2115 -0.2194
 3620SOL    HW122496   3.327   3.108   8.480 -1.3243  1.6856 -0.4130
 3620SOL    HW222497   3.434   3.210   8.499 -0.6968 -2.1910  2.0293
 3621SOL     OW22498   0.206   2.286   5.609  0.2361  0.0162 -0.2353
 3621SOL    HW122499   0.170   2.343   5.542  2.8379 -0.7184 -2.2807
 3621SOL    HW222500   0.140   2.304   5.676 -1.2945  2.9343 -2.5648
 3622SOL     OW22501   2.288   2.097   7.326  0.2716 -0.1127  0.1655
 3622SOL    HW122502   2.330   2.182   7.328  1.6392 -0.8083  0.9567
 3622SOL    HW222503   2.251   2.101   7.238 -0.3617  1.6068  0.5160
 3623SOL     OW22504   0.959   2.723  15.042 -0.1211  0.7332  0.3161
 3623SOL    HW122505   0.928   2.777  15.115 -0.5435 -1.4371  1.7462
 3623SOL    HW222506   0.962   2.642  15.093 -0.4062  0.6279  0.1644
 3624SOL     OW22507   2.967   2.140   2.084 -0.6239 -0.4306  0.0069
 3624SOL    HW122508   3.050   2.122   2.129  0.5451  0.7142 -1.7101
 3624SOL    HW222509   2.917   2.200   2.138  1.1603 -0.5494  1.7985
 3625SOL     OW22510   1.230   4.551   4.703 -0.2796  0.6318 -0.0787
 3625SOL    HW122511   1.216   4.543   4.797 -1.1121  1.2102 -0.1566
 3625SOL    HW222512   1.141   4.538   4.672 -0.4705  0.7123  0.4381
 3626SOL     OW22513   2.559   2.693  14.861  0.5385 -0.1514  0.5064
 3626SOL    HW122514   2.558   2.636  14.784 -1.7646 -1.3610  1.4362
 3626SOL    HW222515   2.583   2.776  14.820 -1.9076  0.6198  0.6681
 3627SOL     OW22516   3.896   1.217   7.579  0.0948  0.2807  0.0109
 3627SOL    HW122517   3.851   1.298   7.601 -0.7707 -0.0822 -0.4251
 3627SOL    HW222518   3.986   1.243   7.599  0.1903 -0.7936  1.0190
 3628SOL     OW22519   2.966   0.444  10.381 -0.1212  0.1800 -0.4833
 3628SOL    HW122520   2.879   0.463  10.415  0.2455 -0.9562  1.0759
 3628SOL    HW222521   3.016   0.526  10.382 -0.0311  0.1373 -1.5693
 3629SOL     OW22522   3.276   4.275   4.430  0.2132  0.1015  0.4226
 3629SOL    HW122523   3.270   4.290   4.524 -3.6108  1.2669 -0.0017
 3629SOL    HW222524   3.318   4.356   4.403 -0.4876  0.1498 -0.5239
 3630SOL     OW22525   1.277   3.852   5.161 -0.2562  0.4625  0.0578
 3630SOL    HW122526   1.368   3.860   5.190  0.0102  0.8822 -0.9171
 3630SOL    HW222527   1.285   3.848   5.066  0.6762  0.5898  0.1278
 3631SOL     OW22528   2.409   2.027   8.959  0.1188 -0.4495  0.2919
 3631SOL    HW122529   2.422   2.048   9.051  1.5015 -0.9860  0.2220
 3631SOL    HW222530   2.497   2.046   8.926  0.1808 -1.6132 -0.2077
 3632SOL     OW22531   2.050   3.578   3.708 -0.1476  0.2631 -0.3794
 3632SOL    HW122532   2.037   3.591   3.801  1.5266  1.3532 -0.2906
 3632SOL    HW222533   1.961   3.574   3.674  0.9545 -0.7004 -3.2161
 3633SOL     OW22534   0.153   4.353   3.660 -0.2066  0.2866  0.2467
 3633SOL    HW122535   0.067   4.393   3.648 -0.8475 -0.7377  1.4304
 3633SOL    HW222536   0.206   4.388   3.589 -0.8158 -0.0531 -0.3839
 3634SOL     OW22537   0.904   3.528   4.884 -0.0552  0.3558  0.6677
 3634SOL    HW122538   0.982   3.582   4.895  1.3229 -1.4236 -0.3733
 3634SOL    HW222539   0.924   3.449   4.933 -0.8717 -0.2004  0.1056
 3635SOL     OW22540   2.802   3.739   3.152  0.0513 -0.3816  0.6407
 3635SOL    HW122541   2.734   3.799   3.184  1.0329 -0.2946  2.5503
 3635SOL    HW222542   2.773   3.723   3.062 -0.0748  1.4686  0.3450
 3636SOL     OW22543   4.008   0.685   3.613 -0.7140 -0.7334 -0.4974
 3636SOL    HW122544   3.977   0.661   3.526  0.5672 -0.1317 -1.1255
 3636SOL    HW222545   3.938   0.658   3.672 -1.0254 -0.0828 -0.5772
 3637SOL     OW22546   2.042   4.201   0.316 -0.0780  0.2698  0.0457
 3637SOL    HW122547   2.107   4.179   0.250 -0.1816  1.5608 -0.4843
 3637SOL    HW222548   1.964   4.148   0.303  0.6351 -0.7031 -0.2241
 3638SOL     OW22549   4.627   2.158   8.771  0.3417 -0.2386  0.4673
 3638SOL    HW122550   4.577   2.123   8.844 -0.0343 -0.9217 -0.1102
 3638SOL    HW222551   4.579   2.234   8.736  0.7456 -0.5624 -0.7885
 3639SOL     OW22552   3.106   4.335   5.190  0.5958  0.2381 -0.0807
 3639SOL    HW122553   3.054   4.305   5.265 -1.3117  3.3831 -0.1654
 3639SOL    HW222554   3.061   4.419   5.184 -1.3188 -0.9877 -2.7430
 3640SOL     OW22555   0.345   0.806   2.970  0.0909 -0.3574  0.2756
 3640SOL    HW122556   0.273   0.805   3.034  1.3612  2.7961  1.7362
 3640SOL    HW222557   0.393   0.882   3.004 -1.7664  1.6515 -1.5672
 3641SOL     OW22558   2.134   2.510  12.039  0.3047  0.4613 -0.0027
 3641SOL    HW122559   2.200   2.579  12.039  2.0767 -1.1948 -3.8932
 3641SOL    HW222560   2.094   2.519  12.125  0.4017  0.2695  0.0645
 3642SOL     OW22561   4.024   2.137  11.302  0.3867 -0.2121  0.1195
 3642SOL    HW122562   4.057   2.059  11.257 -1.7012 -2.2297  2.0665
 3642SOL    HW222563   4.060   2.202  11.242  0.7524  0.0616  0.6427
 3643SOL     OW22564   4.057   2.816   4.520 -0.2069 -0.1232 -0.0487
 3643SOL    HW122565   3.988   2.870   4.559 -0.0612  0.3865 -0.4942
 3643SOL    HW222566   4.023   2.799   4.432 -0.7727 -0.4410  0.2357
 3644SOL     OW22567   0.046   3.425  11.411  0.2834  0.1490  0.6856
 3644SOL    HW122568   0.135   3.412  11.442  1.2509 -1.6996 -2.8733
 3644SOL    HW222569   0.064   3.479  11.335 -0.0004 -2.7903 -1.4714
 3645SOL     OW22570   4.572   2.733   5.068  0.1064  0.6080 -0.0011
 3645SOL    HW122571   4.524   2.689   4.998  0.3469 -0.5362  0.5388
 3645SOL    HW222572   4.586   2.670   5.139  1.2769  0.8131 -0.0417
 3646SOL     OW22573   0.712   1.743   6.959 -0.2341 -0.1636  0.0913
 3646SOL    HW122574   0.637   1.793   6.927  0.5078  0.9642  0.1097
 3646SOL    HW222575   0.769   1.814   6.987 -0.8522  0.6585 -0.7257
 3647SOL     OW22576   4.513   2.061   6.810  0.1136 -0.3966  0.0734
 3647SOL    HW122577   4.484   2.028   6.895 -0.7720 -0.2863 -0.1828
 3647SOL    HW222578   4.428   2.076   6.769  0.3797  0.2926 -0.2256
 3648SOL     OW22579   2.820   0.772  12.934 -0.0245 -0.9182  0.4253
 3648SOL    HW122580   2.743   0.787  12.989 -1.2506 -1.4453 -1.1493
 3648SOL    HW222581   2.884   0.750  13.002 -1.5475  0.1613  2.2139
 3649SOL     OW22582   2.959   3.055  10.563  0.6606 -0.2049  0.3829
 3649SOL    HW122583   2.900   3.113  10.610 -0.0538 -2.2735  1.9862
 3649SOL    HW222584   3.044   3.083  10.599  0.1949  1.1944  0.3924
 3650SOL     OW22585   3.752   4.559   9.811  0.1908 -0.2703  0.2429
 3650SOL    HW122586   3.669   4.604   9.827  1.4885  2.2017 -0.0392
 3650SOL    HW222587   3.774   4.514   9.893 -0.0849 -0.3264  0.2866
 3651SOL     OW22588   2.072   4.443   3.517 -0.1554  0.6839  0.4299
 3651SOL    HW122589   2.094   4.471   3.428  0.4639  0.3978  0.4915
 3651SOL    HW222590   2.128   4.369   3.541 -1.0965  0.0642  0.6873
 3652SOL     OW22591   2.886   1.128   3.686 -0.3247  0.0517 -0.7381
 3652SOL    HW122592   2.952   1.179   3.733  0.0783  1.7631 -3.1800
 3652SOL    HW222593   2.853   1.079   3.761 -0.9440  1.7999  0.1030
 3653SOL     OW22594   3.088   0.080   4.291 -0.4055  0.6717 -0.2898
 3653SOL    HW122595   3.053   0.065   4.203 -0.8538 -0.1218  0.0356
 3653SOL    HW222596   3.102   0.175   4.292 -1.2220  0.7794 -0.0036
 3654SOL     OW22597   2.731   1.906   6.360 -0.1097 -0.8910  0.3600
 3654SOL    HW122598   2.792   1.935   6.428  0.4898 -1.1140 -0.0782
 3654SOL    HW222599   2.651   1.879   6.405  2.5598 -2.0402  4.3614
 3655SOL     OW22600   2.708   2.516   6.000  0.2947 -0.2569 -0.2007
 3655SOL    HW122601   2.757   2.478   6.072  1.2497  0.6261 -0.3931
 3655SOL    HW222602   2.769   2.513   5.926  2.4519  0.9838  1.5237
 3656SOL     OW22603   2.870   2.912   6.649 -0.0950 -0.3148 -0.2721
 3656SOL    HW122604   2.924   2.881   6.576  0.7901  0.9171 -0.1404
 3656SOL    HW222605   2.789   2.927   6.600  0.8884 -1.1027 -2.1531
 3657SOL     OW22606   4.057   0.537  10.307 -0.0907  0.4919  0.1937
 3657SOL    HW122607   4.035   0.485  10.384  1.3692  0.3249  0.4973
 3657SOL    HW222608   4.126   0.485  10.265  0.8358  2.1999 -0.3958
 3658SOL     OW22609   3.931   0.299   2.890 -0.1153  0.1522  0.3466
 3658SOL    HW122610   3.840   0.298   2.919 -0.4432  2.5715 -0.6059
 3658SOL    HW222611   3.912   0.246   2.813  1.7188 -1.5508  1.0730
 3659SOL     OW22612   0.922   1.090   3.380  0.2240  0.3111  0.6153
 3659SOL    HW122613   0.937   1.062   3.289  0.3716 -0.2422  0.8076
 3659SOL    HW222614   0.843   1.142   3.363  0.4197  1.6488  3.9718
 3660SOL     OW22615   1.599   2.441   6.725 -0.3740  0.4501  0.1243
 3660SOL    HW122616   1.693   2.449   6.705 -0.5133  0.9112 -0.3398
 3660SOL    HW222617   1.562   2.455   6.638 -0.5376  2.0991  0.4697
 3661SOL     OW22618   3.164   4.407  15.401  0.2047  0.2099  0.6066
 3661SOL    HW122619   3.144   4.350  15.326  1.3225  1.0948 -0.3569
 3661SOL    HW222620   3.079   4.448  15.414 -0.6833 -1.0966 -1.1954
 3662SOL     OW22621   3.412   3.472   3.330  0.2007  0.2720  0.0494
 3662SOL    HW122622   3.437   3.405   3.267 -1.0350  0.7753 -0.9754
 3662SOL    HW222623   3.462   3.436   3.403  2.5712  0.9941 -1.2258
 3663SOL     OW22624   0.050   0.930   6.218 -0.1833  0.1949  0.6124
 3663SOL    HW122625   0.047   0.860   6.154  0.9081 -0.2387  1.0374
 3663SOL    HW222626   0.111   0.896   6.283 -1.0260  0.2165  1.4118
 3664SOL     OW22627   3.886   1.089   7.815 -0.3404 -0.1331  0.2541
 3664SOL    HW122628   3.908   1.128   7.730  0.7803  2.7063  1.8385
 3664SOL    HW222629   3.815   1.027   7.796  1.0873 -1.3176 -1.1348
 3665SOL     OW22630   3.803   0.428  13.320  1.2256  0.3968 -0.4130
 3665SOL    HW122631   3.868   0.399  13.384  0.9638  0.1536 -0.2530
 3665SOL    HW222632   3.726   0.371  13.329  2.0364 -0.6328 -0.0696
 3666SOL     OW22633   3.145   3.221  10.710 -0.1035  0.1938  0.0508
 3666SOL    HW122634   3.072   3.260  10.759 -0.0221  1.5405 -0.9097
 3666SOL    HW222635   3.199   3.300  10.699  2.4676 -1.4313  0.9988
 3667SOL     OW22636   2.818   3.791   5.722  0.1134  0.4846  0.3823
 3667SOL    HW122637   2.788   3.865   5.775  0.1442  0.8662 -0.1348
 3667SOL    HW222638   2.774   3.813   5.641  0.6573  0.6723  0.1393
 3668SOL     OW22639   1.955   2.545   8.518  0.3819 -0.3103 -0.4410
 3668SOL    HW122640   2.031   2.583   8.473  1.4560 -1.0323  0.7903
 3668SOL    HW222641   1.924   2.481   8.454  1.8572 -0.7468 -0.7134
 3669SOL     OW22642   3.907   3.546  16.050 -0.6120  0.1561  0.2237
 3669SOL    HW122643   3.821   3.579  16.074 -0.4863  0.3516  0.4079
 3669SOL    HW222644   3.933   3.618  15.992 -0.9410  1.4126  1.6512
 3670SOL     OW22645   3.120   2.551   2.132 -0.1556  0.0961 -0.0368
 3670SOL    HW122646   3.173   2.551   2.052 -1.7682 -0.0173 -1.1108
 3670SOL    HW222647   3.038   2.504   2.117  0.3019 -0.4947 -0.6517
 3671SOL     OW22648   2.289   0.951   7.324 -0.7004 -0.2013  0.0413
 3671SOL    HW122649   2.203   0.953   7.281 -0.6171 -1.1289 -0.1537
 3671SOL    HW222650   2.316   0.860   7.315  1.4060  0.7159 -3.0171
 3672SOL     OW22651   2.220   3.756   7.508  0.1358  0.7128  0.6092
 3672SOL    HW122652   2.296   3.758   7.451 -1.8748  0.0333 -2.1104
 3672SOL    HW222653   2.161   3.809   7.455 -1.6480 -0.4970  1.3623
 3673SOL     OW22654   4.465   2.004   1.459 -0.2903  0.1995 -0.0697
 3673SOL    HW122655   4.452   2.051   1.541 -1.7705 -0.2727 -0.0376
 3673SOL    HW222656   4.430   2.068   1.397  2.2813  1.7105  0.0241
 3674SOL     OW22657   0.426   3.759   4.133 -0.5494 -1.1629  0.2953
 3674SOL    HW122658   0.346   3.804   4.159 -0.4106 -0.3836 -0.6077
 3674SOL    HW222659   0.414   3.773   4.039  0.2927 -3.0260 -0.0776
 3675SOL     OW22660   1.575   0.378  14.411  0.0664 -0.3937  0.2085
 3675SOL    HW122661   1.571   0.347  14.320  2.9924  1.7450 -0.6494
 3675SOL    HW222662   1.632   0.455  14.410  1.0797 -1.1549 -0.8755
 3676SOL     OW22663   0.652   4.528   2.470 -0.0947  1.4025  0.2758
 3676SOL    HW122664   0.745   4.547   2.474  0.1454  0.0019  1.6036
 3676SOL    HW222665   0.649   4.447   2.419  1.4209  1.1503  0.5968
 3677SOL     OW22666   3.911   1.856   9.187 -0.2923 -0.1629  0.3547
 3677SOL    HW122667   3.886   1.821   9.101  0.3966 -1.6264  0.7629
 3677SOL    HW222668   3.952   1.942   9.176 -0.1833  0.1112  2.9956
 3678SOL     OW22669   4.160   1.541  16.918 -0.0818  0.1935  0.6272
 3678SOL    HW122670   4.191   1.509  17.003  1.2840  1.7648  0.7270
 3678SOL    HW222671   4.103   1.474  16.881  0.1850 -0.0105  0.5789
 3679SOL     OW22672   0.005   3.550   0.831 -0.3187 -0.5752  0.4621
 3679SOL    HW122673   4.703   3.639   0.823  0.5924 -0.1199  1.4091
 3679SOL    HW222674   0.079   3.568   0.773 -0.4254  1.2469  0.8649
 3680SOL     OW22675   3.497   1.231   7.931 -0.0546  0.1792  0.6852
 3680SOL    HW122676   3.414   1.187   7.946  0.7403 -0.9415  1.8215
 3680SOL    HW222677   3.508   1.243   7.837 -0.6299 -0.9369  0.4777
 3681SOL     OW22678   4.121   4.679   6.649  0.1329 -0.4514  0.0217
 3681SOL    HW122679   4.136   4.592   6.610  0.5456  0.0086 -0.8485
 3681SOL    HW222680   4.182   4.725   6.592  0.8168 -1.4289 -0.0425
 3682SOL     OW22681   2.788   3.254  10.632  0.0799 -0.2369 -0.0329
 3682SOL    HW122682   2.703   3.228  10.666 -0.8781  0.8458 -1.6007
 3682SOL    HW222683   2.794   3.339  10.674  0.1811 -0.6528  0.7833
 3683SOL     OW22684   3.387   1.223   5.710  0.6686  0.3056  0.1716
 3683SOL    HW122685   3.478   1.236   5.736 -0.3751  2.0818  2.9945
 3683SOL    HW222686   3.346   1.180   5.786 -1.3184  2.0786  0.1066
 3684SOL     OW22687   1.136   1.920  16.843 -0.2343 -0.5030  0.3360
 3684SOL    HW122688   1.171   1.909  16.754 -0.3175 -1.9339  0.4736
 3684SOL    HW222689   1.212   1.953  16.891 -1.9045  3.0706  0.5527
 3685SOL     OW22690   1.722   3.238   7.802  0.1275 -0.0409  0.2018
 3685SOL    HW122691   1.798   3.188   7.834 -1.2374 -1.9486  0.4872
 3685SOL    HW222692   1.669   3.160   7.783  1.3238 -1.1794  1.4849
 3686SOL     OW22693   4.619   2.459   2.833  0.0976 -0.7035  0.1213
 3686SOL    HW122694   4.641   2.378   2.787 -0.5462 -1.3691  0.9744
 3686SOL    HW222695   4.566   2.425   2.906 -1.0889  0.8531 -0.0313
 3687SOL     OW22696   3.231   1.903   4.558 -0.0487  0.0633  0.3516
 3687SOL    HW122697   3.258   1.845   4.487 -0.1682  0.5503 -0.0927
 3687SOL    HW222698   3.228   1.974   4.494  0.9789 -0.8362 -0.7098
 3688SOL     OW22699   2.385   1.100   5.461  0.5664  0.1339 -0.4234
 3688SOL    HW122700   2.357   1.013   5.490  0.6715  0.6550  1.2830
 3688SOL    HW222701   2.381   1.156   5.539 -0.8002 -0.9540  0.2894
 3689SOL     OW22702   2.139   0.227   8.841  0.3306 -0.3152 -0.5360
 3689SOL    HW122703   2.162   0.174   8.917  0.7153 -1.9855 -1.8094
 3689SOL    HW222704   2.083   0.173   8.785 -1.1103 -0.5616  1.1392
 3690SOL     OW22705   1.933   0.269   5.284  0.4187 -0.2921 -0.0130
 3690SOL    HW122706   1.961   0.258   5.375  2.9301  2.0438 -0.5087
 3690SOL    HW222707   1.865   0.336   5.273 -1.1667 -1.9444 -0.3520
 3691SOL     OW22708   3.742   1.975  11.596  0.5258 -0.1327 -0.5199
 3691SOL    HW122709   3.740   2.033  11.672 -2.2288  0.6140 -1.1552
 3691SOL    HW222710   3.803   1.908  11.625 -0.0088 -0.5054 -0.2568
 3692SOL     OW22711   4.125   4.331   8.830 -0.1540  0.3125  0.1722
 3692SOL    HW122712   4.122   4.325   8.925  3.8319  0.2698  0.2808
 3692SOL    HW222713   4.142   4.424   8.815  1.7119  0.0825  0.9162
 3693SOL     OW22714   4.711   3.021  12.820  0.0647 -0.3861  0.3637
 3693SOL    HW122715   0.013   2.932  12.819 -0.1680 -0.4784  0.2636
 3693SOL    HW222716   4.657   3.024  12.741  2.5656  2.0640 -1.2608
 3694SOL     OW22717   1.401   0.064   5.552 -0.6857 -0.2615  0.0747
 3694SOL    HW122718   1.444   0.046   5.635 -1.2225  1.1819  0.6629
 3694SOL    HW222719   1.344   4.722   5.544 -0.7015 -0.6649  4.0414
 3695SOL     OW22720   0.958   2.557  12.270  0.4829 -0.3068  0.3699
 3695SOL    HW122721   0.943   2.603  12.187 -0.0782 -0.8880  0.1463
 3695SOL    HW222722   1.051   2.537  12.264  0.0874 -2.1618  0.4058
 3696SOL     OW22723   0.491   0.092   6.331 -0.1212  0.4699 -0.2002
 3696SOL    HW122724   0.491   0.145   6.410  0.4114  0.3601 -0.1288
 3696SOL    HW222725   0.489   0.009   6.379  1.0281  2.0240  2.4849
 3697SOL     OW22726   0.354   3.321   2.048  0.4313 -0.3805 -0.4403
 3697SOL    HW122727   0.342   3.358   1.960 -4.4913  2.8316  1.5851
 3697SOL    HW222728   0.448   3.307   2.045  0.4525 -0.4211  0.3349
 3698SOL     OW22729   2.841   4.185   3.281  0.7048 -0.0538 -0.0081
 3698SOL    HW122730   2.798   4.176   3.196 -0.5596 -1.2922  0.7522
 3698SOL    HW222731   2.836   4.097   3.319  0.4744  1.2496  3.0194
 3699SOL     OW22732   1.783   2.218   5.559 -0.0870 -0.2433  0.1340
 3699SOL    HW122733   1.834   2.213   5.639  0.4774  1.9055 -0.0863
 3699SOL    HW222734   1.824   2.149   5.508 -1.8169 -1.7271  0.7546
 3700SOL     OW22735   1.177   2.441   6.348 -0.4036 -0.1799  0.3211
 3700SOL    HW122736   1.114   2.370   6.339  2.7145 -2.4870 -3.0828
 3700SOL    HW222737   1.254   2.392   6.375 -1.2595 -0.9217  1.3847
 3701SOL     OW22738   2.622   2.874   5.164  0.2013 -0.0981 -0.0573
 3701SOL    HW122739   2.665   2.927   5.096  2.6200  1.2913  2.5390
 3701SOL    HW222740   2.616   2.936   5.236  0.6408 -0.4779  0.3069
 3702SOL     OW22741   2.275   4.542   1.027  0.1690  0.4637 -0.2790
 3702SOL    HW122742   2.264   4.633   1.056 -0.7866 -0.3572  1.9293
 3702SOL    HW222743   2.257   4.497   1.110 -1.4674  2.5384  0.5011
 3703SOL     OW22744   3.702   2.993   1.794  0.2360 -0.0294  0.2093
 3703SOL    HW122745   3.731   3.027   1.710 -3.2404  0.4483 -0.7821
 3703SOL    HW222746   3.785   2.954   1.822 -0.3520 -1.3988  0.0221
 3704SOL     OW22747   0.703   2.738   4.755 -0.0502 -0.3851  0.1126
 3704SOL    HW122748   0.649   2.720   4.679  0.5105 -1.8712  0.0575
 3704SOL    HW222749   0.788   2.735   4.712 -0.4278 -0.4711 -0.6277
 3705SOL     OW22750   3.169   0.096  10.619  0.4563  0.5876 -0.6931
 3705SOL    HW122751   3.106   0.128  10.683 -0.4488  2.1985 -2.3845
 3705SOL    HW222752   3.197   0.173  10.569  3.1824  0.0674  0.0545
 3706SOL     OW22753   2.138   0.361   7.610  0.8624  0.3276 -0.8853
 3706SOL    HW122754   2.081   0.378   7.684  0.7750  1.5677 -1.2325
 3706SOL    HW222755   2.227   0.360   7.644  0.8440 -0.5795 -0.8782
 3707SOL     OW22756   1.048   3.679   3.706 -0.0527  0.3075  0.9380
 3707SOL    HW122757   1.075   3.751   3.763  1.9157  0.2781  0.0679
 3707SOL    HW222758   1.135   3.651   3.676 -0.3305  0.3064  0.1164
 3708SOL     OW22759   0.391   4.694   6.807  0.1857 -0.2606 -0.5828
 3708SOL    HW122760   0.325   4.628   6.828  0.5963 -0.2607  0.7162
 3708SOL    HW222761   0.436   4.650   6.735  1.2491 -0.4773  0.2019
 3709SOL     OW22762   0.438   3.726   0.203  0.1436  0.2551 -0.6629
 3709SOL    HW122763   0.342   3.722   0.197  0.0759 -0.1332  0.7015
 3709SOL    HW222764   0.458   3.755   0.114  0.3860  0.7771 -0.4338
 3710SOL     OW22765   1.386   0.286   6.797  0.3251 -0.1314  0.4580
 3710SOL    HW122766   1.444   0.309   6.724 -1.4360 -0.6361 -1.0883
 3710SOL    HW222767   1.415   0.198   6.820 -0.7342 -0.3337  1.0348
 3711SOL     OW22768   4.457   1.339  10.042 -0.1942 -0.3613 -0.0073
 3711SOL    HW122769   4.531   1.399  10.044 -1.2481  0.9039  1.4760
 3711SOL    HW222770   4.477   1.282  10.117 -0.9019 -4.9673 -3.2946
 3712SOL     OW22771   3.302   3.355  17.180 -0.3874 -0.2718  0.2985
 3712SOL    HW122772   3.306   3.362  17.276  2.5941  2.2541 -0.0382
 3712SOL    HW222773   3.208   3.340  17.170 -0.4260  0.3951 -0.2887
 3713SOL     OW22774   4.069   0.262   7.632 -0.0692 -0.1384 -0.0913
 3713SOL    HW122775   4.151   0.300   7.664  0.9948  0.4081 -3.5657
 3713SOL    HW222776   4.103   0.189   7.581  3.4141  0.0090  1.9973
 3714SOL     OW22777   0.758   1.569   0.939  0.4952  0.0799  0.0520
 3714SOL    HW122778   0.851   1.550   0.930  0.3096 -1.9631  2.4043
 3714SOL    HW222779   0.755   1.664   0.945 -0.5310  0.1484 -1.7065
 3715SOL     OW22780   2.492   2.442  17.642 -0.5313 -0.1199 -0.0449
 3715SOL    HW122781   2.408   2.410  17.674 -0.3486 -0.5562  0.0021
 3715SOL    HW222782   2.517   2.516  17.697  0.1140  0.3151 -0.9243
 3716SOL     OW22783   3.585   0.587   2.567 -0.5317  0.0227  0.3828
 3716SOL    HW122784   3.646   0.520   2.535  0.0306 -0.7294  3.1005
 3716SOL    HW222785   3.529   0.522   2.610 -0.1384 -0.1593  0.6175
 3717SOL     OW22786   2.050   2.873   8.134  0.0753 -0.5389 -0.1709
 3717SOL    HW122787   1.970   2.926   8.139  1.2673  1.1368  1.2889
 3717SOL    HW222788   2.037   2.829   8.218 -1.0940 -0.7949 -0.4807
 3718SOL     OW22789   0.587   0.988  10.886  0.1779 -0.2402 -0.3448
 3718SOL    HW122790   0.563   1.021  10.800  1.0959 -1.3692 -1.0335
 3718SOL    HW222791   0.679   0.969  10.873  0.8949  0.4784  3.6653
 3719SOL     OW22792   0.533   1.797   4.235 -0.1637  0.3442  0.3997
 3719SOL    HW122793   0.462   1.771   4.176 -0.8168  1.8540  0.5304
 3719SOL    HW222794   0.477   1.803   4.313  0.4808 -0.9784  0.9671
 3720SOL     OW22795   0.038   1.410  15.008 -0.4536 -0.0859  0.8504
 3720SOL    HW122796   0.005   1.487  15.054  0.0672  0.1345  0.8616
 3720SOL    HW222797   4.694   1.370  14.970 -0.4887  1.2576 -0.4782
 3721SOL     OW22798   0.474   3.364   5.431 -0.5231  0.4425 -0.2567
 3721SOL    HW122799   0.558   3.396   5.399  0.2464 -1.1557  0.1801
 3721SOL    HW222800   0.427   3.347   5.349  3.6154 -3.9305 -1.6465
 3722SOL     OW22801   3.357   4.008   8.026  0.4213 -0.5113 -0.0879
 3722SOL    HW122802   3.262   4.005   8.022  0.4425 -1.1974 -0.1841
 3722SOL    HW222803   3.375   3.938   8.089  3.2851 -0.8021 -1.2206
 3723SOL     OW22804   3.901   2.763   5.174 -0.0593  0.1696 -0.1553
 3723SOL    HW122805   3.944   2.831   5.121 -0.4800  1.7358  1.5062
 3723SOL    HW222806   3.979   2.729   5.217 -1.1625 -1.5631  0.4651
 3724SOL     OW22807   3.248   4.706  14.743 -0.2724  0.7080  0.8077
 3724SOL    HW122808   3.222   4.617  14.717 -2.5917  1.6350 -0.0918
 3724SOL    HW222809   3.318   4.724  14.681 -0.9795 -0.1925 -0.2700
 3725SOL     OW22810   3.696   3.289   7.236  0.7447 -0.6719 -0.3909
 3725SOL    HW122811   3.750   3.278   7.314  1.2732 -2.7682 -1.0611
 3725SOL    HW222812   3.619   3.233   7.247 -0.8552  1.9447  1.8185
 3726SOL     OW22813   0.251   0.938  11.526  0.6923  0.4747 -0.2584
 3726SOL    HW122814   0.237   1.000  11.597  0.0149 -0.8976  0.8009
 3726SOL    HW222815   0.335   0.969  11.490  1.6530  1.9277  3.2767
 3727SOL     OW22816   2.825   2.607   4.789  0.0382 -0.6264  0.9904
 3727SOL    HW122817   2.867   2.520   4.787 -0.0239 -0.6330  0.1451
 3727SOL    HW222818   2.852   2.644   4.705 -0.7903 -1.7978  0.2077
 3728SOL     OW22819   3.193   1.916   5.819 -0.0617 -0.0808 -0.5703
 3728SOL    HW122820   3.111   1.870   5.802 -1.0269  1.1454  0.8574
 3728SOL    HW222821   3.165   2.000   5.854 -2.1848 -0.9182 -0.2919
 3729SOL     OW22822   0.895   2.790   9.508 -0.1463  0.0622  0.2855
 3729SOL    HW122823   0.827   2.806   9.574 -0.4151 -1.1264  0.2852
 3729SOL    HW222824   0.972   2.830   9.548  1.2886 -1.1355 -1.2896
 3730SOL     OW22825   3.122   3.469   7.208  0.1054  0.0032  0.0721
 3730SOL    HW122826   3.136   3.533   7.277 -1.1652  1.0347 -0.6372
 3730SOL    HW222827   3.206   3.468   7.162  0.9712  0.7074  1.6602
 3731SOL     OW22828   1.595   0.126   2.621 -0.4882 -0.1740  0.4378
 3731SOL    HW122829   1.548   0.171   2.550  0.4905  0.1972  0.0220
 3731SOL    HW222830   1.646   0.060   2.575  0.8246  0.7515  0.5597
 3732SOL     OW22831   2.847   3.294   3.980  0.5600 -0.0733 -0.6565
 3732SOL    HW122832   2.931   3.262   3.947  0.4678 -0.7883 -0.2021
 3732SOL    HW222833   2.863   3.386   4.002 -1.6588 -0.4479  2.4845
 3733SOL     OW22834   2.021   1.355   8.384  0.2418 -0.0606 -0.6418
 3733SOL    HW122835   2.064   1.434   8.349 -1.3724  1.2607  0.3714
 3733SOL    HW222836   2.080   1.343   8.459  0.0918 -1.1271 -0.6958
 3734SOL     OW22837   0.463   3.557  11.724 -0.5157 -0.1371  0.4615
 3734SOL    HW122838   0.406   3.531  11.652  2.8648  0.5560 -2.4824
 3734SOL    HW222839   0.485   3.476  11.770  1.0419 -1.2550 -2.2313
 3735SOL     OW22840   3.861   1.305   7.173  0.1831  0.4193  0.2437
 3735SOL    HW122841   3.860   1.226   7.227 -2.2349  0.6733  0.5847
 3735SOL    HW222842   3.889   1.370   7.236 -2.4753  1.0289  0.8148
 3736SOL     OW22843   2.652   0.417   4.262 -0.2805  0.3047 -0.0267
 3736SOL    HW122844   2.696   0.502   4.266 -1.3027  0.9567 -2.6371
 3736SOL    HW222845   2.699   0.375   4.190  0.6253  1.2446  0.0194
 3737SOL     OW22846   0.560   3.330   3.147 -0.2383  0.2292  0.0745
 3737SOL    HW122847   0.534   3.252   3.097  2.3677 -0.4902 -0.1687
 3737SOL    HW222848   0.625   3.293   3.206 -0.0448  0.6662  0.1339
 3738SOL     OW22849   4.117   3.587  11.170  0.7532  0.0821 -0.6004
 3738SOL    HW122850   4.200   3.636  11.174  1.1827 -0.6568 -0.5552
 3738SOL    HW222851   4.137   3.537  11.091 -0.8979 -1.4882  0.0036
 3739SOL     OW22852   1.617   1.486   0.797 -0.5406  0.1395  0.1185
 3739SOL    HW122853   1.598   1.393   0.794  3.1237 -0.5687 -2.0067
 3739SOL    HW222854   1.608   1.503   0.890 -0.7575  2.2117 -0.2722
 3740SOL     OW22855   1.671   4.509   9.432 -0.5406 -0.7045 -0.3181
 3740SOL    HW122856   1.736   4.524   9.500  0.7340 -0.0395 -1.6808
 3740SOL    HW222857   1.711   4.539   9.350  0.5056  0.0240  0.4634
 3741SOL     OW22858   0.190   3.589  15.197 -0.1524  0.1294 -0.1262
 3741SOL    HW122859   0.184   3.642  15.277  1.5744  1.0502 -0.5980
 3741SOL    HW222860   0.167   3.504  15.235 -1.6422  0.9350  0.7963
 3742SOL     OW22861   2.268   4.160   1.509 -0.0974  0.2289  0.8219
 3742SOL    HW122862   2.179   4.173   1.477 -0.0450  0.0288  0.5984
 3742SOL    HW222863   2.271   4.137   1.602  0.3753 -0.5252  0.6229
 3743SOL     OW22864   3.294   0.656  17.719 -0.3548 -0.6008  0.6671
 3743SOL    HW122865   3.359   0.709   0.030 -0.2879  1.1223 -1.4483
 3743SOL    HW222866   3.343   0.575  17.702  0.4379 -0.2562  1.2882
 3744SOL     OW22867   0.348   3.499   8.866 -0.1334  0.2170  0.1440
 3744SOL    HW122868   0.308   3.413   8.857 -0.4264  0.0706  2.7598
 3744SOL    HW222869   0.382   3.499   8.776  1.6477 -3.5764  0.8235
 3745SOL     OW22870   3.001   0.061   7.229 -0.4478 -0.3497  0.3021
 3745SOL    HW122871   2.992   4.730   7.159  0.8917  0.6776 -0.8302
 3745SOL    HW222872   3.029   0.147   7.196 -0.2619 -0.9831 -1.2024
 3746SOL     OW22873   1.036   1.856   3.731  0.2468  0.1485 -0.0424
 3746SOL    HW122874   1.083   1.913   3.792 -0.5935  1.2858 -0.4501
 3746SOL    HW222875   0.988   1.795   3.788  1.8744 -0.3019  0.8303
 3747SOL     OW22876   4.431   0.121  15.821  0.3292  0.2667 -0.0461
 3747SOL    HW122877   4.459   0.133  15.912 -0.0036  1.7281 -0.1384
 3747SOL    HW222878   4.513   0.080  15.794 -0.0981 -1.6275  1.5642
 3748SOL     OW22879   1.260   1.470   9.217 -0.3128 -0.4933  0.1944
 3748SOL    HW122880   1.269   1.552   9.167  0.7327 -0.5264  0.3334
 3748SOL    HW222881   1.209   1.497   9.293 -0.4383  2.1891 -0.8241
 3749SOL     OW22882   1.983   1.832   7.975 -0.0598  0.2691 -0.3629
 3749SOL    HW122883   1.956   1.758   7.920  2.2952  0.2988 -1.5939
 3749SOL    HW222884   2.074   1.845   7.947  0.0022 -2.5557 -1.4874
 3750SOL     OW22885   1.971   1.566   3.982  0.8691 -0.0998 -0.2385
 3750SOL    HW122886   1.909   1.636   3.962  1.6455  1.0309  1.3640
 3750SOL    HW222887   2.042   1.580   3.918 -1.6313  1.7753 -2.6019
 3751SOL     OW22888   0.968   3.105   4.746 -0.8315  0.2210  0.2165
 3751SOL    HW122889   0.963   3.020   4.788  0.0764  0.4835  0.8297
 3751SOL    HW222890   1.013   3.094   4.662 -0.8285  0.5117  0.1784
 3752SOL     OW22891   2.810   1.142   0.812  0.4535  0.2059  0.1309
 3752SOL    HW122892   2.779   1.112   0.898  1.9429  3.0668  1.6584
 3752SOL    HW222893   2.893   1.094   0.818  0.5590  0.2495 -0.9810
 3753SOL     OW22894   3.076   3.226   8.779  0.2775 -0.2515 -0.1423
 3753SOL    HW122895   3.011   3.292   8.801 -0.9780 -0.9908 -1.6933
 3753SOL    HW222896   3.075   3.172   8.859 -2.7731 -1.1026 -0.7442
 3754SOL     OW22897   1.309   2.658  12.198 -0.1456 -0.2254  0.0960
 3754SOL    HW122898   1.259   2.733  12.231 -0.0822 -0.5229  0.8681
 3754SOL    HW222899   1.393   2.674  12.242 -0.0114 -1.9222  0.4496
 3755SOL     OW22900   0.925   0.834   4.452 -0.0239  0.1715 -0.4159
 3755SOL    HW122901   0.841   0.795   4.427  0.2270 -0.7594  0.1976
 3755SOL    HW222902   0.953   0.774   4.521  0.6989 -0.2785 -1.1007
 3756SOL     OW22903   1.145   0.104   2.959 -0.2712 -0.1392  0.1460
 3756SOL    HW122904   1.183   0.020   2.984  1.3124  0.7664  0.7074
 3756SOL    HW222905   1.221   0.141   2.915 -0.0094 -1.1255 -0.2228
 3757SOL     OW22906   1.684   2.764   1.189  0.4854 -0.4099 -0.3756
 3757SOL    HW122907   1.701   2.814   1.109 -2.0395  0.9741 -0.0302
 3757SOL    HW222908   1.660   2.685   1.140 -0.8977  0.4864 -1.1283
 3758SOL     OW22909   4.506   1.038  13.868  0.4417 -0.1684 -0.3382
 3758SOL    HW122910   4.591   1.076  13.891  0.7626 -1.2246  0.2144
 3758SOL    HW222911   4.453   1.086  13.931 -0.0703  0.2602 -1.0949
 3759SOL     OW22912   1.936   3.181  12.099 -0.0249 -0.1244  0.1332
 3759SOL    HW122913   1.927   3.238  12.022 -1.9959  0.0927  0.5220
 3759SOL    HW222914   1.972   3.097  12.071  0.2994 -0.1570  0.6617
 3760SOL     OW22915   1.349   4.583  17.626  0.6272  0.7186 -0.5176
 3760SOL    HW122916   1.266   4.583  17.579  1.0255  2.3903 -1.2315
 3760SOL    HW222917   1.392   4.657  17.582 -0.6408  1.5325 -0.3910
 3761SOL     OW22918   2.151   0.322   7.325 -0.6021 -0.3109 -0.1263
 3761SOL    HW122919   2.147   0.226   7.326  1.7671 -0.4048  3.0452
 3761SOL    HW222920   2.133   0.343   7.417 -0.2000 -0.5494  0.0068
 3762SOL     OW22921   3.039   3.700   3.487 -0.3545 -0.1913 -0.0783
 3762SOL    HW122922   3.080   3.687   3.401  1.4317  0.5223  0.6668
 3762SOL    HW222923   3.106   3.753   3.531  0.0942 -0.2521 -0.6836
 3763SOL     OW22924   2.257   0.778   8.123  0.0517  0.1739 -0.1321
 3763SOL    HW122925   2.308   0.734   8.055  2.3384  0.6597  1.2802
 3763SOL    HW222926   2.217   0.698   8.157 -0.5793  0.4842 -0.1474
 3764SOL     OW22927   4.329   1.042  14.440 -0.1461  0.4023  0.0398
 3764SOL    HW122928   4.266   1.004  14.378 -0.9849  1.7164  0.0879
 3764SOL    HW222929   4.374   0.963  14.470 -0.5626  0.2741  0.3358
 3765SOL     OW22930   1.614   1.995  17.540  0.1568 -0.9195  0.4225
 3765SOL    HW122931   1.583   1.906  17.525 -1.1752 -0.2661 -0.7203
 3765SOL    HW222932   1.701   1.988  17.500  0.2130  1.7896  0.0613
 3766SOL     OW22933   2.988   0.535   5.119  0.9657  0.7534  0.0600
 3766SOL    HW122934   2.981   0.610   5.178  1.3584  0.7431  0.1162
 3766SOL    HW222935   2.994   0.463   5.182  0.6410  0.5914 -0.0948
 3767SOL     OW22936   4.291   1.011   9.362 -0.0097 -0.2467 -0.1406
 3767SOL    HW122937   4.342   0.934   9.386 -1.4485 -0.3801  2.4958
 3767SOL    HW222938   4.212   0.984   9.316 -0.1148  0.3694 -0.3276
 3768SOL     OW22939   1.813   1.871  12.094 -0.5053  0.3331  0.1539
 3768SOL    HW122940   1.814   1.889  12.001  1.0485  0.9660  0.2938
 3768SOL    HW222941   1.725   1.903  12.116 -0.5051 -0.3225  1.1137
 3769SOL     OW22942   3.842   3.199   4.884 -0.3636  0.3542 -0.1364
 3769SOL    HW122943   3.901   3.190   4.808 -0.2087  0.8317 -0.0751
 3769SOL    HW222944   3.777   3.131   4.866 -0.2001 -0.3101  1.7661
 3770SOL     OW22945   1.949   1.834  15.152  0.2770 -0.0909 -0.2441
 3770SOL    HW122946   1.903   1.918  15.154  0.0153 -0.2037 -1.7706
 3770SOL    HW222947   1.930   1.797  15.066  0.6770 -1.7328  0.3729
 3771SOL     OW22948   1.072   0.360   6.683 -0.0907 -0.1837 -0.4487
 3771SOL    HW122949   0.980   0.356   6.659 -0.8286 -1.6364  2.6843
 3771SOL    HW222950   1.104   0.273   6.660 -0.7712 -0.3749 -0.6560
 3772SOL     OW22951   3.730   2.982   3.072  0.0525 -0.4346  0.4948
 3772SOL    HW122952   3.794   2.912   3.081 -0.5161 -0.7730  1.9078
 3772SOL    HW222953   3.790   3.048   3.107  1.3997 -1.3099 -0.1829
 3773SOL     OW22954   1.665   2.174   5.187 -0.7112 -0.3216  0.3542
 3773SOL    HW122955   1.757   2.200   5.196 -0.5548 -0.7006 -0.1672
 3773SOL    HW222956   1.680   2.101   5.128  1.7254 -0.0301  0.5940
 3774SOL     OW22957   4.617   4.105   9.224 -0.1036  0.7947  0.6670
 3774SOL    HW122958   4.687   4.138   9.281  1.6612  0.9444 -1.6026
 3774SOL    HW222959   4.642   4.014   9.207 -0.0007  0.8172  0.6981
 3775SOL     OW22960   3.848   1.191  15.454 -0.1669  0.3137  0.4962
 3775SOL    HW122961   3.922   1.249  15.471 -0.9078  1.5919 -0.6300
 3775SOL    HW222962   3.781   1.259  15.465 -2.1815 -0.9581 -4.3859
 3776SOL     OW22963   1.263   1.426   3.786  0.6388 -0.4073  0.1923
 3776SOL    HW122964   1.338   1.396   3.837  0.8018  1.0430  0.8034
 3776SOL    HW222965   1.301   1.404   3.701 -2.1080  0.6730 -1.3123
 3777SOL     OW22966   2.975   1.884  10.487 -0.0379 -0.0986  0.6440
 3777SOL    HW122967   2.909   1.822  10.519 -1.4026  0.4073 -1.1970
 3777SOL    HW222968   2.936   1.916  10.406  1.4676  1.7656  0.6633
 3778SOL     OW22969   2.216   3.082  12.429  0.2549 -0.2151  0.1306
 3778SOL    HW122970   2.167   3.147  12.379  1.6402  0.3944 -0.4316
 3778SOL    HW222971   2.228   3.124  12.514  1.2613 -2.1181  0.9504
 3779SOL     OW22972   4.214   1.548   5.075 -0.3783 -0.7718 -0.1733
 3779SOL    HW122973   4.257   1.580   5.154 -0.5413 -1.1236  0.0568
 3779SOL    HW222974   4.165   1.472   5.106 -0.3289  0.2469  2.4048
 3780SOL     OW22975   2.905   2.486  10.216 -0.6698 -0.3734 -0.4959
 3780SOL    HW122976   2.817   2.469  10.248  0.2447  0.1398  2.3117
 3780SOL    HW222977   2.965   2.421  10.253 -1.1713  0.1857  1.3171
 3781SOL     OW22978   0.384   4.556  11.685 -0.0213  0.0452  0.2507
 3781SOL    HW122979   0.422   4.607  11.613 -0.0364  3.1998  2.4860
 3781SOL    HW222980   0.294   4.528  11.670  0.8193 -1.7316 -1.5342
 3782SOL     OW22981   1.780   1.102  11.951 -0.3710 -0.3305  0.1110
 3782SOL    HW122982   1.839   1.092  12.025 -2.0281 -0.4475  1.4070
 3782SOL    HW222983   1.692   1.096  11.988  0.3274 -1.0736  1.6435
 3783SOL     OW22984   1.401   1.089   6.672 -0.2783 -0.1550  0.1906
 3783SOL    HW122985   1.455   1.062   6.598  1.5252 -1.1774  1.9055
 3783SOL    HW222986   1.338   1.138   6.618  0.9423  2.5801  1.2807
 3784SOL     OW22987   4.280   0.276   4.539  0.6604  0.1878  0.2606
 3784SOL    HW122988   4.319   0.331   4.470  1.7654 -0.7473  0.1396
 3784SOL    HW222989   4.191   0.267   4.506  0.2166 -0.3100  1.6252
 3785SOL     OW22990   3.686   0.752   1.975  0.1785  0.2951  0.6248
 3785SOL    HW122991   3.738   0.671   1.971 -2.0545 -1.0645 -1.0024
 3785SOL    HW222992   3.633   0.745   1.896  0.7480  2.0186  0.1036
 3786SOL     OW22993   3.603   1.968   6.842  0.2443 -0.4708 -0.0073
 3786SOL    HW122994   3.678   1.988   6.899  0.3964  1.3561 -0.8596
 3786SOL    HW222995   3.591   1.873   6.846  0.9026 -0.5496  0.0747
 3787SOL     OW22996   4.553   1.192  17.006  0.2447 -0.0118  0.3619
 3787SOL    HW122997   4.467   1.163  16.977  0.5460  1.7873 -2.2809
 3787SOL    HW222998   4.541   1.284  16.981  0.3063  0.1523  0.9339
 3788SOL     OW22999   4.577   1.745   2.115  0.3755 -0.0046 -0.0789
 3788SOL    HW123000   4.569   1.841   2.111  2.8664  0.1438 -1.2301
 3788SOL    HW223001   4.647   1.730   2.052 -0.5218 -2.2747 -0.5201
 3789SOL     OW23002   4.539   1.788   3.191  0.1665 -0.0542 -0.4828
 3789SOL    HW123003   4.480   1.823   3.125 -0.6414 -1.4974 -0.5236
 3789SOL    HW223004   4.623   1.814   3.152  0.0884  2.8747  1.3283
 3790SOL     OW23005   3.264   1.299   6.993 -0.1903  0.5956 -0.5978
 3790SOL    HW123006   3.322   1.239   7.039 -0.6684  0.8551  0.3409
 3790SOL    HW223007   3.189   1.243   6.974  1.6624 -2.3885  0.8356
 3791SOL     OW23008   2.914   2.863   5.444  0.1588  0.0692 -0.1251
 3791SOL    HW123009   2.859   2.784   5.438 -0.5408  0.5663 -0.2351
 3791SOL    HW223010   2.972   2.841   5.517 -1.1257 -2.2582  0.2044
 3792SOL     OW23011   2.200   2.776   1.927  0.1691 -0.3484  0.0781
 3792SOL    HW123012   2.213   2.845   1.862  3.4372 -0.8974  0.1374
 3792SOL    HW223013   2.292   2.754   1.942 -0.3927 -2.0006  1.0772
 3793SOL     OW23014   1.400   2.825  16.677 -0.1923 -0.3592 -0.3347
 3793SOL    HW123015   1.476   2.838  16.621 -0.9120  2.6750 -0.6484
 3793SOL    HW223016   1.429   2.749  16.727 -0.2650 -0.8244 -1.0120
 3794SOL     OW23017   2.205   1.226   8.012 -0.2339  0.1301  0.3972
 3794SOL    HW123018   2.160   1.143   8.025 -0.7602  0.6541  1.9352
 3794SOL    HW223019   2.257   1.230   8.092 -0.9152  1.7295  0.7627
 3795SOL     OW23020   0.328   0.626   6.150 -0.0619  0.3545 -0.5097
 3795SOL    HW123021   0.243   0.585   6.134 -1.5259  1.8439  3.4053
 3795SOL    HW223022   0.387   0.557   6.120 -0.2335 -0.0692  0.1388
 3796SOL     OW23023   2.417   1.236  16.773 -0.1482  0.5226  0.0390
 3796SOL    HW123024   2.437   1.167  16.837  1.8199  1.6223  0.6196
 3796SOL    HW223025   2.473   1.213  16.700  0.6865 -0.3475  0.9495
 3797SOL     OW23026   3.876   0.946   3.604  0.1141  0.1192  0.5541
 3797SOL    HW123027   3.885   0.868   3.550 -2.0379  0.1411  0.1366
 3797SOL    HW223028   3.956   0.991   3.579 -1.1857  2.1829  0.0674
 3798SOL     OW23029   3.238   1.795  11.463 -0.7863  0.6497  0.5917
 3798SOL    HW123030   3.273   1.883  11.466 -0.8204  0.6822  0.0566
 3798SOL    HW223031   3.271   1.745  11.537 -0.5245  0.1221  0.1209
 3799SOL     OW23032   0.744   1.954   7.232 -0.6119  0.4038 -0.0485
 3799SOL    HW123033   0.788   1.967   7.148  1.8451  2.3581  1.5600
 3799SOL    HW223034   0.701   2.039   7.237 -0.0144  0.7672 -1.0237
 3800SOL     OW23035   4.071   2.422   6.050  0.5480  0.1588 -0.5046
 3800SOL    HW123036   4.075   2.328   6.065  0.8429  0.2576  0.0283
 3800SOL    HW223037   4.149   2.454   6.095  0.4019 -0.9129  0.5109
 3801SOL     OW23038   4.532   2.937   0.215  0.1017 -0.0310 -0.3762
 3801SOL    HW123039   4.515   2.900   0.302  0.2313 -0.2888 -0.4596
 3801SOL    HW223040   4.447   2.967   0.182 -1.8713 -2.2780  2.6910
 3802SOL     OW23041   4.187   3.828   1.509 -0.7375 -0.1758 -0.3720
 3802SOL    HW123042   4.277   3.808   1.533 -1.3894 -2.1599  0.4344
 3802SOL    HW223043   4.200   3.861   1.420  0.9343  0.6192  0.1669
 3803SOL     OW23044   3.802   0.648   1.110  0.1440  0.1784  1.0141
 3803SOL    HW123045   3.887   0.673   1.146  0.8373 -1.2659  0.4141
 3803SOL    HW223046   3.785   0.561   1.148 -1.5388  0.9124  1.9244
 3804SOL     OW23047   3.356   1.457   4.351  0.1388  0.5963 -0.3410
 3804SOL    HW123048   3.384   1.366   4.348 -0.0873  0.5894 -1.8631
 3804SOL    HW223049   3.422   1.493   4.291 -1.7764  2.3710 -1.3644
 3805SOL     OW23050   2.543   4.430   1.783  0.2211  0.4905 -0.4405
 3805SOL    HW123051   2.466   4.394   1.826 -0.0021  0.1090 -1.1606
 3805SOL    HW223052   2.607   4.359   1.784 -1.6451 -1.1542  0.9698
 3806SOL     OW23053   1.479   2.974   8.620  0.0321  0.0944  0.3497
 3806SOL    HW123054   1.517   2.992   8.534 -0.0977 -0.2631  0.2177
 3806SOL    HW223055   1.403   2.923   8.593  0.2516 -0.2404  0.3612
 3807SOL     OW23056   0.512   3.146  14.399 -0.8606  0.4910 -0.6131
 3807SOL    HW123057   0.541   3.222  14.348  1.0026 -1.1630 -2.0007
 3807SOL    HW223058   0.585   3.131  14.459 -0.9967  0.0176 -0.5662
 3808SOL     OW23059   0.061   1.406   3.827  0.2768  0.4522  0.0728
 3808SOL    HW123060   0.092   1.316   3.813 -0.9944  0.2284 -1.3326
 3808SOL    HW223061   4.730   1.419   3.758 -1.2129 -0.4517  1.3040
 3809SOL     OW23062   0.562   1.523   0.742  0.2072 -0.0011 -0.8955
 3809SOL    HW123063   0.631   1.539   0.807  0.4811  1.5878 -1.5714
 3809SOL    HW223064   0.524   1.609   0.762  1.3475  0.6588 -1.5351
 3810SOL     OW23065   3.916   1.532   7.346 -0.0480 -0.6594 -0.4077
 3810SOL    HW123066   3.888   1.467   7.410  2.1081  0.2970  1.4888
 3810SOL    HW223067   3.904   1.611   7.398  2.1833 -0.5640 -0.0532
 3811SOL     OW23068   0.499   3.321   7.624 -0.2974  0.2176  0.0762
 3811SOL    HW123069   0.559   3.356   7.690  1.3130 -1.1322 -0.6427
 3811SOL    HW223070   0.447   3.266   7.683  0.7318  1.1668  1.8754
 3812SOL     OW23071   1.829   2.910   3.085  0.0040  0.0071 -0.2503
 3812SOL    HW123072   1.811   3.000   3.114 -1.6036 -0.2014 -0.5877
 3812SOL    HW223073   1.782   2.909   3.001  0.2898  2.9350 -0.4404
 3813SOL     OW23074   4.515   1.668   2.739 -0.0906  0.2525 -0.2372
 3813SOL    HW123075   4.592   1.611   2.745 -0.9781 -0.6858  2.2688
 3813SOL    HW223076   4.490   1.665   2.831 -1.4898  0.0171 -0.6205
 3814SOL     OW23077   0.309   0.620   6.789  0.1903 -0.2085  0.0673
 3814SOL    HW123078   0.369   0.560   6.833  0.4732  0.9741  1.2680
 3814SOL    HW223079   0.240   0.558   6.766 -0.8108  1.0900 -0.4374
 3815SOL     OW23080   1.961   2.432   9.610  0.1405 -0.6278  0.1157
 3815SOL    HW123081   1.958   2.497   9.540 -1.0929  1.0872  1.7420
 3815SOL    HW223082   1.994   2.487   9.680 -1.1439  2.5271 -1.7846
 3816SOL     OW23083   0.198   2.460   7.059  0.0339 -0.3110  0.3935
 3816SOL    HW123084   0.180   2.514   7.135 -0.1353  2.4334 -1.5892
 3816SOL    HW223085   0.124   2.474   7.000  1.0999  1.3236 -0.5901
 3817SOL     OW23086   1.114   3.777  14.122  0.1039 -0.4887  0.2141
 3817SOL    HW123087   1.032   3.777  14.171 -0.2548  1.7060 -0.4167
 3817SOL    HW223088   1.157   3.701  14.162 -0.5674 -0.4520  0.9988
 3818SOL     OW23089   4.293   1.122  14.087  0.5707 -0.5976  0.2621
 3818SOL    HW123090   4.214   1.070  14.069  1.5165 -1.0832 -2.4620
 3818SOL    HW223091   4.270   1.210  14.058  2.1725  0.9241  3.6002
 3819SOL     OW23092   1.824   4.100   5.956 -0.8863 -0.0152  0.1551
 3819SOL    HW123093   1.822   4.012   5.921  1.3661  0.7626 -1.9311
 3819SOL    HW223094   1.797   4.096   6.048  0.5305 -1.3991  0.5140
 3820SOL     OW23095   2.381   4.375   1.391  0.0974 -0.1797 -0.3894
 3820SOL    HW123096   2.342   4.312   1.451 -0.4749  0.6397  0.1039
 3820SOL    HW223097   2.302   4.365   1.337 -0.7309  0.7588  0.6358
 3821SOL     OW23098   0.435   2.499   4.955 -0.0967  0.0502 -0.6296
 3821SOL    HW123099   0.531   2.504   4.948  0.1420  0.0265  2.5370
 3821SOL    HW223100   0.418   2.423   4.899  0.8539 -0.7077  0.0834
 3822SOL     OW23101   0.512   0.986  10.450  0.0741  0.8208 -0.1784
 3822SOL    HW123102   0.533   0.907  10.500 -1.3543  2.1899  2.5805
 3822SOL    HW223103   0.522   1.048  10.523 -4.2055  2.1556 -0.7559
 3823SOL     OW23104   2.272   2.126  14.403 -0.3832 -0.1458 -0.2082
 3823SOL    HW123105   2.362   2.096  14.416  0.0050  0.7873 -0.7341
 3823SOL    HW223106   2.257   2.182  14.480 -1.2488 -1.9111  0.9067
 3824SOL     OW23107   3.449   0.545   8.572  1.2522 -0.1811  0.3894
 3824SOL    HW123108   3.438   0.469   8.516  0.5259  0.7589 -0.7537
 3824SOL    HW223109   3.411   0.509   8.652 -0.0605  0.4179  0.0430
 3825SOL     OW23110   3.849   0.001   9.401 -0.2673  0.5525 -0.4616
 3825SOL    HW123111   3.817   4.645   9.388 -0.6043  0.6150 -0.0881
 3825SOL    HW223112   3.873   4.718   9.492 -0.3198  2.0162 -0.1766
 3826SOL     OW23113   2.877   4.455   8.611 -0.1115 -0.1491  0.0672
 3826SOL    HW123114   2.844   4.531   8.658  2.7371  0.8241  0.5043
 3826SOL    HW223115   2.925   4.493   8.538 -1.0105 -0.6013 -0.7445
 3827SOL     OW23116   0.937   0.754  13.022 -0.7277  0.1624  0.3920
 3827SOL    HW123117   0.907   0.807  12.948  1.1186 -0.6795 -0.9586
 3827SOL    HW223118   0.894   0.793  13.099 -2.0931  1.6782 -1.1343
 3828SOL     OW23119   0.447   2.616  15.415  0.3753 -0.0974  0.0262
 3828SOL    HW123120   0.378   2.610  15.349  2.2120  0.0642 -1.9213
 3828SOL    HW223121   0.404   2.668  15.483 -1.2200 -1.3380 -0.0319
 3829SOL     OW23122   2.690   3.167  14.129  0.1246  0.3283  0.0313
 3829SOL    HW123123   2.667   3.260  14.126  0.1158  0.3624  0.9187
 3829SOL    HW223124   2.666   3.131  14.044  2.0333 -3.7359  1.1784
 3830SOL     OW23125   0.171   3.323   4.953  0.1855 -0.1845 -0.4366
 3830SOL    HW123126   0.160   3.275   5.036 -1.0773  0.2385 -0.3615
 3830SOL    HW223127   0.124   3.255   4.904  0.9635 -0.9047 -0.1996
 3831SOL     OW23128   2.020   4.025  12.994 -0.1535 -0.8042  0.3357
 3831SOL    HW123129   1.994   4.042  13.085 -0.7361 -0.3249  0.0805
 3831SOL    HW223130   2.009   3.930  13.001  0.5639 -0.8908  0.2741
 3832SOL     OW23131   1.370   0.518   6.507 -0.0001 -0.0194  0.4468
 3832SOL    HW123132   1.417   0.599   6.524 -2.0295  1.4042 -0.7609
 3832SOL    HW223133   1.284   0.547   6.536 -0.1931 -0.5450  0.4103
 3833SOL     OW23134   3.084   2.553   4.622 -0.0459  0.2220  0.0559
 3833SOL    HW123135   3.112   2.629   4.673 -2.4796 -0.5073  2.4732
 3833SOL    HW223136   3.162   2.498   4.612  0.1972  0.2725  1.6111
 3834SOL     OW23137   3.175   3.997   1.227 -0.2043 -0.4677  0.3057
 3834SOL    HW123138   3.109   3.954   1.281 -0.9861  1.2036  0.6778
 3834SOL    HW223139   3.136   4.083   1.211  3.4852  1.3378  0.9947
 3835SOL     OW23140   1.584   2.469   7.249  0.1058 -0.0874 -0.7150
 3835SOL    HW123141   1.617   2.472   7.158  3.0085 -1.8058  0.2762
 3835SOL    HW223142   1.649   2.524   7.293 -0.3477 -0.8195  0.8657
 3836SOL     OW23143   0.132   0.472   6.017 -0.5064 -0.1759 -0.2802
 3836SOL    HW123144   0.167   0.412   6.083 -0.1635 -0.7017 -0.9452
 3836SOL    HW223145   0.078   0.408   5.969 -0.9466  0.7735 -1.0384
 3837SOL     OW23146   0.229   1.790   7.495 -0.0867 -0.2435 -0.3083
 3837SOL    HW123147   0.231   1.788   7.591 -0.4509 -0.3498 -0.3025
 3837SOL    HW223148   0.178   1.867   7.471  2.0969  0.9258 -1.2335
 3838SOL     OW23149   3.644   2.188   5.162  0.3762  0.0917  0.1180
 3838SOL    HW123150   3.600   2.122   5.215  2.2616 -1.1468  0.1603
 3838SOL    HW223151   3.621   2.271   5.204  0.2068 -0.9176  2.0128
 3839SOL     OW23152   1.110   3.482   4.641  0.1633  0.5505 -0.5484
 3839SOL    HW123153   1.064   3.561   4.667 -1.2314 -0.2497 -0.5682
 3839SOL    HW223154   1.080   3.464   4.552 -2.1252  0.6313  0.2314
 3840SOL     OW23155   4.024   0.311   5.801 -0.1842  0.3402 -0.0962
 3840SOL    HW123156   3.998   0.231   5.847 -0.7737  0.0700 -0.8886
 3840SOL    HW223157   3.967   0.319   5.725  0.0361  0.0649 -0.2900
 3841SOL     OW23158   4.526   3.882   2.870 -0.8042  0.0721 -0.6038
 3841SOL    HW123159   4.543   3.834   2.951  0.8111  0.8601 -0.4799
 3841SOL    HW223160   4.493   3.967   2.901  1.6187  1.0748 -0.7635
 3842SOL     OW23161   4.252   1.736  11.933 -0.4667 -0.2574  0.8042
 3842SOL    HW123162   4.244   1.655  11.983  1.9939 -1.2242 -0.3545
 3842SOL    HW223163   4.162   1.768  11.926 -0.3047  0.2874  1.1832
 3843SOL     OW23164   1.544   0.792   3.436  0.2744  0.0660  0.3112
 3843SOL    HW123165   1.619   0.787   3.377  0.3722 -1.8599  0.6145
 3843SOL    HW223166   1.589   0.796   3.520 -0.1709 -1.6091  0.6242
 3844SOL     OW23167   1.971   3.883  17.277  0.0087  0.5182 -0.5748
 3844SOL    HW123168   1.973   3.934  17.358  0.7016  0.3818 -0.5056
 3844SOL    HW223169   2.028   3.922  17.211 -0.9427  4.1725  0.7392
 3845SOL     OW23170   1.503   1.028   4.034  0.4510  0.1616  0.4146
 3845SOL    HW123171   1.480   1.024   4.127  0.8815  2.0308  0.5948
 3845SOL    HW223172   1.586   1.073   4.047 -0.7351  1.6096  2.9824
 3846SOL     OW23173   0.961   2.263   2.591  0.4109  0.7052 -0.1849
 3846SOL    HW123174   0.941   2.169   2.597 -0.4696  0.7965 -1.7874
 3846SOL    HW223175   1.026   2.269   2.661  0.2007 -0.9633  0.1519
 3847SOL     OW23176   1.324   2.195  11.933 -0.8464  0.4542  0.4935
 3847SOL    HW123177   1.242   2.244  11.936 -1.1470  0.0270 -1.2390
 3847SOL    HW223178   1.342   2.191  12.027 -0.4375 -0.9365  0.3499
 3848SOL     OW23179   0.400   2.198   5.250  0.2972  0.1162 -0.1549
 3848SOL    HW123180   0.495   2.191   5.242  0.4451  1.2470  0.6799
 3848SOL    HW223181   0.385   2.119   5.302 -0.5793  1.1274  1.1160
 3849SOL     OW23182   2.250   2.517   0.217  0.0396  0.3049  0.0543
 3849SOL    HW123183   2.224   2.563   0.296 -1.5107 -1.2339  0.4354
 3849SOL    HW223184   2.191   2.443   0.229  1.5888 -0.8772  0.4220
 3850SOL     OW23185   1.583   2.565  13.723 -0.1164 -0.3658  0.1520
 3850SOL    HW123186   1.552   2.497  13.783 -1.8143 -0.9657 -1.4114
 3850SOL    HW223187   1.637   2.514  13.664  0.5799  0.7199 -0.1429
 3851SOL     OW23188   2.680   1.134   2.394  0.5973 -0.1466 -0.1746
 3851SOL    HW123189   2.691   1.178   2.478  0.8392 -1.4161  0.4649
 3851SOL    HW223190   2.586   1.119   2.393  0.8920 -2.2132  1.6310
 3852SOL     OW23191   0.306   1.066  17.665  0.2702  0.1339 -0.1309
 3852SOL    HW123192   0.323   1.066   0.025  1.2478 -0.7587 -0.2969
 3852SOL    HW223193   0.221   1.109  17.661  0.0412 -0.3531 -0.5727
 3853SOL     OW23194   1.420   2.557   8.600 -0.4006 -0.4861 -0.5543
 3853SOL    HW123195   1.360   2.631   8.608  1.6783  1.0461  0.8638
 3853SOL    HW223196   1.473   2.582   8.524 -2.5767  1.4072 -1.4547
 3854SOL     OW23197   3.250   2.530  13.492  0.2957  0.1164 -0.1218
 3854SOL    HW123198   3.193   2.483  13.554  0.3344 -0.5945 -0.6260
 3854SOL    HW223199   3.181   2.581  13.450  0.8208  2.5375  1.9696
 3855SOL     OW23200   1.481   4.119   7.142  0.3044 -0.4154 -0.1870
 3855SOL    HW123201   1.539   4.159   7.077 -3.0609  0.4112 -2.7242
 3855SOL    HW223202   1.533   4.062   7.197 -0.8791 -1.3677 -0.0502
 3856SOL     OW23203   1.941   0.126   8.286 -0.0338  0.9219 -0.4987
 3856SOL    HW123204   1.882   0.105   8.358  0.6336  0.9937  0.0680
 3856SOL    HW223205   1.892   0.200   8.250 -2.0440 -0.5022 -0.6495
 3857SOL     OW23206   2.149   4.072   7.582  0.2233 -0.4302 -0.5897
 3857SOL    HW123207   2.055   4.071   7.561  0.4280  1.5802 -1.5911
 3857SOL    HW223208   2.185   4.143   7.528 -2.6875  2.7875  1.6992
 3858SOL     OW23209   0.714   2.429  11.677  0.0324  0.4489 -0.1343
 3858SOL    HW123210   0.689   2.340  11.702  0.1911  0.0683 -1.3031
 3858SOL    HW223211   0.684   2.422  11.586 -0.5077 -1.8244  0.2133
 3859SOL     OW23212   2.332   2.064   7.952 -0.3005  0.0051 -0.2554
 3859SOL    HW123213   2.289   1.993   7.905 -2.0591  1.0832 -0.2730
 3859SOL    HW223214   2.385   2.008   8.010  2.5259  0.8216 -2.0507
 3860SOL     OW23215   1.019   3.177   9.012  0.0455  0.2288 -0.0724
 3860SOL    HW123216   0.995   3.270   9.005  1.2010  0.3225 -3.0029
 3860SOL    HW223217   1.084   3.197   9.080 -0.0647 -3.2783  1.0242
 3861SOL     OW23218   4.369   1.897  16.782  0.0285 -0.2899  0.1275
 3861SOL    HW123219   4.433   1.952  16.736  0.6162 -1.4243 -0.4137
 3861SOL    HW223220   4.404   1.898  16.871 -1.5313 -1.2457  0.7428
 3862SOL     OW23221   0.413   2.573   1.623  0.1854 -0.2941  0.3132
 3862SOL    HW123222   0.409   2.484   1.658  0.4088 -1.2525 -2.1206
 3862SOL    HW223223   0.425   2.557   1.530  1.1293  0.4457  0.3071
 3863SOL     OW23224   3.771   3.463   9.181  0.0343 -0.4909 -0.4247
 3863SOL    HW123225   3.773   3.448   9.087  2.6512  0.8543 -0.5641
 3863SOL    HW223226   3.790   3.556   9.189  1.5863 -0.7012 -1.7713
 3864SOL     OW23227   2.451   3.783   8.327 -0.4356  0.5164 -0.2320
 3864SOL    HW123228   2.420   3.787   8.237  0.7172 -0.6853 -0.6803
 3864SOL    HW223229   2.394   3.848   8.367 -1.1868  0.0325 -0.5330
 3865SOL     OW23230   3.151   2.213   5.085 -0.1827 -0.2570  0.1621
 3865SOL    HW123231   3.220   2.217   5.018  0.7231 -0.8709  1.0700
 3865SOL    HW223232   3.159   2.303   5.117  1.3321 -0.7876  1.2752
 3866SOL     OW23233   4.036   1.098   1.939  0.1855  0.3623  0.2608
 3866SOL    HW123234   4.103   1.158   1.974  1.1401 -0.2521 -0.5183
 3866SOL    HW223235   3.973   1.105   2.011 -0.4857  0.2555 -0.3220
 3867SOL     OW23236   4.359   4.670   3.173  0.3517  0.2452 -0.0464
 3867SOL    HW123237   4.291   4.733   3.195  0.4779  0.6625 -0.8556
 3867SOL    HW223238   4.386   4.685   3.083  0.8285 -0.4998 -0.0334
 3868SOL     OW23239   4.155   3.472  13.846  0.2117 -0.4478 -0.1073
 3868SOL    HW123240   4.158   3.530  13.770 -3.0280 -0.8325 -0.5315
 3868SOL    HW223241   4.093   3.512  13.907  0.8054 -0.1631  0.3104
 3869SOL     OW23242   2.954   1.801   5.869  0.1090  0.5288  0.0333
 3869SOL    HW123243   2.915   1.812   5.956  1.6484  0.2151  0.7744
 3869SOL    HW223244   2.937   1.707   5.863 -0.9101  0.6403  1.1127
 3870SOL     OW23245   3.002   3.640   4.971  0.2751  0.3252  0.2435
 3870SOL    HW123246   2.953   3.610   4.895  1.4595  2.5325 -1.3969
 3870SOL    HW223247   3.015   3.731   4.945 -2.7256  0.9061  0.8604
 3871SOL     OW23248   4.356   2.498  13.968  0.8547 -0.0380  0.0507
 3871SOL    HW123249   4.339   2.415  14.013 -3.4057 -0.1761 -1.7427
 3871SOL    HW223250   4.265   2.523  13.950  0.2851 -2.5154 -0.5994
 3872SOL     OW23251   4.151   0.489   8.789 -0.4824  0.2780 -0.3131
 3872SOL    HW123252   4.175   0.581   8.774 -1.6935  0.2006 -2.6793
 3872SOL    HW223253   4.056   0.501   8.786 -0.3814  1.0442 -0.5272
 3873SOL     OW23254   0.750   2.082  17.623  0.1714 -0.6440 -0.1373
 3873SOL    HW123255   0.792   2.005  17.662  1.1338 -0.2298 -0.3627
 3873SOL    HW223256   0.673   2.043  17.581 -0.3378  0.9589 -0.7071
 3874SOL     OW23257   4.504   2.121  17.727 -0.4083 -0.7020  0.5650
 3874SOL    HW123258   4.436   2.064  17.689 -1.1324  0.1859  0.5248
 3874SOL    HW223259   4.559   2.064   0.046  2.8536  1.2017 -0.7734
 3875SOL     OW23260   2.896   3.203   5.740  0.1108 -0.3003 -0.0944
 3875SOL    HW123261   2.874   3.113   5.763  0.1970 -0.5597 -1.0234
 3875SOL    HW223262   2.819   3.254   5.765 -0.6872 -1.6483  0.2205
 3876SOL     OW23263   1.854   4.002   1.841 -0.3142 -0.0867  0.6193
 3876SOL    HW123264   1.810   3.918   1.855  0.9663 -0.9269 -0.3644
 3876SOL    HW223265   1.852   4.040   1.928 -3.2971 -1.0336  0.9485
 3877SOL     OW23266   0.933   0.253   7.816 -0.0898  0.1399  0.3547
 3877SOL    HW123267   0.848   0.227   7.852 -1.2264  3.5360  0.1611
 3877SOL    HW223268   0.913   0.286   7.729 -1.6682  0.2752  0.7678
 3878SOL     OW23269   4.506   3.318   4.925 -0.1966  0.3413 -0.2102
 3878SOL    HW123270   4.477   3.400   4.884  0.6838 -0.3158 -2.1358
 3878SOL    HW223271   4.519   3.343   5.016  0.3095 -0.0479 -0.1737
 3879SOL     OW23272   4.562   1.436   3.005  0.1298 -0.0216 -0.2253
 3879SOL    HW123273   4.467   1.433   3.018 -0.0457 -1.3783 -1.7062
 3879SOL    HW223274   4.562   1.422   2.910 -0.1954 -1.7295  0.0157
 3880SOL     OW23275   3.789   4.425   0.270 -0.4341 -0.5541  0.0799
 3880SOL    HW123276   3.862   4.472   0.311  0.3311 -0.3331 -1.5478
 3880SOL    HW223277   3.809   4.331   0.279  0.6758 -0.2765  0.4581
 3881SOL     OW23278   0.959   1.397   7.907  0.1396  0.1765 -0.4237
 3881SOL    HW123279   1.034   1.437   7.952 -0.7479 -0.5549  1.6726
 3881SOL    HW223280   1.001   1.332   7.850  0.3164 -1.8394  2.0289
 3882SOL     OW23281   1.867   0.214  14.339 -0.3025  0.5863 -0.0059
 3882SOL    HW123282   1.830   0.299  14.361  1.2751  0.8381  1.7052
 3882SOL    HW223283   1.901   0.186  14.424 -1.5263 -0.1418  0.2314
 3883SOL     OW23284   1.880   0.451   2.317 -0.5351  0.6804 -0.0538
 3883SOL    HW123285   1.787   0.472   2.312 -1.2390 -2.7878 -1.6180
 3883SOL    HW223286   1.888   0.367   2.362  0.7784  0.6898 -0.2766
 3884SOL     OW23287   3.082   2.693   8.321  0.1465  0.1165 -0.3862
 3884SOL    HW123288   3.000   2.737   8.299 -1.2802 -0.3580  4.0226
 3884SOL    HW223289   3.067   2.614   8.269 -1.0221 -1.7238  2.7304
 3885SOL     OW23290   1.228   0.422  10.389  0.1675  0.0071 -0.3437
 3885SOL    HW123291   1.205   0.490  10.325 -2.7430  0.3947  1.1327
 3885SOL    HW223292   1.202   0.341  10.345  1.2137 -0.8943  0.7013
 3886SOL     OW23293   3.442   3.711   8.687  0.2824 -0.7189  0.2457
 3886SOL    HW123294   3.451   3.806   8.680  2.5969 -0.8541  1.6630
 3886SOL    HW223295   3.385   3.706   8.764 -1.2376 -3.1210 -1.0300
 3887SOL     OW23296   2.324   3.009   2.476  0.5543  0.0358 -0.1616
 3887SOL    HW123297   2.234   3.040   2.487  0.9143  1.2776 -0.7407
 3887SOL    HW223298   2.367   3.066   2.539  0.6167 -1.2238  0.9375
 3888SOL     OW23299   3.895   4.165   9.104 -0.5505 -0.7384  0.6291
 3888SOL    HW123300   3.912   4.201   9.191  1.5497  1.2161 -0.5936
 3888SOL    HW223301   3.906   4.072   9.123  0.4836 -0.5210  1.1226
 3889SOL     OW23302   4.605   2.107   4.261  0.0181 -0.0178  0.8938
 3889SOL    HW123303   4.584   2.017   4.235  0.5003 -0.4316  1.9665
 3889SOL    HW223304   4.515   2.135   4.280 -0.2361  1.6045 -2.6773
 3890SOL     OW23305   0.140   1.200   8.276 -0.3755  0.0468 -0.0330
 3890SOL    HW123306   0.106   1.122   8.233  0.8425 -0.0938 -0.7360
 3890SOL    HW223307   0.124   1.269   8.211 -1.3813  0.0655  0.2363
 3891SOL     OW23308   2.386   1.434   2.542 -0.1903  0.1814 -0.0593
 3891SOL    HW123309   2.309   1.403   2.494 -0.8532  0.8441  0.5819
 3891SOL    HW223310   2.391   1.520   2.502  1.8378  0.9718  1.8873
 3892SOL     OW23311   0.896   2.248   5.443 -0.3470 -0.0240  0.2247
 3892SOL    HW123312   0.964   2.184   5.463  1.2397  1.8845  0.9256
 3892SOL    HW223313   0.865   2.280   5.528 -2.2011  1.0948 -0.8624
 3893SOL     OW23314   2.294   3.273   7.314 -0.1032  0.0098 -0.5842
 3893SOL    HW123315   2.379   3.312   7.336  0.2651 -1.2128  0.2147
 3893SOL    HW223316   2.273   3.333   7.243 -1.4916  0.7016  0.4057
 3894SOL     OW23317   2.055   0.418  16.209 -0.1781 -0.6345  0.4376
 3894SOL    HW123318   2.033   0.374  16.292  3.0626 -1.0287  1.1133
 3894SOL    HW223319   2.150   0.406  16.209 -0.1016 -0.0268 -0.6170
 3895SOL     OW23320   3.250   3.586   2.949  0.1882 -0.5052  0.1205
 3895SOL    HW123321   3.245   3.626   3.036  0.7317 -2.5442  1.0766
 3895SOL    HW223322   3.290   3.501   2.965 -0.5004 -1.2684 -2.2457
 3896SOL     OW23323   2.740   2.493  14.521 -0.0698 -0.1209 -0.5491
 3896SOL    HW123324   2.763   2.461  14.608 -1.3554 -1.3989 -0.6784
 3896SOL    HW223325   2.752   2.588  14.528 -1.4709  0.0151  0.0735
 3897SOL     OW23326   3.815   2.640   3.124 -0.7375 -0.0984 -0.2027
 3897SOL    HW123327   3.814   2.557   3.172  1.4789  0.7767  1.3706
 3897SOL    HW223328   3.809   2.693   3.203  0.5238  0.9791 -0.8441
 3898SOL     OW23329   2.165   2.891   0.318 -0.3005  0.4015 -0.6543
 3898SOL    HW123330   2.082   2.878   0.363  0.3668  0.3348  0.5513
 3898SOL    HW223331   2.154   2.848   0.234 -1.1138 -1.0359  0.1906
 3899SOL     OW23332   2.807   0.082   4.881  0.0965  0.1151  0.1175
 3899SOL    HW123333   2.761   0.014   4.930  0.2148 -0.1619 -0.1545
 3899SOL    HW223334   2.780   0.044   4.797 -2.2688 -0.8431  1.3069
 3900SOL     OW23335   3.806   3.407   8.898 -0.4063  0.0662 -0.5789
 3900SOL    HW123336   3.799   3.326   8.849 -0.9593 -0.8544  1.0417
 3900SOL    HW223337   3.749   3.456   8.838  0.1847 -0.3669 -1.5050
 3901SOL     OW23338   2.500   4.591   7.761 -0.5707 -0.1317  0.4524
 3901SOL    HW123339   2.521   4.645   7.685  1.0673  1.4683  2.0508
 3901SOL    HW223340   2.506   4.506   7.718  1.0661  1.5410 -2.6032
 3902SOL     OW23341   0.017   4.499   2.109 -0.1138  0.1265 -0.3754
 3902SOL    HW123342   4.664   4.506   2.070  1.7873  0.1092 -4.6563
 3902SOL    HW223343   0.031   4.581   2.156 -0.7825 -0.1657  0.3280
 3903SOL     OW23344   1.315   1.677   9.027  0.0084  0.7727 -0.9528
 3903SOL    HW123345   1.392   1.716   9.069 -2.1703  1.3485  2.4513
 3903SOL    HW223346   1.250   1.747   9.029 -2.4416 -1.6305  1.2692
 3904SOL     OW23347   0.113   3.547   7.494  0.2664 -0.0644  0.2484
 3904SOL    HW123348   0.208   3.562   7.499 -0.1543  2.3189  1.1167
 3904SOL    HW223349   0.111   3.453   7.509 -0.4364 -0.3904 -1.8596
 3905SOL     OW23350   1.193   2.320   4.784  0.3318  0.5554  0.4582
 3905SOL    HW123351   1.120   2.339   4.727  1.5639  0.6364 -1.0836
 3905SOL    HW223352   1.243   2.401   4.790  0.0741  0.7130  0.4393
 3906SOL     OW23353   0.131   0.511   6.426 -0.4374  0.7042  0.3370
 3906SOL    HW123354   0.147   0.498   6.520 -3.3368 -0.3664  0.6971
 3906SOL    HW223355   0.189   0.441   6.396 -2.9897 -0.9573 -0.7579
 3907SOL     OW23356   4.307   0.351   7.744  0.2729  0.0794  0.4403
 3907SOL    HW123357   4.356   0.346   7.662 -1.6199  0.2148 -0.6832
 3907SOL    HW223358   4.350   0.277   7.787 -0.3143 -0.6243 -0.1797
 3908SOL     OW23359   0.778   3.418   0.442 -0.0575 -0.3263  0.4684
 3908SOL    HW123360   0.829   3.488   0.483 -0.4538 -0.6473  1.5166
 3908SOL    HW223361   0.729   3.382   0.516 -0.5105  0.3046  0.4831
 3909SOL     OW23362   1.631   0.350   3.478  0.2423  0.0490 -0.3048
 3909SOL    HW123363   1.640   0.314   3.390 -1.8863 -1.3875  0.0506
 3909SOL    HW223364   1.546   0.395   3.477  0.3189  0.2471  1.4264
 3910SOL     OW23365   3.375   0.180   2.277  0.1475 -0.5682 -0.1578
 3910SOL    HW123366   3.374   0.121   2.353  2.6329  1.6276  1.5652
 3910SOL    HW223367   3.337   0.262   2.308  1.7824 -0.2292  0.9686
 3911SOL     OW23368   0.179   3.174   5.169 -0.0408  0.0938 -0.1037
 3911SOL    HW123369   0.128   3.098   5.141  1.8994 -0.6377 -1.6231
 3911SOL    HW223370   0.189   3.141   5.258 -0.3371  0.9265  0.2366
 3912SOL     OW23371   0.517   1.325   5.120 -0.2211  0.6550  0.5197
 3912SOL    HW123372   0.511   1.230   5.134  0.9838  0.7575  1.6629
 3912SOL    HW223373   0.541   1.346   5.030 -1.8762  1.0499  0.1698
 3913SOL     OW23374   3.936   1.201   9.366 -0.4837 -0.3677 -0.2142
 3913SOL    HW123375   3.926   1.206   9.461 -1.0133 -1.3008 -0.2197
 3913SOL    HW223376   4.022   1.240   9.352 -0.4133 -0.8832 -1.2243
 3914SOL     OW23377   3.119   4.465  14.933  0.7153 -0.0003 -0.5611
 3914SOL    HW123378   3.084   4.512  15.008  2.0829  0.3746 -0.1582
 3914SOL    HW223379   3.061   4.491  14.861 -1.2167 -3.7116 -0.3743
 3915SOL     OW23380   2.829   1.802   6.997  0.6544  0.4856  0.0647
 3915SOL    HW123381   2.880   1.725   7.023 -1.6837 -0.1257  2.8844
 3915SOL    HW223382   2.815   1.844   7.082 -0.7063 -1.0500  0.6081
 3916SOL     OW23383   0.049   2.908   0.120  0.0901 -0.6896 -0.6906
 3916SOL    HW123384   4.696   2.942   0.144  0.1706 -0.7960 -0.2431
 3916SOL    HW223385   0.098   2.988   0.099 -2.4167  1.3449  1.1366
 3917SOL     OW23386   3.422   3.844   1.819 -0.3484 -0.2067  0.2174
 3917SOL    HW123387   3.403   3.865   1.727  2.9041  2.1062  0.0608
 3917SOL    HW223388   3.356   3.904   1.853 -0.3227 -0.3560  0.5274
 3918SOL     OW23389   0.750   2.666   9.785 -0.0082  0.1646 -0.2830
 3918SOL    HW123390   0.765   2.760   9.769 -1.8462  0.2717 -1.4961
 3918SOL    HW223391   0.836   2.626   9.775 -0.7137 -0.9648 -1.8998
 3919SOL     OW23392   0.334   1.962  16.551  0.4833 -0.6272 -0.3827
 3919SOL    HW123393   0.401   2.014  16.506  0.1943 -0.5029 -0.6728
 3919SOL    HW223394   0.364   1.879  16.515 -0.3539  0.5760 -3.8606
 3920SOL     OW23395   2.356   3.375   7.731 -0.0575 -0.2495 -0.3702
 3920SOL    HW123396   2.287   3.392   7.667 -2.5472 -1.3230  2.0587
 3920SOL    HW223397   2.439   3.369   7.683 -0.5106 -1.2890 -1.0389
 3921SOL     OW23398   2.768   0.590  13.785 -0.4695 -0.2054 -0.4837
 3921SOL    HW123399   2.715   0.526  13.833  2.8410 -0.6096  2.6709
 3921SOL    HW223400   2.763   0.660  13.851  0.6346  0.1997 -0.8435
 3922SOL     OW23401   1.099   0.120  16.343 -0.6444 -0.1458 -0.5039
 3922SOL    HW123402   1.025   0.141  16.400  0.6895  0.7626  0.8910
 3922SOL    HW223403   1.058   0.065  16.276  1.0164 -1.0282 -0.7869
 3923SOL     OW23404   0.453   2.768   3.848 -0.1946  0.2322 -0.3233
 3923SOL    HW123405   0.458   2.830   3.775 -0.1473 -0.3707 -0.8333
 3923SOL    HW223406   0.412   2.821   3.916 -1.2542  0.1581 -0.9174
 3924SOL     OW23407   2.544   4.590   6.492 -0.0703  0.2768  0.0538
 3924SOL    HW123408   2.487   4.527   6.449 -0.7118 -0.8404  2.5160
 3924SOL    HW223409   2.495   4.671   6.479 -0.4950  0.2346  1.3906
 3925SOL     OW23410   4.280   3.072   8.351 -0.1685 -0.7970 -1.0291
 3925SOL    HW123411   4.235   3.039   8.429  1.3549  0.4977  0.3862
 3925SOL    HW223412   4.214   3.116   8.297 -2.9355 -0.0811  2.9140
 3926SOL     OW23413   2.173   3.473   7.559 -0.0081  0.5501 -0.1009
 3926SOL    HW123414   2.110   3.450   7.491  1.4753 -0.9421 -0.9595
 3926SOL    HW223415   2.192   3.565   7.542 -0.7167  0.5831 -0.7094
 3927SOL     OW23416   2.108   1.362  12.498  0.0739 -0.0653  0.1387
 3927SOL    HW123417   2.186   1.405  12.532 -0.5763 -0.9877  2.8203
 3927SOL    HW223418   2.094   1.303  12.573 -1.7217 -0.5387 -0.5716
 3928SOL     OW23419   1.313   3.591  12.683  0.1174 -0.3315  0.0200
 3928SOL    HW123420   1.243   3.570  12.622 -0.3228 -0.0829  0.4332
 3928SOL    HW223421   1.329   3.507  12.727  1.5626  1.3318  2.7018
 3929SOL     OW23422   1.295   2.874   1.686  0.1400 -0.1255  0.1680
 3929SOL    HW123423   1.365   2.809   1.688  0.7064  0.4505 -0.6320
 3929SOL    HW223424   1.256   2.866   1.599  1.8919 -1.8307 -0.4632
 3930SOL     OW23425   2.033   0.524  10.689 -0.5952 -0.2013  0.5829
 3930SOL    HW123426   2.003   0.592  10.629  1.6105  1.6773  1.6440
 3930SOL    HW223427   1.954   0.483  10.724 -0.1651 -1.7205 -0.2158
 3931SOL     OW23428   3.539   0.893   4.132 -0.1105 -0.0036 -0.1278
 3931SOL    HW123429   3.529   0.868   4.223 -0.2080  0.7833  0.0753
 3931SOL    HW223430   3.633   0.879   4.137 -0.3619 -1.7299 -0.1899
 3932SOL     OW23431   1.633   2.889   6.808 -0.2011  0.7482 -0.0344
 3932SOL    HW123432   1.572   2.817   6.795  2.2926 -1.1504 -1.3230
 3932SOL    HW223433   1.623   2.908   6.901 -0.6084 -1.7984  0.4328
 3933SOL     OW23434   3.076   2.958   5.029  0.2495 -0.6991 -0.3251
 3933SOL    HW123435   3.171   2.945   5.035  0.4099  0.8360  0.3787
 3933SOL    HW223436   3.029   2.878   5.052  0.1763  0.1294  2.4094
 3934SOL     OW23437   4.038   4.731   3.848 -0.0162 -0.0857  0.1752
 3934SOL    HW123438   4.037   0.079   3.799 -1.2836 -0.1099  0.1726
 3934SOL    HW223439   3.956   4.690   3.821 -0.7202  1.6443 -0.2629
 3935SOL     OW23440   4.041   3.290   7.950 -0.0770  0.1249 -0.9038
 3935SOL    HW123441   4.101   3.271   7.877 -0.4314  3.4532 -2.0758
 3935SOL    HW223442   3.981   3.216   7.939  1.1326 -0.7042 -1.9242
 3936SOL     OW23443   3.105   3.252   8.531 -0.7539 -0.6264  0.0963
 3936SOL    HW123444   3.095   3.252   8.626 -0.8568 -1.2792  0.0840
 3936SOL    HW223445   3.073   3.164   8.509 -1.8844  0.3223 -2.1110
 3937SOL     OW23446   0.910   2.306   3.614  0.6495  0.0124 -0.8084
 3937SOL    HW123447   0.963   2.227   3.616 -0.1400 -0.5683 -3.2284
 3937SOL    HW223448   0.840   2.277   3.555  1.4749 -1.7894 -0.8859
 3938SOL     OW23449   2.258   2.035   2.818  0.6013  0.4570 -0.0555
 3938SOL    HW123450   2.202   1.959   2.830  0.5285  0.6834  1.0653
 3938SOL    HW223451   2.228   2.058   2.730 -0.0279  2.1276  0.5898
 3939SOL     OW23452   0.124   2.981   5.806 -0.4977  0.0924  0.3018
 3939SOL    HW123453   0.161   3.043   5.743 -0.7390  1.8681  1.8944
 3939SOL    HW223454   0.035   2.972   5.774 -0.4805 -1.8811  0.8433
 3940SOL     OW23455   1.154   4.522   4.946  0.3917  0.2832  0.2753
 3940SOL    HW123456   1.091   4.450   4.950  2.2079 -1.2623  1.1674
 3940SOL    HW223457   1.143   4.576   5.024 -0.5051 -0.3691  0.6001
 3941SOL     OW23458   2.213   0.516   2.464 -0.3329  0.1427  0.1124
 3941SOL    HW123459   2.184   0.566   2.387  2.8076 -0.1698 -1.2466
 3941SOL    HW223460   2.236   0.434   2.421 -0.1173  0.0085  0.4835
 3942SOL     OW23461   3.634   2.154   0.998 -0.1260 -0.8588  0.2136
 3942SOL    HW123462   3.658   2.062   1.010  0.6520 -0.3840  2.3107
 3942SOL    HW223463   3.630   2.167   0.903  0.0175  0.9662  0.4688
 3943SOL     OW23464   2.346   1.251   7.128  0.9699  0.0293 -0.3284
 3943SOL    HW123465   2.345   1.266   7.223 -2.8918  1.0078 -0.5405
 3943SOL    HW223466   2.337   1.342   7.101  0.0705 -1.0761 -3.6492
 3944SOL     OW23467   3.784   4.194   6.433  0.2022 -0.6148 -0.2290
 3944SOL    HW123468   3.817   4.277   6.399 -0.3729 -0.2695  0.0549
 3944SOL    HW223469   3.694   4.218   6.453  1.0331  2.7127 -0.5665
 3945SOL     OW23470   3.265   2.969   5.319 -0.3523 -0.4490 -0.0479
 3945SOL    HW123471   3.329   2.928   5.377  0.2396  0.1431 -0.2767
 3945SOL    HW223472   3.276   2.925   5.235 -1.3635 -1.4122  0.3263
 3946SOL     OW23473   1.878   1.291   9.842 -0.0410  0.4399 -0.6946
 3946SOL    HW123474   1.857   1.339   9.762 -0.1459  1.0195 -0.3217
 3946SOL    HW223475   1.964   1.321   9.870 -1.1301  0.7838  2.3029
 3947SOL     OW23476   2.825   2.679  14.858  0.0766  0.0520 -0.6972
 3947SOL    HW123477   2.808   2.712  14.770 -0.7595 -1.2251 -1.0142
 3947SOL    HW223478   2.735   2.689  14.889  1.2617  0.5360  2.6548
 3948SOL     OW23479   4.249   2.315  14.145  0.2373 -0.0266  0.4522
 3948SOL    HW123480   4.173   2.330  14.089  0.9910  0.8627 -0.3418
 3948SOL    HW223481   4.235   2.366  14.225  0.4742 -1.1185  1.1866
 3949SOL     OW23482   0.339   0.716   2.215 -0.3278  0.3771  0.2754
 3949SOL    HW123483   0.282   0.736   2.141  1.0986 -0.1725 -0.9871
 3949SOL    HW223484   0.365   0.625   2.204  2.3280  1.1305  0.2464
 3950SOL     OW23485   3.397   3.883   7.448  0.3253  0.5547  0.3459
 3950SOL    HW123486   3.380   3.974   7.424  0.1707  0.2034 -0.9114
 3950SOL    HW223487   3.477   3.896   7.497  0.9233 -2.0416  0.0656
 3951SOL     OW23488   2.514   2.858   3.876  0.3835  0.0957  0.5209
 3951SOL    HW123489   2.551   2.815   3.799  1.3464  0.1618  0.9475
 3951SOL    HW223490   2.466   2.932   3.837 -1.4151 -0.5740  1.4544
 3952SOL     OW23491   1.271   0.666   7.735 -0.0827 -0.3262  0.1483
 3952SOL    HW123492   1.317   0.737   7.690  1.8102 -1.1539  0.8053
 3952SOL    HW223493   1.307   0.590   7.689  1.5850  0.3283  0.3830
 3953SOL     OW23494   2.416   4.306  12.579  0.9730  0.4254  0.3296
 3953SOL    HW123495   2.331   4.272  12.552  1.2324 -0.6127  0.8340
 3953SOL    HW223496   2.456   4.232  12.625  0.1108 -0.7353 -0.8019
 3954SOL     OW23497   4.567   1.844   0.556 -0.0456  0.0580 -0.0800
 3954SOL    HW123498   4.488   1.842   0.610  0.6358 -0.9392  0.8862
 3954SOL    HW223499   4.607   1.757   0.564 -1.4119 -0.6318 -0.7178
 3955SOL     OW23500   2.520   2.483   5.791 -0.2718 -0.3357  0.2844
 3955SOL    HW123501   2.570   2.531   5.725  1.2210  0.5752  2.1053
 3955SOL    HW223502   2.586   2.475   5.859  0.8343 -1.6118 -0.9369
 3956SOL     OW23503   3.090   0.713   3.258  0.5066  0.0630 -0.2129
 3956SOL    HW123504   3.155   0.643   3.265  0.3342 -0.2688 -2.1865
 3956SOL    HW223505   3.030   0.682   3.327  0.4133  0.4947 -0.1002
 3957SOL     OW23506   2.363   3.589   2.074  0.1144 -0.3493  0.2441
 3957SOL    HW123507   2.438   3.645   2.096  1.4473 -1.0645 -2.4706
 3957SOL    HW223508   2.404   3.522   2.020 -1.1242 -1.5782  0.8303
 3958SOL     OW23509   1.405   3.283   3.488 -0.4360  0.1715  0.2003
 3958SOL    HW123510   1.344   3.209   3.494  0.9122 -0.8207  1.5670
 3958SOL    HW223511   1.366   3.336   3.418  2.6865 -0.4244 -1.9902
 3959SOL     OW23512   0.227   1.663   2.798 -0.5829 -0.0065  0.1892
 3959SOL    HW123513   0.288   1.603   2.839  0.1817 -1.3335 -2.8937
 3959SOL    HW223514   0.188   1.700   2.877  0.4836 -3.1234  2.1534
 3960SOL     OW23515   4.108   4.198   3.263 -0.2037 -0.5463  0.1718
 3960SOL    HW123516   4.154   4.123   3.224 -1.2732 -1.8688  1.4377
 3960SOL    HW223517   4.173   4.267   3.251 -0.5970 -0.2458 -0.1976
 3961SOL     OW23518   0.767   0.197   2.900  0.0378  0.4911 -0.2400
 3961SOL    HW123519   0.731   0.286   2.900 -0.0351  0.4622 -1.9359
 3961SOL    HW223520   0.836   0.217   2.963 -1.8183  1.6568  1.4115
 3962SOL     OW23521   2.515   4.396   3.880 -0.1976  0.0773  0.3933
 3962SOL    HW123522   2.547   4.456   3.948  0.9100  0.7936 -0.7636
 3962SOL    HW223523   2.597   4.351   3.859 -0.1089  0.1639  0.5455
 3963SOL     OW23524   4.481   3.196   7.479 -0.7319 -0.2407 -0.1739
 3963SOL    HW123525   4.557   3.218   7.533 -0.3495 -2.8042  0.3651
 3963SOL    HW223526   4.465   3.102   7.487 -2.7248  0.3284  2.6709
 3964SOL     OW23527   3.734   3.028   5.861 -0.2520 -0.4439  0.8133
 3964SOL    HW123528   3.740   2.932   5.853  1.2892 -0.0843 -2.4976
 3964SOL    HW223529   3.729   3.050   5.768  0.6267  1.8007  1.3097
 3965SOL     OW23530   0.484   2.919   4.443 -0.4529 -0.3815  0.5991
 3965SOL    HW123531   0.501   2.844   4.386 -0.1992  0.0550  0.0947
 3965SOL    HW223532   0.521   2.993   4.396 -3.1783 -0.1473 -1.2050
 3966SOL     OW23533   2.318   0.377   3.656 -0.4823  0.0486  0.2645
 3966SOL    HW123534   2.362   0.413   3.733  0.8198  0.1053 -0.5028
 3966SOL    HW223535   2.385   0.314   3.631  0.4030  0.3734  1.7892
 3967SOL     OW23536   0.865   2.924   8.472 -0.2728 -0.4769 -0.0504
 3967SOL    HW123537   0.948   2.948   8.431  0.3924 -0.3464  1.3761
 3967SOL    HW223538   0.839   2.864   8.402  2.6234 -2.0752  0.2921
 3968SOL     OW23539   2.191   2.426   7.831  0.2095  0.5992  0.6999
 3968SOL    HW123540   2.141   2.445   7.751  0.7614  0.6952  0.3792
 3968SOL    HW223541   2.124   2.371   7.873  0.4239 -1.8936 -2.2093
 3969SOL     OW23542   3.586   1.430   9.347 -0.5004  0.0309  0.7707
 3969SOL    HW123543   3.625   1.402   9.429  2.3551  0.1212 -0.5486
 3969SOL    HW223544   3.647   1.503   9.333  1.3554 -1.5870  0.3484
 3970SOL     OW23545   0.138   2.155  16.392 -0.3805  0.2304  0.0265
 3970SOL    HW123546   0.072   2.109  16.339 -1.0723 -0.6045  1.6065
 3970SOL    HW223547   0.134   2.106  16.475  2.1408 -0.8606 -0.4882
 3971SOL     OW23548   0.774   0.428  10.555  0.0920 -0.3769 -0.3859
 3971SOL    HW123549   0.790   0.433  10.461  0.7627 -1.6332 -0.3429
 3971SOL    HW223550   0.816   0.344  10.570  1.1445  0.4482  1.3326
 3972SOL     OW23551   0.181   1.658   9.388 -0.1803  0.0431  0.8063
 3972SOL    HW123552   0.198   1.737   9.440  1.3770  1.1836 -1.4054
 3972SOL    HW223553   0.132   1.684   9.310 -1.5415  0.5805  1.8489
 3973SOL     OW23554   3.754   4.642   8.713  0.5299  0.3165 -0.0534
 3973SOL    HW123555   3.740   4.576   8.644  1.8045 -1.3592  1.2895
 3973SOL    HW223556   3.715   4.721   8.675 -1.2242 -0.3026  0.4713
 3974SOL     OW23557   1.050   0.392   4.636 -0.1088  0.3237  0.1574
 3974SOL    HW123558   1.019   0.401   4.546  1.6022  0.6980 -0.3822
 3974SOL    HW223559   1.085   0.304   4.624 -0.4757  0.2109 -0.0952
 3975SOL     OW23560   3.243   2.819   7.523  0.4305  0.1980  0.1081
 3975SOL    HW123561   3.160   2.821   7.570 -0.3167 -0.8976 -1.1894
 3975SOL    HW223562   3.294   2.852   7.597 -0.5357  1.8303  0.0375
 3976SOL     OW23563   2.968   3.330   2.416 -0.0958  0.1791  0.4379
 3976SOL    HW123564   3.063   3.341   2.422  0.0855 -1.4140  0.5093
 3976SOL    HW223565   2.961   3.408   2.361  2.6724  0.3535  0.3012
 3977SOL     OW23566   2.846   2.516  13.630 -0.0501  0.5212  0.0508
 3977SOL    HW123567   2.923   2.460  13.641 -1.7340 -1.9486 -0.8598
 3977SOL    HW223568   2.881   2.606  13.632 -1.3144  1.0172 -0.0960
 3978SOL     OW23569   1.176   1.148   7.517 -0.9052 -0.0834  0.5458
 3978SOL    HW123570   1.219   1.205   7.453 -1.1193  0.0577  0.5285
 3978SOL    HW223571   1.137   1.085   7.455 -0.4644 -0.1034  0.2906
 3979SOL     OW23572   0.553   3.060   0.258 -0.2370 -0.1708  0.2429
 3979SOL    HW123573   0.503   3.133   0.224 -1.2625 -1.1599 -0.3630
 3979SOL    HW223574   0.641   3.093   0.239 -0.0487 -0.1736  1.0703
 3980SOL     OW23575   1.228   3.402   8.752 -0.4332  0.1964 -0.6385
 3980SOL    HW123576   1.286   3.347   8.699  0.6191 -0.6896  1.4411
 3980SOL    HW223577   1.157   3.417   8.689 -0.2884  1.2705 -0.5566
 3981SOL     OW23578   0.895   3.658  11.053 -0.1362  0.5947  0.2448
 3981SOL    HW123579   0.885   3.731  11.114 -2.2596  0.9831 -0.5978
 3981SOL    HW223580   0.897   3.582  11.111  0.7824 -0.9701 -1.8235
 3982SOL     OW23581   3.694   1.272  13.215 -0.5856  0.0067 -0.0505
 3982SOL    HW123582   3.720   1.204  13.276  0.8935 -0.6113 -1.3578
 3982SOL    HW223583   3.690   1.351  13.268  2.0824  0.4715 -0.5404
 3983SOL     OW23584   0.257   1.302   2.200  0.0312  0.4575  0.0319
 3983SOL    HW123585   0.262   1.305   2.296  1.7095 -1.5161  0.0225
 3983SOL    HW223586   0.320   1.233   2.180 -0.9010 -0.4069  0.0911
 3984SOL     OW23587   4.553   3.575   7.796 -0.0783  0.4075  0.1182
 3984SOL    HW123588   4.601   3.572   7.878  0.4483 -0.2498 -0.2143
 3984SOL    HW223589   4.476   3.630   7.812  0.0230  0.4848  0.3308
 3985SOL     OW23590   0.315   4.426   5.286  0.8992  0.2680 -0.6830
 3985SOL    HW123591   0.336   4.465   5.201  2.7702 -0.2344 -0.4308
 3985SOL    HW223592   0.358   4.496   5.336 -0.7299  0.0361  1.0368
 3986SOL     OW23593   4.341   3.832   5.143  0.3380  0.4610 -0.1745
 3986SOL    HW123594   4.257   3.787   5.141  0.8697 -0.5490  0.0986
 3986SOL    HW223595   4.400   3.758   5.127  1.6441  1.5616 -0.4672
 3987SOL     OW23596   0.983   2.429   4.642 -0.5575  0.1573  0.3873
 3987SOL    HW123597   1.033   2.395   4.569  0.0359  0.6593  0.5605
 3987SOL    HW223598   0.895   2.398   4.619 -0.3249  1.4482 -2.2199
 3988SOL     OW23599   2.595   3.139   9.771  0.3160  0.7352 -0.3553
 3988SOL    HW123600   2.531   3.210   9.767  0.2475  0.8654  2.7948
 3988SOL    HW223601   2.642   3.170   9.694  1.4221 -0.2689 -0.1043
 3989SOL     OW23602   0.172   0.007   3.858 -0.0537 -0.1005  0.1197
 3989SOL    HW123603   0.145   0.066   3.929 -0.1108 -0.4103  0.3535
 3989SOL    HW223604   0.229   4.679   3.904 -1.8324 -0.4476  1.8458
 3990SOL     OW23605   0.041   0.995   2.381  0.2099  0.1294  0.1650
 3990SOL    HW123606   0.059   1.018   2.290 -2.7292  0.5441 -0.3375
 3990SOL    HW223607   4.680   1.008   2.380  0.2192  0.3606  2.2493
 3991SOL     OW23608   2.601   0.042  14.987  0.7436  0.2287  0.3203
 3991SOL    HW123609   2.607   4.728  15.070  0.3645 -0.1327  0.1409
 3991SOL    HW223610   2.694   0.062  14.976  0.8149 -0.7250 -0.8101
 3992SOL     OW23611   2.187   2.432   4.352 -0.3222 -0.3210  0.3259
 3992SOL    HW123612   2.144   2.408   4.269 -1.4399  3.5964 -0.2607
 3992SOL    HW223613   2.129   2.396   4.419 -2.1294  0.8317 -0.6190
 3993SOL     OW23614   4.610   2.528  15.404 -0.1960 -0.2949 -0.3787
 3993SOL    HW123615   4.544   2.592  15.379 -0.2180 -0.0661  0.2682
 3993SOL    HW223616   4.631   2.507  15.313  0.8913  2.0928 -0.6590
 3994SOL     OW23617   2.647   3.016   1.433  0.3834  0.3208  0.6484
 3994SOL    HW123618   2.669   3.109   1.430  0.5363  0.2851  0.6581
 3994SOL    HW223619   2.702   2.979   1.364  1.4433  1.5914  0.8148
 3995SOL     OW23620   4.507   3.953   1.216  0.5964 -0.0946  0.1954
 3995SOL    HW123621   4.520   3.924   1.306  2.5802 -1.7076 -0.6009
 3995SOL    HW223622   4.506   3.871   1.166 -1.2400  0.6589 -1.0171
 3996SOL     OW23623   0.422   4.560   2.177 -0.8839 -0.0797 -0.1401
 3996SOL    HW123624   0.341   4.580   2.224 -2.2543 -1.8478 -1.7749
 3996SOL    HW223625   0.463   4.493   2.232  1.9859  1.9329  0.2078
 3997SOL     OW23626   0.815   0.129  13.314  0.0884  0.3699  0.3773
 3997SOL    HW123627   0.812   0.080  13.232 -0.4102 -1.7099  1.6422
 3997SOL    HW223628   0.895   0.105  13.360 -0.1919 -1.1377  0.0833
 3998SOL     OW23629   1.204   0.387  16.364  0.4227  0.2396  0.3928
 3998SOL    HW123630   1.162   0.317  16.314  1.7667 -0.9448  0.9569
 3998SOL    HW223631   1.286   0.394  16.314 -0.0741 -3.3394 -0.8813
 3999SOL     OW23632   0.311   2.278  13.423 -0.7580 -0.4108  0.2928
 3999SOL    HW123633   0.378   2.307  13.485 -0.5456 -1.1852  0.4207
 3999SOL    HW223634   0.326   2.328  13.342 -3.4298  2.7011  1.6897
 4000SOL     OW23635   0.943   0.771   9.829 -0.3010 -0.5996 -0.2642
 4000SOL    HW123636   0.909   0.740   9.745 -0.2267  0.1580 -0.5760
 4000SOL    HW223637   1.031   0.735   9.831 -0.5346 -1.0969  1.0114
 4001SOL     OW23638   2.654   2.461  10.320  0.2057  0.5663  0.2046
 4001SOL    HW123639   2.567   2.441  10.286  0.1802  1.0652 -0.0194
 4001SOL    HW223640   2.637   2.552  10.342  0.4601  0.4747  0.7720
 4002SOL     OW23641   3.064   4.197   4.957 -0.2634 -0.1351  0.1163
 4002SOL    HW123642   3.089   4.236   5.041 -2.4789 -1.5046  1.4154
 4002SOL    HW223643   3.153   4.186   4.923 -0.2900 -1.4693  0.4978
 4003SOL     OW23644   3.777   3.958   8.224 -0.0375 -0.1249 -0.2981
 4003SOL    HW123645   3.721   4.026   8.186 -0.0171  0.5939  0.9539
 4003SOL    HW223646   3.735   3.879   8.191 -0.1967 -0.1828  0.0360
 4004SOL     OW23647   2.140   0.217   0.248  0.0163 -0.4532  0.0097
 4004SOL    HW123648   2.182   0.294   0.210  0.4314 -2.0417 -2.7518
 4004SOL    HW223649   2.048   0.244   0.256  0.5858  2.5450 -3.5271
 4005SOL     OW23650   0.510   2.650  15.812 -0.2330 -0.0966 -0.0663
 4005SOL    HW123651   0.555   2.570  15.783  0.1080  0.0779 -0.0117
 4005SOL    HW223652   0.482   2.618  15.898 -1.9291 -2.2998 -1.4346
 4006SOL     OW23653   1.928   0.331  13.688 -0.4883  0.0894 -0.7602
 4006SOL    HW123654   1.854   0.290  13.733 -1.1277  1.3583 -0.6601
 4006SOL    HW223655   1.975   0.377  13.758 -2.0625 -0.6527  0.7661
 4007SOL     OW23656   3.315   4.100  15.316 -0.0576  0.0292 -0.4774
 4007SOL    HW123657   3.396   4.053  15.294 -0.5615 -0.4524 -1.3408
 4007SOL    HW223658   3.327   4.142  15.401 -0.5305  1.2890 -1.0289
 4008SOL     OW23659   0.550   2.450  15.608  0.2624 -0.0625 -0.0441
 4008SOL    HW123660   0.555   2.497  15.525 -0.8270  0.6691  0.3089
 4008SOL    HW223661   0.455   2.438  15.620  0.1116  0.8384 -0.3677
 4009SOL     OW23662   3.266   4.049   3.320  0.3314  0.5100 -0.0534
 4009SOL    HW123663   3.219   4.082   3.397  0.0754 -0.2982  0.1377
 4009SOL    HW223664   3.185   4.016   3.282  0.3680 -0.9264  1.0687
 4010SOL     OW23665   3.411   4.094   6.710  0.4524  0.0417  0.3135
 4010SOL    HW123666   3.495   4.082   6.756  0.3665  0.3143  0.5472
 4010SOL    HW223667   3.424   4.027   6.644 -0.8645 -0.5815  0.6895
 4011SOL     OW23668   1.099   3.046   8.799  0.3390 -0.2087 -0.4059
 4011SOL    HW123669   1.055   3.094   8.729 -1.1721  0.0855  0.7606
 4011SOL    HW223670   1.072   3.098   8.874  1.2841  2.5200 -1.9434
 4012SOL     OW23671   0.940   2.953   7.884  0.2305  0.0207  0.4962
 4012SOL    HW123672   0.854   2.947   7.925  0.4367 -2.5478  0.5640
 4012SOL    HW223673   0.952   2.867   7.843 -1.3816  0.1246 -0.1995
 4013SOL     OW23674   4.288   0.416  10.169 -0.0378 -0.3791  0.5837
 4013SOL    HW123675   4.272   0.322  10.162  0.2281 -0.2909 -1.3091
 4013SOL    HW223676   4.381   0.420  10.190  0.2928 -1.7116 -0.5808
 4014SOL     OW23677   3.872   3.551   2.244 -0.6621  0.5933  0.2723
 4014SOL    HW123678   3.850   3.470   2.198 -1.2952  0.9552 -0.0748
 4014SOL    HW223679   3.796   3.543   2.302  0.7550  0.1601  2.0796
 4015SOL     OW23680   1.006   0.254  12.520  0.5215  0.4715  0.0074
 4015SOL    HW123681   0.914   0.246  12.543  0.9462 -0.4751  1.3580
 4015SOL    HW223682   1.044   0.188  12.578  1.5510  1.9429  1.0143
 4016SOL     OW23683   3.386   0.108   5.836 -0.1502 -0.2076  0.0131
 4016SOL    HW123684   3.360   0.077   5.923 -0.6253  0.4995  0.1314
 4016SOL    HW223685   3.392   0.025   5.790 -0.2098  0.6189 -1.4944
 4017SOL     OW23686   0.094   1.898   7.153  0.2588  0.1138 -0.0666
 4017SOL    HW123687   0.161   1.841   7.116  0.6396 -0.1513  1.0647
 4017SOL    HW223688   0.138   1.966   7.203  2.0415 -0.7124 -0.5327
 4018SOL     OW23689   3.348   0.431   5.625 -0.3128  0.3384  0.2713
 4018SOL    HW123690   3.395   0.409   5.544  0.7918  0.5781  0.8368
 4018SOL    HW223691   3.423   0.452   5.680 -0.5054 -1.0695  1.0671
 4019SOL     OW23692   1.135   1.215   1.191  0.1235  0.4895  0.0347
 4019SOL    HW123693   1.090   1.273   1.252 -0.8134  0.4068 -0.5855
 4019SOL    HW223694   1.167   1.141   1.244 -0.0214  0.3690 -0.0470
 4020SOL     OW23695   3.900   1.529   4.177  0.5606 -0.2712  0.5019
 4020SOL    HW123696   3.948   1.509   4.257  1.1294  1.8476  0.6974
 4020SOL    HW223697   3.949   1.488   4.106 -0.2901 -0.5770  0.0889
 4021SOL     OW23698   3.803   2.052  12.078 -0.3109  0.7320 -0.1833
 4021SOL    HW123699   3.845   2.134  12.104  2.2656 -0.4291 -0.6667
 4021SOL    HW223700   3.842   2.044  11.991 -0.3224 -1.5698  0.0202
 4022SOL     OW23701   0.139   2.104   8.133  0.1714 -0.2210 -0.2996
 4022SOL    HW123702   0.145   2.019   8.176 -0.5773  0.1300  0.5142
 4022SOL    HW223703   0.081   2.085   8.059  0.7227 -0.0511 -0.7776
 4023SOL     OW23704   1.731   0.780   4.105  0.4313 -0.0576 -0.2409
 4023SOL    HW123705   1.798   0.783   4.173  0.2721 -2.2276  0.0080
 4023SOL    HW223706   1.679   0.861   4.110  1.0499  0.2743  0.8027
 4024SOL     OW23707   3.873   3.430   1.804  0.3215 -0.3447 -0.0112
 4024SOL    HW123708   3.928   3.430   1.727  0.7768  1.9664  0.3306
 4024SOL    HW223709   3.826   3.511   1.787  0.0868 -0.6376 -0.7630
 4025SOL     OW23710   0.368   4.512   3.930 -0.7924 -0.5450 -0.3989
 4025SOL    HW123711   0.413   4.428   3.926 -0.4421 -0.3003 -1.6630
 4025SOL    HW223712   0.390   4.546   3.843  0.5308  0.9572  0.5148
 4026SOL     OW23713   1.871   1.260   3.452  0.0412  0.1338  0.1933
 4026SOL    HW123714   1.857   1.350   3.480 -2.7416  0.3968 -2.1762
 4026SOL    HW223715   1.849   1.271   3.360  1.9363 -3.7910 -0.7264
 4027SOL     OW23716   3.851   4.330   3.154  0.3360  0.1027  0.0304
 4027SOL    HW123717   3.939   4.314   3.188 -0.0219 -0.1235  0.8560
 4027SOL    HW223718   3.807   4.246   3.165  2.0598 -0.5406  1.9496
 4028SOL     OW23719   4.075   4.415   6.658  0.3223  0.8927  0.1239
 4028SOL    HW123720   4.081   4.375   6.571  1.3755  2.8460 -0.6817
 4028SOL    HW223721   4.148   4.371   6.700 -0.3015 -0.0869  0.1920
 4029SOL     OW23722   4.608   0.349   0.267 -0.1192  0.1091 -0.1659
 4029SOL    HW123723   4.531   0.293   0.258 -0.3982 -0.0005  2.9730
 4029SOL    HW223724   4.570   0.433   0.245 -0.6731 -0.6653 -2.1847
 4030SOL     OW23725   1.495   1.725   5.615 -0.3958 -0.3244 -0.3431
 4030SOL    HW123726   1.571   1.713   5.671 -2.0066 -0.5317  1.8146
 4030SOL    HW223727   1.509   1.669   5.539 -1.0403 -1.0567  0.0796
 4031SOL     OW23728   1.825   4.654   4.436 -0.2727 -0.4977  0.2443
 4031SOL    HW123729   1.841   4.604   4.356  0.4811 -0.3031  0.2670
 4031SOL    HW223730   1.833   0.007   4.398  1.1590 -0.6196  0.2607
 4032SOL     OW23731   1.736   2.767   9.588 -0.3159 -0.0592 -0.9456
 4032SOL    HW123732   1.647   2.794   9.610 -0.2707 -1.6220  1.1728
 4032SOL    HW223733   1.784   2.849   9.572 -0.4823  0.6495  2.1750
 4033SOL     OW23734   2.262   2.298   6.122 -0.0729 -0.0664 -0.6821
 4033SOL    HW123735   2.255   2.322   6.029 -1.3875  1.0851 -0.2716
 4033SOL    HW223736   2.336   2.352   6.149  0.8453 -2.0290  0.7667
 4034SOL     OW23737   3.049   2.821   1.624  1.0691  0.4829 -0.3395
 4034SOL    HW123738   3.032   2.789   1.713 -1.2054 -1.3762 -1.4742
 4034SOL    HW223739   3.140   2.790   1.618  1.3987  1.6341 -1.2833
 4035SOL     OW23740   2.152   2.238  10.498 -0.1311  0.2622 -0.0151
 4035SOL    HW123741   2.237   2.250  10.455 -0.9005  1.3829 -1.2069
 4035SOL    HW223742   2.164   2.155  10.544  0.2530 -0.9531 -2.3000
 4036SOL     OW23743   1.094   2.244   2.840 -0.4184  0.2913 -0.1646
 4036SOL    HW123744   1.015   2.225   2.890 -0.5786  1.2103 -0.0657
 4036SOL    HW223745   1.137   2.158   2.836 -0.0716  0.3088  3.4427
 4037SOL     OW23746   0.432   4.346  14.599 -0.2912  0.7002  0.2139
 4037SOL    HW123747   0.409   4.323  14.509 -0.3808  1.9613 -0.0903
 4037SOL    HW223748   0.347   4.383  14.623 -1.0158 -1.2686  0.6353
 4038SOL     OW23749   4.146   0.055   5.605 -0.6751 -0.5885 -0.1285
 4038SOL    HW123750   4.230   0.016   5.579  1.4490  2.7618  1.6677
 4038SOL    HW223751   4.146   0.031   5.697 -0.9636 -0.2826 -0.0526
 4039SOL     OW23752   0.642   0.561  15.208 -0.0170 -0.2361 -0.0681
 4039SOL    HW123753   0.595   0.580  15.127 -1.4286 -0.6001  0.6750
 4039SOL    HW223754   0.609   0.471  15.216  0.8693 -0.4126  1.6011
 4040SOL     OW23755   3.605   4.225   5.192  0.3621  0.9654 -0.3061
 4040SOL    HW123756   3.565   4.153   5.144 -0.2559 -0.3691  2.2216
 4040SOL    HW223757   3.647   4.283   5.128  0.7934  0.5158 -0.4328
 4041SOL     OW23758   3.072   4.163   6.956 -0.4445 -0.0584 -0.1155
 4041SOL    HW123759   3.090   4.199   6.869 -0.2172 -2.4474 -1.0539
 4041SOL    HW223760   3.064   4.070   6.938  1.6847  0.3274 -2.9992
 4042SOL     OW23761   0.541   1.417  14.723  0.0876  0.2014 -0.2348
 4042SOL    HW123762   0.540   1.422  14.627  0.5259 -0.0522 -0.2511
 4042SOL    HW223763   0.448   1.398  14.737 -0.5956  2.9311 -1.1078
 4043SOL     OW23764   2.741   0.209   5.570  1.0829  0.1100  0.1024
 4043SOL    HW123765   2.668   0.250   5.617 -0.3801 -1.1265 -1.1228
 4043SOL    HW223766   2.813   0.239   5.626 -0.1650  0.2064  1.6751
 4044SOL     OW23767   4.112   1.884  11.670  0.2261  0.3459 -0.3396
 4044SOL    HW123768   4.192   1.848  11.631 -0.8008 -2.4484  0.1764
 4044SOL    HW223769   4.137   1.895  11.762 -0.1623 -1.1052 -0.0651
 4045SOL     OW23770   2.053   2.652   4.013  0.4442 -0.1437 -0.0606
 4045SOL    HW123771   2.130   2.677   3.961  0.2345  0.5040 -0.0605
 4045SOL    HW223772   2.054   2.557   4.015 -0.3185 -0.1303  0.7300
 4046SOL     OW23773   4.379   1.268   4.934 -0.0579  0.2908  0.0570
 4046SOL    HW123774   4.355   1.356   4.960 -0.9161 -0.6157  2.3559
 4046SOL    HW223775   4.299   1.218   4.917  1.4704 -2.7224  1.6352
 4047SOL     OW23776   0.453   2.346   6.985 -0.1054 -0.0430  0.1151
 4047SOL    HW123777   0.474   2.329   6.894  1.5164  1.0266  0.2876
 4047SOL    HW223778   0.360   2.371   6.988 -0.4622 -1.4127  0.4345
 4048SOL     OW23779   2.711   1.244  12.849  0.2108 -0.0250  0.4203
 4048SOL    HW123780   2.720   1.199  12.933 -0.8243  0.6225  0.8769
 4048SOL    HW223781   2.748   1.172  12.797 -0.5015  1.4067 -2.0665
 4049SOL     OW23782   2.974   3.270   7.276  0.1630  0.2935  0.4616
 4049SOL    HW123783   3.023   3.232   7.349  0.4659  0.3024  0.2661
 4049SOL    HW223784   3.036   3.340   7.257 -0.5372  0.3784 -1.5190
 4050SOL     OW23785   0.347   2.080   6.978 -0.0596 -0.4272 -0.7069
 4050SOL    HW123786   0.333   2.022   6.903 -1.4139 -0.5054 -0.3872
 4050SOL    HW223787   0.419   2.140   6.957  0.3679 -0.5750  0.3217
 4051SOL     OW23788   3.089   2.997   5.872 -0.2865 -0.1108 -0.0602
 4051SOL    HW123789   3.178   3.026   5.891 -0.2516 -0.5320  0.4462
 4051SOL    HW223790   3.046   3.045   5.943 -0.1124 -2.0042  1.3354
 4052SOL     OW23791   2.497   3.096   3.699 -0.0843 -0.4099  0.2144
 4052SOL    HW123792   2.524   3.145   3.777  0.0709  0.4385 -0.3643
 4052SOL    HW223793   2.552   3.133   3.630 -1.1309  2.5101  0.9380
 4053SOL     OW23794   4.027   3.044   5.375  0.1544 -0.3388 -0.2370
 4053SOL    HW123795   4.035   2.995   5.294 -1.7607  1.6517 -1.6456
 4053SOL    HW223796   4.063   3.125   5.339  0.1029 -0.6814 -1.0519
 4054SOL     OW23797   3.322   0.653   1.911 -0.1220 -0.3582 -0.0110
 4054SOL    HW123798   3.230   0.663   1.883  0.6183 -1.8441 -2.9344
 4054SOL    HW223799   3.331   0.725   1.973  1.2776  0.1136 -0.7530
 4055SOL     OW23800   2.747   3.309   5.490  0.2175  0.1771  0.3044
 4055SOL    HW123801   2.664   3.343   5.457 -1.1090 -0.6750  2.7495
 4055SOL    HW223802   2.776   3.375   5.553 -0.1902  2.3372 -1.7822
 4056SOL     OW23803   3.362   3.124  13.453 -0.5471 -0.2661  0.2811
 4056SOL    HW123804   3.449   3.084  13.462 -0.2250  0.0801 -1.3086
 4056SOL    HW223805   3.333   3.092  13.539  0.3541 -1.2840  0.2135
 4057SOL     OW23806   0.032   2.735   8.858 -0.8060 -0.2091  0.4129
 4057SOL    HW123807   4.679   2.734   8.817  0.4053  2.2088 -2.1962
 4057SOL    HW223808   0.007   2.740   8.950 -0.4880 -2.5584  0.6306
 4058SOL     OW23809   3.333   0.245  10.237 -0.1241 -0.0539  0.6478
 4058SOL    HW123810   3.304   0.157  10.213  0.9907 -0.1941 -0.2362
 4058SOL    HW223811   3.297   0.261  10.324  2.0638  4.4528  0.7363
 4059SOL     OW23812   2.854   3.084   0.708 -0.0212 -0.3006  0.0519
 4059SOL    HW123813   2.808   3.085   0.624 -0.6548 -0.9563  0.3865
 4059SOL    HW223814   2.798   3.022   0.756  1.4822 -1.3469  0.4539
 4060SOL     OW23815   0.262   0.317   6.206 -0.1206 -0.0626 -0.0517
 4060SOL    HW123816   0.349   0.357   6.198 -1.2018  2.3628  0.0680
 4060SOL    HW223817   0.284   0.231   6.171  1.4737  1.4476 -2.8174
 4061SOL     OW23818   2.803   3.105   8.999  0.0782  0.9159 -0.2722
 4061SOL    HW123819   2.762   3.019   8.984 -0.1190  0.7020  1.5390
 4061SOL    HW223820   2.786   3.156   8.920 -0.7933  0.3001 -0.4890
 4062SOL     OW23821   3.884   1.217  13.897  0.0414 -0.5510  0.1976
 4062SOL    HW123822   3.937   1.273  13.954  0.3116  0.5630 -1.1468
 4062SOL    HW223823   3.947   1.154  13.862 -1.9591 -3.4270  1.7764
 4063SOL     OW23824   4.444   4.046   8.891  0.7558 -0.3201 -0.1434
 4063SOL    HW123825   4.475   4.118   8.945 -3.4307  0.7631  0.7643
 4063SOL    HW223826   4.522   4.034   8.836  0.4646  1.8030 -1.0114
 4064SOL     OW23827   0.223   2.606   8.418 -0.8330  0.2630 -0.1804
 4064SOL    HW123828   0.184   2.677   8.368  0.9156  1.2215 -0.1666
 4064SOL    HW223829   0.149   2.549   8.439 -0.0222 -0.5153  0.5883
 4065SOL     OW23830   2.561   2.510   5.156  0.4136 -0.5008 -0.8425
 4065SOL    HW123831   2.574   2.552   5.070  0.1781  0.6553 -0.3089
 4065SOL    HW223832   2.495   2.442   5.142  0.4509 -0.3906 -1.5882
 4066SOL     OW23833   4.659   2.411   3.819  0.3845 -0.6801  0.2743
 4066SOL    HW123834   4.572   2.386   3.849 -0.0255 -0.6186 -0.8600
 4066SOL    HW223835   4.634   2.496   3.783  0.6039 -0.9363 -0.4804
 4067SOL     OW23836   4.578   3.814   6.823  0.0131  0.3764  0.2528
 4067SOL    HW123837   4.606   3.862   6.901  0.6956 -0.9121  0.8096
 4067SOL    HW223838   4.654   3.760   6.800 -0.3083  0.8137 -1.8304
 4068SOL     OW23839   2.249   0.305   8.505  0.5994 -0.9553  0.2626
 4068SOL    HW123840   2.311   0.366   8.544  0.6927 -0.8067 -0.1172
 4068SOL    HW223841   2.225   0.258   8.585 -1.4309 -1.5174 -0.6721
 4069SOL     OW23842   0.474   2.090   4.343  0.9368 -0.0191  0.1814
 4069SOL    HW123843   0.426   2.021   4.389 -1.4816  0.2116 -1.9933
 4069SOL    HW223844   0.450   2.169   4.392 -2.3660 -0.9675  0.0940
 4070SOL     OW23845   3.057   1.276   5.310  0.0252  0.3751 -0.4555
 4070SOL    HW123846   3.117   1.262   5.383 -1.2491  0.8919  0.6901
 4070SOL    HW223847   3.034   1.188   5.282 -1.6783  1.2584 -1.7948
 4071SOL     OW23848   4.114   1.613   3.033  0.4464 -0.2134  0.0092
 4071SOL    HW123849   4.170   1.535   3.041  2.3568  1.1999  0.3101
 4071SOL    HW223850   4.109   1.643   3.124 -0.7574 -0.3466 -0.0196
 4072SOL     OW23851   0.874   2.617   8.204  0.0853 -0.4165 -0.1553
 4072SOL    HW123852   0.937   2.578   8.143  1.6090  0.8598  0.6162
 4072SOL    HW223853   0.800   2.562   8.178  0.9353 -1.1550 -1.0165
 4073SOL     OW23854   4.466   2.960  10.270  0.0014 -0.0525  0.1033
 4073SOL    HW123855   4.542   2.986  10.322  1.3222  0.2585 -1.9655
 4073SOL    HW223856   4.412   3.038  10.256  1.2460  0.5906 -1.1213
 4074SOL     OW23857   0.184   0.268   3.279  0.2258 -0.8264  0.0798
 4074SOL    HW123858   0.254   0.204   3.270  2.0250  1.5421 -2.5829
 4074SOL    HW223859   0.108   0.219   3.312 -0.7429  0.8634  0.3509
 4075SOL     OW23860   1.291   0.138   3.242  0.0351  0.4962  0.2902
 4075SOL    HW123861   1.211   0.096   3.211 -0.1852  1.0424  0.1252
 4075SOL    HW223862   1.352   0.098   3.180 -1.1258 -1.0516  0.1579
 4076SOL     OW23863   1.284   2.305   6.029  0.0022 -0.5201  0.0325
 4076SOL    HW123864   1.363   2.283   5.981  0.3596 -1.1922  0.9368
 4076SOL    HW223865   1.285   2.400   6.027  1.0469 -0.5454 -0.2266
 4077SOL     OW23866   3.162   2.468   1.416 -0.0399  0.5773  0.1131
 4077SOL    HW123867   3.136   2.547   1.367 -0.6759  0.5105  0.3488
 4077SOL    HW223868   3.245   2.447   1.373 -0.1908 -0.6013  0.4078
 4078SOL     OW23869   4.425   2.631   4.887 -1.0115 -0.1939 -0.2025
 4078SOL    HW123870   4.343   2.671   4.857 -1.0695 -0.9461 -1.0555
 4078SOL    HW223871   4.461   2.599   4.805  0.0351  1.1141 -0.2443
 4079SOL     OW23872   4.288   3.102   5.842  0.5183  0.3531  0.8286
 4079SOL    HW123873   4.327   3.084   5.927  0.2493 -0.8808  0.6956
 4079SOL    HW223874   4.201   3.129   5.870  0.4309  1.9853 -1.0136
 4080SOL     OW23875   2.225   4.404   2.407  0.3905 -0.1530  0.4378
 4080SOL    HW123876   2.199   4.434   2.320 -0.7103  0.7247  1.0845
 4080SOL    HW223877   2.175   4.324   2.421 -1.4457  0.9941  0.3957
 4081SOL     OW23878   3.853   3.661   9.532 -0.0220 -0.1699  0.6006
 4081SOL    HW123879   3.759   3.680   9.529 -0.1209 -1.0645 -1.8278
 4081SOL    HW223880   3.847   3.579   9.581 -0.7854 -0.3685  0.1745
 4082SOL     OW23881   1.326   1.000   9.404  0.3741 -0.6524 -0.5794
 4082SOL    HW123882   1.329   1.075   9.345 -1.6779  0.3635  0.5877
 4082SOL    HW223883   1.238   1.020   9.436  0.5047  1.0876 -1.2915
 4083SOL     OW23884   2.156   2.606   4.737  0.0907 -0.0900  0.0497
 4083SOL    HW123885   2.247   2.619   4.712  0.4629 -0.9580  0.9422
 4083SOL    HW223886   2.133   2.525   4.690 -0.7738  0.5970 -0.7190
 4084SOL     OW23887   3.670   2.034   3.978  0.8445  0.3826  0.2044
 4084SOL    HW123888   3.705   1.958   3.932 -1.9609 -0.1618 -1.0749
 4084SOL    HW223889   3.583   2.000   3.999  0.8038 -1.1299 -2.3599
 4085SOL     OW23890   1.956   4.248   8.726 -0.2323 -0.5395 -0.1558
 4085SOL    HW123891   2.047   4.271   8.710 -0.1666 -1.6073 -1.2854
 4085SOL    HW223892   1.973   4.199   8.807  3.8847  0.0346 -0.6854
 4086SOL     OW23893   2.340   1.926  17.107  0.6007 -0.2461  0.7060
 4086SOL    HW123894   2.385   1.860  17.055 -0.4949 -1.3001  1.1111
 4086SOL    HW223895   2.358   1.907  17.199  0.2839 -0.1515  0.7891
 4087SOL     OW23896   2.017   4.237   4.710 -0.0653 -0.4100 -0.2841
 4087SOL    HW123897   2.037   4.314   4.656  2.6420 -0.6140  0.4104
 4087SOL    HW223898   2.099   4.204   4.746  0.4174 -0.8212 -1.7546
 4088SOL     OW23899   0.882   1.427   3.974  0.0716  0.2134 -0.2157
 4088SOL    HW123900   0.875   1.334   3.997 -1.8934  0.0994 -1.2318
 4088SOL    HW223901   0.792   1.439   3.943 -0.3680 -0.1438  0.9260
 4089SOL     OW23902   1.172   2.708  16.574 -1.0246  0.4522  0.4642
 4089SOL    HW123903   1.222   2.765  16.632  1.4353 -0.0865 -1.0960
 4089SOL    HW223904   1.082   2.739  16.584 -0.6669  1.4631  0.4770
 4090SOL     OW23905   2.854   0.327  16.308  0.2334 -0.7143  0.1229
 4090SOL    HW123906   2.813   0.372  16.234  1.5710  1.5410  0.7734
 4090SOL    HW223907   2.781   0.275  16.344 -1.5674  1.7907  0.1105
 4091SOL     OW23908   3.045   0.432   3.579  0.2080  0.0644 -0.0998
 4091SOL    HW123909   3.097   0.511   3.596 -0.7368  0.2854  1.7882
 4091SOL    HW223910   3.109   0.365   3.554  2.4076  1.7764  0.9796
 4092SOL     OW23911   3.033   0.184   7.637 -0.1898  0.0242 -0.2317
 4092SOL    HW123912   3.098   0.172   7.567  0.2203  0.1454  0.1310
 4092SOL    HW223913   3.101   0.176   7.704 -0.6714 -0.1734  0.2298
 4093SOL     OW23914   3.598   0.167   9.412  0.1114 -0.5692  0.3368
 4093SOL    HW123915   3.535   0.128   9.473 -0.5320 -1.7010 -1.0498
 4093SOL    HW223916   3.659   0.093   9.409  1.5480  0.6199  0.2938
 4094SOL     OW23917   0.678   1.147   9.227  0.4541  0.3077  0.0803
 4094SOL    HW123918   0.718   1.233   9.218  1.2857  0.0350  1.2800
 4094SOL    HW223919   0.615   1.162   9.297 -0.6626  0.6004 -0.9867
 4095SOL     OW23920   0.810   2.637  11.012  0.2850  0.0121  0.4463
 4095SOL    HW123921   0.804   2.658  11.105 -0.9879  2.2719 -0.1591
 4095SOL    HW223922   0.793   2.543  11.011  1.3655 -0.1936  1.6245
 4096SOL     OW23923   3.760   4.005   1.591  0.1790  0.0834  0.1651
 4096SOL    HW123924   3.755   4.088   1.543  0.4597  0.1806  0.3014
 4096SOL    HW223925   3.727   3.944   1.526 -0.0820 -1.0355  1.3459
 4097SOL     OW23926   1.970   4.025   4.976  0.2570  0.3383 -0.7991
 4097SOL    HW123927   2.030   4.098   4.987  0.5740 -0.1831  0.8773
 4097SOL    HW223928   1.891   4.078   4.973 -1.1615 -1.7955 -0.9054
 4098SOL     OW23929   2.093   1.380   7.427  0.4836 -0.7972  0.3053
 4098SOL    HW123930   2.071   1.388   7.520  1.9253  1.5946  0.4443
 4098SOL    HW223931   2.160   1.313   7.429  2.5629  1.3170  1.7102
 4099SOL     OW23932   4.054   3.725   4.209 -0.3205 -0.1467 -0.4283
 4099SOL    HW123933   4.140   3.763   4.225 -1.3860  2.8809 -1.9824
 4099SOL    HW223934   4.047   3.728   4.113 -1.1198 -0.2130 -0.3727
 4100SOL     OW23935   1.241   2.629   8.036 -0.8716  0.4362 -0.2626
 4100SOL    HW123936   1.186   2.551   8.047  0.8089 -0.9446 -1.6442
 4100SOL    HW223937   1.323   2.587   8.010  0.0767  0.8926  1.9464
 4101SOL     OW23938   1.858   1.478  12.430  0.8103  0.1022 -0.4470
 4101SOL    HW123939   1.951   1.477  12.452  0.7701 -5.5175 -0.4667
 4101SOL    HW223940   1.855   1.569  12.400  0.4253 -0.2508 -1.4846
 4102SOL     OW23941   2.135   0.704   8.551  0.3369  0.6432 -0.0043
 4102SOL    HW123942   2.183   0.741   8.625 -0.6553  1.4364  0.2332
 4102SOL    HW223943   2.058   0.687   8.604 -0.8444  1.4261 -1.4710
 4103SOL     OW23944   4.307   3.783   9.782  0.1398  0.0263 -0.2284
 4103SOL    HW123945   4.220   3.776   9.743  1.0435  0.3865 -2.3072
 4103SOL    HW223946   4.352   3.708   9.742 -2.0152 -0.3820 -1.8959
 4104SOL     OW23947   4.623   0.102   7.673 -0.6817  0.4888 -0.4996
 4104SOL    HW123948   4.579   0.166   7.730  2.7425  2.8150 -0.4430
 4104SOL    HW223949   4.648   0.155   7.597  0.1178 -0.0888 -0.6307
 4105SOL     OW23950   0.399   1.838   4.465 -0.0773  0.4028  0.4874
 4105SOL    HW123951   0.308   1.814   4.445 -0.6145  1.2152  1.9424
 4105SOL    HW223952   0.383   1.891   4.543 -2.3173  0.2856  0.1232
 4106SOL     OW23953   0.061   2.083   5.393  0.2806  0.1505  0.0791
 4106SOL    HW123954   4.731   2.104   5.325  0.0502  0.7662  0.4904
 4106SOL    HW223955   0.077   2.174   5.417  0.6705  0.2142 -0.4128
 4107SOL     OW23956   1.451   2.671   6.817 -0.6047  0.0854  0.3362
 4107SOL    HW123957   1.365   2.686   6.778  0.0728  2.2438 -0.3591
 4107SOL    HW223958   1.474   2.585   6.782  0.0130  0.7835 -0.9815
 4108SOL     OW23959   2.126   2.568  15.107  0.6504 -0.5861 -0.2032
 4108SOL    HW123960   2.197   2.620  15.071  0.3020 -0.2061 -0.3448
 4108SOL    HW223961   2.131   2.592  15.200  1.5268 -2.4446  0.2275
 4109SOL     OW23962   1.703   4.610   3.077  0.4839 -0.0073  0.5407
 4109SOL    HW123963   1.779   4.627   3.022  0.2876 -1.0661 -0.0487
 4109SOL    HW223964   1.742   4.569   3.155 -0.2604 -0.8090  0.4943
 4110SOL     OW23965   1.930   3.382   7.247 -0.1905 -0.0499 -0.1847
 4110SOL    HW123966   1.953   3.377   7.154 -0.7670  0.5890 -0.3609
 4110SOL    HW223967   1.855   3.323   7.246  0.0342 -0.3828  2.8310
 4111SOL     OW23968   3.066   3.012  13.269  0.7991  0.5159  0.6841
 4111SOL    HW123969   3.042   3.086  13.325 -0.8268  0.6825 -0.2388
 4111SOL    HW223970   2.981   2.970  13.254  1.0302  1.0497 -2.0503
 4112SOL     OW23971   1.458   3.641   2.297  0.4251 -0.5462 -0.1067
 4112SOL    HW123972   1.453   3.691   2.215  0.8561 -0.6055 -0.1705
 4112SOL    HW223973   1.385   3.579   2.291 -1.5417  1.5077  3.1317
 4113SOL     OW23974   4.058   1.134  11.058  0.2722 -0.4715  0.1152
 4113SOL    HW123975   4.112   1.205  11.022  0.7008 -0.6616  0.3805
 4113SOL    HW223976   4.039   1.173  11.143 -0.0592 -1.4458  0.4921
 4114SOL     OW23977   1.749   0.242   2.983 -0.1475  0.4028 -0.0958
 4114SOL    HW123978   1.731   0.223   2.891 -1.8652 -1.1967  0.5714
 4114SOL    HW223979   1.837   0.278   2.974 -0.9167  2.7478  1.7133
 4115SOL     OW23980   3.449   2.997   7.960 -0.2505 -0.6529 -0.2232
 4115SOL    HW123981   3.400   3.017   8.040 -0.6209 -0.5523 -0.4728
 4115SOL    HW223982   3.524   2.956   8.002 -1.0421  0.2515  2.0999
 4116SOL     OW23983   2.889   2.036   4.335  0.2342  0.0269 -0.6264
 4116SOL    HW123984   2.853   2.118   4.300  1.8617  0.9830 -0.0694
 4116SOL    HW223985   2.973   2.034   4.289  1.4258 -2.2361  1.6654
 4117SOL     OW23986   4.249   3.988   2.080  0.6635  0.0741  0.1872
 4117SOL    HW123987   4.160   4.020   2.072  0.2806 -0.7783  1.0552
 4117SOL    HW223988   4.286   3.999   1.992 -1.4476 -0.0215 -0.6952
 4118SOL     OW23989   2.528   0.987   5.188  0.3756  0.1295 -0.2260
 4118SOL    HW123990   2.491   1.034   5.264 -1.5590  0.7185 -1.5179
 4118SOL    HW223991   2.513   0.895   5.207 -0.7714  0.2601 -0.4954
 4119SOL     OW23992   4.552   2.448   8.713 -0.4604  0.4949 -0.1046
 4119SOL    HW123993   4.471   2.499   8.702  0.4053  1.7714 -0.5651
 4119SOL    HW223994   4.601   2.485   8.640  0.9742 -2.0788 -0.4237
 4120SOL     OW23995   0.711   1.788   5.643 -0.6813  0.4500  0.1606
 4120SOL    HW123996   0.727   1.845   5.717 -0.4946 -0.4789  0.8342
 4120SOL    HW223997   0.792   1.781   5.592 -0.4365  1.7892  0.3891
 4121SOL     OW23998   2.812   1.509   8.542 -0.2626 -0.0000  0.0528
 4121SOL    HW123999   2.831   1.455   8.465 -0.0949 -1.0024  0.7900
 4121SOL    HW224000   2.767   1.583   8.501  0.1744 -0.8726 -1.9799
 4122SOL     OW24001   3.405   2.590   7.070 -0.6982  0.1239  0.5081
 4122SOL    HW124002   3.394   2.669   7.017 -0.4881  0.0606  0.3748
 4122SOL    HW224003   3.458   2.548   7.003 -3.1653 -0.5940 -0.9911
 4123SOL     OW24004   3.307   3.672  13.609 -0.1529 -0.3418 -0.5824
 4123SOL    HW124005   3.218   3.688  13.641 -0.4579  0.4856 -1.8287
 4123SOL    HW224006   3.351   3.711  13.684 -2.4290 -1.7168  1.4619
 4124SOL     OW24007   0.977   4.436   7.350 -1.1462  0.1935 -0.4328
 4124SOL    HW124008   1.005   4.394   7.431  1.7506 -0.5219 -1.8009
 4124SOL    HW224009   0.908   4.497   7.376 -0.0068  1.0659  0.5520
 4125SOL     OW24010   2.095   0.244   9.609  0.2176  0.1626  0.2168
 4125SOL    HW124011   2.158   0.194   9.661 -0.2102  0.2509  0.8245
 4125SOL    HW224012   2.058   0.305   9.673 -1.6225 -0.8814  0.1315
 4126SOL     OW24013   2.087   0.521   3.961  0.0055 -0.2006 -0.6561
 4126SOL    HW124014   2.025   0.449   3.950  0.1359 -0.5882  1.1252
 4126SOL    HW224015   2.135   0.492   4.039 -1.6002 -0.3974  0.2772
 4127SOL     OW24016   4.509   4.243   3.363 -0.5410  0.0633 -0.6902
 4127SOL    HW124017   4.488   4.171   3.304 -1.6521 -1.2800  1.3595
 4127SOL    HW224018   4.597   4.219   3.389  0.2519  2.2997 -1.3012
 4128SOL     OW24019   2.605   3.220   6.480 -0.2304 -0.3780  0.6526
 4128SOL    HW124020   2.548   3.147   6.504 -1.5798 -0.7279 -3.7853
 4128SOL    HW224021   2.671   3.181   6.424  1.0932  1.2032  1.1236
 4129SOL     OW24022   2.178   1.648   8.697 -0.3133  0.3545  0.3049
 4129SOL    HW124023   2.244   1.706   8.735  0.1617 -0.2194  0.3516
 4129SOL    HW224024   2.138   1.702   8.629 -3.5961 -2.5219 -0.0161
 4130SOL     OW24025   2.347   2.234  16.281  0.0260  0.3644  0.4275
 4130SOL    HW124026   2.302   2.318  16.290 -2.1783 -0.8529  0.6376
 4130SOL    HW224027   2.314   2.195  16.200  2.9707 -0.2379 -0.4752
 4131SOL     OW24028   2.972   0.279   8.709  0.3777 -0.0076  0.4184
 4131SOL    HW124029   2.906   0.348   8.721 -0.2404 -0.7627  1.2862
 4131SOL    HW224030   2.985   0.245   8.797 -0.7923 -0.8082  0.2786
 4132SOL     OW24031   4.191   2.571   6.435  0.0850 -0.2102  0.1417
 4132SOL    HW124032   4.270   2.609   6.473  1.1991 -2.6170  0.2695
 4132SOL    HW224033   4.133   2.647   6.435  0.1427 -0.1638  1.2330
 4133SOL     OW24034   0.614   3.817   6.222 -0.2164  0.1573  0.2571
 4133SOL    HW124035   0.637   3.732   6.259 -0.7610 -0.2769 -0.3992
 4133SOL    HW224036   0.548   3.848   6.285  0.8651  0.1647  1.4008
 4134SOL     OW24037   2.688   1.820  16.900  0.0863 -0.2894  0.0322
 4134SOL    HW124038   2.602   1.783  16.919 -0.8565 -0.2382 -3.9967
 4134SOL    HW224039   2.651   1.908  16.899 -0.6639 -0.6310 -2.0378
 4135SOL     OW24040   2.486   2.964  16.348  0.4260 -0.7020 -0.1129
 4135SOL    HW124041   2.494   3.055  16.376  1.5711 -0.3918 -1.4358
 4135SOL    HW224042   2.534   2.962  16.265 -0.1706 -1.6467 -0.4292
 4136SOL     OW24043   3.768   2.454   1.760  0.3461  0.2791 -0.0975
 4136SOL    HW124044   3.830   2.452   1.687  1.8229  1.3872  1.1398
 4136SOL    HW224045   3.690   2.428   1.710  1.5850 -2.5036 -0.5715
 4137SOL     OW24046   1.376   1.485  12.486 -0.2302  0.2080  0.6697
 4137SOL    HW124047   1.419   1.427  12.550  1.4404 -1.1556 -1.6994
 4137SOL    HW224048   1.284   1.465  12.502 -0.1336  1.3111  2.5825
 4138SOL     OW24049   2.007   1.435  14.668  0.1816  0.0661 -0.5415
 4138SOL    HW124050   1.956   1.504  14.627  0.2675 -0.3271 -1.3030
 4138SOL    HW224051   2.035   1.485  14.745  2.2023  0.8655 -1.7994
 4139SOL     OW24052   2.800   0.540  12.585 -0.3619 -0.0124  0.0524
 4139SOL    HW124053   2.708   0.559  12.568 -0.5702 -0.1680  0.9657
 4139SOL    HW224054   2.834   0.628  12.601 -1.8634  1.0427 -2.6739
 4140SOL     OW24055   0.544   3.640   4.959  0.3155  0.3231 -0.4164
 4140SOL    HW124056   0.562   3.662   5.050  0.6986 -0.8615 -0.2065
 4140SOL    HW224057   0.449   3.650   4.958  0.6192  3.3583  1.1905
 4141SOL     OW24058   3.572   3.133   4.922  0.1031 -0.5092 -0.5082
 4141SOL    HW124059   3.532   3.220   4.920 -0.0878 -0.6371 -2.5084
 4141SOL    HW224060   3.611   3.130   5.009 -0.4042 -1.8756 -0.3258
 4142SOL     OW24061   3.058   4.129  15.545  0.4398  0.5689  0.3678
 4142SOL    HW124062   3.110   4.089  15.615  0.9834 -0.3226 -0.5473
 4142SOL    HW224063   3.066   4.061  15.478 -1.0020 -1.1611  1.9425
 4143SOL     OW24064   4.031   0.864   1.791  0.4808 -0.1308 -0.3134
 4143SOL    HW124065   4.055   0.943   1.840 -2.5293  2.0517 -2.3660
 4143SOL    HW224066   4.018   0.805   1.866 -2.1004 -0.0519 -0.7052
 4144SOL     OW24067   4.082   4.050   2.945  0.2263  0.1125 -0.1662
 4144SOL    HW124068   4.101   4.141   2.922  2.7621 -0.4904 -0.4658
 4144SOL    HW224069   4.149   4.030   3.010  0.2271 -1.7697 -0.7381
 4145SOL     OW24070   3.453   2.136  12.480 -0.0723  0.2998 -0.6014
 4145SOL    HW124071   3.514   2.101  12.416 -0.6692  1.0974 -1.6008
 4145SOL    HW224072   3.470   2.087  12.560  0.2992 -2.6604 -2.4855
 4146SOL     OW24073   1.827   4.010   9.838  0.2155 -0.4078 -0.2315
 4146SOL    HW124074   1.811   3.925   9.796  0.1641  0.2765 -1.6116
 4146SOL    HW224075   1.768   3.999   9.912  0.1066  0.9547 -0.1266
 4147SOL     OW24076   2.724   2.031   3.519  0.1867  0.0512 -0.8470
 4147SOL    HW124077   2.754   2.118   3.493  2.4277 -0.1335  1.0708
 4147SOL    HW224078   2.746   1.971   3.449 -0.8979 -0.0245 -1.1145
 4148SOL     OW24079   0.465   1.456  13.579 -0.3828 -0.2819 -0.1168
 4148SOL    HW124080   0.424   1.501  13.654  0.9292  0.8635 -0.0927
 4148SOL    HW224081   0.397   1.394  13.552 -1.0694  0.0908  0.7228
 4149SOL     OW24082   2.798   0.533   3.844 -0.7511  0.1571  0.1576
 4149SOL    HW124083   2.839   0.613   3.812  0.7328 -0.7105 -0.0980
 4149SOL    HW224084   2.708   0.536   3.812 -0.5229  0.9862 -0.3977
 4150SOL     OW24085   1.951   4.565   1.983  0.4099 -0.4669  0.4368
 4150SOL    HW124086   1.908   4.546   1.900 -1.0513  0.9955  0.8507
 4150SOL    HW224087   2.041   4.562   1.951 -0.2281  2.2331 -1.5829
 4151SOL     OW24088   0.026   4.129   3.776 -0.3334 -0.1201 -0.4307
 4151SOL    HW124089   0.044   4.135   3.870  1.6700 -2.0043 -0.6851
 4151SOL    HW224090   0.040   4.221   3.753  1.6365  0.1321  1.7223
 4152SOL     OW24091   0.661   3.768  17.464  0.2432  1.3928  0.0969
 4152SOL    HW124092   0.688   3.695  17.409 -2.5441 -0.9179  1.8003
 4152SOL    HW224093   0.625   3.826  17.397 -0.8638 -0.4882 -0.9365
 4153SOL     OW24094   2.542   1.713   6.940  0.0891 -0.4557 -0.2739
 4153SOL    HW124095   2.505   1.765   7.011  0.3291 -1.3576  0.5106
 4153SOL    HW224096   2.623   1.676   6.976  1.0286  0.8207 -1.0803
 4154SOL     OW24097   1.131   4.339   3.022 -0.2749 -0.3250 -0.1393
 4154SOL    HW124098   1.146   4.414   2.964 -1.1815  0.9503  1.2584
 4154SOL    HW224099   1.072   4.367   3.092 -0.9501 -1.8313 -0.1188
 4155SOL     OW24100   4.207   1.816   0.688 -0.1769 -0.2542 -0.1933
 4155SOL    HW124101   4.178   1.799   0.598 -2.4701 -1.9717  0.8867
 4155SOL    HW224102   4.129   1.831   0.741  0.5494  0.3864  0.6897
 4156SOL     OW24103   1.085   0.743   8.694  0.0193 -0.4030  0.2562
 4156SOL    HW124104   1.045   0.702   8.617  0.9956  1.7619 -1.3972
 4156SOL    HW224105   1.117   0.822   8.650 -0.8468  0.3353  0.9676
 4157SOL     OW24106   0.042   1.379   2.049  0.2034  0.1595  0.4632
 4157SOL    HW124107   0.059   1.321   1.975  1.4527  1.5941 -0.3672
 4157SOL    HW224108   0.117   1.351   2.102  1.6560 -0.3088 -1.8491
 4158SOL     OW24109   2.421   2.306   4.341  0.0444 -0.5790  0.6132
 4158SOL    HW124110   2.336   2.336   4.373 -0.8615 -2.5428  0.0645
 4158SOL    HW224111   2.418   2.341   4.252 -0.4075  2.1843  1.7170
 4159SOL     OW24112   0.062   0.183   5.169  0.8914 -0.2923 -0.2516
 4159SOL    HW124113   0.106   0.122   5.227 -0.8810  1.4654  2.9191
 4159SOL    HW224114   0.102   0.164   5.084 -1.4021 -0.5930 -1.2572
 4160SOL     OW24115   3.566   2.105  16.021 -0.1866 -0.0131 -0.7947
 4160SOL    HW124116   3.601   2.103  15.933 -1.0723  1.5019 -1.1825
 4160SOL    HW224117   3.489   2.056  15.993  0.4347 -0.8504 -1.0159
 4161SOL     OW24118   4.400   0.546   3.604  0.5042 -0.4688  0.5864
 4161SOL    HW124119   4.349   0.480   3.558  0.2781  0.1985 -0.1360
 4161SOL    HW224120   4.488   0.527   3.572  1.3520  2.3318  1.2689
 4162SOL     OW24121   4.344   2.883  10.541  0.1440 -0.4131  0.6568
 4162SOL    HW124122   4.285   2.949  10.578 -0.8699 -2.0545  1.9595
 4162SOL    HW224123   4.397   2.928  10.475 -2.3444  1.9392  0.3020
 4163SOL     OW24124   4.587   4.700   5.022 -0.3523 -0.7614 -0.6209
 4163SOL    HW124125   4.515   4.665   4.969  0.0659 -4.1138  0.9979
 4163SOL    HW224126   4.605   0.043   4.969  0.1435  0.3805  1.1956
 4164SOL     OW24127   0.836   0.518   3.154  0.5147  0.3367  0.3351
 4164SOL    HW124128   0.916   0.544   3.199 -0.3700  1.0459  1.4897
 4164SOL    HW224129   0.860   0.447   3.094 -2.9724  0.5942 -1.3925
 4165SOL     OW24130   0.766   0.933   2.641 -0.1369  0.1737 -0.1614
 4165SOL    HW124131   0.691   0.917   2.584  0.5683  0.0676 -1.0609
 4165SOL    HW224132   0.741   0.903   2.729 -0.0613 -1.0771 -0.5617
 4166SOL     OW24133   4.521   3.370  10.716  0.2478  0.5611 -0.2559
 4166SOL    HW124134   4.556   3.458  10.727  0.2692  0.9677 -3.5352
 4166SOL    HW224135   4.427   3.388  10.722 -0.1434 -2.0034  1.1007
 4167SOL     OW24136   2.972   4.424   4.714  0.5867  0.1839  0.0324
 4167SOL    HW124137   3.033   4.415   4.642 -1.1438  0.3103 -1.4445
 4167SOL    HW224138   3.031   4.461   4.780  2.2109 -2.3363 -0.0239
 4168SOL     OW24139   2.573   3.422   7.543 -0.4311  0.4221  0.2413
 4168SOL    HW124140   2.587   3.458   7.455 -0.0913  0.5344  0.3406
 4168SOL    HW224141   2.663   3.408   7.571 -0.3468 -0.0891 -0.2810
 4169SOL     OW24142   4.277   1.678   2.041 -0.1712 -0.1018  0.2536
 4169SOL    HW124143   4.208   1.695   2.105  1.3213  1.5873  1.3916
 4169SOL    HW224144   4.269   1.761   1.992  1.5372 -1.4081 -2.2227
 4170SOL     OW24145   2.572   4.319  11.741  0.1973 -0.1649 -0.1186
 4170SOL    HW124146   2.485   4.358  11.738  1.1248  1.8163 -0.7113
 4170SOL    HW224147   2.545   4.228  11.723  1.6807 -1.5483  4.7100
 4171SOL     OW24148   4.642   0.506   9.074  0.7791  0.0792 -0.0975
 4171SOL    HW124149   4.587   0.438   9.037 -2.3992  1.4852  2.0237
 4171SOL    HW224150   4.568   0.558   9.105 -0.4938  0.0472 -3.1038
 4172SOL     OW24151   4.161   2.129   7.760  0.1104  0.2214 -0.0892
 4172SOL    HW124152   4.083   2.154   7.710  0.4712  1.2279 -0.1296
 4172SOL    HW224153   4.230   2.180   7.719 -0.5309  0.6680 -0.6189
 4173SOL     OW24154   3.259   1.491  12.297 -0.8364  0.7383 -0.0408
 4173SOL    HW124155   3.322   1.428  12.262 -0.1501  1.0670  0.6023
 4173SOL    HW224156   3.319   1.560  12.325  2.6787 -2.0971 -0.5938
 4174SOL     OW24157   1.184   2.064   3.847 -0.2759  0.1391 -0.1561
 4174SOL    HW124158   1.214   2.155   3.840  1.1544 -0.5116 -2.5737
 4174SOL    HW224159   1.133   2.065   3.927  1.4479 -0.8990  0.9621
 4175SOL     OW24160   2.794   1.225  12.453 -0.0053 -0.4095  0.5636
 4175SOL    HW124161   2.761   1.290  12.392 -1.8430 -0.0813  1.9111
 4175SOL    HW224162   2.853   1.179  12.393 -1.0876  0.0237 -0.8213
 4176SOL     OW24163   1.464   4.047  13.859 -0.4009 -0.2425  0.2115
 4176SOL    HW124164   1.401   4.083  13.921 -1.2422 -0.7715 -0.3309
 4176SOL    HW224165   1.459   4.106  13.784 -0.4815 -0.0222  0.3926
 4177SOL     OW24166   2.008   0.364   7.840  0.0478 -0.5915 -0.0650
 4177SOL    HW124167   2.033   0.402   7.924 -0.2963 -1.0796  0.2560
 4177SOL    HW224168   1.915   0.348   7.854  0.4419 -1.4261  1.6180
 4178SOL     OW24169   0.682   1.921   6.596  0.0376  0.5797 -0.6144
 4178SOL    HW124170   0.736   1.842   6.604  1.1436  1.3516 -0.5999
 4178SOL    HW224171   0.619   1.895   6.527 -1.7073  0.7067  0.9326
 4179SOL     OW24172   0.491   0.769   9.380 -0.1374  0.7131 -0.3670
 4179SOL    HW124173   0.441   0.851   9.378 -0.2937  0.6060 -0.8906
 4179SOL    HW224174   0.467   0.737   9.294  0.4641  1.2430 -0.7329
 4180SOL     OW24175   1.067   0.031   2.257 -0.1273  0.2509 -0.0488
 4180SOL    HW124176   1.093   0.033   2.349  1.5643 -2.0206 -0.4952
 4180SOL    HW224177   1.052   0.125   2.248 -3.3793 -0.2515  0.1206
 4181SOL     OW24178   4.119   1.071   7.172 -0.3300  0.8053  0.0266
 4181SOL    HW124179   4.033   1.062   7.213  0.5585  1.4648  2.0288
 4181SOL    HW224180   4.135   0.977   7.166 -3.6168  0.1346  1.9314
 4182SOL     OW24181   1.094   1.378  11.136  0.3341 -0.3656  0.2853
 4182SOL    HW124182   1.027   1.441  11.106  0.2722 -1.0626 -1.0467
 4182SOL    HW224183   1.034   1.331  11.194  0.2569  0.2341  0.6895
 4183SOL     OW24184   1.691   0.858   8.461  1.2671  0.1290 -0.1434
 4183SOL    HW124185   1.688   0.777   8.410  1.7410  0.1269 -0.1619
 4183SOL    HW224186   1.697   0.926   8.395 -1.5063  2.1493  1.6638
 4184SOL     OW24187   2.130   2.686  15.356 -0.1694 -0.2096 -0.4064
 4184SOL    HW124188   2.216   2.727  15.351 -0.2308  0.1304  1.3322
 4184SOL    HW224189   2.070   2.761  15.356  0.9808  0.7025 -0.3668
 4185SOL     OW24190   4.718   1.655  12.820 -0.5197 -0.1067  0.4659
 4185SOL    HW124191   4.641   1.671  12.874 -1.9133 -2.4325 -0.8324
 4185SOL    HW224192   4.696   1.716  12.749  0.9884  1.6909  1.5666
 4186SOL     OW24193   3.947   4.681   7.508 -1.0220 -0.2712  0.2768
 4186SOL    HW124194   3.987   4.595   7.494  1.6666  0.8164  1.3608
 4186SOL    HW224195   3.923   4.706   7.419  2.0383 -3.6731 -1.5465
 4187SOL     OW24196   4.183   4.395   8.384  0.1844 -0.2645  0.3263
 4187SOL    HW124197   4.229   4.475   8.410 -0.2448  0.2209 -0.3935
 4187SOL    HW224198   4.177   4.421   8.292  1.2436  0.1941  0.3943
 4188SOL     OW24199   2.301   1.610   7.705  0.2044 -0.2641 -0.2649
 4188SOL    HW124200   2.258   1.525   7.718  1.2382 -0.7337  0.1345
 4188SOL    HW224201   2.390   1.586   7.733  0.1527 -1.0033 -0.7411
 4189SOL     OW24202   0.538   1.917   3.116 -0.7903 -0.5452 -0.1908
 4189SOL    HW124203   0.509   2.005   3.142  0.8985  0.0498 -0.3538
 4189SOL    HW224204   0.464   1.894   3.059  0.3241 -2.8219 -0.6995
 4190SOL     OW24205   3.945   1.908   5.825 -0.0078 -0.3297 -0.5563
 4190SOL    HW124206   4.032   1.949   5.829  0.3085 -0.9556 -1.0434
 4190SOL    HW224207   3.892   1.986   5.809 -2.6269 -2.1241 -0.5456
 4191SOL     OW24208   3.293   3.816   3.550  0.4726 -0.5050 -0.2711
 4191SOL    HW124209   3.316   3.904   3.581  0.7068 -0.3261 -0.9649
 4191SOL    HW224210   3.379   3.780   3.530  0.6579  0.2546 -0.8202
 4192SOL     OW24211   3.065   4.555  10.534 -0.3584 -0.4806  0.3735
 4192SOL    HW124212   3.103   4.469  10.546 -0.8192 -0.6410  0.6630
 4192SOL    HW224213   3.065   4.565  10.438 -0.0286  0.3002  0.4478
 4193SOL     OW24214   2.724   2.330   9.282  0.2412 -0.0745 -0.2414
 4193SOL    HW124215   2.797   2.388   9.263 -0.4254  0.2154 -1.8994
 4193SOL    HW224216   2.725   2.339   9.378  1.0260 -1.8182 -0.0850
 4194SOL     OW24217   0.365   1.090   3.765 -0.3797 -0.4286  0.3196
 4194SOL    HW124218   0.388   1.112   3.675  0.0340 -0.0500  0.5178
 4194SOL    HW224219   0.269   1.090   3.763 -0.3925 -0.9480  0.9544
 4195SOL     OW24220   2.301   4.269   4.464 -1.0504  0.1442  0.1861
 4195SOL    HW124221   2.295   4.340   4.528 -0.5147  1.9577 -1.7628
 4195SOL    HW224222   2.384   4.284   4.419 -0.4728 -1.5378  0.6816
 4196SOL     OW24223   0.615   4.711   2.059  0.0207  0.1875 -0.2936
 4196SOL    HW124224   0.544   4.661   2.099 -0.4725  0.4002 -0.9080
 4196SOL    HW224225   0.673   4.720   2.134  0.0719  2.1480 -0.5616
 4197SOL     OW24226   1.371   0.149  17.014 -0.2660 -0.0888  0.9240
 4197SOL    HW124227   1.456   0.124  17.050  0.9590  0.8819 -1.2882
 4197SOL    HW224228   1.338   0.073  16.966  2.5217 -0.7828  0.1414
 4198SOL     OW24229   0.334   3.386   4.427 -0.1757 -0.0451  0.0551
 4198SOL    HW124230   0.394   3.425   4.363  1.3220 -0.5858  1.1166
 4198SOL    HW224231   0.369   3.431   4.504 -0.6306  0.6920 -0.1662
 4199SOL     OW24232   0.474   2.021  16.003  0.4586  0.0226 -0.1591
 4199SOL    HW124233   0.410   2.083  16.038 -1.8376 -2.3572 -0.1112
 4199SOL    HW224234   0.442   1.995  15.916  2.1233 -0.5232 -0.6057
 4200SOL     OW24235   1.150   0.606   6.805 -0.0209  0.1365  0.6287
 4200SOL    HW124236   1.147   0.673   6.737  2.2582  0.3188  0.7252
 4200SOL    HW224237   1.111   0.532   6.759 -1.0372  0.1188  1.4983
 4201SOL     OW24238   3.383   4.728   2.066 -0.7694 -0.9062  0.6020
 4201SOL    HW124239   3.452   4.682   2.114 -2.1934 -1.2046  2.3735
 4201SOL    HW224240   3.367   0.066   2.126 -0.2992 -0.5589  0.3127
 4202SOL     OW24241   3.793   4.431   8.519 -0.6227  0.1840  0.0852
 4202SOL    HW124242   3.792   4.456   8.426  2.7403  0.7357  0.2232
 4202SOL    HW224243   3.884   4.403   8.531 -1.4267 -1.3632  2.5305
 4203SOL     OW24244   4.179   1.097  12.777  0.2380 -0.3875  0.1253
 4203SOL    HW124245   4.264   1.072  12.740 -0.9964 -0.9479 -2.3841
 4203SOL    HW224246   4.192   1.056  12.863  4.5890 -0.6748 -0.6951
 4204SOL     OW24247   1.608   4.359   1.848 -0.1187  0.4047  0.3337
 4204SOL    HW124248   1.555   4.311   1.786  0.9534  1.0631 -1.0940
 4204SOL    HW224249   1.692   4.362   1.801  0.3842 -2.7821  1.0170
 4205SOL     OW24250   1.252   2.950   1.432 -0.2868  0.0673  0.1334
 4205SOL    HW124251   1.342   2.946   1.400 -0.7582 -2.4751 -0.8483
 4205SOL    HW224252   1.201   2.926   1.355 -0.0989 -1.0845  0.3617
 4206SOL     OW24253   4.315   2.095   9.356  0.0500  0.2843 -0.0469
 4206SOL    HW124254   4.341   2.067   9.444  4.2612  1.9163 -0.7824
 4206SOL    HW224255   4.352   2.183   9.361  0.1303  0.1953  1.0111
 4207SOL     OW24256   3.698   1.269   8.953 -0.6690  0.3110 -0.4686
 4207SOL    HW124257   3.790   1.286   8.974 -0.8669 -0.6715  1.1775
 4207SOL    HW224258   3.708   1.209   8.879 -1.0996 -0.1000 -0.1941
 4208SOL     OW24259   4.380   2.815   3.506 -0.5071 -0.2476  0.4123
 4208SOL    HW124260   4.376   2.723   3.533 -0.9524 -0.4546 -0.3830
 4208SOL    HW224261   4.354   2.847   3.593 -1.8392 -2.8887  0.9862
 4209SOL     OW24262   1.792   1.941   5.929 -0.2379 -0.0931 -0.4761
 4209SOL    HW124263   1.722   1.974   5.984  0.3079 -2.5167  1.6717
 4209SOL    HW224264   1.845   1.909   6.002  0.0994  2.6818  0.4607
 4210SOL     OW24265   3.763   0.911   1.498 -0.2785 -0.2207 -0.4697
 4210SOL    HW124266   3.693   0.967   1.466  0.7360 -0.9509 -3.9744
 4210SOL    HW224267   3.795   0.964   1.571 -0.8970 -2.5605  1.5010
 4211SOL     OW24268   3.421   1.522   7.635 -0.3786  0.7494 -0.0652
 4211SOL    HW124269   3.390   1.598   7.586 -0.0940  1.4316  0.8155
 4211SOL    HW224270   3.476   1.555   7.706 -0.2036  0.7376 -0.1964
 4212SOL     OW24271   4.383   3.316   7.895  0.3611 -0.5172 -0.0261
 4212SOL    HW124272   4.330   3.350   7.967 -0.0365  1.0508 -1.0585
 4212SOL    HW224273   4.468   3.332   7.937 -0.6511  0.1673  1.7730
 4213SOL     OW24274   3.505   0.325  16.581  0.0622  0.4444  0.6161
 4213SOL    HW124275   3.520   0.281  16.497  0.2146 -1.0071  1.4014
 4213SOL    HW224276   3.438   0.385  16.548 -0.2083 -0.6896 -0.9146
 4214SOL     OW24277   1.349   4.239  10.460  0.1708  0.3020 -0.1391
 4214SOL    HW124278   1.383   4.264  10.374 -2.2458 -1.2216 -1.5489
 4214SOL    HW224279   1.256   4.244  10.438  0.3431 -1.2697 -1.2488
 4215SOL     OW24280   0.354   0.834   4.921 -0.2577 -0.4974  0.1216
 4215SOL    HW124281   0.362   0.763   4.856 -0.5118 -0.6255  0.2309
 4215SOL    HW224282   0.259   0.845   4.925 -0.3715 -1.0653 -0.8473
 4216SOL     OW24283   4.632   3.966   3.623  0.4794 -0.4283  0.0975
 4216SOL    HW124284   4.683   4.019   3.684 -0.9544  0.7508  0.2853
 4216SOL    HW224285   4.548   3.992   3.661  0.5277  0.2538 -0.2704
 4217SOL     OW24286   3.719   2.521   2.023  0.2207 -0.8033  0.2789
 4217SOL    HW124287   3.633   2.562   2.013  0.6705 -0.0037 -0.3516
 4217SOL    HW224288   3.729   2.481   1.937 -0.5279  2.5304 -1.3613
 4218SOL     OW24289   0.312   2.386   6.725 -0.2511 -0.3290  0.5724
 4218SOL    HW124290   0.244   2.319   6.740 -0.9118  0.2749  0.2719
 4218SOL    HW224291   0.384   2.327   6.703 -0.0954 -0.6461  1.9611
 4219SOL     OW24292   3.196   1.521   5.717  0.5272  0.2177 -0.0389
 4219SOL    HW124293   3.151   1.446   5.680  0.0236  0.8787 -0.7737
 4219SOL    HW224294   3.130   1.555   5.777  0.3554  0.6139 -0.4523
 4220SOL     OW24295   3.999   3.146  16.270 -0.1269 -0.3799 -0.2467
 4220SOL    HW124296   3.993   3.122  16.178  1.3684 -0.7896 -0.2368
 4220SOL    HW224297   3.929   3.211  16.260  0.1156  0.1273  1.3932
 4221SOL     OW24298   1.133   2.915   6.919 -0.1328 -0.2145 -0.5082
 4221SOL    HW124299   1.130   3.004   6.884 -0.8921  0.8149  2.0861
 4221SOL    HW224300   1.153   2.855   6.848 -1.1846 -1.3898  0.1832
 4222SOL     OW24301   1.710   3.363   9.055 -0.3707  0.0558  0.3209
 4222SOL    HW124302   1.621   3.393   9.071 -1.1982 -2.5917  0.6592
 4222SOL    HW224303   1.748   3.382   9.141  0.6313 -0.5565  0.0160
 4223SOL     OW24304   2.494   2.785   6.553 -0.2272  0.6662 -0.6319
 4223SOL    HW124305   2.454   2.847   6.614 -1.2269  0.8209 -1.4497
 4223SOL    HW224306   2.532   2.844   6.488  1.2467 -0.3313 -0.6594
 4224SOL     OW24307   2.076   1.943   4.303 -0.1827  0.0265 -0.3408
 4224SOL    HW124308   2.104   1.911   4.389 -0.4568  1.4431  0.2732
 4224SOL    HW224309   1.990   1.902   4.300 -0.4872  0.5847  0.6356
 4225SOL     OW24310   1.930   1.611   4.651 -0.4986  0.1832 -0.1588
 4225SOL    HW124311   1.981   1.531   4.639  0.1166  0.2796  1.9641
 4225SOL    HW224312   1.883   1.594   4.733  1.2822 -0.4935  0.7165
 4226SOL     OW24313   3.843   1.995   6.975 -0.0243  0.3274 -0.2463
 4226SOL    HW124314   3.924   2.021   7.019 -0.8812  0.9332  0.9889
 4226SOL    HW224315   3.825   1.915   7.025 -1.4797  0.5295 -0.4516
 4227SOL     OW24316   1.420   4.326   7.853  0.2851  0.0621 -0.8125
 4227SOL    HW124317   1.483   4.268   7.810  1.3923 -0.7082  1.8383
 4227SOL    HW224318   1.348   4.265   7.869 -0.3711  1.2168  0.6425
 4228SOL     OW24319   0.049   3.810   2.513 -0.8143  0.1643 -0.1890
 4228SOL    HW124320   0.027   3.730   2.465  1.9123 -1.5033  1.3493
 4228SOL    HW224321   0.004   3.871   2.454  0.4655  0.9134 -0.3765
 4229SOL     OW24322   3.278   1.370   3.592  0.0482 -0.2799 -0.1568
 4229SOL    HW124323   3.320   1.288   3.567  0.7658  0.0717 -0.1130
 4229SOL    HW224324   3.240   1.352   3.678 -1.4850  3.0414 -0.1389
 4230SOL     OW24325   4.129   0.482   5.283 -0.2120  0.1572  0.5221
 4230SOL    HW124326   4.134   0.510   5.374 -1.0050 -0.5478  0.7851
 4230SOL    HW224327   4.198   0.417   5.294 -0.3124  0.0933  0.7757
 4231SOL     OW24328   0.988   1.907  14.431  0.6185  0.4175 -0.2824
 4231SOL    HW124329   1.036   1.989  14.415  1.7355 -0.0287  0.7262
 4231SOL    HW224330   0.972   1.914  14.525  0.1529 -1.4916 -0.2290
 4232SOL     OW24331   2.113   2.428   9.149  0.2425  0.2060 -0.2707
 4232SOL    HW124332   2.137   2.513   9.113  0.5664  0.7193  1.1582
 4232SOL    HW224333   2.017   2.431   9.143  0.3011 -0.4658 -1.4952
 4233SOL     OW24334   3.376   1.024   6.354  0.4361 -0.5994 -0.0413
 4233SOL    HW124335   3.436   0.955   6.328 -0.1423  0.6147 -4.6898
 4233SOL    HW224336   3.422   1.057   6.431 -0.2117  2.5866 -1.0107
 4234SOL     OW24337   3.024   0.422   9.339  0.1152  0.0449 -0.1518
 4234SOL    HW124338   3.087   0.463   9.399  0.3988 -3.8723  2.2320
 4234SOL    HW224339   2.946   0.447   9.388  1.6104  0.7558  1.9038
 4235SOL     OW24340   1.814   2.502  10.884  0.0225 -0.1157  0.1655
 4235SOL    HW124341   1.878   2.549  10.937 -0.1111  0.3987 -0.1250
 4235SOL    HW224342   1.867   2.435  10.840 -1.0334 -0.5849 -0.3860
 4236SOL     OW24343   2.482   1.978   7.605 -0.2301  0.7125  0.6594
 4236SOL    HW124344   2.423   1.992   7.531  1.1417 -1.5523 -0.8643
 4236SOL    HW224345   2.522   1.894   7.582 -1.9813 -0.1027  0.6394
 4237SOL     OW24346   4.677   4.585   7.842 -0.5468 -0.3622  0.2503
 4237SOL    HW124347   4.660   4.604   7.934  2.6589 -2.2084  1.2105
 4237SOL    HW224348   4.625   4.655   7.802 -2.7702 -0.6274  2.7024
 4238SOL     OW24349   1.452   2.360   2.673 -0.0333 -0.9171 -0.7017
 4238SOL    HW124350   1.490   2.290   2.726  1.3963  1.0209  0.7843
 4238SOL    HW224351   1.414   2.404   2.749  0.2645  0.1378 -1.1682
 4239SOL     OW24352   1.099   0.358   5.937  0.1487  0.3659 -0.1114
 4239SOL    HW124353   1.107   0.312   6.021  0.5843 -1.4232 -1.1245
 4239SOL    HW224354   1.019   0.316   5.905 -0.2981  1.2198 -0.1018
 4240SOL     OW24355   4.401   1.935   6.222  0.0836  0.2177 -0.4984
 4240SOL    HW124356   4.417   1.862   6.162 -1.0007  0.0018 -0.5292
 4240SOL    HW224357   4.447   2.002   6.173  0.4838  0.8642  0.7598
 4241SOL     OW24358   0.095   2.689   6.129  0.1892 -0.7952 -0.9343
 4241SOL    HW124359   0.175   2.728   6.093  0.1446  2.5610  2.6974
 4241SOL    HW224360   0.137   2.615   6.174  0.6305 -1.1332 -1.8906
 4242SOL     OW24361   0.322   1.722   7.057 -0.3711 -0.1603  0.7527
 4242SOL    HW124362   0.385   1.738   6.987  1.0112  1.3470  2.3468
 4242SOL    HW224363   0.294   1.632   7.041 -1.2262  0.8012 -3.1609
 4243SOL     OW24364   1.375   3.518   6.516  0.0068 -0.5122  0.4443
 4243SOL    HW124365   1.415   3.448   6.463 -1.8825 -0.7945 -0.6096
 4243SOL    HW224366   1.408   3.604   6.490 -0.3329  0.4363  3.1202
 4244SOL     OW24367   3.623   0.409   3.514  0.0064 -0.0928  0.0267
 4244SOL    HW124368   3.636   0.333   3.570  0.4094 -0.4740 -0.5950
 4244SOL    HW224369   3.585   0.469   3.580 -1.4117  0.0867 -0.9491
 4245SOL     OW24370   2.129   3.323   2.863  0.4226  0.4271 -0.0220
 4245SOL    HW124371   2.151   3.269   2.939 -0.5519  0.7592  0.4852
 4245SOL    HW224372   2.174   3.278   2.791  1.4315  1.0825  0.2052
 4246SOL     OW24373   2.107   1.612   8.270  0.1028  0.2610 -0.0084
 4246SOL    HW124374   2.087   1.649   8.356  1.5076 -1.0528  0.8874
 4246SOL    HW224375   2.202   1.608   8.280  0.0469 -3.5054 -1.0141
 4247SOL     OW24376   0.788   1.076   4.371  0.4325  0.0776 -0.1184
 4247SOL    HW124377   0.869   1.032   4.397  0.3205  0.6742  1.2307
 4247SOL    HW224378   0.817   1.165   4.354  0.5250  0.3277  1.3052
 4248SOL     OW24379   1.255   2.970   7.185 -0.0740  0.3963 -0.9255
 4248SOL    HW124380   1.174   3.015   7.206 -0.3108 -0.2822 -0.3700
 4248SOL    HW224381   1.303   2.985   7.267  2.6455 -0.4004 -2.3788
 4249SOL     OW24382   1.730   0.547  16.866  0.0609  1.2125  0.0114
 4249SOL    HW124383   1.701   0.584  16.950 -0.9421  0.4996 -0.0269
 4249SOL    HW224384   1.650   0.560  16.816  0.6418  1.2155 -0.9148
 4250SOL     OW24385   1.251   0.228   8.072  0.3720  0.4294 -0.7141
 4250SOL    HW124386   1.243   0.215   7.978 -1.2482 -0.5419 -0.4423
 4250SOL    HW224387   1.198   0.307   8.078  1.9684  1.4737 -0.1983
 4251SOL     OW24388   1.869   4.458   1.744 -0.4743 -0.5256  0.5080
 4251SOL    HW124389   1.912   4.377   1.771 -0.7085 -0.5508  0.8031
 4251SOL    HW224390   1.929   4.484   1.674 -1.3906 -1.6279 -0.7095
 4252SOL     OW24391   3.012   3.003   4.687  0.1124 -0.1709  0.2573
 4252SOL    HW124392   2.995   3.089   4.727 -0.4513 -0.0774 -0.1936
 4252SOL    HW224393   2.954   3.003   4.611 -0.5951  2.2066  0.7703
 4253SOL     OW24394   3.713   3.250   6.645 -0.0351 -0.1863 -0.0714
 4253SOL    HW124395   3.680   3.172   6.601  1.4822 -0.6456 -0.4250
 4253SOL    HW224396   3.716   3.302   6.565  2.4014 -0.9127 -0.4860
 4254SOL     OW24397   4.038   4.517   2.987  0.3378 -0.0601  0.0048
 4254SOL    HW124398   3.950   4.519   2.949 -0.7408 -1.7154  2.4494
 4254SOL    HW224399   4.090   4.564   2.921  2.5909 -0.7069  1.3395
 4255SOL     OW24400   2.734   1.972   2.258 -0.3074  0.0694 -0.0513
 4255SOL    HW124401   2.653   1.966   2.207 -0.1945  1.4351 -0.3907
 4255SOL    HW224402   2.809   1.945   2.204  0.2255  0.2051  0.6153
 4256SOL     OW24403   4.281   3.373  11.401 -0.2704 -0.0765 -0.0065
 4256SOL    HW124404   4.356   3.421  11.365 -0.1070  0.2212  0.7218
 4256SOL    HW224405   4.258   3.432  11.472 -0.0990  0.6403 -0.5537
 4257SOL     OW24406   1.895   3.250   5.886  0.1602  0.4672  0.2626
 4257SOL    HW124407   1.926   3.220   5.971  0.5689  0.5564  0.1435
 4257SOL    HW224408   1.801   3.232   5.892  0.2918 -0.4718 -0.4249
 4258SOL     OW24409   2.043   1.702  12.039  0.5341 -0.1446  0.0802
 4258SOL    HW124410   1.969   1.740  12.085  1.3505  0.7684  0.6544
 4258SOL    HW224411   1.996   1.658  11.969  2.3538 -0.4350 -0.9571
 4259SOL     OW24412   3.108   2.774   4.777  0.2677 -0.5622 -0.0235
 4259SOL    HW124413   3.067   2.856   4.748 -0.4154 -0.3255  1.6306
 4259SOL    HW224414   3.054   2.752   4.853  0.5915  0.9244  0.6467
 4260SOL     OW24415   2.323   2.417   0.506 -0.0986 -0.0640 -0.0817
 4260SOL    HW124416   2.409   2.458   0.494  0.9854 -2.2463 -0.0033
 4260SOL    HW224417   2.270   2.488   0.472 -1.2194  0.6047  3.0867
 4261SOL     OW24418   1.043   1.458  16.674 -0.1392  0.5167 -1.1598
 4261SOL    HW124419   0.983   1.532  16.675 -1.4588 -0.5512 -1.5953
 4261SOL    HW224420   1.011   1.404  16.745 -1.2664 -0.4356 -2.3871
 4262SOL     OW24421   2.595   3.178   3.944  0.3455 -0.0442  0.1869
 4262SOL    HW124422   2.676   3.217   3.976 -1.3221  3.2924  0.2912
 4262SOL    HW224423   2.532   3.249   3.958 -0.3149 -0.9241  1.7202
 4263SOL     OW24424   0.893   2.588   4.340  0.5314 -0.0394  0.3250
 4263SOL    HW124425   0.889   2.507   4.289  1.4012 -0.5062  0.9826
 4263SOL    HW224426   0.988   2.602   4.336  0.5041 -0.3816 -1.4575
 4264SOL     OW24427   0.618   3.126   3.922 -0.4631  0.4098  0.0204
 4264SOL    HW124428   0.709   3.098   3.929 -0.5392 -0.3226 -1.8867
 4264SOL    HW224429   0.624   3.193   3.854 -0.7513  3.3242  2.8920
 4265SOL     OW24430   3.559   0.211   3.322 -0.2929  0.0916  0.2156
 4265SOL    HW124431   3.610   0.219   3.241  0.8330  0.3364  0.9464
 4265SOL    HW224432   3.596   0.289   3.363  0.0088 -0.1000  0.3053
 4266SOL     OW24433   3.529   2.150   1.330  0.3272  0.4814 -0.3598
 4266SOL    HW124434   3.594   2.085   1.305  0.7673  0.8932 -0.2961
 4266SOL    HW224435   3.478   2.108   1.398 -1.6590 -0.7555 -2.6309
 4267SOL     OW24436   4.411   1.240   6.338  0.0843  0.3448 -0.5567
 4267SOL    HW124437   4.400   1.148   6.361  2.6414  0.7055  2.1943
 4267SOL    HW224438   4.464   1.266   6.414 -0.1694  1.3697 -0.7213
 4268SOL     OW24439   1.357   1.656  13.750  0.7745  0.0121 -0.3798
 4268SOL    HW124440   1.274   1.629  13.712  0.6748 -0.9012  0.4848
 4268SOL    HW224441   1.412   1.612  13.685  0.1530  0.1575 -1.0055
 4269SOL     OW24442   4.653   4.005  17.219 -0.4332  0.1221 -0.0323
 4269SOL    HW124443   4.604   4.000  17.137  0.0603 -2.1095 -0.1805
 4269SOL    HW224444   4.695   3.924  17.245  0.4040  1.2752  2.2460
 4270SOL     OW24445   3.576   1.969   6.087  0.2171  0.0048  0.2784
 4270SOL    HW124446   3.541   1.993   6.001  0.2827  0.1178  0.2842
 4270SOL    HW224447   3.652   1.915   6.066  0.5137  1.1127 -1.4652
 4271SOL     OW24448   3.134   0.254  13.862  0.1734 -0.4151  0.7848
 4271SOL    HW124449   3.222   0.283  13.836 -0.3376  0.3908 -0.0302
 4271SOL    HW224450   3.089   0.313  13.802 -1.7292 -0.5803  2.0554
 4272SOL     OW24451   3.978   1.893   3.230  0.1359 -0.0547  0.2616
 4272SOL    HW124452   3.892   1.879   3.191  1.5119 -0.6883 -2.6182
 4272SOL    HW224453   4.008   1.968   3.178  1.6830 -0.4392  0.5981
 4273SOL     OW24454   0.345   3.542   3.271  0.0062  0.0798 -0.1846
 4273SOL    HW124455   0.370   3.487   3.197  2.6182 -0.1104  0.8381
 4273SOL    HW224456   0.264   3.501   3.303 -0.4644  1.3322  0.2307
 4274SOL     OW24457   2.832   3.142   1.010  0.0801  0.3549 -0.3556
 4274SOL    HW124458   2.908   3.183   1.051  0.3192 -0.2737 -0.1808
 4274SOL    HW224459   2.870   3.110   0.928 -1.8761 -1.6173 -0.4910
 4275SOL     OW24460   1.761   1.793  12.904  0.1718 -0.5354  0.5856
 4275SOL    HW124461   1.819   1.785  12.829 -0.1152 -1.8136  0.4884
 4275SOL    HW224462   1.822   1.846  12.955  1.3318  0.6552 -2.0672
 4276SOL     OW24463   2.695   4.496  16.265 -0.0935 -0.4499 -0.2300
 4276SOL    HW124464   2.734   4.458  16.187 -0.5041 -2.6238  0.6141
 4276SOL    HW224465   2.746   4.576  16.276 -1.1726  0.2899 -0.5429
 4277SOL     OW24466   0.241   0.272  14.714 -0.5754 -0.4427 -0.2687
 4277SOL    HW124467   0.249   0.177  14.706 -0.1109 -0.2699 -1.8564
 4277SOL    HW224468   0.216   0.282  14.806  0.5064  0.8012 -0.1154
 4278SOL     OW24469   0.822   2.120   6.119  0.5541  0.1718  0.2958
 4278SOL    HW124470   0.776   2.145   6.200 -0.8496 -0.3027 -0.3443
 4278SOL    HW224471   0.740   2.109   6.070  1.3434 -3.3500 -0.2195
 4279SOL     OW24472   3.156   0.965   8.546 -0.1597 -0.3988 -0.2004
 4279SOL    HW124473   3.094   0.892   8.543  0.0751 -0.6314  0.6176
 4279SOL    HW224474   3.240   0.928   8.519 -0.6932 -3.0834  1.8851
 4280SOL     OW24475   4.360   1.222   1.679 -0.2734 -0.3073 -0.1921
 4280SOL    HW124476   4.442   1.264   1.653 -0.5480 -0.1268 -0.7663
 4280SOL    HW224477   4.299   1.295   1.692 -1.2162 -1.2026  0.4214
 4281SOL     OW24478   4.288   2.081   6.662  0.7905 -1.0048 -0.3946
 4281SOL    HW124479   4.290   2.148   6.594  1.0406 -0.4849  0.1256
 4281SOL    HW224480   4.263   2.007   6.607  0.1258 -1.1817  0.1532
 4282SOL     OW24481   4.210   2.350   4.452 -0.3878  0.0424  0.7176
 4282SOL    HW124482   4.280   2.299   4.411 -0.5165  0.8967 -0.5590
 4282SOL    HW224483   4.136   2.328   4.394  0.5940  1.6874 -1.1553
 4283SOL     OW24484   4.558   3.532   5.650 -0.8574  0.1610  0.3787
 4283SOL    HW124485   4.625   3.584   5.607 -1.5190  0.5458 -0.1845
 4283SOL    HW224486   4.480   3.582   5.629 -1.1138 -0.3987 -0.0072
 4284SOL     OW24487   4.565   0.114  11.899 -0.7227  0.1998  0.0580
 4284SOL    HW124488   4.509   0.060  11.843 -0.6529  1.3543 -1.1411
 4284SOL    HW224489   4.491   0.148  11.949  0.6823  4.5854 -0.8754
 4285SOL     OW24490   1.492   2.997   8.042  0.9049  0.6683 -0.0544
 4285SOL    HW124491   1.532   2.973   7.959 -0.0257  0.7477 -0.5294
 4285SOL    HW224492   1.524   3.087   8.047  1.2142  0.5795 -0.4433
 4286SOL     OW24493   4.051   1.071   5.391 -0.4286 -0.0101 -0.1605
 4286SOL    HW124494   4.006   1.027   5.464  1.8411 -1.5431  0.3162
 4286SOL    HW224495   4.114   1.007   5.357 -0.8419 -1.0937  1.1116
 4287SOL     OW24496   4.212   2.123   8.287 -0.2330 -0.1370 -0.2998
 4287SOL    HW124497   4.118   2.133   8.273 -0.4556 -0.5814  0.9035
 4287SOL    HW224498   4.237   2.188   8.353 -5.5445  2.1528 -0.5244
 4288SOL     OW24499   4.090   4.313   9.890  0.2321  0.3260 -0.2267
 4288SOL    HW124500   4.077   4.355   9.975 -2.8087 -2.2925  0.6036
 4288SOL    HW224501   4.135   4.230   9.908  1.2830  0.4501 -2.2365
 4289SOL     OW24502   3.511   0.946   8.816 -0.4897 -0.1793 -0.5805
 4289SOL    HW124503   3.424   0.984   8.805  0.3710  1.5315 -1.5043
 4289SOL    HW224504   3.491   0.858   8.846 -1.0707  0.1683  0.0413
 4290SOL     OW24505   2.186   4.122  14.073 -0.2816 -0.1312  0.4562
 4290SOL    HW124506   2.151   4.127  13.984  1.2463  0.0456 -0.1405
 4290SOL    HW224507   2.197   4.214  14.095 -0.7847  0.4673 -1.7734
 4291SOL     OW24508   1.853   4.018   2.117  0.4402 -0.3150 -0.1974
 4291SOL    HW124509   1.772   4.069   2.113 -0.4810 -1.7787 -0.0338
 4291SOL    HW224510   1.830   3.945   2.175  1.1005 -0.6976 -0.4110
 4292SOL     OW24511   4.439   3.872   2.475  0.2931  0.1611 -0.3487
 4292SOL    HW124512   4.455   3.778   2.483 -0.5670 -0.2641 -3.5846
 4292SOL    HW224513   4.382   3.868   2.398 -0.3104  0.5121  0.0839
 4293SOL     OW24514   1.604   4.537   4.986 -0.5078  0.0962  0.0489
 4293SOL    HW124515   1.675   4.500   4.932  0.1068  0.9449  0.2788
 4293SOL    HW224516   1.553   4.581   4.918  1.0314  1.0015 -0.5400
 4294SOL     OW24517   3.172   0.389   4.211 -0.6598  1.1866  0.0219
 4294SOL    HW124518   3.252   0.374   4.261 -0.3564  0.5651 -0.6466
 4294SOL    HW224519   3.102   0.384   4.275 -0.8994 -0.8215 -0.3836
 4295SOL     OW24520   3.618   3.230   1.088 -0.1087  0.1038 -0.1391
 4295SOL    HW124521   3.661   3.152   1.054  0.1813  1.0698 -2.0081
 4295SOL    HW224522   3.617   3.290   1.014 -2.9181  0.2788  0.0359
 4296SOL     OW24523   1.426   1.697   1.853 -0.2422  0.2992  0.3455
 4296SOL    HW124524   1.353   1.753   1.881 -1.0508 -1.5747  1.9780
 4296SOL    HW224525   1.496   1.747   1.895 -0.7328 -0.5260  2.1203
 4297SOL     OW24526   0.780   4.065   1.994  0.3604  0.0528  0.0041
 4297SOL    HW124527   0.816   3.978   2.012 -0.8377 -0.5050 -0.3015
 4297SOL    HW224528   0.685   4.056   2.005  0.3880 -0.5083 -0.2335
 4298SOL     OW24529   4.180   1.395  15.935  0.1737  0.6296 -0.0641
 4298SOL    HW124530   4.250   1.397  15.869  1.9143  0.3528  1.7762
 4298SOL    HW224531   4.099   1.384  15.885 -1.3274 -0.8747  2.6983
 4299SOL     OW24532   3.591   4.391  15.351 -0.1120  0.1125  0.0910
 4299SOL    HW124533   3.621   4.479  15.331 -1.0980  0.7614  1.5162
 4299SOL    HW224534   3.514   4.401  15.407 -0.4496  0.8696 -0.5164
 4300SOL     OW24535   3.120   1.294   7.406  0.2468  1.0236  0.6567
 4300SOL    HW124536   3.159   1.207   7.415  0.4931  1.1818  1.1180
 4300SOL    HW224537   3.181   1.350   7.359 -0.3806 -0.7329 -2.2705
 4301SOL     OW24538   2.695   0.226  16.715 -0.6213 -0.1775  0.3893
 4301SOL    HW124539   2.731   0.309  16.746  3.1787 -1.7395  0.1006
 4301SOL    HW224540   2.672   0.205  16.806 -0.2870  0.2249  0.5652
 4302SOL     OW24541   1.303   0.002   3.972  0.5199 -0.3673 -0.2158
 4302SOL    HW124542   1.246   4.716   4.046 -0.0153  0.5573 -0.3798
 4302SOL    HW224543   1.240   4.730   3.900  0.7395  2.9794 -0.6648
 4303SOL     OW24544   2.484   2.483   3.576  0.2962  0.2058 -0.5050
 4303SOL    HW124545   2.530   2.554   3.532 -0.6749  1.4811  0.5587
 4303SOL    HW224546   2.393   2.486   3.546  0.0436 -0.3121  0.2275
 4304SOL     OW24547   3.634   2.358  11.334 -0.0414 -0.1517  0.2903
 4304SOL    HW124548   3.693   2.284  11.322 -3.3620 -2.6276 -0.8858
 4304SOL    HW224549   3.642   2.411  11.255  0.1199 -0.0488  0.3751
 4305SOL     OW24550   4.393   3.494   6.286  0.4018 -0.3147 -0.2887
 4305SOL    HW124551   4.479   3.472   6.321  1.2152  3.3452  0.0252
 4305SOL    HW224552   4.419   3.569   6.232 -1.0235  0.5583  0.2398
 4306SOL     OW24553   4.359   0.515  16.393 -0.1568 -0.5893 -0.1476
 4306SOL    HW124554   4.438   0.476  16.354 -0.2104  0.2385 -1.0863
 4306SOL    HW224555   4.295   0.445  16.383  0.2632 -0.8965 -0.6333
 4307SOL     OW24556   3.287   1.197   3.259  0.5122  0.0885 -0.2735
 4307SOL    HW124557   3.302   1.280   3.213  0.3227 -0.1113 -0.6932
 4307SOL    HW224558   3.207   1.227   3.304  0.6656  1.5226 -0.9719
 4308SOL     OW24559   2.279   1.630   5.454  0.0158  0.1390  0.2739
 4308SOL    HW124560   2.366   1.628   5.414  0.4869 -1.8752  1.4129
 4308SOL    HW224561   2.298   1.599   5.542  1.3375  0.9932  0.2981
 4309SOL     OW24562   2.641   1.012  16.757  0.3872 -0.0102 -0.3179
 4309SOL    HW124563   2.611   1.001  16.667  0.2418 -0.6580 -0.1947
 4309SOL    HW224564   2.577   0.962  16.808 -0.5024  0.1142 -1.3321
 4310SOL     OW24565   4.033   4.556  15.938  0.1221 -0.6785  0.5671
 4310SOL    HW124566   3.963   4.560  16.003 -0.8317  0.5796 -0.5471
 4310SOL    HW224567   4.029   4.461  15.924  2.3951 -0.2884 -2.7103
 4311SOL     OW24568   1.723   4.519   9.780  0.4717 -0.5523 -0.1545
 4311SOL    HW124569   1.634   4.544   9.754  0.6442 -0.3814 -0.5829
 4311SOL    HW224570   1.718   4.425   9.763 -0.7464 -0.9928  2.6077
 4312SOL     OW24571   0.541   1.473   9.189  0.2009  0.1871 -0.5142
 4312SOL    HW124572   0.551   1.411   9.117  0.9502 -1.1857  0.7637
 4312SOL    HW224573   0.587   1.422   9.255  1.8303  1.3702 -0.7361
 4313SOL     OW24574   2.841   2.284   2.694 -0.4431  0.0875 -0.7094
 4313SOL    HW124575   2.925   2.284   2.650 -0.4739  4.2677 -0.7261
 4313SOL    HW224576   2.830   2.189   2.689  0.1614  0.1375 -2.8610
 4314SOL     OW24577   2.916   3.697  17.514 -0.0089 -0.3385 -0.0401
 4314SOL    HW124578   2.877   3.784  17.501 -2.5917 -1.4374  0.3302
 4314SOL    HW224579   2.919   3.663  17.425  0.2641 -0.6440  0.0884
 4315SOL     OW24580   2.932   0.899   4.109 -0.4135 -0.3336  0.1618
 4315SOL    HW124581   2.863   0.848   4.152 -0.3374  0.9335  1.7944
 4315SOL    HW224582   3.005   0.871   4.166  0.6555 -1.5140 -1.7819
 4316SOL     OW24583   1.846   4.728   3.991 -0.1933 -0.0541  0.2665
 4316SOL    HW124584   1.894   4.681   3.923 -1.9087 -0.4946 -0.6483
 4316SOL    HW224585   1.767   0.004   3.938 -0.0342 -0.7248 -0.1086
 4317SOL     OW24586   2.362   2.761   2.353  0.0475 -0.4032  0.2322
 4317SOL    HW124587   2.454   2.752   2.328  0.2522 -1.6215  1.4417
 4317SOL    HW224588   2.363   2.843   2.402 -3.9681  0.9567 -1.9426
 4318SOL     OW24589   1.458   3.387  11.603  0.3979  0.2454 -0.2223
 4318SOL    HW124590   1.370   3.426  11.611 -0.1453 -1.3412  1.7764
 4318SOL    HW224591   1.464   3.358  11.695  0.4963  1.7148  0.2286
 4319SOL     OW24592   1.551   3.680   9.424 -0.0274  0.4287 -0.4717
 4319SOL    HW124593   1.534   3.586   9.434  2.5874 -0.1244 -1.1852
 4319SOL    HW224594   1.605   3.694   9.346 -0.0968 -1.8905 -0.9389
 4320SOL     OW24595   4.653   4.004   7.015 -0.1325  0.1601  0.7724
 4320SOL    HW124596   4.636   4.012   7.109  1.2471 -0.1988  1.0460
 4320SOL    HW224597   4.733   4.055   7.011  0.1304 -0.3739 -0.7065
 4321SOL     OW24598   1.239   0.508  14.200 -0.3373  0.0521 -0.6086
 4321SOL    HW124599   1.204   0.472  14.282 -1.2973 -2.2347 -2.0081
 4321SOL    HW224600   1.239   0.436  14.137  0.8984 -1.0698  0.6899
 4322SOL     OW24601   1.708   1.538   3.833  0.3218 -0.5625 -0.4794
 4322SOL    HW124602   1.617   1.560   3.811 -0.1158  0.3892  2.2261
 4322SOL    HW224603   1.765   1.548   3.757  0.6134  1.2669 -0.0190
 4323SOL     OW24604   2.605   1.862   1.971 -0.4066  0.0125 -0.1682
 4323SOL    HW124605   2.555   1.786   2.001  0.7001 -0.5176  0.3271
 4323SOL    HW224606   2.550   1.920   1.918  0.4994  0.1914 -0.9181
 4324SOL     OW24607   3.899   1.189   1.572 -0.2752  0.3184 -0.2815
 4324SOL    HW124608   3.912   1.228   1.658  0.9629 -0.0486 -0.3007
 4324SOL    HW224609   3.975   1.222   1.524 -1.5632  2.4676 -0.8324
 4325SOL     OW24610   0.235   3.005   3.788  0.2952 -1.0098  0.2956
 4325SOL    HW124611   0.259   2.985   3.879  1.1343 -0.2352  0.2492
 4325SOL    HW224612   0.319   3.009   3.742  1.8615  2.0724  3.3959
 4326SOL     OW24613   2.619   3.218   4.691  0.0083  0.0014 -0.3000
 4326SOL    HW124614   2.708   3.206   4.659 -0.9128 -0.0419 -2.8406
 4326SOL    HW224615   2.565   3.154   4.644 -0.0705  1.4054 -2.0849
 4327SOL     OW24616   2.865   3.461   1.598 -0.2597  0.5798  0.6113
 4327SOL    HW124617   2.842   3.521   1.669 -0.1145  2.6562 -1.0832
 4327SOL    HW224618   2.957   3.483   1.584 -0.1625 -0.9889 -1.2560
 4328SOL     OW24619   2.982   2.510   6.691 -0.2378  0.6529  0.6496
 4328SOL    HW124620   2.902   2.460   6.675  0.2360  0.2278 -0.3527
 4328SOL    HW224621   3.048   2.441   6.679  0.0968  1.1928 -0.5547
 4329SOL     OW24622   4.071   3.300   0.210 -0.3115 -0.4733 -0.0614
 4329SOL    HW124623   4.151   3.254   0.233 -0.6405 -0.5792  0.8570
 4329SOL    HW224624   4.002   3.249   0.254 -0.1134 -1.0747 -0.4528
 4330SOL     OW24625   2.729   4.222   4.136 -0.4256  0.0228 -0.1874
 4330SOL    HW124626   2.722   4.127   4.130  0.8563 -0.0498 -0.5715
 4330SOL    HW224627   2.743   4.244   4.043  0.1748  1.1683  0.1789
 4331SOL     OW24628   0.409   0.076   7.899  0.2283 -0.7935  0.0694
 4331SOL    HW124629   0.406   0.084   7.995 -0.7745  2.5940 -0.2654
 4331SOL    HW224630   0.340   0.134   7.868 -0.8958 -1.8978  0.4944
 4332SOL     OW24631   2.802   0.169   2.040 -0.0174 -0.7982  0.4903
 4332SOL    HW124632   2.844   0.255   2.045 -0.8512 -0.4480  1.4476
 4332SOL    HW224633   2.789   0.153   1.946  1.6487 -0.1044  0.1353
 4333SOL     OW24634   3.562   1.793   4.775  0.1530  0.1809  0.7871
 4333SOL    HW124635   3.524   1.880   4.782 -2.7764 -1.3194  3.1277
 4333SOL    HW224636   3.561   1.776   4.681  1.7341 -2.6047  1.2808
 4334SOL     OW24637   1.731   2.401   3.608  0.6027  0.2168  0.2101
 4334SOL    HW124638   1.778   2.467   3.659 -1.7024  0.8608  1.4638
 4334SOL    HW224639   1.683   2.452   3.543  0.9684 -0.9894 -1.0092
 4335SOL     OW24640   0.998   1.635   8.271  0.1192  0.2779  0.1830
 4335SOL    HW124641   0.933   1.627   8.341  1.0479 -0.9170  0.9209
 4335SOL    HW224642   0.945   1.605   8.197 -0.6553  2.6352 -0.1975
 4336SOL     OW24643   3.983   0.667  17.659 -0.6198  0.0876 -0.0260
 4336SOL    HW124644   4.023   0.658  17.573  1.8438  0.0889  1.1053
 4336SOL    HW224645   3.926   0.590  17.664  0.3713 -0.5951  0.9932
 4337SOL     OW24646   2.406   3.295   5.893 -0.0581  0.1973 -0.1415
 4337SOL    HW124647   2.366   3.316   5.977 -0.6757  0.1909 -0.4376
 4337SOL    HW224648   2.398   3.202   5.873 -2.5667  0.1075  1.3417
 4338SOL     OW24649   0.325   2.496  15.192 -0.6713 -0.2266  0.0618
 4338SOL    HW124650   0.400   2.497  15.133  0.3396 -2.3039  1.3028
 4338SOL    HW224651   0.266   2.548  15.137  0.7740  0.5236 -0.7674
 4339SOL     OW24652   3.894   2.201   8.722  0.6299 -0.1618 -0.7783
 4339SOL    HW124653   3.872   2.133   8.658 -0.4550 -0.0759 -0.4829
 4339SOL    HW224654   3.967   2.159   8.769 -0.1851 -0.7957 -0.0792
 4340SOL     OW24655   0.321   3.807  10.584 -0.2057 -0.5987  0.5295
 4340SOL    HW124656   0.410   3.782  10.558  0.0513  0.5238  0.3421
 4340SOL    HW224657   0.264   3.748  10.536  2.1122  0.0069 -2.9729
 4341SOL     OW24658   1.509   0.059   3.094  0.5218 -0.0208 -0.2038
 4341SOL    HW124659   1.560   0.123   3.143 -1.2486  0.6697  0.7479
 4341SOL    HW224660   1.579   0.000   3.066  2.0880  2.8822 -2.4335
 4342SOL     OW24661   2.329   3.518   0.209 -0.0351  0.0568 -0.3687
 4342SOL    HW124662   2.351   3.567   0.288 -1.9825 -0.5792  0.5492
 4342SOL    HW224663   2.257   3.570   0.173 -2.2854 -1.0629  2.5559
 4343SOL     OW24664   2.009   1.585   9.841 -0.4154 -0.4588 -0.0737
 4343SOL    HW124665   2.057   1.524   9.897 -1.1532  2.2523  3.5378
 4343SOL    HW224666   2.041   1.555   9.756 -0.5736 -1.0175  0.0631
 4344SOL     OW24667   2.634   3.039  12.307  0.5639 -0.1952 -0.1299
 4344SOL    HW124668   2.714   2.987  12.307 -0.5810 -1.9772 -0.0359
 4344SOL    HW224669   2.627   3.029  12.212  0.4062  0.3225 -0.1769
 4345SOL     OW24670   0.623   2.081   0.327  0.2944 -0.5627 -0.2517
 4345SOL    HW124671   0.550   2.125   0.283  0.4986  1.8917  1.8674
 4345SOL    HW224672   0.643   2.137   0.401  0.2324  0.4359 -0.9784
 4346SOL     OW24673   0.084   1.993   9.540  0.0598  0.7158  0.8591
 4346SOL    HW124674   0.137   2.044   9.479  0.1413  0.0959  0.4115
 4346SOL    HW224675   0.151   1.982   9.609  0.6071  1.4864  0.4466
 4347SOL     OW24676   2.963   0.601   6.148  0.1065  0.4112 -0.4962
 4347SOL    HW124677   3.040   0.583   6.095  0.8333 -0.5742  0.8895
 4347SOL    HW224678   2.903   0.639   6.084  0.1438  0.3118 -0.5906
 4348SOL     OW24679   1.101   3.544   0.050  0.5324  0.0555 -0.4520
 4348SOL    HW124680   1.146   3.609   0.104 -1.6956 -0.0828  1.5476
 4348SOL    HW224681   1.072   3.486   0.120  0.7682 -0.5076 -0.8233
 4349SOL     OW24682   0.996   1.453   7.134 -0.7517 -0.6879  0.1241
 4349SOL    HW124683   0.999   1.464   7.039  0.2132  0.1540  0.2624
 4349SOL    HW224684   0.947   1.530   7.162  3.6625  1.3441  2.1905
 4350SOL     OW24685   0.390   3.915   7.849 -0.2501  0.2329  0.5544
 4350SOL    HW124686   0.359   3.981   7.788 -0.2585 -1.3562 -1.1638
 4350SOL    HW224687   0.432   3.967   7.918  0.3826  1.8415 -1.0734
 4351SOL     OW24688   3.010   3.251   3.014 -0.2610  0.0808 -0.1844
 4351SOL    HW124689   3.094   3.251   2.967 -1.3780  2.9243 -2.1132
 4351SOL    HW224690   3.034   3.232   3.105  0.0189 -0.0335 -0.2811
 4352SOL     OW24691   3.309   2.355   0.124 -0.4490  0.0854  0.1344
 4352SOL    HW124692   3.369   2.329   0.193 -0.9647  2.1869  1.3848
 4352SOL    HW224693   3.245   2.285   0.133 -0.9695  0.5383 -0.0298
 4353SOL     OW24694   1.482   4.142   6.334 -0.0017 -0.0932 -0.0862
 4353SOL    HW124695   1.570   4.167   6.304  0.4411  1.3366  2.3444
 4353SOL    HW224696   1.423   4.163   6.262 -1.0427 -0.6842  0.5990
 4354SOL     OW24697   0.656   2.280  15.094 -0.1341  0.2188 -0.1494
 4354SOL    HW124698   0.651   2.329  15.176 -1.5102 -0.3631  0.1061
 4354SOL    HW224699   0.745   2.308  15.072 -0.2606  1.6440  1.1458
 4355SOL     OW24700   1.354   0.783   8.266  0.5048  0.3415  0.2191
 4355SOL    HW124701   1.304   0.864   8.267 -1.1129 -0.6469 -1.2438
 4355SOL    HW224702   1.400   0.783   8.182 -1.4914  0.1670 -0.8626
 4356SOL     OW24703   2.638   0.497   1.723  0.0035  0.2029 -0.5160
 4356SOL    HW124704   2.649   0.468   1.632  0.3937 -0.9950 -0.0966
 4356SOL    HW224705   2.543   0.505   1.720 -0.3027 -2.5044  1.3680
 4357SOL     OW24706   1.004   2.698   7.324 -0.1567  0.3645  0.1985
 4357SOL    HW124707   0.964   2.783   7.303 -1.5119 -0.5059 -0.7809
 4357SOL    HW224708   0.933   2.638   7.349  1.2447 -1.3477  0.0270
 4358SOL     OW24709   3.390   1.431   5.922 -0.4762  0.4468 -0.7477
 4358SOL    HW124710   3.317   1.434   5.860 -0.3192  1.7707 -0.8583
 4358SOL    HW224711   3.433   1.514   5.901 -1.0879  0.8610 -0.3371
 4359SOL     OW24712   2.565   3.236   2.190  0.3559 -0.4839 -0.2763
 4359SOL    HW124713   2.575   3.328   2.218 -1.5302 -1.8626  4.9779
 4359SOL    HW224714   2.585   3.196   2.275  1.5641  1.2093  0.2533
 4360SOL     OW24715   3.126   4.632   8.029  0.5398 -0.2518 -0.2181
 4360SOL    HW124716   3.094   4.546   8.056 -0.3852  0.0370 -0.3982
 4360SOL    HW224717   3.096   4.681   8.106  0.6150 -1.3198  0.5008
 4361SOL     OW24718   2.190   1.824   2.057  0.6581 -0.0437 -0.2238
 4361SOL    HW124719   2.191   1.871   1.974 -0.5034  1.1708  0.4488
 4361SOL    HW224720   2.153   1.736   2.042 -2.0798  1.2108 -0.8031
 4362SOL     OW24721   4.135   0.659   0.186 -0.5233  0.2302  0.4296
 4362SOL    HW124722   4.126   0.636   0.094 -2.2160 -0.3117  0.7344
 4362SOL    HW224723   4.097   0.746   0.170 -0.5272  0.2427  0.5083
 4363SOL     OW24724   2.078   3.310  14.119 -0.1638  0.2037  0.5747
 4363SOL    HW124725   2.167   3.314  14.154  0.8143 -2.8394 -1.5320
 4363SOL    HW224726   2.037   3.261  14.190  0.4815 -2.2558 -0.7330
 4364SOL     OW24727   3.042   3.140   5.371  0.4986  0.4452 -0.7087
 4364SOL    HW124728   3.100   3.072   5.338  1.8567  1.0157  0.4640
 4364SOL    HW224729   3.079   3.165   5.456 -0.4249 -1.0231  0.1171
 4365SOL     OW24730   3.520   1.804   9.104  0.1706  0.1156 -0.0986
 4365SOL    HW124731   3.582   1.841   9.041 -0.3394  0.2518 -0.5253
 4365SOL    HW224732   3.584   1.779   9.170 -0.6555  1.6626  1.2867
 4366SOL     OW24733   4.306   4.319  11.430  0.7312  0.1200 -0.2754
 4366SOL    HW124734   4.246   4.360  11.492  1.4778 -0.6851  0.9788
 4366SOL    HW224735   4.251   4.246  11.401  1.7839 -0.5261 -0.6311
 4367SOL     OW24736   1.417   0.036   4.443 -0.3209  0.5285  0.2409
 4367SOL    HW124737   1.456   4.689   4.476 -0.3737  0.1172 -0.6922
 4367SOL    HW224738   1.472   0.053   4.367 -0.2815  0.9175  0.3562
 4368SOL     OW24739   2.923   3.968   2.811  0.4188  0.2641  0.0657
 4368SOL    HW124740   2.998   3.930   2.765 -1.2330 -2.3406 -0.4691
 4368SOL    HW224741   2.869   3.901   2.852  1.4177 -1.3414 -1.2758
 4369SOL     OW24742   2.262   2.342   8.864 -0.2801  0.3432 -0.3315
 4369SOL    HW124743   2.241   2.249   8.873  1.2894  0.0655  0.4905
 4369SOL    HW224744   2.181   2.383   8.834 -1.1723 -2.3848 -1.6284
 4370SOL     OW24745   2.378   4.668   7.041 -0.1359 -0.2800  0.1300
 4370SOL    HW124746   2.404   4.646   6.951 -1.0597 -0.8175 -0.0093
 4370SOL    HW224747   2.317   0.005   7.023  0.8798  0.6543  0.3898
 4371SOL     OW24748   3.012   2.665  16.854  0.1094 -0.7824 -0.3108
 4371SOL    HW124749   2.960   2.735  16.894  0.7288 -0.2284 -0.4855
 4371SOL    HW224750   2.954   2.653  16.778 -1.6124  0.3150  0.8166
 4372SOL     OW24751   1.112   3.710   7.427 -0.1327 -0.1651 -0.5489
 4372SOL    HW124752   1.192   3.725   7.377  0.8992 -0.4864  1.0221
 4372SOL    HW224753   1.047   3.718   7.356  0.0632  1.0501 -0.5919
 4373SOL     OW24754   0.026   3.605   4.917  0.1553 -0.3013 -0.0605
 4373SOL    HW124755   0.026   3.622   4.823 -1.5087  0.5329  0.0998
 4373SOL    HW224756   0.068   3.518   4.918  0.1554 -0.2787  1.6830
 4374SOL     OW24757   3.325   4.625  16.305 -0.2766 -0.0330  0.3161
 4374SOL    HW124758   3.415   4.605  16.333 -0.3731 -1.5065 -0.4323
 4374SOL    HW224759   3.342   4.719  16.291 -2.2281  0.5219  1.7290
 4375SOL     OW24760   4.721   0.138   5.536  0.6801  0.2824 -0.2535
 4375SOL    HW124761   0.039   0.112   5.612 -0.7331 -1.2976  0.1753
 4375SOL    HW224762   0.015   0.075   5.469  1.7065  2.1487 -1.5661
 4376SOL     OW24763   1.145   1.576   3.981  0.1085  0.0011 -0.1458
 4376SOL    HW124764   1.176   1.522   3.909  0.9045 -1.4668  1.2877
 4376SOL    HW224765   1.054   1.548   3.989  0.0922  0.1388  0.1337
 4377SOL     OW24766   0.611   0.121   8.393 -0.2876  0.2251 -0.2346
 4377SOL    HW124767   0.632   0.155   8.480 -0.0972  0.0383 -0.2077
 4377SOL    HW224768   0.548   0.189   8.369 -1.0802 -0.5223 -0.2995
 4378SOL     OW24769   1.771   2.319   6.443  0.5034  0.5205 -0.3732
 4378SOL    HW124770   1.799   2.228   6.451 -2.6291 -0.4159 -0.0323
 4378SOL    HW224771   1.808   2.349   6.526 -0.2933 -0.5057  0.3517
 4379SOL     OW24772   0.823   4.285   2.454 -0.1141  0.7089  0.4250
 4379SOL    HW124773   0.821   4.246   2.367 -1.7098 -1.2335  1.3254
 4379SOL    HW224774   0.757   4.233   2.499  0.1469 -0.0368 -0.0500
 4380SOL     OW24775   4.323   3.417   2.376  0.2661  0.0828 -0.4831
 4380SOL    HW124776   4.365   3.453   2.454  0.8364  1.1332 -1.2698
 4380SOL    HW224777   4.331   3.322   2.387  1.2794  0.4313  1.7568
 4381SOL     OW24778   0.777   1.168   3.988  0.3290  0.2542  0.3118
 4381SOL    HW124779   0.703   1.132   3.939 -0.1104  3.2137 -1.2117
 4381SOL    HW224780   0.777   1.101   4.056  0.1662  1.0478  1.0863
 4382SOL     OW24781   2.981   3.140  15.523 -0.1423 -0.5026 -0.3314
 4382SOL    HW124782   2.995   3.206  15.591  0.9965  0.9119 -1.9245
 4382SOL    HW224783   3.064   3.093  15.532 -0.6023 -1.3685 -0.6493
 4383SOL     OW24784   2.711   0.011   9.869 -0.0619  0.1703 -0.1014
 4383SOL    HW124785   2.732   0.086   9.924 -2.2186  0.9202 -0.2931
 4383SOL    HW224786   2.663   4.691   9.931 -0.0768  1.2051  0.7788
 4384SOL     OW24787   1.243   1.679   3.638 -0.3308  0.0653  0.0249
 4384SOL    HW124788   1.173   1.718   3.690 -0.2392  0.0274  0.1770
 4384SOL    HW224789   1.192   1.637   3.569 -1.8676  1.1398  0.4996
 4385SOL     OW24790   1.175   2.938   6.471  0.1956  0.0842 -0.1108
 4385SOL    HW124791   1.116   2.879   6.424 -0.4236  0.8638 -0.2975
 4385SOL    HW224792   1.104   2.977   6.522  0.3248  1.7675 -1.2148
 4386SOL     OW24793   0.641   2.039  15.429  0.3049 -0.3103 -0.2120
 4386SOL    HW124794   0.630   1.966  15.369 -3.6599  2.3225 -2.6574
 4386SOL    HW224795   0.569   2.099  15.409 -1.7721 -1.6282  3.3584
 4387SOL     OW24796   2.168   3.549  13.350  0.2325 -0.0949  0.0516
 4387SOL    HW124797   2.103   3.615  13.377  0.9905 -0.0124  1.6364
 4387SOL    HW224798   2.152   3.486  13.420  1.1724  1.0766  1.3346
 4388SOL     OW24799   3.910   0.592   2.272 -0.1879  0.4545 -0.1197
 4388SOL    HW124800   3.824   0.576   2.311 -1.1080  2.2832 -1.3825
 4388SOL    HW224801   3.890   0.576   2.180  2.8897  0.7466 -0.8228
 4389SOL     OW24802   2.225   2.720  13.032  0.2937  0.0590 -0.8075
 4389SOL    HW124803   2.244   2.720  12.938  0.1203  0.4161 -0.8414
 4389SOL    HW224804   2.316   2.718  13.061  0.6804 -0.7766 -2.0522
 4390SOL     OW24805   0.135   3.875   1.846  1.2171 -0.2333  0.1005
 4390SOL    HW124806   0.170   3.963   1.834 -0.0439 -0.1152 -2.7135
 4390SOL    HW224807   0.113   3.887   1.938  2.0676  0.8385  0.1722
 4391SOL     OW24808   3.052   4.428   7.426 -0.2217 -0.2136 -0.4406
 4391SOL    HW124809   3.139   4.468   7.439 -0.0554 -1.1106  1.1541
 4391SOL    HW224810   3.000   4.508   7.435 -3.0515 -2.1610  0.3969
 4392SOL     OW24811   0.490   3.591  12.611 -0.1822 -0.5367 -0.6352
 4392SOL    HW124812   0.407   3.600  12.657  0.6907 -1.9531  1.1840
 4392SOL    HW224813   0.539   3.550  12.682 -1.2747  0.4687  0.6866
 4393SOL     OW24814   3.837   0.171  13.481  0.2606 -0.2069  0.3503
 4393SOL    HW124815   3.861   0.089  13.438  1.0243  0.4432 -0.4602
 4393SOL    HW224816   3.914   0.226  13.469  1.6871 -1.7289  2.5135
 4394SOL     OW24817   4.173   0.583  17.433  0.0272 -0.1818 -0.3412
 4394SOL    HW124818   4.241   0.517  17.416  1.7262  1.2221  0.9471
 4394SOL    HW224819   4.150   0.612  17.345  0.0296 -0.4490 -0.4289
 4395SOL     OW24820   1.871   3.494   3.233 -0.1136 -0.0539  0.2870
 4395SOL    HW124821   1.942   3.557   3.243 -0.4216 -0.2261  3.6303
 4395SOL    HW224822   1.887   3.466   3.143  0.5336  1.8422 -0.1845
 4396SOL     OW24823   3.563   0.823   6.290 -0.4270 -0.2308 -0.1013
 4396SOL    HW124824   3.658   0.815   6.280 -0.3658 -0.2629  0.4949
 4396SOL    HW224825   3.526   0.741   6.321 -0.7363  0.2346  0.7473
 4397SOL     OW24826   0.776   1.287   2.660 -0.1853  0.3072  0.2263
 4397SOL    HW124827   0.771   1.198   2.626 -1.7876  1.5683 -2.8021
 4397SOL    HW224828   0.787   1.346   2.586  0.5126 -0.3339 -0.1871
 4398SOL     OW24829   2.046   4.198  16.417 -0.3832 -0.0092  0.0016
 4398SOL    HW124830   1.994   4.243  16.485 -0.2342  0.4442 -0.1859
 4398SOL    HW224831   2.029   4.257  16.343 -0.0748 -0.1397 -0.1680
 4399SOL     OW24832   3.979   0.333   3.331 -0.3720  0.4039 -0.0682
 4399SOL    HW124833   4.063   0.287   3.323 -1.6301 -1.8030 -0.5072
 4399SOL    HW224834   3.917   0.277   3.285  0.9420 -2.1670  1.2441
 4400SOL     OW24835   3.544   2.252   8.625 -0.1158  0.6662  0.0317
 4400SOL    HW124836   3.461   2.255   8.672  0.3213  0.3955  0.8244
 4400SOL    HW224837   3.601   2.290   8.692 -0.5494 -0.4754  1.0511
 4401SOL     OW24838   3.668   3.266   1.740 -0.1672  1.0227 -0.0263
 4401SOL    HW124839   3.731   3.311   1.797 -0.9157  0.8556  0.9230
 4401SOL    HW224840   3.604   3.236   1.804  1.3831 -1.7687  0.2223
 4402SOL     OW24841   1.439   3.491   8.228  0.8528 -0.4116  0.5442
 4402SOL    HW124842   1.428   3.586   8.237  1.2162 -0.1572 -1.7612
 4402SOL    HW224843   1.357   3.469   8.184 -0.5465  0.0106  2.9215
 4403SOL     OW24844   2.867   4.700  16.295 -0.0385 -0.7843 -0.2809
 4403SOL    HW124845   2.867   0.039  16.358  3.7285 -1.3980  0.4307
 4403SOL    HW224846   2.832   0.009  16.217 -1.2729  0.3741  0.9050
 4404SOL     OW24847   0.436   2.165   3.197  0.3505  0.0680 -0.3279
 4404SOL    HW124848   0.389   2.157   3.280 -1.1778  1.5311 -1.0647
 4404SOL    HW224849   0.478   2.250   3.207 -0.0921  0.2773 -0.2792
 4405SOL     OW24850   0.586   2.635   4.051 -0.3991 -0.2322  0.2451
 4405SOL    HW124851   0.526   2.680   3.991  0.1084 -2.0756 -1.6930
 4405SOL    HW224852   0.671   2.657   4.012 -0.5013 -0.2300  0.0182
 4406SOL     OW24853   2.424   4.584   3.702  0.0949 -0.4764 -0.3655
 4406SOL    HW124854   2.347   4.584   3.759 -0.0131 -0.9262 -0.5143
 4406SOL    HW224855   2.468   4.518   3.755 -0.6839  0.2728  1.2364
 4407SOL     OW24856   1.978   1.281   3.162  0.3203  0.3748  0.2619
 4407SOL    HW124857   1.888   1.313   3.167 -0.5212 -2.2108  1.6932
 4407SOL    HW224858   1.964   1.211   3.097  1.9404  0.0857  0.2211
 4408SOL     OW24859   1.607   1.014   9.239 -0.4738 -0.8374 -0.7471
 4408SOL    HW124860   1.533   1.075   9.233 -0.1468 -0.2487  1.2648
 4408SOL    HW224861   1.615   1.031   9.333  1.4364  0.2412 -1.1206
 4409SOL     OW24862   2.439   3.663   3.139  0.1772 -0.1891  0.5019
 4409SOL    HW124863   2.489   3.741   3.166 -0.3866 -0.1504  1.4070
 4409SOL    HW224864   2.499   3.625   3.074 -0.0071 -0.5230  0.5322
 4410SOL     OW24865   2.142   4.646  12.803  0.3029  0.0881 -0.1553
 4410SOL    HW124866   2.232   4.670  12.781 -0.9792  1.0726 -4.4622
 4410SOL    HW224867   2.115   4.580  12.738  1.0927 -0.7348  0.3463
 4411SOL     OW24868   1.687   1.079  17.390  0.2647 -0.2251 -0.4884
 4411SOL    HW124869   1.770   1.102  17.348  0.0951  1.1250 -0.0798
 4411SOL    HW224870   1.695   1.008  17.454  0.6341  0.8472  0.6461
 4412SOL     OW24871   3.554   1.881  15.545 -0.1510  0.4221  0.0125
 4412SOL    HW124872   3.477   1.864  15.492  0.6100 -0.4751 -0.8126
 4412SOL    HW224873   3.566   1.794  15.583 -0.3110  0.8608  1.0686
 4413SOL     OW24874   0.692   1.333   9.602  0.0153  0.1430 -0.0864
 4413SOL    HW124875   0.759   1.265   9.604 -0.1248  0.0001 -0.2849
 4413SOL    HW224876   0.631   1.307   9.671 -0.4688 -2.1403 -1.3616
 4414SOL     OW24877   1.454   4.095  16.083 -0.1341 -0.0630  0.5418
 4414SOL    HW124878   1.515   4.121  16.013  1.7988 -1.1869  1.8191
 4414SOL    HW224879   1.445   4.181  16.124 -4.4016 -0.6901  0.9008
 4415SOL     OW24880   0.266   2.127   3.396  0.1031 -0.0282 -0.0901
 4415SOL    HW124881   0.191   2.087   3.353  1.3425 -0.4046 -1.9175
 4415SOL    HW224882   0.222   2.162   3.474 -1.5012 -0.6329 -0.7261
 4416SOL     OW24883   3.016   2.779  11.094  0.1561 -0.0376 -0.2559
 4416SOL    HW124884   3.089   2.829  11.130  0.0412  0.6842 -1.0399
 4416SOL    HW224885   3.053   2.691  11.095  2.2672  0.8353 -1.5945
 4417SOL     OW24886   2.221   4.074  15.569  0.3364  0.3063 -0.1738
 4417SOL    HW124887   2.229   4.015  15.494 -0.8128 -0.3248  0.2119
 4417SOL    HW224888   2.161   4.018  15.618  0.1860  0.4138 -0.2357
 4418SOL     OW24889   3.148   2.836   9.695  0.8971 -0.5222 -0.7857
 4418SOL    HW124890   3.079   2.899   9.672 -0.8671 -1.8286  0.9806
 4418SOL    HW224891   3.117   2.816   9.783  0.5272  1.3980 -0.4662
 4419SOL     OW24892   2.985   3.662   8.700  0.1494  0.9185 -0.5429
 4419SOL    HW124893   2.940   3.589   8.742 -0.4296  2.2479  1.1971
 4419SOL    HW224894   2.927   3.728   8.739 -0.4709 -0.1966  0.4207
 4420SOL     OW24895   2.289   0.788   8.789  0.1519  0.1423 -0.4428
 4420SOL    HW124896   2.270   0.881   8.782  0.3225  0.1789 -0.4226
 4420SOL    HW224897   2.229   0.773   8.863  0.1314  1.4684 -0.1937
 4421SOL     OW24898   3.318   4.628   2.820  0.3438  0.0473 -0.2116
 4421SOL    HW124899   3.270   4.658   2.743 -1.9845 -1.3392  0.7202
 4421SOL    HW224900   3.260   4.557   2.846 -0.3031  1.8475  3.2875
 4422SOL     OW24901   2.139   4.296   7.385 -0.7261 -0.5117  0.0006
 4422SOL    HW124902   2.180   4.366   7.334 -0.6440 -1.2943 -0.9958
 4422SOL    HW224903   2.133   4.224   7.322 -1.4808 -1.3764  1.0540
 4423SOL     OW24904   1.977   0.747   8.306  0.4048 -0.4046  0.3295
 4423SOL    HW124905   2.030   0.684   8.355  2.3370 -0.1627 -1.4423
 4423SOL    HW224906   1.897   0.738   8.357  0.6599  0.7117  0.9357
 4424SOL     OW24907   0.725   3.482   7.411 -0.0534  0.1170 -0.2946
 4424SOL    HW124908   0.631   3.497   7.398 -0.5773 -2.1144  0.8211
 4424SOL    HW224909   0.760   3.554   7.463  1.8759 -2.6357  2.2155
 4425SOL     OW24910   0.572   1.514  13.923  0.8693  0.3310  0.7155
 4425SOL    HW124911   0.605   1.440  13.873 -1.7127  0.6233 -1.4209
 4425SOL    HW224912   0.516   1.553  13.856 -0.1164 -0.7614  0.8988
 4426SOL     OW24913   4.282   0.221   4.048  0.0616  0.4036  0.1095
 4426SOL    HW124914   4.200   0.266   4.067  1.0566  3.6925 -3.4464
 4426SOL    HW224915   4.296   0.228   3.953 -1.1710  0.1706 -0.0886
 4427SOL     OW24916   4.392   4.400  14.593 -0.3287  0.4855 -0.1291
 4427SOL    HW124917   4.305   4.424  14.561 -0.8372 -0.2708  0.6719
 4427SOL    HW224918   4.440   4.375  14.514  2.2564  1.4572  1.1045
 4428SOL     OW24919   4.298   2.099   5.868  0.5026 -0.3556 -0.0583
 4428SOL    HW124920   4.360   2.035   5.903  0.6017 -0.3687 -0.2587
 4428SOL    HW224921   4.248   2.056   5.799  1.2549 -0.8109 -0.3126
 4429SOL     OW24922   0.543   1.846   6.357  0.2553 -0.5666  0.1449
 4429SOL    HW124923   0.476   1.908   6.328  0.4439 -0.0945  0.7251
 4429SOL    HW224924   0.581   1.809   6.277  0.5973  0.0250  0.0368
 4430SOL     OW24925   2.026   2.954   4.591  0.4420 -0.0736  0.8003
 4430SOL    HW124926   2.112   2.989   4.613  0.5444 -0.4571  1.0174
 4430SOL    HW224927   1.973   2.997   4.659 -1.3966  0.3282 -0.8960
 4431SOL     OW24928   0.108   2.990   2.501  0.1224  0.2568 -0.1333
 4431SOL    HW124929   0.125   2.941   2.581  2.4398 -1.9665 -2.0113
 4431SOL    HW224930   0.168   2.945   2.442  2.4015  2.2520  0.6375
 4432SOL     OW24931   1.606   3.111  12.501  0.0354  0.7012 -0.1834
 4432SOL    HW124932   1.670   3.120  12.430 -0.7955 -2.1540 -1.3123
 4432SOL    HW224933   1.623   3.022  12.533 -2.7319  0.2999  0.2136
 4433SOL     OW24934   1.142   2.248  11.122 -0.1333  0.5373 -0.0836
 4433SOL    HW124935   1.190   2.331  11.123  2.3714 -0.9012 -1.3588
 4433SOL    HW224936   1.054   2.276  11.098 -0.4147 -0.4282 -0.1921
 4434SOL     OW24937   2.294   0.763   1.992  0.1044  0.6992  0.3408
 4434SOL    HW124938   2.316   0.706   2.066 -1.4283  2.6449  2.3415
 4434SOL    HW224939   2.386   0.778   1.969  0.4185  1.5765  2.1345
 4435SOL     OW24940   2.501   4.337   9.526  0.1016  0.3851  0.2463
 4435SOL    HW124941   2.587   4.376   9.513  0.5939 -1.6659 -2.5985
 4435SOL    HW224942   2.440   4.396   9.481 -3.3659 -2.7167  0.8602
 4436SOL     OW24943   4.566   1.731   0.865  0.0634  0.3722 -0.2662
 4436SOL    HW124944   4.627   1.781   0.811  0.4781  0.7157  0.5024
 4436SOL    HW224945   4.622   1.655   0.879  0.1706  0.2546 -1.4043
 4437SOL     OW24946   2.946   0.996  16.788 -0.2497  0.1264 -0.0597
 4437SOL    HW124947   2.852   1.007  16.781 -0.4051 -0.3382  1.2749
 4437SOL    HW224948   2.982   1.063  16.730  1.0086 -1.2445 -0.8784
 4438SOL     OW24949   2.478   0.973   7.919  0.2140 -0.5190 -0.5420
 4438SOL    HW124950   2.450   1.062   7.942  1.6269  0.0732 -1.0852
 4438SOL    HW224951   2.441   0.941   7.837  1.4361 -0.5179 -1.0966
 4439SOL     OW24952   1.084   0.184  15.115 -0.3259  0.3302 -0.8359
 4439SOL    HW124953   1.018   0.145  15.173  1.3195  2.0808  2.2509
 4439SOL    HW224954   1.027   0.221  15.048 -0.8023  0.9375 -0.0954
 4440SOL     OW24955   1.190   0.109   9.312  0.0289  0.2633 -0.4767
 4440SOL    HW124956   1.277   0.137   9.340 -0.3663 -1.3989  2.4162
 4440SOL    HW224957   1.151   0.188   9.275  0.9490  0.4437 -1.0483
 4441SOL     OW24958   0.380   0.618   4.408 -0.2354 -0.4830 -0.0713
 4441SOL    HW124959   0.424   0.700   4.391 -1.6679  0.4368  0.6127
 4441SOL    HW224960   0.288   0.640   4.428 -0.0474  0.7910 -0.6387
 4442SOL     OW24961   4.072   2.819   8.410 -0.0525 -0.0912  0.2715
 4442SOL    HW124962   4.033   2.750   8.355 -0.8043  0.6136 -0.0760
 4442SOL    HW224963   3.995   2.862   8.447  1.0568  1.4086  0.8095
 4443SOL     OW24964   3.947   1.125  17.071 -0.2199 -0.9983 -0.3329
 4443SOL    HW124965   3.928   1.200  17.013 -2.1535 -0.0246  1.5838
 4443SOL    HW224966   4.042   1.121  17.064 -0.0067  2.5395  0.5734
 4444SOL     OW24967   4.663   0.676   6.372  0.1819 -0.1390 -0.2432
 4444SOL    HW124968   0.001   0.614   6.382 -0.9207 -1.6806 -1.8919
 4444SOL    HW224969   4.622   0.640   6.294  0.1796 -0.2432 -0.1935
 4445SOL     OW24970   1.548   3.270  10.159 -0.0514 -0.4788  0.2619
 4445SOL    HW124971   1.611   3.323  10.209  1.2646  1.4613 -3.4474
 4445SOL    HW224972   1.565   3.187  10.205 -0.2406 -0.3102  0.6386
 4446SOL     OW24973   1.945   0.068  17.659 -0.2291  0.1981 -0.2441
 4446SOL    HW124974   2.030   0.110  17.671 -1.4945  2.1771  1.9722
 4446SOL    HW224975   1.947   0.023   0.009 -1.6896  1.3375  0.4140
 4447SOL     OW24976   1.238   0.463   7.517  0.0725 -0.0753  0.0693
 4447SOL    HW124977   1.277   0.531   7.463  0.6072 -0.8356 -0.5040
 4447SOL    HW224978   1.301   0.395   7.493  0.6718  1.6189 -3.0943
 4448SOL     OW24979   2.075   3.018   4.125  0.2765  0.5477  0.5263
 4448SOL    HW124980   2.012   2.951   4.153  1.6997 -0.7913  0.5688
 4448SOL    HW224981   2.080   3.071   4.204  1.3320  1.0661  0.1119
 4449SOL     OW24982   1.031   4.450  10.822 -0.0245  0.0252  0.5119
 4449SOL    HW124983   0.975   4.418  10.893 -0.3473  1.0966  0.7439
 4449SOL    HW224984   1.111   4.400  10.840  0.0403  0.0559  0.3077
 4450SOL     OW24985   3.769   2.569   3.916  0.2447  0.3367 -0.0743
 4450SOL    HW124986   3.813   2.551   3.999  2.3073  0.9649 -1.0447
 4450SOL    HW224987   3.795   2.661   3.913  0.8607  0.1678  0.0803
 4451SOL     OW24988   1.517   0.306  12.662  0.0065 -0.2852  0.0951
 4451SOL    HW124989   1.606   0.336  12.682  0.0321 -0.2975 -0.0033
 4451SOL    HW224990   1.521   0.302  12.567  1.7545 -1.5736  0.2232
 4452SOL     OW24991   1.366   1.712   6.522  0.0447 -0.5370  0.7700
 4452SOL    HW124992   1.454   1.722   6.557  0.7587  0.7819 -1.4149
 4452SOL    HW224993   1.389   1.684   6.434 -3.1753 -0.4809 -0.0778
 4453SOL     OW24994   4.561   0.078   6.971  0.5898 -0.2162  0.3295
 4453SOL    HW124995   4.498   0.072   7.042  0.4655  1.0954  0.3194
 4453SOL    HW224996   4.613   0.146   7.012 -0.2336  1.6434 -1.7224
 4454SOL     OW24997   1.963   3.676   2.308  0.7950 -0.1396  0.0122
 4454SOL    HW124998   1.915   3.616   2.364 -1.2236  1.0355 -0.4519
 4454SOL    HW224999   1.909   3.753   2.327 -0.9129 -1.8753  2.1025
 4455SOL     OW25000   4.405   4.715   9.361  0.3760 -0.1077 -0.4459
 4455SOL    HW125001   4.394   0.076   9.357 -0.7240 -0.1910  0.6642
 4455SOL    HW225002   4.422   4.697   9.453  3.1004  1.0725 -0.7372
 4456SOL     OW25003   2.929   2.976  12.292  0.6966  0.6845 -0.1873
 4456SOL    HW125004   2.997   2.962  12.358  0.9484 -3.0829 -1.2430
 4456SOL    HW225005   2.902   2.886  12.275 -1.8643  0.9204  2.5891
 4457SOL     OW25006   2.300   0.036   6.157 -0.0474 -0.0620 -0.2189
 4457SOL    HW125007   2.323   0.002   6.071  0.2158 -0.5267  0.0315
 4457SOL    HW225008   2.210   0.003   6.159  0.4384 -1.5449 -2.6005
 4458SOL     OW25009   2.420   2.425   4.864 -0.0958  0.2870 -0.0433
 4458SOL    HW125010   2.376   2.510   4.869  0.8984  0.5742  3.4986
 4458SOL    HW225011   2.355   2.364   4.898  1.1019 -1.6634 -1.2912
 4459SOL     OW25012   4.620   3.307  11.611  0.4666 -0.1634 -0.1024
 4459SOL    HW125013   4.660   3.364  11.546  0.9992  0.4410  0.7590
 4459SOL    HW225014   4.695   3.259  11.645  1.8057  1.0568 -1.3515
 4460SOL     OW25015   3.534   0.272  16.862 -0.3872  0.2604  0.0941
 4460SOL    HW125016   3.594   0.347  16.855 -0.3563  0.2686  0.4443
 4460SOL    HW225017   3.507   0.276  16.770  1.8836 -0.9080 -0.6137
 4461SOL     OW25018   3.680   0.314   2.129  0.1450 -0.3054  0.7574
 4461SOL    HW125019   3.610   0.379   2.126 -0.4468 -1.0339 -0.8583
 4461SOL    HW225020   3.666   0.281   2.041 -1.8808  0.8216  0.6532
 4462SOL     OW25021   0.066   2.039   7.467 -0.1997 -0.0207  0.3990
 4462SOL    HW125022   0.012   2.091   7.527 -0.7604  3.1253 -2.7960
 4462SOL    HW225023   0.089   2.105   7.401  0.8646  0.4212  1.1984
 4463SOL     OW25024   4.056   1.912   0.943  0.1145 -0.1929 -0.1038
 4463SOL    HW125025   3.995   1.853   0.988  0.1453  1.4082  2.0866
 4463SOL    HW225026   4.144   1.884   0.968  0.1957 -0.5029 -0.7603
 4464SOL     OW25027   2.267   4.276  14.808 -0.8031  0.2427  0.2284
 4464SOL    HW125028   2.177   4.291  14.836 -0.5582  1.6663  0.2658
 4464SOL    HW225029   2.272   4.353  14.751 -3.1695  0.6277  0.5449
 4465SOL     OW25030   1.809   3.507   3.997 -0.4052  0.2117 -0.1208
 4465SOL    HW125031   1.746   3.579   3.988 -0.7573 -0.2568 -1.5114
 4465SOL    HW225032   1.765   3.435   3.952  2.2369 -2.0451  0.9110
 4466SOL     OW25033   2.355   3.078   4.317 -0.0636  0.5663  0.4763
 4466SOL    HW125034   2.394   3.017   4.255 -0.5606 -0.0989  0.8141
 4466SOL    HW225035   2.264   3.049   4.332 -0.1024 -0.0624 -1.0002
 4467SOL     OW25036   2.024   4.569   1.559 -0.2447 -0.1417  0.3800
 4467SOL    HW125037   1.994   4.544   1.472  4.1590 -0.3900 -1.0891
 4467SOL    HW225038   2.091   4.637   1.548  0.6608 -1.3386 -1.4540
 4468SOL     OW25039   3.530   3.706  10.342 -0.5945  0.5358  0.4525
 4468SOL    HW125040   3.481   3.767  10.398  0.0610  1.9426 -0.5098
 4468SOL    HW225041   3.611   3.757  10.329 -0.6342  0.5217  0.1571
 4469SOL     OW25042   3.803   2.413   0.789 -0.3609  0.4059 -0.1498
 4469SOL    HW125043   3.848   2.333   0.819 -1.1257  0.2559  0.5984
 4469SOL    HW225044   3.738   2.362   0.741  0.8064 -0.4090 -0.8874
 4470SOL     OW25045   0.756   0.816  15.386 -0.4991 -0.2831  0.3085
 4470SOL    HW125046   0.783   0.851  15.302  1.4494 -0.2734  0.9271
 4470SOL    HW225047   0.810   0.737  15.386  1.7799  1.2724  1.7946
 4471SOL     OW25048   0.763   4.276   4.153 -0.7521  0.8081 -0.2165
 4471SOL    HW125049   0.854   4.271   4.125 -0.8733  2.4001 -0.8801
 4471SOL    HW225050   0.747   4.186   4.180  2.1971  0.8812  1.7805
 4472SOL     OW25051   3.608   1.270   5.979 -0.4030  0.6035 -0.1585
 4472SOL    HW125052   3.609   1.337   5.911 -1.2150  2.3047  1.5196
 4472SOL    HW225053   3.518   1.286   6.006 -0.5498  0.6147 -0.6459
 4473SOL     OW25054   4.350   2.333   4.188 -0.7116 -0.0404 -0.6560
 4473SOL    HW125055   4.396   2.323   4.104  0.7988 -1.3519  0.3271
 4473SOL    HW225056   4.306   2.249   4.198 -0.4398 -0.0602  0.3151
 4474SOL     OW25057   2.463   0.144  13.734  0.1874  0.6346 -0.1908
 4474SOL    HW125058   2.382   0.144  13.684 -0.0166  0.5416  0.1422
 4474SOL    HW225059   2.438   0.120  13.824 -0.3128  0.1614 -0.4613
 4475SOL     OW25060   2.644   4.406   6.681 -0.1835 -0.3552 -0.6006
 4475SOL    HW125061   2.735   4.408   6.650 -0.3080  3.0360 -0.7955
 4475SOL    HW225062   2.608   4.477   6.628 -0.6748  1.1424  1.7428
 4476SOL     OW25063   1.487   1.360   7.900  0.1326 -0.2497 -0.4400
 4476SOL    HW125064   1.430   1.437   7.899  2.8782  1.8089  1.4422
 4476SOL    HW225065   1.422   1.290   7.901 -4.0667  3.6426  1.1395
 4477SOL     OW25066   1.947   4.029  13.259  0.4557 -0.4358 -0.0790
 4477SOL    HW125067   1.893   3.956  13.290  0.1359 -0.6282 -1.0820
 4477SOL    HW225068   1.903   4.100  13.305  0.6924 -0.6500  0.4772
 4478SOL     OW25069   2.971   0.073   3.155 -1.0822 -0.1593  0.2376
 4478SOL    HW125070   2.948   0.068   3.248  2.1816 -0.8109  1.0221
 4478SOL    HW225071   3.066   0.075   3.167 -1.3619  0.3279  2.3895
 4479SOL     OW25072   3.878   4.010  15.709 -0.1093 -0.1978 -0.3297
 4479SOL    HW125073   3.958   3.961  15.693  0.2604  0.3362 -0.1233
 4479SOL    HW225074   3.886   4.042  15.799 -1.8255  3.1238 -1.3318
 4480SOL     OW25075   4.346   0.258   9.366  0.0636 -0.4838  0.0838
 4480SOL    HW125076   4.397   0.331   9.331  0.9817 -0.4036  1.6013
 4480SOL    HW225077   4.253   0.280   9.366  0.5046  1.3136  2.2892
 4481SOL     OW25078   0.282   3.807   3.336 -0.1532 -0.1708 -0.0444
 4481SOL    HW125079   0.202   3.756   3.321 -0.2410 -0.0953  0.1737
 4481SOL    HW225080   0.335   3.728   3.342 -0.0239 -0.3494 -3.4867
 4482SOL     OW25081   4.115   2.227   5.556 -0.4742 -0.0771 -0.5086
 4482SOL    HW125082   4.174   2.275   5.498  2.9122 -3.2084  0.3775
 4482SOL    HW225083   4.131   2.286   5.630 -0.5660 -0.2516 -0.3512
 4483SOL     OW25084   4.423   0.798   2.449 -0.1270 -0.1098 -0.1361
 4483SOL    HW125085   4.492   0.863   2.463 -0.4942  0.4394 -0.9163
 4483SOL    HW225086   4.475   0.718   2.440 -0.2338 -0.2218  0.2379
 4484SOL     OW25087   2.258   1.797   7.903  0.2691  0.5505  0.1682
 4484SOL    HW125088   2.299   1.737   7.964 -1.7292 -1.9421 -0.9168
 4484SOL    HW225089   2.282   1.751   7.822  1.7843  1.0271  0.3490
 4485SOL     OW25090   3.193   3.900  16.769  0.5441  0.3914  0.4124
 4485SOL    HW125091   3.153   3.987  16.761 -1.8535 -0.6095  1.4225
 4485SOL    HW225092   3.257   3.924  16.835  1.2685 -0.7848  0.1262
 4486SOL     OW25093   1.311   1.360   8.666 -0.2480 -0.2196  0.0702
 4486SOL    HW125094   1.268   1.396   8.588 -1.5910  0.8724  1.3318
 4486SOL    HW225095   1.391   1.327   8.626 -0.2060  0.4799 -0.4239
 4487SOL     OW25096   2.853   3.118   2.100  0.6803 -0.0862  0.2621
 4487SOL    HW125097   2.784   3.164   2.148  0.7004 -0.7852  0.9715
 4487SOL    HW225098   2.878   3.184   2.035  0.1360  0.5953  0.7366
 4488SOL     OW25099   0.001   2.673   1.971 -0.0887  0.4159 -0.3650
 4488SOL    HW125100   4.716   2.739   2.039 -0.5709 -0.0002 -0.0953
 4488SOL    HW225101   0.095   2.667   1.989 -0.0843  3.2328  0.5467
 4489SOL     OW25102   4.335   4.412   6.321  0.4797  0.1393  0.3594
 4489SOL    HW125103   4.329   4.325   6.282  1.5035 -1.5087  3.9065
 4489SOL    HW225104   4.385   4.394   6.401  1.0922 -1.5141 -0.3818
 4490SOL     OW25105   0.532   0.857   8.577 -0.4273 -0.0216  0.0718
 4490SOL    HW125106   0.619   0.897   8.575 -1.0888  1.5716  4.2066
 4490SOL    HW225107   0.567   0.770   8.556  0.0919  0.2053  0.0054
 4491SOL     OW25108   3.381   2.663  13.254  0.0519  0.2601 -0.1375
 4491SOL    HW125109   3.391   2.617  13.172 -1.4412  1.2892 -0.9025
 4491SOL    HW225110   3.334   2.600  13.309 -1.0328  0.6135 -0.6709
 4492SOL     OW25111   2.096   1.295   2.717  0.1355  0.2700  0.2106
 4492SOL    HW125112   2.190   1.306   2.726  0.2969  0.4229 -1.6243
 4492SOL    HW225113   2.089   1.283   2.622 -1.9273  2.2399  0.1173
 4493SOL     OW25114   3.320   2.253   3.319  0.2298 -0.2585  0.0373
 4493SOL    HW125115   3.319   2.158   3.310 -1.0127 -0.2131 -0.3388
 4493SOL    HW225116   3.412   2.261   3.343  0.5021 -0.4453 -0.9508
 4494SOL     OW25117   2.066   3.842   4.816  0.3818 -0.0649  0.2204
 4494SOL    HW125118   2.024   3.908   4.870  1.8041  1.0177 -0.0002
 4494SOL    HW225119   2.143   3.888   4.782 -0.1145 -0.0522 -0.8734
 4495SOL     OW25120   1.294   2.112   2.361  0.2008  0.1063  0.0898
 4495SOL    HW125121   1.240   2.165   2.304  0.9278  0.5672 -0.1673
 4495SOL    HW225122   1.365   2.172   2.384  1.7751 -2.2218  1.3651
 4496SOL     OW25123   3.926   1.611   9.514  0.9991 -0.1380 -0.1816
 4496SOL    HW125124   4.018   1.601   9.490  1.3972  1.8153  0.5158
 4496SOL    HW225125   3.926   1.694   9.563 -2.0954  1.2113 -2.4783
 4497SOL     OW25126   2.113   0.393  13.471 -0.0676 -0.0501 -0.0812
 4497SOL    HW125127   2.157   0.477  13.484  0.2363 -0.6264  2.5412
 4497SOL    HW225128   2.061   0.391  13.552 -2.6772  0.8018 -1.7168
 4498SOL     OW25129   2.903   0.175  10.700  0.1077 -0.1180 -0.3971
 4498SOL    HW125130   2.832   0.181  10.636  0.1721 -2.5753 -0.6971
 4498SOL    HW225131   2.905   0.255  10.753  1.0780 -0.0960 -0.4699
 4499SOL     OW25132   4.182   1.450   4.329 -0.2198  0.8259 -0.5459
 4499SOL    HW125133   4.118   1.511   4.366 -1.6390  0.8391 -3.0119
 4499SOL    HW225134   4.263   1.476   4.372  0.6766 -0.7234 -1.3221
 4500SOL     OW25135   4.550   0.041  12.359  0.2204  0.0034  0.1155
 4500SOL    HW125136   4.512   4.723  12.288  0.2696 -1.9509  1.5046
 4500SOL    HW225137   4.623   0.085  12.316  0.7374  0.6676  1.6929
 4501SOL     OW25138   4.135   0.690   5.118  0.7872  0.3452 -0.2561
 4501SOL    HW125139   4.137   0.611   5.172 -1.9244  1.4128  1.4411
 4501SOL    HW225140   4.183   0.658   5.041 -0.9923 -2.2098 -0.2933
 4502SOL     OW25141   2.585   2.463   8.464  0.8028 -0.3156  0.3763
 4502SOL    HW125142   2.574   2.558   8.463 -1.0236 -0.5274  0.5359
 4502SOL    HW225143   2.565   2.438   8.374  0.0752 -1.5254  0.8579
 4503SOL     OW25144   3.363   2.301   8.147  0.1262  0.2478 -0.3049
 4503SOL    HW125145   3.388   2.309   8.239 -0.4108 -0.0588 -0.1279
 4503SOL    HW225146   3.303   2.376   8.140 -1.6496 -0.9295  2.1634
 4504SOL     OW25147   0.575   1.998   2.288 -0.1182 -0.5354  0.4487
 4504SOL    HW125148   0.577   1.961   2.200 -1.6845  0.0347  0.1808
 4504SOL    HW225149   0.655   2.051   2.297  0.0699 -0.7096 -0.1713
 4505SOL     OW25150   1.074   4.471  11.249 -0.1534 -0.0033 -0.2356
 4505SOL    HW125151   1.151   4.436  11.204  0.1530 -0.4970  0.6524
 4505SOL    HW225152   1.110   4.512  11.327  0.5981  0.3568 -0.7770
 4506SOL     OW25153   2.574   2.161  10.819  0.2761  0.0986  0.2644
 4506SOL    HW125154   2.482   2.168  10.844 -0.3703 -2.2363 -1.5059
 4506SOL    HW225155   2.576   2.143  10.725  1.6483 -0.1695  0.3445
 4507SOL     OW25156   1.777   3.869   3.465 -0.3547  0.2942 -0.0564
 4507SOL    HW125157   1.728   3.920   3.401 -2.1971 -0.0669  1.0455
 4507SOL    HW225158   1.721   3.798   3.497  0.6660 -0.5660 -0.1813
 4508SOL     OW25159   2.951   2.791   3.667  0.3508  0.1579  0.1617
 4508SOL    HW125160   2.987   2.703   3.668  0.6444  0.2985  4.1966
 4508SOL    HW225161   2.887   2.802   3.739 -0.0420 -1.6746  0.0778
 4509SOL     OW25162   1.767   4.506  14.973  0.1156  0.0163  0.0959
 4509SOL    HW125163   1.735   4.419  14.952  1.2282  0.2500 -2.4911
 4509SOL    HW225164   1.744   4.508  15.066 -0.4631 -0.2961 -0.0424
 4510SOL     OW25165   4.550   0.606   2.730 -0.2314  0.2519  0.3822
 4510SOL    HW125166   4.565   0.695   2.698 -1.6610  0.3376 -0.0234
 4510SOL    HW225167   4.627   0.594   2.787  0.3400 -0.9090 -0.6436
 4511SOL     OW25168   3.878   1.627  10.803  0.1330 -0.2168 -0.4270
 4511SOL    HW125169   3.836   1.566  10.742  1.4981 -0.9497 -0.6445
 4511SOL    HW225170   3.812   1.690  10.830  1.3298  0.7423  0.2690
 4512SOL     OW25171   4.610   0.588   2.325 -0.3445  0.1295 -0.3707
 4512SOL    HW125172   4.701   0.607   2.348 -0.3600 -0.7415  0.4362
 4512SOL    HW225173   4.606   0.637   2.243  2.7392  0.4840 -0.3322
 4513SOL     OW25174   2.652   1.735  15.845 -0.3550 -0.1748  0.1087
 4513SOL    HW125175   2.719   1.667  15.851 -1.6530 -1.4389  0.2487
 4513SOL    HW225176   2.617   1.710  15.759  2.0921 -2.7287 -0.1420
 4514SOL     OW25177   1.247   0.802   0.474  0.3099 -0.0012 -0.6203
 4514SOL    HW125178   1.199   0.885   0.464  0.4918  0.2013  0.1498
 4514SOL    HW225179   1.194   0.744   0.529  0.5183  0.7280  0.3651
 4515SOL     OW25180   2.580   2.247   5.553  0.1840 -0.4547  0.1293
 4515SOL    HW125181   2.523   2.226   5.479  0.0849  0.3500 -0.0185
 4515SOL    HW225182   2.528   2.248   5.633 -1.6836 -1.2960 -1.0623
 4516SOL     OW25183   0.368   2.137   9.000 -0.4103  0.0477  0.2549
 4516SOL    HW125184   0.294   2.168   8.949 -0.8104  0.2882  0.9799
 4516SOL    HW225185   0.344   2.063   9.057  0.1935  1.5794  2.4696
 4517SOL     OW25186   3.905   2.794   7.573  0.6515  0.1573 -0.1361
 4517SOL    HW125187   3.894   2.700   7.555 -0.3681  0.2068  0.2394
 4517SOL    HW225188   3.950   2.800   7.658 -3.2429 -2.0530  2.0758
 4518SOL     OW25189   0.512   0.231   5.966  0.0339 -0.6064  0.2511
 4518SOL    HW125190   0.475   0.274   5.889  1.0919  0.5667  0.3992
 4518SOL    HW225191   0.466   0.147   5.959 -1.2078  0.0761  0.0976
 4519SOL     OW25192   3.003   1.588   0.426  0.4247  0.1169 -0.1370
 4519SOL    HW125193   3.043   1.539   0.498  2.4852  2.5093  0.3228
 4519SOL    HW225194   2.913   1.556   0.415  0.8347 -0.8184 -0.7818
 4520SOL     OW25195   0.510   1.436   4.869 -0.3558 -0.0559 -0.7116
 4520SOL    HW125196   0.597   1.438   4.831 -1.2627 -1.3989 -2.8412
 4520SOL    HW225197   0.472   1.522   4.851 -1.5732 -0.2528  0.8272
 4521SOL     OW25198   2.062   4.040   6.478 -0.0129 -0.1554  0.5371
 4521SOL    HW125199   2.112   3.997   6.409 -1.0431 -0.7678  0.1714
 4521SOL    HW225200   1.978   4.001   6.453 -0.4924  1.4337 -0.3735
 4522SOL     OW25201   0.079   4.502   6.025 -0.5049  0.3250 -0.2074
 4522SOL    HW125202   0.070   4.447   5.947 -1.6044  0.8493 -0.4508
 4522SOL    HW225203   0.013   4.460   6.079  1.7852 -2.7294  0.2387
 4523SOL     OW25204   2.383   2.567   8.970 -0.4519 -0.0979  0.2618
 4523SOL    HW125205   2.467   2.560   9.016  0.7178  2.9485 -1.3813
 4523SOL    HW225206   2.361   2.479   8.940  1.8917 -0.5705 -0.1162
 4524SOL     OW25207   3.398   0.224   7.395 -0.2878 -0.4458 -0.8158
 4524SOL    HW125208   3.316   0.175   7.403 -0.1539 -0.9133 -2.4145
 4524SOL    HW225209   3.374   0.309   7.358  0.0832  0.0174  0.0127
 4525SOL     OW25210   1.725   3.561   2.424 -0.0172  0.2467 -0.8196
 4525SOL    HW125211   1.633   3.548   2.401 -0.4785 -0.1903  1.2243
 4525SOL    HW225212   1.740   3.466   2.423 -3.4669 -0.3267  2.2624
 4526SOL     OW25213   1.166   4.293   6.903  0.1755 -0.7738  0.0959
 4526SOL    HW125214   1.186   4.331   6.989 -0.0883  1.5225 -0.8690
 4526SOL    HW225215   1.087   4.341   6.879 -0.2459 -0.5093  1.9612
 4527SOL     OW25216   0.654   1.866   3.911  0.1170  0.1656 -0.2795
 4527SOL    HW125217   0.581   1.850   3.851  1.3856  2.3795 -2.4034
 4527SOL    HW225218   0.633   1.955   3.939  1.6513  0.3900  0.1645
 4528SOL     OW25219   3.472   1.650   7.095 -0.6667  0.4883  0.0392
 4528SOL    HW125220   3.550   1.701   7.115  0.3631 -0.8056 -0.6469
 4528SOL    HW225221   3.485   1.578   7.157  1.3107 -0.8278 -1.9094
 4529SOL     OW25222   2.329   4.167   3.850  0.1552 -0.4384  0.0227
 4529SOL    HW125223   2.362   4.254   3.874 -0.6899 -0.2146  0.3685
 4529SOL    HW225224   2.352   4.123   3.932  0.5587  1.7593  1.0892
 4530SOL     OW25225   3.253   0.864   6.576  0.7954  0.1634 -0.0580
 4530SOL    HW125226   3.191   0.902   6.513 -0.8696 -0.3134  1.3075
 4530SOL    HW225227   3.247   0.929   6.646  0.8541  1.8037 -1.5646
 4531SOL     OW25228   1.637   2.469  17.587  0.1111 -0.6891 -0.4486
 4531SOL    HW125229   1.577   2.416  17.640  2.2225 -0.3443  2.3329
 4531SOL    HW225230   1.624   2.556  17.625  1.4076 -2.1496  3.3860
 4532SOL     OW25231   0.783   1.762  15.119 -0.0802 -0.2322  0.2517
 4532SOL    HW125232   0.824   1.705  15.054  0.2685 -2.4231  2.3773
 4532SOL    HW225233   0.771   1.838  15.063 -0.5474 -0.9460 -0.6213
 4533SOL     OW25234   2.150   1.490   5.669  0.3458  0.2261  0.4961
 4533SOL    HW125235   2.116   1.503   5.757  0.2327 -2.8248  0.9077
 4533SOL    HW225236   2.070   1.503   5.619  1.0131  1.1838 -0.3330
 4534SOL     OW25237   2.158   0.868  15.478 -0.0488 -0.2372  0.0012
 4534SOL    HW125238   2.191   0.892  15.392  0.2980  1.4542  0.6049
 4534SOL    HW225239   2.080   0.818  15.455  0.1553 -0.2663 -0.6405
 4535SOL     OW25240   0.611   2.611   5.478  0.2985 -0.1506 -0.1723
 4535SOL    HW125241   0.531   2.568   5.448 -0.3221  0.2678  0.8552
 4535SOL    HW225242   0.668   2.611   5.401 -0.1061  0.4271 -0.4718
 4536SOL     OW25243   1.842   0.750  11.130  0.3339  0.7791  0.1734
 4536SOL    HW125244   1.787   0.816  11.088 -1.6267 -0.7498  0.3507
 4536SOL    HW225245   1.883   0.811  11.191  1.0688 -0.3572  0.8103
 4537SOL     OW25246   2.501   4.245   4.986  0.2620 -0.6997  0.4660
 4537SOL    HW125247   2.545   4.178   5.038 -1.8828 -0.7098  2.2640
 4537SOL    HW225248   2.579   4.289   4.952  0.6661 -0.1673  2.0704
 4538SOL     OW25249   1.495   0.730   9.406  0.6859  0.2746  0.0739
 4538SOL    HW125250   1.454   0.778   9.333 -2.8176 -1.8946  0.5947
 4538SOL    HW225251   1.557   0.672   9.364  0.6946  0.9285 -0.8138
 4539SOL     OW25252   1.716   4.209  13.389  0.0713 -0.2119  0.5563
 4539SOL    HW125253   1.735   4.302  13.403  1.2043 -0.9371  3.7946
 4539SOL    HW225254   1.666   4.218  13.308  1.6710 -1.4530 -0.5703
 4540SOL     OW25255   3.056   3.204  14.979 -0.4565 -0.1036 -0.0169
 4540SOL    HW125256   3.081   3.163  14.896  2.2171 -1.1098  1.2565
 4540SOL    HW225257   3.129   3.265  14.987 -1.4346  1.1414 -0.6298
 4541SOL     OW25258   3.336   2.573  17.434  0.0428 -0.0698 -0.0401
 4541SOL    HW125259   3.392   2.611  17.366 -0.4929  0.6274 -0.0909
 4541SOL    HW225260   3.292   2.509  17.378 -0.4186 -1.5003  1.9570
 4542SOL     OW25261   2.257   3.150  15.310 -0.1436 -0.4275  0.3787
 4542SOL    HW125262   2.248   3.198  15.228 -1.7827 -1.6938 -0.1761
 4542SOL    HW225263   2.169   3.111  15.308 -0.5509  0.5664 -0.8326
 4543SOL     OW25264   0.064   3.773  17.295 -0.2509  0.2642 -0.3380
 4543SOL    HW125265   0.030   3.691  17.260  0.7600 -1.2016  2.0959
 4543SOL    HW225266   0.158   3.757  17.286 -0.3725 -0.8084  0.2895
 4544SOL     OW25267   2.542   2.716   3.399  0.2382  0.5774 -0.3652
 4544SOL    HW125268   2.459   2.759   3.421 -1.5449 -2.7968 -0.5347
 4544SOL    HW225269   2.552   2.743   3.308  2.2764  2.2945  0.3429
 4545SOL     OW25270   0.269   1.369  17.202 -0.4180 -0.2875 -0.7400
 4545SOL    HW125271   0.292   1.351  17.293  3.4075  2.1945 -1.2137
 4545SOL    HW225272   0.266   1.282  17.161 -0.8285 -0.5603 -0.1374
 4546SOL     OW25273   2.782   0.666   4.252 -0.5349  0.2544 -0.8096
 4546SOL    HW125274   2.819   0.657   4.340  2.5471  0.8669 -2.0208
 4546SOL    HW225275   2.744   0.750   4.278 -3.1104 -1.2106  0.1170
 4547SOL     OW25276   4.431   4.731  14.061 -0.5384 -0.4361  0.0728
 4547SOL    HW125277   4.387   4.649  14.082 -1.0223  0.2610  1.8326
 4547SOL    HW225278   4.481   4.707  13.984  0.1302 -2.1625  1.0458
 4548SOL     OW25279   0.494   4.538   4.854  0.2204 -0.0029 -0.1597
 4548SOL    HW125280   0.553   4.613   4.853 -0.4641  0.5478  0.5689
 4548SOL    HW225281   0.432   4.558   4.924  3.6390 -2.0655  3.4473
 4549SOL     OW25282   1.060   3.649   8.723 -0.7575  0.4770  0.5790
 4549SOL    HW125283   1.112   3.595   8.783  0.2310 -1.2261 -1.8159
 4549SOL    HW225284   1.073   3.592   8.647 -1.7471  1.3223 -0.2142
 4550SOL     OW25285   3.469   2.363   6.582  0.8653  0.2639  0.1237
 4550SOL    HW125286   3.460   2.371   6.487  1.3691 -0.8714 -0.0122
 4550SOL    HW225287   3.459   2.269   6.596  2.9746  0.2449  1.5046
 4551SOL     OW25288   4.454   0.560   0.163  0.2883  0.1831  0.2806
 4551SOL    HW125289   4.384   0.495   0.167  0.5929 -0.0866  1.2957
 4551SOL    HW225290   4.441   0.588   0.072  1.2239  3.9047  1.2659
 4552SOL     OW25291   3.327   4.433   2.076 -0.2608  0.4352 -0.0009
 4552SOL    HW125292   3.283   4.517   2.085  1.8466  1.6054 -0.6599
 4552SOL    HW225293   3.414   4.455   2.043 -0.2666  1.1211  0.4532
 4553SOL     OW25294   2.712   2.177  15.220  0.2253 -0.5323  0.6099
 4553SOL    HW125295   2.757   2.110  15.168  2.5906  0.2554  1.5978
 4553SOL    HW225296   2.792   2.219  15.253  0.1579  1.2147 -1.4246
 4554SOL     OW25297   1.142   3.066   4.533 -0.5447  0.2174 -0.4008
 4554SOL    HW125298   1.203   2.992   4.529 -0.8440 -0.0989  0.8460
 4554SOL    HW225299   1.192   3.142   4.506 -0.4729  0.4411  0.3919
 4555SOL     OW25300   4.037   4.595   5.432 -0.2193  1.1482 -0.1513
 4555SOL    HW125301   4.046   4.506   5.468  0.8530  0.9652 -0.8742
 4555SOL    HW225302   4.072   4.660   5.493 -1.9495  0.2358  1.8004
 4556SOL     OW25303   1.160   0.127   7.423  0.4696 -0.2806  0.4110
 4556SOL    HW125304   1.240   0.077   7.443 -0.3880 -0.5464  3.1073
 4556SOL    HW225305   1.202   0.211   7.402 -0.3633  0.0367  0.0295
 4557SOL     OW25306   3.443   0.539   9.176  0.4683 -0.0590 -0.2256
 4557SOL    HW125307   3.406   0.469   9.122 -2.4049  1.8867 -0.7616
 4557SOL    HW225308   3.485   0.488   9.246  0.7929  0.7116  0.1419
 4558SOL     OW25309   3.975   3.166   7.584 -0.2027 -0.7436  0.7404
 4558SOL    HW125310   4.009   3.125   7.504 -0.5168 -1.7704  1.1243
 4558SOL    HW225311   4.054   3.157   7.637 -0.1296 -0.0836  0.7394
 4559SOL     OW25312   0.990   1.176   9.640  0.4084 -0.4872 -0.0150
 4559SOL    HW125313   0.983   1.232   9.718 -0.7825  2.2849 -2.1329
 4559SOL    HW225314   1.030   1.105   9.691 -0.6642 -0.9328  0.2121
 4560SOL     OW25315   4.254   0.801   3.632  0.2467 -0.1035 -0.2652
 4560SOL    HW125316   4.306   0.723   3.614  2.5395  1.4339 -0.2227
 4560SOL    HW225317   4.172   0.751   3.640  0.4287 -0.0410  2.1544
 4561SOL     OW25318   4.138   2.490  10.007  0.4097 -0.2626  0.3603
 4561SOL    HW125319   4.050   2.473  10.042  0.2899 -1.4466 -0.5183
 4561SOL    HW225320   4.178   2.550  10.070  0.7671 -0.6123  0.4680
 4562SOL     OW25321   2.518   0.762  12.804 -0.2749 -0.3590 -0.5286
 4562SOL    HW125322   2.536   0.725  12.890  2.1088 -2.8249 -2.1116
 4562SOL    HW225323   2.508   0.856  12.819 -1.2682 -0.2291 -1.9372
 4563SOL     OW25324   4.344   1.526   0.856  0.0205 -0.1759  0.4540
 4563SOL    HW125325   4.381   1.611   0.879  2.9015 -0.7628 -2.1162
 4563SOL    HW225326   4.360   1.544   0.764 -0.3462 -1.9962  0.0213
 4564SOL     OW25327   0.804   3.913  17.667 -0.4653  0.1433  0.1722
 4564SOL    HW125328   0.801   3.849   0.003 -0.2351  2.2880  2.1482
 4564SOL    HW225329   0.757   3.869  17.596  1.0080  2.1041 -2.0307
 4565SOL     OW25330   0.131   3.243   2.909  0.2247 -0.2620 -0.1615
 4565SOL    HW125331   0.219   3.204   2.904 -0.7487 -2.6977  1.6983
 4565SOL    HW225332   0.124   3.308   2.839  0.4201 -1.4846 -1.3045
 4566SOL     OW25333   2.956   1.861  15.894 -0.0388  0.3192 -0.0507
 4566SOL    HW125334   2.958   1.904  15.808  3.3743 -1.6427 -0.9683
 4566SOL    HW225335   2.869   1.887  15.923 -0.4596 -1.3308  0.1481
 4567SOL     OW25336   3.564   4.101  16.247 -0.4750 -0.5375 -0.1289
 4567SOL    HW125337   3.644   4.050  16.253  1.1761  1.8405 -2.1613
 4567SOL    HW225338   3.517   4.053  16.316 -0.7549  0.4852  0.4022
 4568SOL     OW25339   2.925   1.889   2.890 -0.2047 -0.6269  0.1968
 4568SOL    HW125340   2.943   1.830   2.964 -1.5821 -2.5061 -0.9405
 4568SOL    HW225341   3.012   1.868   2.858 -1.3235 -0.9749 -2.6177
 4569SOL     OW25342   0.189   2.708   0.586  0.7481  0.1642 -0.0963
 4569SOL    HW125343   0.134   2.745   0.517  0.1678  2.7039  1.7318
 4569SOL    HW225344   0.251   2.779   0.602 -0.4606  1.1169  0.4010
 4570SOL     OW25345   3.593   1.790  14.813 -0.1060  0.2721 -0.3804
 4570SOL    HW125346   3.681   1.787  14.774 -0.1110 -1.7467 -0.2194
 4570SOL    HW225347   3.544   1.808  14.733 -0.4032  2.5956  0.3122
 4571SOL     OW25348   3.445   1.851   3.980 -0.0635  0.5088 -0.3713
 4571SOL    HW125349   3.488   1.773   3.946 -1.6174 -0.4155 -0.2384
 4571SOL    HW225350   3.354   1.824   3.967  0.1888 -0.8471  0.7077
 4572SOL     OW25351   1.025   3.407   0.258 -0.1417  0.1977 -0.1974
 4572SOL    HW125352   0.943   3.403   0.308 -0.5582  0.8474 -0.8294
 4572SOL    HW225353   1.085   3.370   0.323 -0.2846  1.1856  0.5004
 4573SOL     OW25354   0.076   1.779   5.298 -0.0453 -0.0781 -0.6026
 4573SOL    HW125355   0.015   1.788   5.371 -1.0176  1.5952 -1.6146
 4573SOL    HW225356   0.132   1.856   5.302 -1.5499  0.8630  1.8899
 4574SOL     OW25357   1.473   2.726   6.349  0.3919  0.2631  0.3508
 4574SOL    HW125358   1.390   2.734   6.302  0.7968 -2.7736 -0.9028
 4574SOL    HW225359   1.476   2.633   6.371 -3.3026  0.1064  0.1554
 4575SOL     OW25360   1.408   3.312   4.350 -0.2425 -0.5238  0.3326
 4575SOL    HW125361   1.494   3.334   4.316 -1.4048 -0.0834 -2.3306
 4575SOL    HW225362   1.375   3.242   4.293  0.8963 -0.3148 -0.5910
 4576SOL     OW25363   0.900   4.077  13.628 -0.1665  0.4573  0.3929
 4576SOL    HW125364   0.871   3.996  13.586  0.2981  0.2635  0.4489
 4576SOL    HW225365   0.820   4.129  13.623 -0.0494  0.6041  0.0251
 4577SOL     OW25366   3.671   3.224   7.914  0.4885  0.0623  0.5936
 4577SOL    HW125367   3.609   3.158   7.944  2.5822 -3.0890 -1.9774
 4577SOL    HW225368   3.750   3.170   7.910  0.4496  0.3073 -4.0691
 4578SOL     OW25369   1.140   1.005  13.116 -0.4493  0.0705  0.0066
 4578SOL    HW125370   1.184   1.028  13.034 -0.2814 -2.7831 -0.7114
 4578SOL    HW225371   1.047   1.015  13.096  0.0947 -0.6122 -2.8330
 4579SOL     OW25372   3.010   2.739  15.911  0.5392  0.1644  0.2056
 4579SOL    HW125373   2.976   2.682  15.842 -1.8555  1.3235  0.4612
 4579SOL    HW225374   2.934   2.786  15.943  0.5486 -1.0175  1.9411
 4580SOL     OW25375   0.152   1.057   4.997 -0.0758  0.3931  0.1974
 4580SOL    HW125376   0.067   1.020   4.974 -0.8151  2.0251  0.3108
 4580SOL    HW225377   0.126   1.117   5.066 -0.1400  2.6832 -1.7955
 4581SOL     OW25378   2.316   0.145   3.353  0.3607 -0.4476  0.0243
 4581SOL    HW125379   2.373   0.083   3.397  0.1108 -0.7065 -0.0137
 4581SOL    HW225380   2.239   0.138   3.409  0.0967 -1.3570 -0.4501
 4582SOL     OW25381   1.740   2.963   4.373  0.3322 -0.0078 -0.2836
 4582SOL    HW125382   1.769   2.891   4.317  0.3063 -0.7442  0.6473
 4582SOL    HW225383   1.818   2.967   4.428  0.1084  0.5326 -0.0104
 4583SOL     OW25384   1.909   3.912   5.203 -0.2018 -0.3787  0.0730
 4583SOL    HW125385   1.950   3.826   5.204 -0.3796 -0.4649 -0.1638
 4583SOL    HW225386   1.912   3.934   5.110 -0.6777 -0.4383  0.0449
 4584SOL     OW25387   0.797   2.511   7.320  0.4521 -0.0817  0.2496
 4584SOL    HW125388   0.765   2.513   7.230  0.2143 -0.6313  0.3189
 4584SOL    HW225389   0.717   2.532   7.368  0.1623  1.3240 -0.8584
 4585SOL     OW25390   2.935   2.032   9.354 -0.2868  0.4430  0.0968
 4585SOL    HW125391   2.928   2.028   9.449 -1.5763  1.6739  0.0517
 4585SOL    HW225392   2.987   2.111   9.336  0.8561 -0.1459  0.7682
 4586SOL     OW25393   0.057   4.534   0.067 -0.1033 -0.2892 -0.0198
 4586SOL    HW125394   0.081   4.626   0.068  0.2421 -0.4440  3.6097
 4586SOL    HW225395   0.139   4.498   0.099  0.1886  1.3103  1.0193
 4587SOL     OW25396   1.287   3.949   3.462  0.0014  0.6189 -0.1026
 4587SOL    HW125397   1.342   3.871   3.469  0.3127  0.8151 -0.3903
 4587SOL    HW225398   1.257   3.959   3.553  2.4529 -0.7781  0.8606
 4588SOL     OW25399   4.339   1.790   8.034 -0.0740  0.1153 -0.3205
 4588SOL    HW125400   4.371   1.699   8.030 -3.4320 -1.1079  1.2694
 4588SOL    HW225401   4.422   1.836   8.044 -0.9666  1.8747 -1.0494
 4589SOL     OW25402   0.864   1.531  16.432  0.2540  0.1027 -0.2666
 4589SOL    HW125403   0.920   1.453  16.430  0.7786  0.4552  0.7901
 4589SOL    HW225404   0.917   1.594  16.383 -0.0110  1.3263  1.0257
 4590SOL     OW25405   1.545   0.502   6.162 -0.3691 -0.1167  0.1571
 4590SOL    HW125406   1.576   0.591   6.146  1.1119 -0.9185 -1.4585
 4590SOL    HW225407   1.453   0.523   6.147 -0.2912  0.8230  1.0309
 4591SOL     OW25408   3.568   3.308   6.919 -0.0733  0.8947 -0.7362
 4591SOL    HW125409   3.591   3.215   6.923 -1.0445  0.7014  0.3451
 4591SOL    HW225410   3.619   3.337   6.843 -1.8827 -0.0813 -2.3197
 4592SOL     OW25411   1.359   1.164  12.434  0.4761 -0.0361 -0.4632
 4592SOL    HW125412   1.433   1.103  12.430  0.5346 -0.1194  1.9412
 4592SOL    HW225413   1.408   1.232  12.480 -1.0079  0.4239  0.4458
 4593SOL     OW25414   3.610   1.062   7.503 -0.3028  0.0211  0.4562
 4593SOL    HW125415   3.671   1.135   7.515 -0.6889  0.2800  0.8608
 4593SOL    HW225416   3.670   0.989   7.509 -1.3793 -0.9174 -0.2647
 4594SOL     OW25417   0.119   0.938   8.181  0.0948 -0.5742 -0.3574
 4594SOL    HW125418   0.191   0.912   8.238 -1.0054 -1.1018  0.7688
 4594SOL    HW225419   0.166   0.994   8.119  0.5455 -1.2725 -0.6474
 4595SOL     OW25420   3.841   0.821  11.434 -0.4353 -0.4224  0.5890
 4595SOL    HW125421   3.760   0.835  11.483 -0.7316 -1.4821  0.4143
 4595SOL    HW225422   3.808   0.843  11.347  0.5882 -0.5380  0.1746
 4596SOL     OW25423   1.338   3.681  11.644  0.2249  0.4400  0.0027
 4596SOL    HW125424   1.332   3.723  11.558 -1.0422  1.6666  0.6944
 4596SOL    HW225425   1.427   3.647  11.656  0.2755  0.9237  0.9777
 4597SOL     OW25426   0.215   2.946   2.171  0.6609 -0.4671  0.0774
 4597SOL    HW125427   0.231   2.973   2.081  0.2859 -0.8742 -0.1103
 4597SOL    HW225428   0.281   2.877   2.184  0.7926 -0.4212 -0.3451
 4598SOL     OW25429   1.428   1.847   2.350 -0.4094 -0.3618  0.2731
 4598SOL    HW125430   1.488   1.921   2.339 -0.4340 -0.3318  0.3409
 4598SOL    HW225431   1.348   1.900   2.344  0.0008  0.1302 -0.8740
 4599SOL     OW25432   2.135   0.106   6.548  0.5524 -0.7760 -0.7919
 4599SOL    HW125433   2.143   0.014   6.572 -0.4050 -0.5238  0.4968
 4599SOL    HW225434   2.081   0.096   6.470 -2.1743 -0.4790  1.0355
 4600SOL     OW25435   1.972   2.464  10.455 -0.2173  0.0423 -0.4767
 4600SOL    HW125436   2.023   2.530  10.408  0.3527  0.6247  0.9412
 4600SOL    HW225437   2.035   2.399  10.485 -0.1907 -1.1987 -3.2424
 4601SOL     OW25438   0.255   1.290   6.118  0.4631 -0.0012 -0.2159
 4601SOL    HW125439   0.211   1.359   6.167  0.4080  0.3495 -0.7619
 4601SOL    HW225440   0.181   1.231   6.134  0.3560  0.5349  1.1971
 4602SOL     OW25441   3.463   4.635   5.685 -0.0849  0.0641 -0.1094
 4602SOL    HW125442   3.540   4.581   5.665  0.2774  0.6383 -0.2776
 4602SOL    HW225443   3.395   4.585   5.639  0.9004  0.0094 -1.5140
 4603SOL     OW25444   3.096   2.309   6.464 -0.7289  0.4606  0.3204
 4603SOL    HW125445   3.156   2.236   6.448 -1.2936  0.1166 -0.1986
 4603SOL    HW225446   3.013   2.270   6.440 -1.0196  0.8910  0.6232
 4604SOL     OW25447   3.314   0.990   4.982  0.1468 -0.2545 -0.1189
 4604SOL    HW125448   3.313   0.946   4.897 -1.4951  0.6795 -0.5908
 4604SOL    HW225449   3.271   1.074   4.963  0.2110 -0.3473 -0.6616
 4605SOL     OW25450   2.978   1.415   0.948 -0.1535 -0.0035  0.6492
 4605SOL    HW125451   2.927   1.393   0.870 -2.1495  1.3131  1.5743
 4605SOL    HW225452   2.978   1.510   0.937 -0.3002 -0.0534  0.2349
 4606SOL     OW25453   3.097   2.206  15.663  0.0700 -0.5200 -0.1963
 4606SOL    HW125454   3.185   2.182  15.634  0.1003  0.5321 -0.9844
 4606SOL    HW225455   3.127   2.274  15.722  1.6926 -1.1093 -0.3402
 4607SOL     OW25456   1.857   0.110   9.195  0.5270  0.2299 -0.5984
 4607SOL    HW125457   1.888   0.188   9.240  1.5932 -0.5195 -0.0392
 4607SOL    HW225458   1.815   0.158   9.123 -0.6731 -0.3530 -0.2826
 4608SOL     OW25459   1.559   1.372   9.122  0.1467  0.2306 -0.3326
 4608SOL    HW125460   1.523   1.379   9.034  1.2387 -1.9578 -0.9381
 4608SOL    HW225461   1.544   1.460   9.158 -0.4843 -0.5853  1.3942
 4609SOL     OW25462   3.624   3.442   9.417 -0.0347 -0.1299 -0.4684
 4609SOL    HW125463   3.540   3.487   9.407 -0.3305 -0.5101  0.3147
 4609SOL    HW225464   3.676   3.466   9.340  1.5088 -2.4338 -0.1491
 4610SOL     OW25465   3.989   1.700   5.203  0.6601 -0.2294  0.4259
 4610SOL    HW125466   3.937   1.644   5.146 -1.1742  2.0626 -0.1422
 4610SOL    HW225467   4.018   1.642   5.273 -0.0281  1.3068  1.9939
 4611SOL     OW25468   1.102   1.375   7.362 -0.2019  0.2648  0.1707
 4611SOL    HW125469   1.072   1.430   7.434  0.0684 -0.5655  0.9139
 4611SOL    HW225470   1.047   1.404   7.289 -0.8370 -1.4158 -0.0124
 4612SOL     OW25471   3.672   2.088   7.308  0.1009  0.5086 -0.1305
 4612SOL    HW125472   3.725   2.129   7.239 -0.2796 -1.0890 -1.3698
 4612SOL    HW225473   3.667   2.000   7.271  2.0905  1.1933 -2.0857
 4613SOL     OW25474   0.406   3.536   7.470 -0.2397 -0.4358 -0.2711
 4613SOL    HW125475   0.436   3.454   7.510  0.6662 -0.2919 -0.6451
 4613SOL    HW225476   0.407   3.586   7.551  0.4102 -0.8602 -0.0133
 4614SOL     OW25477   3.076   4.506   6.182 -0.6687 -0.4741  0.9036
 4614SOL    HW125478   3.137   4.531   6.251 -1.3149  0.0175  1.3036
 4614SOL    HW225479   3.139   4.491   6.112 -1.7891 -0.5605 -0.0988
 4615SOL     OW25480   3.675   1.994  12.319  0.1207 -0.1625  0.4135
 4615SOL    HW125481   3.739   2.004  12.249  0.4838 -0.7218  0.6644
 4615SOL    HW225482   3.650   1.903  12.302 -1.4796  0.4735 -0.7355
 4616SOL     OW25483   2.416   4.064   7.257 -0.2892  0.3517 -0.0945
 4616SOL    HW125484   2.377   4.136   7.208 -0.9591  0.2121  0.2314
 4616SOL    HW225485   2.438   4.119   7.333  1.2259  2.2228 -1.9080
 4617SOL     OW25486   0.463   4.355   0.968  0.1322 -0.2067 -0.2034
 4617SOL    HW125487   0.429   4.373   0.880  0.3601  0.4607 -0.1593
 4617SOL    HW225488   0.416   4.286   1.013  1.6837 -1.2958 -0.2627
 4618SOL     OW25489   0.926   0.352   4.393  0.3515  0.1321 -0.3479
 4618SOL    HW125490   0.848   0.409   4.389  0.1048 -0.2002 -0.2136
 4618SOL    HW225491   0.969   0.366   4.309  1.3191  1.4259  0.3571
 4619SOL     OW25492   4.111   4.124  13.393  0.0849  0.4117 -0.2520
 4619SOL    HW125493   4.045   4.055  13.390  1.4862 -0.7806 -3.5662
 4619SOL    HW225494   4.119   4.154  13.302 -0.1839 -5.6899 -2.2482
 4620SOL     OW25495   3.187   2.919  13.566  0.5232  0.3034  0.1627
 4620SOL    HW125496   3.113   2.865  13.595  0.9405 -0.2269  0.2387
 4620SOL    HW225497   3.212   2.870  13.489 -2.0306  1.1861 -1.2261
 4621SOL     OW25498   1.673   3.443  10.364  0.0647 -0.1006  0.1656
 4621SOL    HW125499   1.649   3.406  10.450 -0.1760  1.2114  0.6567
 4621SOL    HW225500   1.760   3.479  10.377  0.7174 -2.3966  2.2384
 4622SOL     OW25501   1.437   2.431   1.957 -0.3417  0.3913 -0.0482
 4622SOL    HW125502   1.488   2.383   2.023  1.0568 -0.6032 -1.8418
 4622SOL    HW225503   1.418   2.364   1.891 -0.8887  0.8450 -0.3479
 4623SOL     OW25504   3.472   0.221   1.545 -0.4445  0.1540 -0.1187
 4623SOL    HW125505   3.396   0.165   1.532 -0.1652  0.0807 -1.4204
 4623SOL    HW225506   3.453   0.265   1.628  0.0034  1.6739 -0.8224
 4624SOL     OW25507   3.331   0.466   5.251  0.0300  0.5257  0.0959
 4624SOL    HW125508   3.358   0.441   5.163 -1.5582  1.3206 -0.6144
 4624SOL    HW225509   3.409   0.445   5.303 -0.5241  0.3128  0.8507
 4625SOL     OW25510   3.050   3.918   3.213 -0.5731  0.5404 -1.0100
 4625SOL    HW125511   3.001   3.837   3.196  0.5142 -0.3596  0.1832
 4625SOL    HW225512   3.103   3.929   3.135 -0.7997  1.6444 -1.0087
 4626SOL     OW25513   3.330   4.670  15.822 -0.0735 -0.0652 -0.3257
 4626SOL    HW125514   3.358   4.632  15.905  1.8683  1.3275 -0.3186
 4626SOL    HW225515   3.415   4.670  15.778 -0.8871  0.0256 -1.9002
 4627SOL     OW25516   3.003   1.324   6.782  0.4819 -0.6375  0.0023
 4627SOL    HW125517   2.997   1.285   6.870 -1.5032 -0.5140 -0.0845
 4627SOL    HW225518   2.991   1.416   6.804  0.0763 -0.4973 -0.8222
 4628SOL     OW25519   0.385   4.538   6.491 -0.6938 -0.0984  0.3388
 4628SOL    HW125520   0.323   4.470   6.518 -0.5963  0.0981  1.0855
 4628SOL    HW225521   0.335   4.574   6.418  0.5872  2.0250  0.4923
 4629SOL     OW25522   2.882   2.098   6.163  0.1065 -0.0090  0.1931
 4629SOL    HW125523   2.899   2.048   6.083 -2.1652  0.8636 -0.8546
 4629SOL    HW225524   2.869   2.027   6.226  0.7669  0.4199  0.8063
 4630SOL     OW25525   4.029   3.619   2.701  0.3946 -0.1575 -0.3465
 4630SOL    HW125526   4.031   3.595   2.609  1.6878 -0.8471 -0.1478
 4630SOL    HW225527   4.123   3.631   2.711  0.5915 -1.6786 -0.3805
 4631SOL     OW25528   1.649   3.789  15.378 -0.1314 -0.4403 -0.3717
 4631SOL    HW125529   1.740   3.785  15.408  0.0889 -1.7170 -1.2007
 4631SOL    HW225530   1.607   3.810  15.461 -0.5021 -0.9495 -0.4320
 4632SOL     OW25531   3.760   1.077   6.467 -0.4327  0.7868  0.2075
 4632SOL    HW125532   3.748   0.982   6.459 -0.1014  0.9008 -1.7898
 4632SOL    HW225533   3.677   1.107   6.503 -0.2382 -0.3787  1.5983
 4633SOL     OW25534   4.303   3.296   4.159 -0.4841  0.4355 -0.3924
 4633SOL    HW125535   4.358   3.228   4.121  0.5759  0.0233  1.9148
 4633SOL    HW225536   4.372   3.357   4.186 -1.3963  0.8971  0.8969
 4634SOL     OW25537   3.321   2.571  11.296 -0.2178  0.3636 -0.3748
 4634SOL    HW125538   3.353   2.638  11.356  3.0000 -0.3635 -1.2955
 4634SOL    HW225539   3.381   2.568  11.222 -0.2328 -0.2163 -0.3619
 4635SOL     OW25540   0.053   4.477   5.359 -0.5824 -0.8023 -0.1651
 4635SOL    HW125541   0.128   4.493   5.302  0.0829 -2.1013  0.3543
 4635SOL    HW225542   0.074   4.494   5.451  0.6089  1.8273 -0.9218
 4636SOL     OW25543   1.150   0.041   2.516 -0.7219 -0.0635  0.4025
 4636SOL    HW125544   1.233   0.008   2.551  0.0142  0.6108 -0.7081
 4636SOL    HW225545   1.165   0.132   2.543 -1.2539 -0.9029  3.4861
 4637SOL     OW25546   3.998   4.181  13.635 -0.1068 -0.5088 -0.1304
 4637SOL    HW125547   3.926   4.243  13.626  0.6833  0.3887 -0.2621
 4637SOL    HW225548   4.035   4.193  13.547  2.4251  0.9818  1.1180
 4638SOL     OW25549   0.940   0.192   3.405  0.4834 -0.8977  0.5150
 4638SOL    HW125550   0.970   0.158   3.490  1.4346  1.9287  1.3206
 4638SOL    HW225551   1.011   0.246   3.368 -2.5513  2.7862  0.0374
 4639SOL     OW25552   4.446   2.758   7.630 -0.6072  0.0648  0.3557
 4639SOL    HW125553   4.476   2.679   7.585  0.3227 -0.2214  1.4762
 4639SOL    HW225554   4.439   2.730   7.721 -1.7731  2.1190  0.8864
 4640SOL     OW25555   2.533   2.637   0.092  0.1545  0.0189 -0.3357
 4640SOL    HW125556   2.576   2.722   0.084  0.2694  0.3283  3.7216
 4640SOL    HW225557   2.457   2.661   0.145  1.0407  4.5704 -1.1696
 4641SOL     OW25558   0.883   3.763   7.971  0.3583  0.3026 -0.4010
 4641SOL    HW125559   0.803   3.787   7.925  0.9855  0.0014 -1.6499
 4641SOL    HW225560   0.933   3.845   7.977 -1.9232  1.7124 -0.6558
 4642SOL     OW25561   2.344   4.602   4.431  0.6536  0.4740  0.0170
 4642SOL    HW125562   2.348   4.695   4.455 -1.0319  0.5505 -0.0153
 4642SOL    HW225563   2.265   4.565   4.469  1.6597 -1.3278  0.3848
 4643SOL     OW25564   3.226   0.854   7.485 -0.0151 -0.4371 -0.5395
 4643SOL    HW125565   3.247   0.767   7.451  0.4410 -0.8066  0.6852
 4643SOL    HW225566   3.280   0.853   7.564  1.4444 -3.9876 -1.6044
 4644SOL     OW25567   0.599   2.777   6.466 -0.7112 -0.3761  0.5870
 4644SOL    HW125568   0.513   2.743   6.443 -0.9150  0.0839  0.6611
 4644SOL    HW225569   0.600   2.858   6.415  2.8238 -1.7400 -1.5081
 4645SOL     OW25570   0.664   2.392   9.875  0.0903 -0.1353  0.1346
 4645SOL    HW125571   0.614   2.345   9.808 -2.0980  1.3119  0.7671
 4645SOL    HW225572   0.697   2.462   9.819 -2.6531 -0.8941 -2.4773
 4646SOL     OW25573   4.606   3.847  13.553  0.1983 -0.3345  0.3273
 4646SOL    HW125574   4.568   3.775  13.605  0.6364 -1.8908 -1.4914
 4646SOL    HW225575   4.567   3.827  13.467  2.7737  1.0404 -1.1544
 4647SOL     OW25576   4.010   1.285   8.640 -0.2298  0.4959 -0.1682
 4647SOL    HW125577   4.086   1.308   8.694 -0.5037 -1.4750  1.0706
 4647SOL    HW225578   3.957   1.365   8.637  0.3829  0.9234  0.4261
 4648SOL     OW25579   0.435   3.796   5.813  0.0218  0.7408 -0.1258
 4648SOL    HW125580   0.414   3.889   5.801 -0.8399  0.5462 -0.1319
 4648SOL    HW225581   0.456   3.773   5.722  0.8486  0.7521  0.0569
 4649SOL     OW25582   2.973   1.778   7.888  0.4290  0.2339  0.4542
 4649SOL    HW125583   3.048   1.724   7.861 -0.9041 -1.4253  0.0792
 4649SOL    HW225584   2.924   1.710   7.934  0.4632 -1.0652 -1.4377
 4650SOL     OW25585   2.034   1.495   4.299 -1.0068  0.3495 -0.0678
 4650SOL    HW125586   2.037   1.569   4.360  0.4569 -1.8975  2.5853
 4650SOL    HW225587   2.060   1.548   4.223  1.0503  0.7835  0.9519
 4651SOL     OW25588   1.852   3.746  11.233 -0.2830  0.2289  0.1225
 4651SOL    HW125589   1.828   3.665  11.277  1.2603 -0.8042 -0.9143
 4651SOL    HW225590   1.766   3.771  11.199 -0.8464 -0.3300  1.1624
 4652SOL     OW25591   4.227   2.817  15.240  0.1295  0.0684  0.0790
 4652SOL    HW125592   4.253   2.735  15.281 -3.8245 -1.7347 -0.9348
 4652SOL    HW225593   4.243   2.881  15.310 -0.9694 -0.8989  1.2202
 4653SOL     OW25594   0.635   3.902   4.889  0.3628 -0.1147 -0.4691
 4653SOL    HW125595   0.641   3.946   4.974 -1.0580 -0.6574 -0.0869
 4653SOL    HW225596   0.636   3.810   4.914 -0.6861 -0.0935 -0.3323
 4654SOL     OW25597   3.957   0.544   5.945  0.0032 -0.2503 -0.2045
 4654SOL    HW125598   3.935   0.599   5.870 -0.3305 -1.5509 -1.0632
 4654SOL    HW225599   3.977   0.461   5.902  0.2054 -0.8081  0.9617
 4655SOL     OW25600   0.289   2.339  12.459 -0.0445 -0.7062 -0.0878
 4655SOL    HW125601   0.313   2.365  12.548  0.3354 -2.6382  0.3737
 4655SOL    HW225602   0.207   2.388  12.451 -0.4535 -1.4550 -0.4427
 4656SOL     OW25603   2.283   0.827   5.496 -0.7169  0.0191  0.3754
 4656SOL    HW125604   2.258   0.765   5.427 -2.5384  0.7796  0.3640
 4656SOL    HW225605   2.214   0.805   5.559 -1.5585  0.0690 -0.5296
 4657SOL     OW25606   0.215   2.362   4.257 -0.4926  0.9384 -0.2448
 4657SOL    HW125607   0.142   2.299   4.256  1.0906 -0.8920 -1.5719
 4657SOL    HW225608   0.185   2.430   4.197 -3.7600 -0.5648 -0.3405
 4658SOL     OW25609   1.861   3.742   4.507  0.0860 -0.3361 -0.1153
 4658SOL    HW125610   1.849   3.798   4.430 -1.3592  1.2455  1.2631
 4658SOL    HW225611   1.906   3.807   4.561 -2.1941  0.9942  0.2208
 4659SOL     OW25612   2.579   4.510   5.559 -0.0943  0.1034 -0.2723
 4659SOL    HW125613   2.609   4.427   5.597 -0.9856  0.0605  0.3487
 4659SOL    HW225614   2.666   4.533   5.526 -0.0434  0.1587 -0.0986
 4660SOL     OW25615   4.727   4.728   8.380  0.6179  0.1814 -0.0403
 4660SOL    HW125616   4.672   0.064   8.415  1.2523 -0.3085  1.8940
 4660SOL    HW225617   0.080   0.024   8.408  0.6240 -0.0129  0.1460
 4661SOL     OW25618   4.406   3.879   7.348  0.0028 -0.2368  0.0239
 4661SOL    HW125619   4.434   3.813   7.412  1.6090  0.1071 -0.3128
 4661SOL    HW225620   4.381   3.830   7.269  0.3295  1.0349 -0.8713
 4662SOL     OW25621   1.777   2.260   2.502  0.2568 -0.1919  0.5730
 4662SOL    HW125622   1.842   2.245   2.570  1.1765  2.4303  0.2651
 4662SOL    HW225623   1.781   2.350   2.470 -0.1374 -0.7101 -0.9627
 4663SOL     OW25624   4.164   2.514   7.510  0.1597 -0.1817  0.0619
 4663SOL    HW125625   4.072   2.529   7.487  1.0376  1.3118 -2.5606
 4663SOL    HW225626   4.186   2.587   7.568 -0.8240  1.3634 -1.5006
 4664SOL     OW25627   4.402   0.323  11.735  0.0399 -0.0498 -0.1857
 4664SOL    HW125628   4.384   0.365  11.818 -0.8960 -1.0537  0.1288
 4664SOL    HW225629   4.379   0.230  11.739  1.2372 -0.3145  0.6610
 4665SOL     OW25630   4.377   2.370   3.912 -0.3318 -0.1463 -0.7908
 4665SOL    HW125631   4.308   2.431   3.887  0.0310  0.1774 -1.0093
 4665SOL    HW225632   4.333   2.287   3.893  0.8419 -0.4834 -2.0632
 4666SOL     OW25633   1.118   1.183   4.313  0.4280 -0.2636  0.1894
 4666SOL    HW125634   1.141   1.228   4.394  0.8583 -0.7704  0.3538
 4666SOL    HW225635   1.176   1.107   4.305 -0.7534 -1.1321 -0.1197
 4667SOL     OW25636   3.176   3.430   6.869 -0.1181  0.1269  0.0682
 4667SOL    HW125637   3.136   3.510   6.903  1.5128  0.4693  1.1732
 4667SOL    HW225638   3.233   3.404   6.942  1.4127 -1.9950 -1.9144
 4668SOL     OW25639   4.313   3.020   6.128 -1.0102  0.5425 -0.7240
 4668SOL    HW125640   4.337   3.079   6.199  0.1210 -1.5168  0.6197
 4668SOL    HW225641   4.341   2.931   6.149 -0.1236  1.0670  0.3380
 4669SOL     OW25642   1.795   0.972  14.832 -0.2079  0.8226  0.7278
 4669SOL    HW125643   1.848   1.046  14.860 -0.3329  1.0215  0.4344
 4669SOL    HW225644   1.775   0.946  14.922 -1.2053  0.7100  0.4689
 4670SOL     OW25645   4.469   3.963   4.095 -0.5845  0.3388 -0.7801
 4670SOL    HW125646   4.509   3.975   4.181  0.0276  2.3927 -1.3704
 4670SOL    HW225647   4.517   4.021   4.036 -2.2947  0.7452 -1.7755
 4671SOL     OW25648   2.254   0.653   2.906  0.1356  0.2395 -0.2746
 4671SOL    HW125649   2.258   0.586   2.838 -0.4598 -2.3547  2.2504
 4671SOL    HW225650   2.195   0.610   2.968  1.1791 -0.2051  0.4023
 4672SOL     OW25651   3.024   4.654   9.291  0.0834 -0.0382  0.3031
 4672SOL    HW125652   3.042   0.008   9.258 -0.0766  0.3778  1.3053
 4672SOL    HW225653   3.113   4.618   9.297  0.2482  0.1936 -0.8823
 4673SOL     OW25654   0.338   2.932   0.572 -0.0673  0.0481  0.2657
 4673SOL    HW125655   0.425   2.966   0.552  0.5253  0.1137  2.9684
 4673SOL    HW225656   0.296   3.018   0.578 -0.8482 -0.2627 -0.9546
 4674SOL     OW25657   1.261   3.922   9.707  0.1075  0.3126 -0.0704
 4674SOL    HW125658   1.252   3.894   9.615 -1.7350  0.4079  0.0680
 4674SOL    HW225659   1.356   3.925   9.717 -0.1105  0.3952  1.8893
 4675SOL     OW25660   3.759   3.834   5.551  0.5644 -0.2777  0.5209
 4675SOL    HW125661   3.718   3.747   5.551 -1.5043  0.6900  0.5118
 4675SOL    HW225662   3.695   3.888   5.597 -1.0243 -1.8869  0.2196
 4676SOL     OW25663   1.458   3.330   2.418  1.0260  0.0155  0.1525
 4676SOL    HW125664   1.508   3.261   2.462  0.8705  0.7514  1.4825
 4676SOL    HW225665   1.514   3.338   2.341 -1.0252  2.8028 -1.0436
 4677SOL     OW25666   3.238   0.826   4.141 -0.1297 -0.2576  0.5379
 4677SOL    HW125667   3.303   0.848   4.208 -1.5195  3.2695  0.6874
 4677SOL    HW225668   3.295   0.845   4.066  2.1798 -0.4467  2.2463
 4678SOL     OW25669   2.190   3.077   8.679  0.5180  0.0064 -0.1591
 4678SOL    HW125670   2.130   3.114   8.614 -0.0042  0.3896  0.5418
 4678SOL    HW225671   2.128   3.049   8.746  1.8854  1.3740  1.6952
 4679SOL     OW25672   1.141   1.699   6.725  0.3324  0.0520 -0.2014
 4679SOL    HW125673   1.164   1.779   6.773  3.3562 -0.2036 -1.1727
 4679SOL    HW225674   1.215   1.690   6.665  0.9188  2.1151  0.2129
 4680SOL     OW25675   2.454   0.824   9.377 -0.0368  0.0619 -0.1716
 4680SOL    HW125676   2.509   0.785   9.445  0.7503  0.6645 -0.4650
 4680SOL    HW225677   2.523   0.870   9.328 -0.0638 -0.1904 -0.4537
 4681SOL     OW25678   3.857   1.638  10.074 -0.2770 -0.4367 -0.5468
 4681SOL    HW125679   3.793   1.594  10.130 -1.7352  2.7620  0.2940
 4681SOL    HW225680   3.884   1.565  10.020  0.2721 -1.5009  1.1487
 4682SOL     OW25681   3.548   1.749  14.468  0.0610  0.1165  0.1684
 4682SOL    HW125682   3.601   1.815  14.513 -1.2074 -0.4074  2.4218
 4682SOL    HW225683   3.471   1.751  14.526 -0.4177 -1.6610 -0.4258
 4683SOL     OW25684   3.954   2.881   8.088  0.1857 -0.2745 -0.3707
 4683SOL    HW125685   3.906   2.808   8.126  0.6621 -0.5848 -0.3629
 4683SOL    HW225686   3.906   2.959   8.113 -0.0276 -0.3287 -0.6068
 4684SOL     OW25687   1.087   2.981  13.617 -0.1404 -0.5047  0.1995
 4684SOL    HW125688   1.004   2.944  13.647 -0.3609 -2.3002 -2.7151
 4684SOL    HW225689   1.110   3.046  13.685 -0.1965  0.1463 -0.4058
 4685SOL     OW25690   0.980   3.729   6.297  0.2618  0.2968 -0.0859
 4685SOL    HW125691   0.901   3.710   6.247  0.5792 -1.9006  0.2450
 4685SOL    HW225692   0.991   3.657   6.360 -0.3636  0.4380  0.1869
 4686SOL     OW25693   2.407   0.422   2.616  0.1780  0.1479  0.1200
 4686SOL    HW125694   2.345   0.477   2.568  1.5924  1.5759 -0.0755
 4686SOL    HW225695   2.416   0.348   2.555  1.2880  0.8443 -0.5557
 4687SOL     OW25696   1.353   0.969   2.799  0.1275  0.1531 -0.0986
 4687SOL    HW125697   1.389   0.941   2.715  3.5940  1.7898  0.8319
 4687SOL    HW225698   1.417   0.920   2.852 -1.2542 -0.9242  0.5771
 4688SOL     OW25699   4.523   0.508   9.845  0.1718  0.6263  0.0699
 4688SOL    HW125700   4.600   0.465   9.882 -0.2386 -0.4790 -0.3852
 4688SOL    HW225701   4.534   0.591   9.892  5.1484  0.2063 -0.3640
 4689SOL     OW25702   3.823   2.147   7.879  0.1923 -0.1678  0.3388
 4689SOL    HW125703   3.818   2.161   7.973  2.3592 -1.1484  0.5961
 4689SOL    HW225704   3.783   2.062   7.864 -1.9441  0.7176  0.9934
 4690SOL     OW25705   1.292   3.263   7.374  0.5706  0.7652  0.1145
 4690SOL    HW125706   1.208   3.285   7.414  1.0974  1.0870  1.0316
 4690SOL    HW225707   1.298   3.171   7.398 -1.5913  0.4700 -0.4185
 4691SOL     OW25708   1.318   1.036   5.009 -0.8577 -0.2868  0.0393
 4691SOL    HW125709   1.408   1.049   5.038 -0.1336 -0.9057 -1.9538
 4691SOL    HW225710   1.286   1.104   5.068  0.1106  0.7540 -0.6398
 4692SOL     OW25711   3.117   4.598   1.903 -0.1573  0.1655  0.3073
 4692SOL    HW125712   3.124   4.693   1.913  1.1366 -0.0798  1.7567
 4692SOL    HW225713   3.129   4.585   1.809  0.1770 -0.3805  0.4248
 4693SOL     OW25714   4.160   4.408  12.196  0.0204  0.0354  0.5083
 4693SOL    HW125715   4.177   4.347  12.268  1.6659 -1.0426 -0.7561
 4693SOL    HW225716   4.075   4.443  12.221  0.6399  0.1630  2.4342
 4694SOL     OW25717   4.592   2.683  15.716 -0.6370  0.0043 -0.0315
 4694SOL    HW125718   4.508   2.638  15.706 -1.0096  0.6044  0.3945
 4694SOL    HW225719   4.572   2.776  15.706  1.9444  0.5717  0.0740
 4695SOL     OW25720   2.502   3.070  15.469 -0.0868 -0.1956  0.7904
 4695SOL    HW125721   2.455   3.140  15.515 -0.0146  0.1761  0.3062
 4695SOL    HW225722   2.453   3.076  15.386  0.4248  1.0032  0.5772
 4696SOL     OW25723   1.127   2.591  12.725  0.1947 -1.0205 -0.3083
 4696SOL    HW125724   1.040   2.613  12.758  0.2797 -0.3752 -0.5089
 4696SOL    HW225725   1.133   2.660  12.659  1.5995  0.9106  1.8435
 4697SOL     OW25726   4.134   1.935   2.759 -0.2675  0.5642 -0.1270
 4697SOL    HW125727   4.044   1.935   2.789  0.3011  0.4190  1.5693
 4697SOL    HW225728   4.153   2.028   2.749  1.7114  0.4071  2.1170
 4698SOL     OW25729   0.913   4.378  12.762 -0.0062 -0.1237 -0.5586
 4698SOL    HW125730   0.880   4.339  12.682 -2.4500  0.4474  0.1724
 4698SOL    HW225731   0.970   4.305  12.787  0.4091  0.9315  1.6721
 4699SOL     OW25732   3.489   2.299   0.523  0.6529 -0.3840 -0.1860
 4699SOL    HW125733   3.449   2.243   0.456 -1.3332  0.0902  0.6008
 4699SOL    HW225734   3.555   2.343   0.470  1.7171  2.6043  3.6480
 4700SOL     OW25735   0.483   3.848   6.461  0.0050 -0.3354  0.2639
 4700SOL    HW125736   0.402   3.875   6.503 -1.0943 -1.3140 -1.2443
 4700SOL    HW225737   0.501   3.778   6.523 -0.7790 -0.3340  0.4832
 4701SOL     OW25738   1.110   1.159  11.437 -0.1169 -0.2240  0.1991
 4701SOL    HW125739   1.176   1.091  11.449 -0.4627 -0.9039 -1.7705
 4701SOL    HW225740   1.038   1.111  11.478  0.0028 -1.6047 -1.2175
 4702SOL     OW25741   2.214   1.837  16.069 -0.1338  0.4141  0.1779
 4702SOL    HW125742   2.141   1.787  16.105  0.5265 -1.5427 -1.2452
 4702SOL    HW225743   2.268   1.769  16.029 -0.9839 -0.3662  0.3671
 4703SOL     OW25744   4.133   3.554   4.663 -0.1988 -0.7509  0.2501
 4703SOL    HW125745   4.061   3.520   4.610 -0.4715 -3.0966  2.1375
 4703SOL    HW225746   4.157   3.636   4.618 -1.8195 -0.4624 -0.0827
 4704SOL     OW25747   1.008   0.387   2.815 -0.0536  0.1828  0.1537
 4704SOL    HW125748   1.060   0.438   2.878 -2.3968  1.2777  1.1939
 4704SOL    HW225749   0.921   0.411   2.847  0.1798  0.2882  0.7008
 4705SOL     OW25750   1.949   1.151   4.776 -0.0688  0.0873 -0.3079
 4705SOL    HW125751   1.925   1.112   4.860  2.9406  2.3232  1.5689
 4705SOL    HW225752   1.967   1.242   4.798 -1.1842  0.5508 -1.3477
 4706SOL     OW25753   0.004   3.356   7.943 -0.4923 -0.4117  0.0913
 4706SOL    HW125754   4.729   3.446   7.973 -1.5915 -0.0492 -1.3022
 4706SOL    HW225755   0.043   3.320   8.022  2.2489  3.0922  0.3301
 4707SOL     OW25756   2.673   3.043   2.852  0.0284  0.0185  0.4344
 4707SOL    HW125757   2.752   3.056   2.800  2.1132 -0.5449  3.4426
 4707SOL    HW225758   2.664   3.130   2.892  0.2288  0.6616 -0.9202
 4708SOL     OW25759   4.599   0.741   4.007 -0.9228  0.0212  0.5880
 4708SOL    HW125760   4.661   0.807   4.037 -1.1360 -0.6838  2.5621
 4708SOL    HW225761   4.596   0.761   3.913  2.8026  1.9324  0.8672
 4709SOL     OW25762   4.278   0.764   4.658 -0.3743  0.7815 -0.0242
 4709SOL    HW125763   4.298   0.733   4.570 -2.5643 -0.9507  0.1045
 4709SOL    HW225764   4.333   0.843   4.656  1.8659 -0.8135 -0.4377
 4710SOL     OW25765   1.137   3.501   5.126 -0.2347  0.0730 -0.3627
 4710SOL    HW125766   1.199   3.542   5.065 -2.2720 -0.0377 -2.5071
 4710SOL    HW225767   1.088   3.571   5.168  0.2159  0.8680 -1.1675
 4711SOL     OW25768   0.539   3.864   2.635 -0.4910 -0.0322  0.1820
 4711SOL    HW125769   0.603   3.935   2.638  1.8508 -2.0888 -1.0877
 4711SOL    HW225770   0.461   3.916   2.614 -0.4525  0.3994  1.1438
 4712SOL     OW25771   1.933   1.387   8.740 -0.1600 -0.1515  0.1457
 4712SOL    HW125772   1.953   1.451   8.809 -1.2811 -0.0350  0.3625
 4712SOL    HW225773   1.888   1.440   8.675  2.1117 -0.3058 -1.5425
 4713SOL     OW25774   3.574   3.119   4.095 -0.3748  0.0867 -0.4345
 4713SOL    HW125775   3.485   3.090   4.076  0.4485 -2.1327 -0.8941
 4713SOL    HW225776   3.557   3.189   4.158 -0.0075  0.3100 -0.5826
 4714SOL     OW25777   2.945   0.834  10.730  0.1660 -0.0837  0.0009
 4714SOL    HW125778   2.954   0.828  10.635  1.7516  1.0749  0.0705
 4714SOL    HW225779   3.033   0.823  10.765  0.7815  2.6314 -0.6650
 4715SOL     OW25780   0.424   1.849   3.425 -0.3235 -0.2346  0.2975
 4715SOL    HW125781   0.441   1.929   3.375  0.5929  0.3946  1.6215
 4715SOL    HW225782   0.482   1.860   3.500 -1.1680 -1.3997  1.1113
 4716SOL     OW25783   2.036   2.467   8.787 -0.0624  0.4250  0.2597
 4716SOL    HW125784   2.060   2.529   8.718  1.4272 -0.0690  0.3285
 4716SOL    HW225785   1.962   2.425   8.742 -1.4868 -0.2072  3.1982
 4717SOL     OW25786   1.965   0.322  11.134  0.1530 -0.4477  0.5940
 4717SOL    HW125787   1.899   0.387  11.111 -1.2412 -2.4177 -0.9243
 4717SOL    HW225788   2.045   0.353  11.091 -0.4988 -0.9431 -0.9722
 4718SOL     OW25789   3.199   0.717   2.614 -0.5261  0.4052  0.7548
 4718SOL    HW125790   3.104   0.720   2.608 -0.3753  0.5575 -1.3113
 4718SOL    HW225791   3.209   0.625   2.638  0.3397 -0.2958 -2.2980
 4719SOL     OW25792   0.360   2.519   9.177  0.6362  0.0921 -0.0638
 4719SOL    HW125793   0.405   2.435   9.171  0.3990  0.2608 -3.6671
 4719SOL    HW225794   0.269   2.489   9.182  0.9353 -1.0893 -2.3198
 4720SOL     OW25795   3.263   0.281  15.428 -0.2419  0.1917  0.0797
 4720SOL    HW125796   3.255   0.293  15.522 -4.6624 -0.6656 -0.1895
 4720SOL    HW225797   3.296   0.369  15.407 -1.0551  0.7748  1.2506
 4721SOL     OW25798   0.161   3.122   8.326  0.4553  0.4438 -0.5364
 4721SOL    HW125799   0.106   3.068   8.269  1.6049 -0.9536 -0.3287
 4721SOL    HW225800   0.212   3.060   8.379 -1.1137 -1.3359 -1.0866
 4722SOL     OW25801   3.734   0.192  16.667 -0.6430  0.7467  0.1209
 4722SOL    HW125802   3.701   0.279  16.643 -0.8715 -0.0885 -2.5064
 4722SOL    HW225803   3.669   0.129  16.637  0.5011 -0.0231 -0.7206
 4723SOL     OW25804   4.647   1.643   9.219  0.2785  0.1952 -0.1943
 4723SOL    HW125805   4.616   1.656   9.129 -2.4233  1.6034  0.9131
 4723SOL    HW225806   4.667   1.736   9.236  0.2280  0.0962  0.4091
 4724SOL     OW25807   2.403   0.192   1.425 -0.4192  0.4902  0.0795
 4724SOL    HW125808   2.452   0.110   1.418  1.8121  1.7902  0.3883
 4724SOL    HW225809   2.463   0.251   1.378 -0.9034 -0.2816 -1.4962
 4725SOL     OW25810   4.020   4.043   3.951  0.3691  0.0310 -0.2489
 4725SOL    HW125811   3.999   4.075   3.863  0.5307 -2.0416 -1.0456
 4725SOL    HW225812   3.948   4.078   4.004 -2.7946 -3.1428 -2.4678
 4726SOL     OW25813   2.635   2.777   2.263  0.5722 -0.0287  0.2285
 4726SOL    HW125814   2.691   2.811   2.192  0.3287  0.1191  0.1091
 4726SOL    HW225815   2.662   2.829   2.339 -0.6238 -0.0422  0.6561
 4727SOL     OW25816   2.001   4.199  12.800  0.6095  0.0144  0.0032
 4727SOL    HW125817   1.956   4.261  12.857  0.6522 -0.9827  1.1059
 4727SOL    HW225818   2.009   4.123  12.857  0.0526 -1.1156 -1.3991
 4728SOL     OW25819   4.101   3.571   3.962 -0.2230 -0.0006 -0.0948
 4728SOL    HW125820   4.031   3.617   3.916  0.4304  0.3145 -0.7612
 4728SOL    HW225821   4.174   3.633   3.964  1.2339 -1.7664  0.2999
 4729SOL     OW25822   1.078   0.381  10.033  0.0005  0.2197  0.3511
 4729SOL    HW125823   1.125   0.447  10.083 -0.0358  1.4666 -1.2654
 4729SOL    HW225824   1.145   0.329   9.988 -2.3575 -2.4072 -0.1574
 4730SOL     OW25825   2.547   0.793   6.703  0.4898 -0.1784  0.3093
 4730SOL    HW125826   2.484   0.833   6.642  1.8466 -2.0988 -2.3305
 4730SOL    HW225827   2.523   0.835   6.786  3.2937 -1.8001  1.9337
 4731SOL     OW25828   0.364   0.082   4.540  0.1052  0.0597 -0.5666
 4731SOL    HW125829   0.372   0.036   4.456 -1.3499 -0.0673 -0.6467
 4731SOL    HW225830   0.350   0.174   4.517  0.8035  0.3070 -0.0023
 4732SOL     OW25831   1.934   0.437   8.847  0.1480 -0.2856 -0.4219
 4732SOL    HW125832   2.000   0.426   8.779 -0.9129 -2.0212 -1.1760
 4732SOL    HW225833   1.996   0.454   8.918  0.2559  1.7734 -0.9990
 4733SOL     OW25834   2.129   1.062   7.689 -0.2682  0.0481  0.0470
 4733SOL    HW125835   2.116   0.969   7.704 -2.4802  0.0391 -1.9468
 4733SOL    HW225836   2.070   1.096   7.756  0.8104  1.5885  0.2361
 4734SOL     OW25837   2.378   1.932  16.280  0.0727  0.4834 -0.2860
 4734SOL    HW125838   2.324   1.879  16.221  0.3885 -0.0692 -0.0836
 4734SOL    HW225839   2.333   2.016  16.284  0.3988  0.7538 -2.3160
 4735SOL     OW25840   0.407   2.264  15.374  0.9039  0.3751  0.0922
 4735SOL    HW125841   0.410   2.349  15.331 -0.4228 -1.3051 -3.2595
 4735SOL    HW225842   0.368   2.302  15.453 -0.2323 -1.6628  0.5110
 4736SOL     OW25843   4.575   4.490   2.517 -0.0206 -0.3387  0.1886
 4736SOL    HW125844   4.489   4.449   2.528 -0.3561  0.2531 -0.1822
 4736SOL    HW225845   4.571   4.522   2.427  1.1480 -1.1241 -0.1351
 4737SOL     OW25846   3.979   2.457   8.678 -0.1038 -0.2435 -0.2238
 4737SOL    HW125847   3.909   2.510   8.714  1.2069  2.2992 -1.4622
 4737SOL    HW225848   3.945   2.367   8.684  0.6508 -0.5445 -0.4072
 4738SOL     OW25849   3.104   1.576   6.172  0.2814 -0.3281  0.2928
 4738SOL    HW125850   3.041   1.570   6.244  0.7505  0.8746  0.8165
 4738SOL    HW225851   3.157   1.649   6.204 -0.2256  0.1866 -0.0436
 4739SOL     OW25852   2.652   2.650   1.733 -0.0913  0.6091  0.3195
 4739SOL    HW125853   2.590   2.722   1.724 -1.3198 -0.5649 -0.4598
 4739SOL    HW225854   2.611   2.572   1.695  1.9707 -0.5199  0.4001
 4740SOL     OW25855   3.375   4.721   6.947 -0.1648 -0.2286 -0.1058
 4740SOL    HW125856   3.418   4.720   7.033  1.5733  1.5279 -0.9512
 4740SOL    HW225857   3.400   4.632   6.923  0.6109 -0.4984  1.7126
 4741SOL     OW25858   3.478   2.078  16.337 -0.1491  0.1916 -0.7978
 4741SOL    HW125859   3.448   2.163  16.305 -1.4112  0.0444  0.0081
 4741SOL    HW225860   3.498   2.032  16.255 -1.2983 -0.2154 -0.8408
 4742SOL     OW25861   3.825   1.732   8.180 -0.4900  0.0222 -0.5070
 4742SOL    HW125862   3.916   1.751   8.198 -0.3905 -1.3195  0.3998
 4742SOL    HW225863   3.846   1.642   8.153  2.2778 -0.1268  2.1391
 4743SOL     OW25864   4.680   1.849   6.825 -0.6213 -0.1124 -0.1602
 4743SOL    HW125865   4.636   1.933   6.832  1.2909  0.8640  0.1040
 4743SOL    HW225866   4.615   1.799   6.774 -0.1872  0.5389 -1.3296
 4744SOL     OW25867   3.420   4.673   8.868 -0.6616  0.1005  0.7769
 4744SOL    HW125868   3.500   4.647   8.914 -0.4615  0.6733  0.7407
 4744SOL    HW225869   3.345   4.662   8.926 -0.1219  0.4761  1.5528
 4745SOL     OW25870   1.430   1.220   2.020  0.3693 -0.0559 -0.2325
 4745SOL    HW125871   1.453   1.153   2.085  2.4208  0.1467 -0.7574
 4745SOL    HW225872   1.501   1.282   2.036  1.6491 -1.4439 -0.5594
 4746SOL     OW25873   4.141   2.220   2.709 -0.2609  0.2376 -0.4672
 4746SOL    HW125874   4.097   2.206   2.625  0.6294 -2.3479 -0.5000
 4746SOL    HW225875   4.077   2.280   2.749  0.0069  0.9342 -1.0777
 4747SOL     OW25876   3.428   1.108   3.601 -0.6883  0.0520  0.2147
 4747SOL    HW125877   3.456   1.104   3.692 -0.2741  0.1671  0.0912
 4747SOL    HW225878   3.507   1.086   3.552 -2.4002  0.9333 -2.9846
 4748SOL     OW25879   3.640   4.542   6.710 -0.0996 -0.3190 -0.0330
 4748SOL    HW125880   3.734   4.561   6.705 -0.1518 -0.0522 -0.0035
 4748SOL    HW225881   3.647   4.447   6.723  0.4374 -0.2956 -0.1549
 4749SOL     OW25882   2.351   0.908   4.477  0.8352  0.2541 -0.6198
 4749SOL    HW125883   2.429   0.913   4.534  0.7896  0.1747 -0.5501
 4749SOL    HW225884   2.376   0.864   4.396  1.5372  1.2231 -0.9363
 4750SOL     OW25885   2.325   3.048  11.347  0.1828 -0.4329  0.2535
 4750SOL    HW125886   2.244   3.017  11.306 -0.9120  1.1749  1.2391
 4750SOL    HW225887   2.390   3.009  11.289 -0.0600 -0.3041 -0.1002
 4751SOL     OW25888   4.725   1.258  10.667 -0.1943  0.4935  0.2015
 4751SOL    HW125889   0.072   1.247  10.717  0.1177 -2.3539 -0.9318
 4751SOL    HW225890   0.026   1.253  10.578 -1.2475 -3.1151 -0.0224
 4752SOL     OW25891   3.448   1.206  12.178 -0.2970 -0.4461  0.3630
 4752SOL    HW125892   3.474   1.212  12.087 -2.3254 -2.5954 -0.3664
 4752SOL    HW225893   3.353   1.216  12.173 -0.5731 -0.1030  5.7443
 4753SOL     OW25894   1.291   1.238   5.752 -0.4312 -0.5864  0.1704
 4753SOL    HW125895   1.210   1.254   5.705  0.0471  0.7169 -0.2079
 4753SOL    HW225896   1.294   1.142   5.748 -1.2346 -0.5831 -0.5173
 4754SOL     OW25897   3.138   4.529   6.628  0.5663 -0.0441 -0.2792
 4754SOL    HW125898   3.160   4.531   6.721  0.0586 -2.2650 -0.1145
 4754SOL    HW225899   3.169   4.616   6.603  0.9686  0.8119  3.1787
 4755SOL     OW25900   0.676   3.944   4.011  0.0294 -0.3055 -0.1299
 4755SOL    HW125901   0.602   3.885   3.992 -0.6406  0.4126  0.2562
 4755SOL    HW225902   0.721   3.893   4.078  1.1861 -0.9878 -1.4192
 4756SOL     OW25903   0.291   4.596   3.411 -0.5092  0.2919 -0.1667
 4756SOL    HW125904   0.373   4.598   3.362  0.6353 -1.3316  1.6854
 4756SOL    HW225905   0.257   4.684   3.396 -1.3317  0.0458  0.2409
 4757SOL     OW25906   3.085   2.826   6.497 -0.3825 -0.0938  0.5927
 4757SOL    HW125907   3.075   2.857   6.407  1.2140 -2.0343 -0.2505
 4757SOL    HW225908   3.164   2.874   6.522  0.7277 -0.2603 -2.4914
 4758SOL     OW25909   2.267   0.362   2.920  0.2435 -0.1287  0.1343
 4758SOL    HW125910   2.333   0.358   2.851 -0.3792  3.2875 -0.6573
 4758SOL    HW225911   2.296   0.309   2.994 -0.2753 -2.9412 -1.6753
 4759SOL     OW25912   2.406   3.562   7.193  1.0355 -0.0467 -0.2180
 4759SOL    HW125913   2.331   3.600   7.238  0.3445 -1.9111  0.2237
 4759SOL    HW225914   2.388   3.585   7.102  1.9307 -0.9654 -0.6321
 4760SOL     OW25915   4.125   0.904   7.670 -0.5820 -0.3243 -0.0731
 4760SOL    HW125916   4.107   0.945   7.755 -2.5688  0.2052 -0.7499
 4760SOL    HW225917   4.171   0.827   7.703  1.5754  0.2979 -1.6712
 4761SOL     OW25918   1.203   0.723   6.533  0.4615 -0.1175  0.5007
 4761SOL    HW125919   1.200   0.819   6.534  1.7158 -0.0749 -1.1046
 4761SOL    HW225920   1.207   0.699   6.441  0.0768  0.8351  0.2307
 4762SOL     OW25921   4.188   0.056  17.250  0.4494 -0.1430  0.4018
 4762SOL    HW125922   4.240   0.053  17.331  0.5131  0.8272  0.3891
 4762SOL    HW225923   4.200   0.145  17.219 -1.0879 -0.8623 -2.2588
 4763SOL     OW25924   0.465   4.198   5.129  0.4145 -0.3893 -0.6268
 4763SOL    HW125925   0.442   4.230   5.216 -0.0990  0.0838 -0.9345
 4763SOL    HW225926   0.496   4.111   5.155 -1.2649 -1.0078 -0.7328
 4764SOL     OW25927   4.395   0.129   7.196 -0.7931 -0.4194  0.4960
 4764SOL    HW125928   4.303   0.123   7.171 -1.0122  0.8054  1.0009
 4764SOL    HW225929   4.415   0.051   7.249 -1.3988 -0.3046  0.8960
 4765SOL     OW25930   1.943   1.935   6.971  0.0674 -0.2511 -0.0881
 4765SOL    HW125931   1.969   1.899   7.056 -0.9102  0.8916  0.7027
 4765SOL    HW225932   1.873   1.991   7.005 -0.8951 -1.6708  0.2917
 4766SOL     OW25933   3.664   2.780   4.091 -0.2075 -0.2823  0.2788
 4766SOL    HW125934   3.742   2.822   4.055 -1.1639 -0.3448 -1.8043
 4766SOL    HW225935   3.603   2.781   4.018 -0.3839  0.9838  0.4492
 4767SOL     OW25936   0.108   3.161   0.141 -0.2606  0.0739  0.1933
 4767SOL    HW125937   0.196   3.198   0.148  0.3685 -1.5842  1.0538
 4767SOL    HW225938   0.057   3.242   0.134 -1.0767 -0.3511  1.1612
 4768SOL     OW25939   4.623   0.164   1.713 -0.5810  0.1815  0.1207
 4768SOL    HW125940   4.626   0.232   1.781  0.8143  0.0457  0.1998
 4768SOL    HW225941   4.601   0.092   1.772  0.3085 -0.1409  0.0567
 4769SOL     OW25942   2.264   1.313  15.636 -0.6017  0.4627  0.5114
 4769SOL    HW125943   2.258   1.219  15.652 -0.2558 -0.3540 -4.3903
 4769SOL    HW225944   2.350   1.343  15.667  0.0273  1.9755 -2.7336
 4770SOL     OW25945   0.347   0.620  10.217 -0.1117 -0.4571  0.0950
 4770SOL    HW125946   0.352   0.559  10.143  1.4046 -2.9950  2.3098
 4770SOL    HW225947   0.398   0.575  10.284 -1.4226 -0.6994  0.9406
 4771SOL     OW25948   0.615   1.636  17.607 -0.2506  0.2234  0.2408
 4771SOL    HW125949   0.552   1.707  17.622 -0.7144  0.2339 -1.7801
 4771SOL    HW225950   0.663   1.625  17.689 -1.7880 -0.0824  1.0915
 4772SOL     OW25951   4.407   3.538   0.097 -0.1559  0.0121 -0.2168
 4772SOL    HW125952   4.425   3.444   0.098 -0.4165 -0.0226  1.7372
 4772SOL    HW225953   4.372   3.541   0.008 -1.2324  1.9604  0.2597
 4773SOL     OW25954   4.680   0.415  14.888  0.0414  0.4161 -0.5043
 4773SOL    HW125955   4.712   0.490  14.839 -0.5230  1.4575  0.7185
 4773SOL    HW225956   0.026   0.377  14.923  0.2177 -0.6314 -2.0537
 4774SOL     OW25957   2.723   1.151   5.071  0.9694  0.1367 -0.1742
 4774SOL    HW125958   2.648   1.094   5.087  2.0447 -1.3903 -0.6221
 4774SOL    HW225959   2.691   1.241   5.072 -1.6485 -0.7960 -0.5135
 4775SOL     OW25960   0.527   3.486  17.527  0.1843  0.2547 -0.0868
 4775SOL    HW125961   0.464   3.416  17.545  1.2738 -0.7782 -0.3115
 4775SOL    HW225962   0.602   3.444  17.568 -0.0468  1.2032  1.2938
 4776SOL     OW25963   4.373   0.657  17.151 -0.3934  0.4367 -0.2169
 4776SOL    HW125964   4.278   0.647  17.155 -0.5063  1.1224 -1.3956
 4776SOL    HW225965   4.399   0.610  17.072 -2.0827 -0.1875 -0.4009
 4777SOL     OW25966   0.764   3.701   2.909  0.0070  0.4502  0.3397
 4777SOL    HW125967   0.806   3.630   2.956  0.5585  0.2001 -0.5439
 4777SOL    HW225968   0.672   3.679   2.926  0.0343  0.3234  0.3199
 4778SOL     OW25969   0.279   3.081  15.656 -0.2201 -0.1131  0.2437
 4778SOL    HW125970   0.287   3.007  15.596  1.1942  2.0374 -2.1978
 4778SOL    HW225971   0.307   3.156  15.604  1.6330  0.3525  1.8932
 4779SOL     OW25972   3.362   3.990   4.496  0.0154 -0.5843  0.1253
 4779SOL    HW125973   3.351   4.081   4.468 -1.6903 -1.4231 -2.0215
 4779SOL    HW225974   3.337   3.948   4.413 -2.0297 -0.2988  0.5919
 4780SOL     OW25975   0.425   4.414   4.359 -0.7476 -0.2457 -0.2870
 4780SOL    HW125976   0.397   4.432   4.449 -0.0364 -0.3314 -0.0483
 4780SOL    HW225977   0.462   4.499   4.336  1.8909 -1.3356 -0.1017
 4781SOL     OW25978   3.506   0.735   2.308  0.1505 -0.1078 -0.2151
 4781SOL    HW125979   3.458   0.800   2.360 -1.3657 -2.2767  1.0928
 4781SOL    HW225980   3.500   0.645   2.341  1.4477  0.2545  0.9811
 4782SOL     OW25981   1.704   1.343   7.698 -0.2595 -0.0185 -0.1992
 4782SOL    HW125982   1.627   1.352   7.755  1.2424 -0.2191  1.8459
 4782SOL    HW225983   1.736   1.259   7.728 -0.6083 -0.6472 -1.5994
 4783SOL     OW25984   2.065   0.437   8.366  0.3172 -0.3232 -0.6594
 4783SOL    HW125985   2.130   0.385   8.414  2.3614  2.6899 -0.1224
 4783SOL    HW225986   2.002   0.446   8.437 -0.5675  0.5832 -1.5657
 4784SOL     OW25987   0.142   3.023   5.399  0.2388  0.2677  0.0026
 4784SOL    HW125988   0.082   2.954   5.371  1.0051  0.9190 -3.2615
 4784SOL    HW225989   0.210   2.968   5.439  1.4378  2.4161  0.8923
 4785SOL     OW25990   1.821   3.328   8.191  0.0187 -0.3690  0.0107
 4785SOL    HW125991   1.826   3.398   8.256  2.6214 -1.5347  1.0993
 4785SOL    HW225992   1.910   3.331   8.156 -0.3944  1.7998 -0.8317
 4786SOL     OW25993   2.801   1.020   6.712  0.2792  0.1303  0.0563
 4786SOL    HW125994   2.771   1.020   6.621  0.7744 -0.4360 -0.1076
 4786SOL    HW225995   2.720   1.018   6.762  0.7176 -0.1848  0.7439
 4787SOL     OW25996   0.264   1.557   8.577  0.3768  0.2513  0.5092
 4787SOL    HW125997   0.261   1.530   8.669 -0.4592 -2.3173 -0.2704
 4787SOL    HW225998   0.217   1.492   8.524  1.8162 -2.0469  2.0448
 4788SOL     OW25999   1.138   0.586  13.102  0.3692 -0.2451 -0.2412
 4788SOL    HW126000   1.212   0.629  13.059  1.0672 -2.1437 -0.9136
 4788SOL    HW226001   1.065   0.629  13.056 -0.2562  1.2249  2.1388
 4789SOL     OW26002   0.064   4.350   7.855 -0.1085 -0.4430 -0.0487
 4789SOL    HW126003   0.029   4.437   7.876  1.4525  0.2907 -0.5428
 4789SOL    HW226004   0.027   4.296   7.926  1.3598 -2.0061 -0.4829
 4790SOL     OW26005   4.242   2.417   8.738  0.3914 -0.2836 -0.5556
 4790SOL    HW126006   4.264   2.498   8.785  1.3654  0.5709 -2.4515
 4790SOL    HW226007   4.156   2.437   8.701 -0.5047  1.2766  2.3797
 4791SOL     OW26008   3.138   0.500   0.686  0.5965 -0.4408  0.0430
 4791SOL    HW126009   3.227   0.468   0.673  1.6271  2.6684 -0.4547
 4791SOL    HW226010   3.111   0.529   0.599  0.4402 -2.1554 -0.4852
 4792SOL     OW26011   2.511   4.620   8.039 -0.6481 -0.2875  0.0148
 4792SOL    HW126012   2.526   4.626   7.944 -1.9558 -0.2253 -0.1814
 4792SOL    HW226013   2.564   4.695   8.066 -2.7366  1.3165 -0.3296
 4793SOL     OW26014   1.217   3.761   6.529 -0.3537  0.4133  0.0812
 4793SOL    HW126015   1.274   3.730   6.599 -1.7261 -0.4019  0.8311
 4793SOL    HW226016   1.252   3.848   6.512 -0.7159  0.5262 -0.0983
 4794SOL     OW26017   1.408   1.482  12.216 -0.2380 -0.4864  0.3093
 4794SOL    HW126018   1.399   1.495  12.310 -1.1187  0.7575  0.0583
 4794SOL    HW226019   1.496   1.447  12.229  0.0983  1.1822  2.4675
 4795SOL     OW26020   4.173   1.555  11.297  0.0026  0.0247 -0.1696
 4795SOL    HW126021   4.264   1.571  11.273 -0.2222  0.9467 -0.3789
 4795SOL    HW226022   4.133   1.569  11.211 -0.0130 -0.7447 -0.2889
 4796SOL     OW26023   2.764   2.471   3.186 -0.3455  0.6533  0.0196
 4796SOL    HW126024   2.819   2.392   3.189 -0.3210  0.7255  1.2606
 4796SOL    HW226025   2.726   2.461   3.099  1.0865 -2.8429 -0.2362
 4797SOL     OW26026   2.280   1.101   6.513 -0.0685  0.0948 -0.0782
 4797SOL    HW126027   2.329   1.178   6.543 -3.6658  3.0745 -1.8105
 4797SOL    HW226028   2.334   1.025   6.492 -0.2955 -0.2463  0.5696
 4798SOL     OW26029   1.455   0.579   4.753  0.0760  0.0526  0.0568
 4798SOL    HW126030   1.463   0.675   4.753  1.1876 -0.0489 -2.0911
 4798SOL    HW226031   1.409   0.555   4.673 -0.1566  0.8884 -0.0576
 4799SOL     OW26032   3.477   3.992   4.742  0.1413  0.6418  0.7111
 4799SOL    HW126033   3.565   4.013   4.709  0.5060 -1.6674  0.1804
 4799SOL    HW226034   3.425   3.987   4.663 -0.0978  1.0943  0.8417
 4800SOL     OW26035   0.285   0.268  10.864  0.2581 -0.5286  0.1048
 4800SOL    HW126036   0.341   0.340  10.895  1.0370 -0.8365 -0.6076
 4800SOL    HW226037   0.254   0.238  10.949  1.2111  0.1047  0.6834
 4801SOL     OW26038   4.420   2.659   6.558  0.4362  0.0797 -0.7505
 4801SOL    HW126039   4.482   2.596   6.522  1.1176 -0.1062  0.7508
 4801SOL    HW226040   4.418   2.633   6.650 -0.7664  1.8045 -0.2930
 4802SOL     OW26041   2.590   4.593   2.834  0.1784 -0.2574 -0.1956
 4802SOL    HW126042   2.593   4.548   2.918 -3.3289 -0.0380  0.0569
 4802SOL    HW226043   2.495   4.601   2.820  0.4821  1.0963 -1.4704
 4803SOL     OW26044   1.698   1.451   6.548  0.3247  0.2783 -0.5738
 4803SOL    HW126045   1.629   1.431   6.611  0.0355 -0.1548 -1.0292
 4803SOL    HW226046   1.755   1.513   6.593  0.9390 -0.3207 -0.5288
 4804SOL     OW26047   2.151   2.115   0.555 -0.4076 -0.0845  0.0901
 4804SOL    HW126048   2.063   2.150   0.539 -0.5845 -1.1650 -1.2788
 4804SOL    HW226049   2.207   2.188   0.580 -1.4823  1.0620 -0.8455
 4805SOL     OW26050   2.837   1.372   6.169  0.2077  0.1489 -0.0974
 4805SOL    HW126051   2.869   1.283   6.156  1.1482  0.6184 -1.0717
 4805SOL    HW226052   2.892   1.399   6.243  0.1549  1.3763 -0.5103
 4806SOL     OW26053   1.679   3.764   8.848  0.3673  0.7574  0.6495
 4806SOL    HW126054   1.602   3.806   8.810 -1.2216  0.8503  3.9173
 4806SOL    HW226055   1.646   3.675   8.833 -0.5149  1.3431 -0.8979
 4807SOL     OW26056   2.447   1.643   5.742 -0.0415  0.0015 -0.0013
 4807SOL    HW126057   2.360   1.613   5.769 -0.2534 -0.9784 -1.8238
 4807SOL    HW226058   2.512   1.615   5.807  1.8374  0.5192 -1.6701
 4808SOL     OW26059   3.607   2.345   2.210  0.3457 -0.0515 -0.1077
 4808SOL    HW126060   3.646   2.395   2.139  0.5443 -1.8554 -1.2748
 4808SOL    HW226061   3.680   2.311   2.261  0.9420 -0.7546 -1.4205
 4809SOL     OW26062   1.103   1.744  10.191 -0.3511 -0.1683 -0.3080
 4809SOL    HW126063   1.195   1.760  10.210  0.1001 -1.6256 -1.2742
 4809SOL    HW226064   1.120   1.735  10.097 -0.1572  1.7434 -0.4548
 4810SOL     OW26065   1.792   3.041   8.211  0.9106 -0.2310 -0.2034
 4810SOL    HW126066   1.801   3.136   8.209 -0.2257 -0.0903  1.5639
 4810SOL    HW226067   1.777   3.020   8.303 -2.3527 -0.8948 -0.8800
 4811SOL     OW26068   1.924   3.804   8.745  0.3010  0.2924 -0.2253
 4811SOL    HW126069   1.835   3.813   8.781  0.7383  2.1519  0.4026
 4811SOL    HW226070   1.907   3.747   8.671  2.4682 -1.5078  0.6858
 4812SOL     OW26071   3.240   3.986  10.587  0.1481 -0.4891  0.1227
 4812SOL    HW126072   3.171   4.023  10.532  0.7569 -0.9060 -0.9371
 4812SOL    HW226073   3.264   4.057  10.646  0.9735  2.4628 -3.7698
 4813SOL     OW26074   1.370   3.324   2.887 -0.2025  0.7412 -0.4534
 4813SOL    HW126075   1.396   3.393   2.949  1.2222  0.2891 -0.5635
 4813SOL    HW226076   1.356   3.378   2.809  1.4522  0.9804 -0.5804
 4814SOL     OW26077   1.479   3.965  16.907  0.0673  0.4118 -0.3342
 4814SOL    HW126078   1.414   3.953  16.838  1.4613  3.5049 -2.2100
 4814SOL    HW226079   1.490   4.060  16.915 -1.0937  0.4487  0.8925
 4815SOL     OW26080   3.591   3.196   3.826 -0.2639 -0.2829 -0.5182
 4815SOL    HW126081   3.602   3.140   3.902  0.7908 -0.0109 -0.4810
 4815SOL    HW226082   3.501   3.168   3.805 -0.2709 -1.5017  1.1324
 4816SOL     OW26083   4.624   3.684   3.699 -0.3837  0.0781  0.2606
 4816SOL    HW126084   4.550   3.651   3.646  0.2800  0.2411 -0.7729
 4816SOL    HW226085   4.625   3.777   3.675 -1.9784 -0.3978 -1.6781
 4817SOL     OW26086   3.147   1.390   4.120 -0.6434  0.2998 -0.7016
 4817SOL    HW126087   3.077   1.395   4.185 -0.2959  0.2556 -0.3235
 4817SOL    HW226088   3.220   1.355   4.171 -2.3096 -0.6120  1.0802
 4818SOL     OW26089   1.977   4.477   0.396  0.4090  0.2337  0.0907
 4818SOL    HW126090   2.060   4.465   0.441  1.1038  1.2767 -0.9179
 4818SOL    HW226091   1.967   4.386   0.367  0.6535  0.6703 -1.3666
 4819SOL     OW26092   0.672   3.880   7.414 -0.3988 -0.0119 -0.8508
 4819SOL    HW126093   0.700   3.968   7.391 -0.5411  0.4052  0.6212
 4819SOL    HW226094   0.581   3.885   7.383 -2.1430  0.2666  4.3482
 4820SOL     OW26095   3.588   2.741  17.015 -0.1608  0.4435 -0.3821
 4820SOL    HW126096   3.605   2.745  16.921  1.3060  2.6397 -0.0175
 4820SOL    HW226097   3.501   2.700  17.015 -0.3609  0.8754 -0.7565
 4821SOL     OW26098   1.929   2.769   2.654 -0.1346 -0.4454  0.0431
 4821SOL    HW126099   1.896   2.679   2.653  0.9639 -0.8528  0.7496
 4821SOL    HW226100   2.004   2.765   2.595 -0.2299  0.6370 -0.1585
 4822SOL     OW26101   4.063   1.334  15.551  0.8604 -0.1233 -0.0628
 4822SOL    HW126102   4.131   1.300  15.493 -0.3306 -1.4321 -0.6632
 4822SOL    HW226103   4.058   1.421  15.510 -0.4177 -0.3251 -0.3091
 4823SOL     OW26104   4.677   2.743   6.797  0.1846  0.3099  0.5917
 4823SOL    HW126105   4.614   2.783   6.738  1.8396  2.1977  0.0970
 4823SOL    HW226106   4.678   2.652   6.768 -2.4883  0.7640 -0.9106
 4824SOL     OW26107   1.734   3.877   8.373  0.5162  0.4666 -0.2768
 4824SOL    HW126108   1.740   3.919   8.459 -3.8210  1.9156 -0.6485
 4824SOL    HW226109   1.787   3.939   8.322  0.7478  0.4581 -0.0434
 4825SOL     OW26110   4.587   3.164   5.930  0.4398  0.0658  0.3461
 4825SOL    HW126111   4.574   3.185   5.838  1.5807  1.2654  0.4570
 4825SOL    HW226112   4.575   3.249   5.972 -0.6881  0.2702 -0.3878
 4826SOL     OW26113   1.743   0.788   4.929 -0.7701  0.1156  0.0306
 4826SOL    HW126114   1.812   0.728   4.899  0.1110  0.8091  0.6983
 4826SOL    HW226115   1.760   0.784   5.022 -0.5479  2.2984  0.0699
 4827SOL     OW26116   3.075   1.529   8.887 -0.1187 -0.3173 -0.2904
 4827SOL    HW126117   3.151   1.587   8.894  0.1691 -0.7112 -0.1665
 4827SOL    HW226118   3.033   1.543   8.972 -1.8452  1.6310 -1.4909
 4828SOL     OW26119   4.423   1.463   2.059  0.4902 -0.1920  0.7427
 4828SOL    HW126120   4.359   1.533   2.044  2.4465  1.1126 -1.5605
 4828SOL    HW226121   4.496   1.525   2.067  0.2782  0.0992  0.4522
 4829SOL     OW26122   2.090   4.113   4.283  0.1592 -0.0450 -0.1013
 4829SOL    HW126123   2.165   4.166   4.308  2.4272 -3.3875  0.2041
 4829SOL    HW226124   2.119   4.076   4.199 -3.0402  0.2485 -1.3437
 4830SOL     OW26125   4.699   4.385   6.328 -0.2899 -0.3720  0.5441
 4830SOL    HW126126   4.708   4.296   6.360  0.0994  0.2289  2.0809
 4830SOL    HW226127   4.650   4.365   6.248  2.1420 -0.9436 -0.8089
 4831SOL     OW26128   1.497   4.129   1.703 -0.0324  0.2392  0.0793
 4831SOL    HW126129   1.424   4.192   1.710  2.2729  3.2393 -2.9137
 4831SOL    HW226130   1.484   4.076   1.624 -3.1070  1.2604 -0.1066
 4832SOL     OW26131   3.318   1.376   2.616 -0.5483 -0.5699  0.2659
 4832SOL    HW126132   3.365   1.417   2.688 -1.0755  0.1765  0.1753
 4832SOL    HW226133   3.264   1.451   2.591 -0.2234 -0.5059 -0.2565
 4833SOL     OW26134   1.417   3.695  15.792  0.7291 -0.5460 -0.0017
 4833SOL    HW126135   1.461   3.737  15.718  1.1540  0.2078  0.6885
 4833SOL    HW226136   1.337   3.747  15.789  1.3258  0.3291 -0.6271
 4834SOL     OW26137   4.528   4.566  15.592  0.0916  0.1187  0.4244
 4834SOL    HW126138   4.503   4.491  15.646 -2.3687 -0.2655 -1.2368
 4834SOL    HW226139   4.440   4.602  15.576 -0.1610  0.8435  3.5484
 4835SOL     OW26140   2.706   4.264  13.922 -0.8642  0.1891 -0.3048
 4835SOL    HW126141   2.735   4.201  13.988  2.3956  0.0433 -1.8855
 4835SOL    HW226142   2.624   4.299  13.958 -0.2840  0.5492  0.6395
 4836SOL     OW26143   4.540   4.010   4.371  0.2733 -0.4673  0.9033
 4836SOL    HW126144   4.537   3.933   4.428  0.6772  0.0252  1.6014
 4836SOL    HW226145   4.559   4.077   4.438 -1.4484  0.9775 -0.0605
 4837SOL     OW26146   3.903   4.213   3.750  0.5846  0.2849 -0.4302
 4837SOL    HW126147   3.984   4.251   3.782 -0.9690  1.6241  1.9114
 4837SOL    HW226148   3.907   4.228   3.655  1.7759  0.4459 -0.3487
 4838SOL     OW26149   2.120   3.563   7.257  0.1154 -0.4913  0.7279
 4838SOL    HW126150   2.066   3.484   7.259  1.9832 -1.7707  0.9156
 4838SOL    HW226151   2.063   3.624   7.212 -1.5264 -2.1367  0.5728
 4839SOL     OW26152   0.228   1.354   7.344 -0.5768  0.1509 -0.4952
 4839SOL    HW126153   0.159   1.420   7.342 -1.0332 -0.3585 -1.7039
 4839SOL    HW226154   0.304   1.412   7.352 -0.8024  0.5598 -1.3747
 4840SOL     OW26155   4.716   4.568   8.140  0.0062 -0.0800  0.1691
 4840SOL    HW126156   0.038   4.490   8.149 -2.0479 -1.3564  1.7569
 4840SOL    HW226157   0.006   4.603   8.226  0.7771 -1.0051  0.3385
 4841SOL     OW26158   1.446   3.686   7.820 -0.0980  0.0284  0.5461
 4841SOL    HW126159   1.384   3.739   7.770 -0.1526 -2.2453 -1.8389
 4841SOL    HW226160   1.385   3.617   7.847  1.0476 -1.3050 -0.2465
 4842SOL     OW26161   3.591   3.931  17.382 -0.4729  0.0133  0.4836
 4842SOL    HW126162   3.571   3.838  17.369 -1.2502  0.1724  0.5395
 4842SOL    HW226163   3.682   3.930  17.410 -0.0002 -2.0942 -1.1399
 4843SOL     OW26164   4.337   0.479   5.040 -0.2226 -0.0003 -0.1560
 4843SOL    HW126165   4.335   0.528   5.123 -1.6432 -0.0137 -0.1894
 4843SOL    HW226166   4.431   0.476   5.022 -0.1111 -0.2694  0.4578
 4844SOL     OW26167   0.762   1.985   4.576 -0.0982  0.4682  0.1699
 4844SOL    HW126168   0.717   1.972   4.492  1.2439  1.9990 -0.7624
 4844SOL    HW226169   0.788   1.894   4.590  1.0217  0.8641  0.6332
 4845SOL     OW26170   4.290   4.135  17.119  0.1350  0.3154 -0.0643
 4845SOL    HW126171   4.370   4.101  17.079  0.1667 -1.2765  1.3449
 4845SOL    HW226172   4.235   4.060  17.094  0.4067  0.2680 -0.5243
 4846SOL     OW26173   3.564   3.340   4.263 -0.2989  0.4932 -0.4188
 4846SOL    HW126174   3.657   3.355   4.278 -0.6433  0.8500  1.3886
 4846SOL    HW226175   3.532   3.297   4.342  0.0626  0.8743 -0.0641
 4847SOL     OW26176   3.944   2.824   0.322  0.2758  0.1562 -0.7307
 4847SOL    HW126177   3.989   2.760   0.377 -0.9145  1.3302  1.6120
 4847SOL    HW226178   3.984   2.804   0.237  1.1282  0.4098 -0.3864
 4848SOL     OW26179   0.243   3.307   3.454  0.2548 -0.4045 -0.5092
 4848SOL    HW126180   0.326   3.277   3.489 -0.2148 -1.0132  0.0820
 4848SOL    HW226181   0.214   3.366   3.524  2.2109 -0.0171 -0.0377
 4849SOL     OW26182   4.641   3.193   5.358  0.0181 -0.1771  0.2343
 4849SOL    HW126183   4.659   3.248   5.434 -1.6302  0.7559 -0.0612
 4849SOL    HW226184   4.711   3.128   5.359 -0.5406 -0.8181 -1.8344
 4850SOL     OW26185   2.912   0.762   6.678 -0.1251 -0.1210 -0.2652
 4850SOL    HW126186   2.882   0.852   6.691  1.5058  0.3350  0.3533
 4850SOL    HW226187   2.901   0.739   6.586 -0.2914 -0.8627 -0.0577
 4851SOL     OW26188   1.856   3.411   4.701  0.5406  0.0539  0.4606
 4851SOL    HW126189   1.883   3.490   4.747 -3.8987  0.8597  1.7053
 4851SOL    HW226190   1.799   3.370   4.765  1.9585 -1.1405  0.9458
 4852SOL     OW26191   2.902   2.997   4.431  0.0500  0.3372  0.3388
 4852SOL    HW126192   2.813   2.960   4.432  0.4254 -0.5566  0.5249
 4852SOL    HW226193   2.888   3.076   4.379 -3.5516  0.1985  1.0924
 4853SOL     OW26194   0.137   0.454   6.686  0.5876  0.8684  0.1398
 4853SOL    HW126195   0.123   0.363   6.710 -0.5221  0.7197 -1.1116
 4853SOL    HW226196   0.049   0.490   6.675 -0.3268 -1.8169 -1.1331
 4854SOL     OW26197   0.883   1.141   5.271  0.5035  0.5014 -0.1921
 4854SOL    HW126198   0.879   1.220   5.218  0.7011  0.9007  0.3888
 4854SOL    HW226199   0.855   1.074   5.209  2.0642  1.9584 -2.4603
 4855SOL     OW26200   0.617   2.549   7.090  0.5217  0.1751  0.3552
 4855SOL    HW126201   0.626   2.614   7.020  0.3160 -1.2463 -0.9830
 4855SOL    HW226202   0.573   2.479   7.042  0.5684  0.0230  0.5375
 4856SOL     OW26203   3.452   1.500   8.481 -0.1902  0.1950  0.0996
 4856SOL    HW126204   3.470   1.575   8.425 -0.6805  0.6762  0.5883
 4856SOL    HW226205   3.376   1.520   8.535  1.3034  0.7589  1.9687
 4857SOL     OW26206   3.186   3.977   7.185  0.1421 -0.0360 -0.6112
 4857SOL    HW126207   3.238   4.043   7.140  1.0238 -2.1355 -2.6380
 4857SOL    HW226208   3.163   4.026   7.264  1.0779 -1.0379  0.2775
 4858SOL     OW26209   0.413   2.837  10.825 -0.0557  0.1277 -0.1220
 4858SOL    HW126210   0.501   2.835  10.787 -0.1599  0.2845 -0.3737
 4858SOL    HW226211   0.385   2.902  10.760  1.6198  0.4304 -0.5377
 4859SOL     OW26212   3.516   0.253  10.858 -0.4300  0.0306  0.0237
 4859SOL    HW126213   3.517   0.205  10.775 -3.1288 -0.5278  0.3243
 4859SOL    HW226214   3.586   0.317  10.847  0.0396 -0.7102 -1.3358
 4860SOL     OW26215   2.189   1.306   2.441 -0.3984  0.3074  0.8380
 4860SOL    HW126216   2.102   1.325   2.405 -0.3110  1.7318  1.4103
 4860SOL    HW226217   2.240   1.254   2.379  0.5351  1.2110  0.8539
 4861SOL     OW26218   3.783   1.947   3.002 -0.7633 -0.0573  0.5178
 4861SOL    HW126219   3.834   1.905   2.932  0.0492 -0.4895  1.3653
 4861SOL    HW226220   3.801   2.041   2.990  0.6690 -0.0733  2.4544
 4862SOL     OW26221   0.579   3.675  13.020  0.5527  0.1263  0.1112
 4862SOL    HW126222   0.504   3.693  12.964  0.2371  1.5647  1.0144
 4862SOL    HW226223   0.608   3.601  12.967  2.9149  1.4729 -0.4593
 4863SOL     OW26224   3.569   3.389   1.987 -0.4998  0.4167  0.3145
 4863SOL    HW126225   3.582   3.484   1.986  0.9537  0.2364  1.2924
 4863SOL    HW226226   3.648   3.361   2.033  0.1508  2.2628  0.3428
 4864SOL     OW26227   0.055   1.790   3.821  0.2286  0.1756 -0.2061
 4864SOL    HW126228   0.119   1.816   3.888 -0.6592 -0.6185  0.9631
 4864SOL    HW226229   0.087   1.844   3.749  2.4419 -1.4396 -0.4533
 4865SOL     OW26230   0.495   4.033   1.968 -0.6710 -0.2282  0.0064
 4865SOL    HW126231   0.456   4.036   2.055 -2.1573 -1.4330 -0.6162
 4865SOL    HW226232   0.425   4.067   1.912 -0.7275 -0.6599 -0.1874
 4866SOL     OW26233   1.076   0.021  13.397  0.1026  0.2057  0.0480
 4866SOL    HW126234   1.084   0.035  13.303 -0.6827 -1.9188 -0.3436
 4866SOL    HW226235   1.159   4.728  13.435 -0.2554 -0.2256  0.5325
 4867SOL     OW26236   2.654   0.069   5.238  0.0685  0.9015  0.0948
 4867SOL    HW126237   2.649   4.724   5.184 -2.2200 -0.3746  2.1567
 4867SOL    HW226238   2.705   0.041   5.314 -0.2365  0.0464 -0.0148
 4868SOL     OW26239   1.232   1.081  17.514  0.3464  0.2499  0.5213
 4868SOL    HW126240   1.168   1.137  17.471 -0.5985 -0.4694  0.9719
 4868SOL    HW226241   1.307   1.117  17.467  1.1100 -0.6801  1.0217
 4869SOL     OW26242   4.231   4.628   8.193 -0.3277  0.0072 -0.6583
 4869SOL    HW126243   4.212   4.650   8.284  1.5988 -0.0206 -0.2435
 4869SOL    HW226244   4.198   4.704   8.145 -0.5881  1.6774  2.1350
 4870SOL     OW26245   2.474   4.102   0.219 -0.0276 -0.2641 -0.0442
 4870SOL    HW126246   2.434   4.136   0.300 -0.5986 -0.9760 -0.0224
 4870SOL    HW226247   2.519   4.026   0.255 -2.0715 -0.0533  3.0332
 4871SOL     OW26248   0.100   4.165   0.026  1.0146 -0.0915 -0.0778
 4871SOL    HW126249   0.187   4.132   0.048  1.4218  0.8242 -0.3019
 4871SOL    HW226250   0.092   4.144  17.668  2.8782 -1.3195  0.0324
 4872SOL     OW26251   0.183   3.660  16.962  0.3611  0.5804  0.5174
 4872SOL    HW126252   0.165   3.567  16.948 -1.9391  1.1403 -0.3297
 4872SOL    HW226253   0.154   3.698  16.878 -0.2805 -0.5321  0.2320
 4873SOL     OW26254   4.691   2.088   0.638  0.6416 -0.3226 -0.3666
 4873SOL    HW126255   4.628   2.025   0.603 -0.4207  0.7561 -0.3900
 4873SOL    HW226256   0.015   2.022   0.675  2.6558  2.0099  0.6549
 4874SOL     OW26257   2.838   0.606  15.533  0.3278 -0.3050 -0.2129
 4874SOL    HW126258   2.890   0.551  15.473  0.7985 -2.5279  2.2169
 4874SOL    HW226259   2.748   0.574  15.529 -0.5771  2.1570  0.5934
 4875SOL     OW26260   2.499   0.860   4.898  0.5833 -0.5132 -0.6246
 4875SOL    HW126261   2.415   0.897   4.869  1.5525  1.6910 -0.5992
 4875SOL    HW226262   2.478   0.781   4.948  0.8354 -0.4419 -0.4031
 4876SOL     OW26263   3.777   0.265   4.438  0.4376  0.6040 -0.0536
 4876SOL    HW126264   3.759   0.356   4.461  0.7439  0.2816  1.4578
 4876SOL    HW226265   3.868   0.250   4.462  0.6284  0.3338 -0.9642
 4877SOL     OW26266   2.205   0.802   1.608  0.3146 -0.0830 -0.2984
 4877SOL    HW126267   2.143   0.841   1.670  1.2818 -0.7544  1.0739
 4877SOL    HW226268   2.159   0.720   1.590  0.6904 -0.0182 -1.5717
 4878SOL     OW26269   2.551   3.497   1.388  0.1781 -0.1120 -0.1004
 4878SOL    HW126270   2.619   3.563   1.405  0.9572 -0.8216 -0.4542
 4878SOL    HW226271   2.518   3.530   1.304 -1.1657  1.0708  0.9062
 4879SOL     OW26272   2.191   3.928   3.639  0.1721 -0.1107  0.1046
 4879SOL    HW126273   2.252   3.871   3.686 -1.7224  0.7777  3.6311
 4879SOL    HW226274   2.202   3.893   3.550 -1.0406  1.7113 -0.7491
 4880SOL     OW26275   2.682   2.879   4.345 -0.2397 -0.2620 -0.1169
 4880SOL    HW126276   2.648   2.796   4.380  2.3693 -0.0853  2.7233
 4880SOL    HW226277   2.636   2.896   4.262 -1.5552 -1.0199  0.4537
 4881SOL     OW26278   2.503   0.395   5.978 -0.3921 -0.2309 -0.3238
 4881SOL    HW126279   2.581   0.343   6.002  0.5510 -0.2106 -3.3171
 4881SOL    HW226280   2.539   0.482   5.991  0.2179 -0.4373 -0.5987
 4882SOL     OW26281   1.965   2.796  12.264 -0.2898  0.2718 -0.0162
 4882SOL    HW126282   1.942   2.824  12.353 -1.1086  1.1662 -0.5121
 4882SOL    HW226283   2.000   2.708  12.280 -2.4989 -0.1050  2.9051
 4883SOL     OW26284   1.402   4.603   2.453 -0.1088  0.6411 -0.6767
 4883SOL    HW126285   1.491   4.626   2.480 -0.3439 -1.6753  2.0717
 4883SOL    HW226286   1.404   4.628   2.360 -1.1128 -1.1418 -1.1850
 4884SOL     OW26287   3.615   3.011   6.972  0.4256 -0.2641  0.2233
 4884SOL    HW126288   3.606   3.005   7.067 -2.0159  1.8261  0.1113
 4884SOL    HW226289   3.525   3.002   6.941 -0.6680  2.7814  2.5307
 4885SOL     OW26290   3.982   2.543  11.843  0.3865 -1.1301 -0.0666
 4885SOL    HW126291   3.920   2.496  11.898  2.3703 -3.1343  0.4356
 4885SOL    HW226292   4.066   2.528  11.885  0.7702  3.6186  0.9197
 4886SOL     OW26293   3.621   2.191   8.367 -0.1857  0.0123  0.3327
 4886SOL    HW126294   3.556   2.124   8.345  0.1162 -0.8624  2.1024
 4886SOL    HW226295   3.613   2.195   8.462  1.0102  1.4349  0.3770
 4887SOL     OW26296   1.954   4.148   9.511  0.1343 -0.8700  0.4843
 4887SOL    HW126297   1.902   4.069   9.516 -0.7356 -0.2823  0.7264
 4887SOL    HW226298   1.996   4.139   9.426 -2.0006 -0.2943 -0.6249
 4888SOL     OW26299   2.122   1.086  15.860  0.2239  0.1343 -0.3953
 4888SOL    HW126300   2.121   1.039  15.944 -0.3458  2.1574  0.7364
 4888SOL    HW226301   2.028   1.106  15.863  0.3039 -0.0206  3.1051
 4889SOL     OW26302   2.452   4.383   6.339  1.0489  0.1257 -0.1423
 4889SOL    HW126303   2.495   4.301   6.363  0.1301 -0.5999 -0.9722
 4889SOL    HW226304   2.461   4.373   6.244 -0.8234 -0.9394 -0.1959
 4890SOL     OW26305   4.554   0.827  16.678  0.3996 -0.0163  0.0430
 4890SOL    HW126306   4.578   0.763  16.610  2.5879  1.6926 -0.7896
 4890SOL    HW226307   4.550   0.768  16.754 -0.6909  0.5227  0.3971
 4891SOL     OW26308   0.217   4.527   6.286 -0.0566 -0.4391  0.2057
 4891SOL    HW126309   0.145   4.466   6.304  0.9091 -1.5863  0.1834
 4891SOL    HW226310   0.188   4.560   6.201 -0.5789  0.0574  0.5752
 4892SOL     OW26311   2.905   4.523   5.707 -0.1410  0.2309  0.1749
 4892SOL    HW126312   2.947   4.590   5.652 -0.3932 -0.4838 -0.8836
 4892SOL    HW226313   2.984   4.496   5.754 -0.2823 -0.2999  0.1002
 4893SOL     OW26314   3.060   3.723   9.064 -0.2454 -0.0989  0.0675
 4893SOL    HW126315   3.030   3.686   9.147  1.2508  1.3144  1.2526
 4893SOL    HW226316   3.000   3.797   9.051 -0.4645  0.0334  1.7964
 4894SOL     OW26317   1.648   1.709  16.638  0.0037 -0.1833  0.1911
 4894SOL    HW126318   1.628   1.632  16.692 -0.9607  0.5200  0.8326
 4894SOL    HW226319   1.692   1.673  16.561  0.7639 -0.8552  0.9430
 4895SOL     OW26320   3.121   2.198   0.442  0.2719  0.0543  0.1855
 4895SOL    HW126321   3.151   2.287   0.458  0.0434  0.0745  0.4973
 4895SOL    HW226322   3.148   2.170   0.354  0.2276 -0.7411  0.4268
 4896SOL     OW26323   0.336   0.690   9.163  0.7012  0.1064  0.0570
 4896SOL    HW126324   0.252   0.695   9.117  0.2427 -0.2896  0.8419
 4896SOL    HW226325   0.375   0.773   9.137  2.0677 -1.0055 -1.3846
 4897SOL     OW26326   4.145   2.129  11.572  0.2099 -0.0031 -0.2949
 4897SOL    HW126327   4.099   2.135  11.488  0.1237 -0.8906 -0.3125
 4897SOL    HW226328   4.112   2.041  11.593 -1.2627  0.7499  0.5162
 4898SOL     OW26329   1.644   3.827  16.522  0.1202  0.6382 -0.2255
 4898SOL    HW126330   1.637   3.731  16.519 -0.0418  0.6433  0.0255
 4898SOL    HW226331   1.700   3.830  16.600  0.1866 -0.7332 -0.2094
 4899SOL     OW26332   0.818   1.398   8.625 -0.3725  0.0825  0.0665
 4899SOL    HW126333   0.856   1.330   8.570  1.1648  0.4386  0.6687
 4899SOL    HW226334   0.882   1.381   8.695  1.3349  0.0865 -1.4769
 4900SOL     OW26335   0.129   1.730   8.988  0.2704 -0.0371 -0.1319
 4900SOL    HW126336   0.188   1.803   8.969  1.7479 -1.2381 -0.1899
 4900SOL    HW226337   0.194   1.660   8.986 -1.5441 -1.6887 -1.9429
 4901SOL     OW26338   0.833   3.008   0.188 -0.1548 -0.1620  0.1346
 4901SOL    HW126339   0.814   2.915   0.177  2.4044 -0.1841 -3.8301
 4901SOL    HW226340   0.837   3.041   0.098  1.2153 -0.1798  0.1949
 4902SOL     OW26341   0.611   2.680  10.527  0.6377  0.6759  0.1317
 4902SOL    HW126342   0.640   2.692  10.437  0.5889  0.0693  0.0330
 4902SOL    HW226343   0.582   2.765  10.560 -1.9653 -0.5761  1.1077
 4903SOL     OW26344   4.287   4.018   1.815  0.4638  0.7492  0.5281
 4903SOL    HW126345   4.200   4.011   1.775  0.5384 -1.5017  0.7388
 4903SOL    HW226346   4.298   4.113   1.811  0.8204  0.7273  0.9754
 4904SOL     OW26347   1.736   1.185   2.465 -0.1108 -0.3531  0.2036
 4904SOL    HW126348   1.733   1.229   2.550  2.4281  0.9911 -0.4122
 4904SOL    HW226349   1.656   1.133   2.472 -0.2653 -0.3873 -1.8332
 4905SOL     OW26350   2.254   3.889   2.248  0.1733 -0.0952  0.4194
 4905SOL    HW126351   2.228   3.916   2.336  1.2300  0.5611  0.5323
 4905SOL    HW226352   2.350   3.897   2.247  0.0224  1.6282 -0.0965
 4906SOL     OW26353   4.708   0.019   4.722 -0.4979  0.1159 -0.1864
 4906SOL    HW126354   4.648   0.089   4.746  0.3321  1.0832 -0.9111
 4906SOL    HW226355   0.029   0.025   4.800  0.1016 -1.4223 -0.4897
 4907SOL     OW26356   3.156   4.477  14.099  0.1870  0.4892 -0.5997
 4907SOL    HW126357   3.121   4.493  14.187 -0.6435  1.3562 -1.0955
 4907SOL    HW226358   3.178   4.562  14.061  1.5824  0.0026 -0.8831
 4908SOL     OW26359   4.521   0.933   6.766  0.0286  0.0987  0.1736
 4908SOL    HW126360   4.547   0.932   6.674  0.5125  1.0585  0.3050
 4908SOL    HW226361   4.530   0.840   6.788  1.6141  0.1424 -0.2944
 4909SOL     OW26362   3.025   4.019   3.549  0.0851  0.1392 -0.4842
 4909SOL    HW126363   3.040   4.109   3.521 -0.9062  0.1040 -1.1416
 4909SOL    HW226364   3.070   4.018   3.633  0.3682 -0.9253 -0.6531
 4910SOL     OW26365   1.481   2.715   4.582 -1.1122 -0.4856  0.4138
 4910SOL    HW126366   1.566   2.700   4.622 -1.5613  0.4760  1.7126
 4910SOL    HW226367   1.499   2.801   4.542  4.2267 -0.8719  2.0668
 4911SOL     OW26368   1.339   1.564   0.940  0.1812 -0.2064 -0.3085
 4911SOL    HW126369   1.434   1.574   0.947  0.3640 -0.6347 -2.2030
 4911SOL    HW226370   1.333   1.478   0.982 -1.9750 -0.7787 -1.7849
 4912SOL     OW26371   3.661   4.068  13.688  0.1425  0.0660 -0.7672
 4912SOL    HW126372   3.691   4.159  13.686 -2.1461  0.8327 -0.9640
 4912SOL    HW226373   3.639   4.044  13.598  0.2866  1.6676 -1.2350
 4913SOL     OW26374   2.269   4.073  13.243 -0.4964 -0.5823  0.6126
 4913SOL    HW126375   2.263   4.099  13.151 -2.7631  1.4288  1.3319
 4913SOL    HW226376   2.325   4.138  13.284 -1.2852  0.6974 -0.3449
 4914SOL     OW26377   0.867   4.238   9.247 -0.3807 -0.8275  0.0229
 4914SOL    HW126378   0.817   4.311   9.283 -1.5974 -2.6131  1.9266
 4914SOL    HW226379   0.845   4.168   9.309  0.9118  0.1716  1.6055
 4915SOL     OW26380   4.440   3.767  12.470 -0.2134 -0.3233  0.6481
 4915SOL    HW126381   4.529   3.754  12.437 -0.1974  0.1986  0.4927
 4915SOL    HW226382   4.452   3.763  12.565  0.8200 -0.7835  0.5034
 4916SOL     OW26383   4.563   0.978   8.252  0.2387  0.0526  0.3019
 4916SOL    HW126384   4.526   0.895   8.223  0.1639  0.1130  0.2245
 4916SOL    HW226385   4.652   0.962   8.219  0.3378  1.4758 -0.1506
 4917SOL     OW26386   2.411   1.490  16.908  0.1741 -0.4097  0.0147
 4917SOL    HW126387   2.330   1.440  16.921 -1.1150  0.8160 -3.4207
 4917SOL    HW226388   2.452   1.430  16.846 -0.9621 -0.0113 -1.1228
 4918SOL     OW26389   1.096   4.410   9.697 -0.1961  0.4479  0.1244
 4918SOL    HW126390   1.031   4.464   9.741  0.3609  1.6174 -0.5013
 4918SOL    HW226391   1.155   4.478   9.666  0.8969  0.6157  2.6158
 4919SOL     OW26392   4.122   2.863   2.147 -0.2690 -0.4238 -0.1222
 4919SOL    HW126393   4.176   2.809   2.205 -0.8417 -1.5630 -0.6465
 4919SOL    HW226394   4.078   2.785   2.114  1.0692 -0.6422 -1.4279
 4920SOL     OW26395   0.790   1.875   0.238  0.2243  0.6611  0.4366
 4920SOL    HW126396   0.716   1.933   0.257 -1.3087 -1.4315  0.8984
 4920SOL    HW226397   0.832   1.926   0.170  0.1984  0.3303  0.1711
 4921SOL     OW26398   3.334   3.094   6.902  0.2179 -0.1368 -0.6843
 4921SOL    HW126399   3.335   3.189   6.887 -2.0739 -0.0444 -0.1651
 4921SOL    HW226400   3.274   3.100   6.976  1.8777 -2.1773  0.8133
 4922SOL     OW26401   2.792   0.523   4.909  0.3349  0.3837  0.4425
 4922SOL    HW126402   2.849   0.521   4.987 -0.7283  0.5923  1.2266
 4922SOL    HW226403   2.736   0.451   4.939  0.9483 -1.6708 -3.4479
 4923SOL     OW26404   3.181   1.974   3.591 -0.0940  0.0462 -0.4334
 4923SOL    HW126405   3.195   1.996   3.499  0.9345 -0.1534 -0.3226
 4923SOL    HW226406   3.190   1.878   3.589  0.4432  0.1430 -3.1341
 4924SOL     OW26407   3.051   2.751   6.823  0.3115  0.0598 -0.1331
 4924SOL    HW126408   3.035   2.668   6.778  0.2187 -0.0149  0.0345
 4924SOL    HW226409   3.022   2.814   6.757  1.6381  1.1727  0.3494
 4925SOL     OW26410   0.551   3.530   8.373 -0.5237 -0.1608  0.2242
 4925SOL    HW126411   0.637   3.564   8.397 -0.8956  0.0798  1.2220
 4925SOL    HW226412   0.574   3.449   8.327  1.3095 -0.3748  1.4960
 4926SOL     OW26413   1.544   3.831  16.170 -0.3712  0.1585  0.5737
 4926SOL    HW126414   1.603   3.905  16.165  0.6837 -0.6279  1.3300
 4926SOL    HW226415   1.461   3.874  16.150 -0.9877 -1.8599 -1.2568
 4927SOL     OW26416   1.349   3.230   8.583 -0.3025  0.0831  1.0730
 4927SOL    HW126417   1.431   3.278   8.576 -0.2170 -0.1159  0.6926
 4927SOL    HW226418   1.384   3.147   8.614 -1.8526 -1.5711 -1.5453
 4928SOL     OW26419   1.907   3.544  16.817  0.4325  0.1467 -0.0766
 4928SOL    HW126420   1.951   3.506  16.741  1.0650 -0.3769  0.5390
 4928SOL    HW226421   1.893   3.462  16.865 -0.3931  0.9910  1.1212
 4929SOL     OW26422   4.497   3.598   6.590 -0.0317  0.3168 -0.5823
 4929SOL    HW126423   4.521   3.570   6.678  0.3445 -0.1468 -0.8319
 4929SOL    HW226424   4.536   3.526   6.541  1.3298  0.8273 -0.2421
 4930SOL     OW26425   3.848   4.616   2.808  0.2596 -0.6782  0.0958
 4930SOL    HW126426   3.891   4.533   2.784 -0.4734 -1.1598  0.4412
 4930SOL    HW226427   3.756   4.592   2.805  1.2050 -4.6330  2.2041
 4931SOL     OW26428   2.938   2.262   8.806 -0.8998 -0.2339 -0.4560
 4931SOL    HW126429   2.876   2.211   8.858  0.6621 -0.3971  1.2502
 4931SOL    HW226430   2.886   2.326   8.758 -0.2660  0.9727  0.4616
 4932SOL     OW26431   0.639   1.803   6.119 -0.1837 -0.4142  0.1627
 4932SOL    HW126432   0.692   1.744   6.066 -0.0273  0.1638 -0.3282
 4932SOL    HW226433   0.592   1.856   6.054  3.7100  0.9163 -1.5588
 4933SOL     OW26434   3.940   3.009   8.801  0.2029 -0.7081 -0.0692
 4933SOL    HW126435   3.899   2.961   8.872 -2.0924  0.6781 -0.4445
 4933SOL    HW226436   4.004   3.062   8.848 -0.1287  0.6493 -1.1258
 4934SOL     OW26437   0.601   2.366  10.617 -0.2636  0.1757 -0.1434
 4934SOL    HW126438   0.586   2.350  10.710  0.3265  1.1814  0.1298
 4934SOL    HW226439   0.653   2.447  10.616 -1.3263  0.8603  0.2285
 4935SOL     OW26440   1.733   2.012   2.974  0.0728  0.5326  0.0060
 4935SOL    HW126441   1.807   2.044   3.027  1.3626  0.8813 -2.0187
 4935SOL    HW226442   1.713   2.080   2.911 -1.8500  0.8631  0.9611
 4936SOL     OW26443   3.118   4.628   1.623  0.5682  0.4184  0.0874
 4936SOL    HW126444   3.118   4.598   1.532  1.3131 -0.2123  0.2936
 4936SOL    HW226445   3.049   4.694   1.627  0.7303  0.5533  0.6200
 4937SOL     OW26446   1.936   1.042   9.034  1.1424  0.2969 -0.3378
 4937SOL    HW126447   1.920   1.133   9.059 -1.9039  0.2215 -2.0714
 4937SOL    HW226448   1.920   1.050   8.940  0.9718  1.6104 -0.2054
 4938SOL     OW26449   2.678   1.946   1.045 -0.4204  0.4085 -0.0033
 4938SOL    HW126450   2.690   1.853   1.062 -2.7671  0.0295 -0.4312
 4938SOL    HW226451   2.766   1.968   1.014  0.2937 -1.0541  0.9498
 4939SOL     OW26452   1.315   2.996   7.456  0.2310 -0.2477 -0.3452
 4939SOL    HW126453   1.360   2.912   7.460  0.1843 -0.0870  3.7240
 4939SOL    HW226454   1.267   3.006   7.539  0.0054  0.5205 -0.5636
 4940SOL     OW26455   0.225   3.797   5.342  0.5174 -0.0238  0.2329
 4940SOL    HW126456   0.245   3.705   5.358 -2.3665 -0.8026 -0.7463
 4940SOL    HW226457   0.247   3.843   5.423 -0.3265  0.0158  0.4361
 4941SOL     OW26458   4.387   2.083   3.960 -0.5433  0.0051 -0.3279
 4941SOL    HW126459   4.478   2.067   3.986  0.5689  2.8402 -2.3567
 4941SOL    HW226460   4.338   2.054   4.036 -0.2008 -0.2429 -0.2049
 4942SOL     OW26461   1.955   4.269   5.784 -0.1906 -0.1625  0.3845
 4942SOL    HW126462   1.908   4.245   5.704 -0.9686  2.7636 -0.0510
 4942SOL    HW226463   1.923   4.200   5.841 -1.0017  1.9953  2.5438
 4943SOL     OW26464   0.247   0.174   6.752 -0.3691  0.6843  0.1083
 4943SOL    HW126465   0.322   0.116   6.762  0.1908  1.6642  1.5837
 4943SOL    HW226466   0.199   0.158   6.834  1.2728  1.2194  1.1780
 4944SOL     OW26467   3.681   1.190   8.451 -0.2105 -0.3895  0.2738
 4944SOL    HW126468   3.597   1.170   8.411 -1.2650 -0.2115  2.4100
 4944SOL    HW226469   3.745   1.162   8.385 -1.8055 -1.4180 -0.8462
 4945SOL     OW26470   4.379   2.800  13.179 -0.1760  0.3731  0.0248
 4945SOL    HW126471   4.342   2.862  13.242 -1.2895 -0.7297  0.4574
 4945SOL    HW226472   4.389   2.861  13.106 -0.0633  0.1421 -0.1528
 4946SOL     OW26473   2.208   4.436   9.804  0.5060  0.5457  0.3559
 4946SOL    HW126474   2.130   4.473   9.845  0.3383  1.5353 -0.8480
 4946SOL    HW226475   2.237   4.510   9.751  1.2835  1.3951  1.9383
 4947SOL     OW26476   2.611   3.336   6.725 -0.0151 -0.1253  0.7767
 4947SOL    HW126477   2.560   3.413   6.698  0.0258 -0.4300 -0.1645
 4947SOL    HW226478   2.609   3.278   6.648  3.8610  0.5101  0.1762
 4948SOL     OW26479   2.388   0.113   4.483  0.3991 -0.5548  0.6668
 4948SOL    HW126480   2.339   0.194   4.496  0.1176 -0.8211  1.2803
 4948SOL    HW226481   2.478   0.144   4.470  0.1972 -0.8690 -1.3841
 4949SOL     OW26482   1.160   3.199   8.367 -0.3695  0.2272 -0.3947
 4949SOL    HW126483   1.237   3.207   8.423 -0.0967  2.8659 -1.1618
 4949SOL    HW226484   1.195   3.248   8.293 -1.9555 -1.9379 -2.5983
 4950SOL     OW26485   0.272   2.652   2.055 -0.5930  0.3687  0.3001
 4950SOL    HW126486   0.299   2.713   2.123 -2.5101  2.2576 -0.6014
 4950SOL    HW226487   0.343   2.681   1.998 -0.5959 -0.0020  0.1084
 4951SOL     OW26488   3.896   1.311   2.608 -0.2014 -0.2016 -0.2149
 4951SOL    HW126489   3.936   1.230   2.640 -1.4522 -0.4138  0.7930
 4951SOL    HW226490   3.803   1.293   2.623 -0.0401 -1.3361 -0.5472
 4952SOL     OW26491   2.712   4.132   3.049 -0.1889  0.7756  0.5696
 4952SOL    HW126492   2.655   4.058   3.027  0.9640 -0.1878  0.8162
 4952SOL    HW226493   2.762   4.140   2.968 -0.2679  0.4305  0.4864
 4953SOL     OW26494   4.006   1.227   4.280 -0.0345 -0.2525 -0.4585
 4953SOL    HW126495   4.040   1.164   4.216 -2.2758 -0.7685 -1.1486
 4953SOL    HW226496   4.082   1.273   4.316  0.0551 -1.9120  1.4205
 4954SOL     OW26497   3.123   4.210  14.030  0.1663  0.4476  0.1041
 4954SOL    HW126498   3.125   4.304  14.049  1.0534  0.0404  2.0325
 4954SOL    HW226499   3.053   4.213  13.965  0.9248 -0.1254 -0.7446
 4955SOL     OW26500   1.150   2.944   2.992 -0.6112  0.3375  0.7940
 4955SOL    HW126501   1.237   2.908   2.975 -0.6185  0.8932 -0.4531
 4955SOL    HW226502   1.153   2.933   3.087 -0.9610  1.8347  0.9776
 4956SOL     OW26503   3.897   0.154   9.158  0.4555  0.2794 -0.2305
 4956SOL    HW126504   3.905   0.114   9.244  2.4148  0.6894 -0.2200
 4956SOL    HW226505   3.977   0.115   9.121  0.1183  1.1374 -1.8545
 4957SOL     OW26506   4.544   3.202   1.624 -0.1542  0.0958 -0.2873
 4957SOL    HW126507   4.489   3.277   1.601 -1.4038 -1.0793 -1.1947
 4957SOL    HW226508   4.489   3.129   1.595  1.5132 -1.9058  1.6063
 4958SOL     OW26509   2.446   2.976   8.574  0.4903  0.1035 -0.1118
 4958SOL    HW126510   2.353   3.000   8.572  1.0624  2.2512 -1.3180
 4958SOL    HW226511   2.462   2.962   8.667 -0.0989  0.6683  0.0773
 4959SOL     OW26512   4.488   4.030   9.770 -0.2560 -0.0521 -0.2519
 4959SOL    HW126513   4.435   3.952   9.756  0.5360 -0.6702  0.1457
 4959SOL    HW226514   4.425   4.095   9.741 -0.1660 -1.0764 -2.7100
 4960SOL     OW26515   4.381   4.446   7.532 -0.1706  0.6286 -0.1087
 4960SOL    HW126516   4.458   4.415   7.580  1.4948  0.6364 -2.8037
 4960SOL    HW226517   4.357   4.363   7.491 -2.7731  1.2500  0.1554
 4961SOL     OW26518   1.126   2.714  13.269  0.3976 -0.3210  0.1560
 4961SOL    HW126519   1.105   2.662  13.191 -2.2431  0.3531  0.4044
 4961SOL    HW226520   1.190   2.779  13.239 -1.0450  1.6756  1.3993
 4962SOL     OW26521   2.957   0.103   1.320  0.0194 -0.4350 -0.4337
 4962SOL    HW126522   2.939   0.069   1.408 -0.0985 -0.5087 -0.4867
 4962SOL    HW226523   2.914   0.035   1.269 -0.2834  0.6548 -1.6362
 4963SOL     OW26524   0.349   1.490   0.295 -0.0037 -0.3172 -0.3838
 4963SOL    HW126525   0.323   1.582   0.287 -3.2593 -1.3073 -1.3585
 4963SOL    HW226526   0.417   1.493   0.362 -0.8602 -0.8338  0.5065
 4964SOL     OW26527   2.406   0.662   1.734  0.2734  0.3378 -0.0302
 4964SOL    HW126528   2.443   0.710   1.809 -1.1309 -0.8315  1.4106
 4964SOL    HW226529   2.347   0.730   1.701  0.5200  1.3852  1.6630
 4965SOL     OW26530   2.062   0.705   5.613 -0.3822  0.9903  0.2692
 4965SOL    HW126531   2.056   0.620   5.656  1.4611  0.2109 -0.9679
 4965SOL    HW226532   2.107   0.761   5.676 -0.8061  1.8636 -0.2032
 4966SOL     OW26533   2.668   1.906   2.833  0.4271  0.2098  0.0143
 4966SOL    HW126534   2.759   1.884   2.854  0.7698  2.2273  0.6670
 4966SOL    HW226535   2.620   1.832   2.870 -0.9003  0.4945 -1.1673
 4967SOL     OW26536   0.449   4.515   3.636  0.2702  0.4780 -0.0726
 4967SOL    HW126537   0.393   4.557   3.572 -0.4404 -0.9322 -0.3655
 4967SOL    HW226538   0.535   4.525   3.596  1.5556 -1.0890  2.2593
 4968SOL     OW26539   1.526   1.040  12.771 -0.4860 -0.7336  0.3248
 4968SOL    HW126540   1.562   1.010  12.687 -0.0684 -0.7726  0.5214
 4968SOL    HW226541   1.597   1.031  12.834 -0.3041 -2.8612 -0.1950
 4969SOL     OW26542   0.799   4.466   5.744  0.0360 -0.0977  0.3153
 4969SOL    HW126543   0.848   4.424   5.815  1.7119  2.7505  0.8438
 4969SOL    HW226544   0.857   4.542   5.734 -0.7876  0.6636  1.3869
 4970SOL     OW26545   4.385   0.765   8.136  0.1367 -0.2870  0.2058
 4970SOL    HW126546   4.340   0.685   8.161 -1.9763  0.3227 -1.5738
 4970SOL    HW226547   4.478   0.744   8.142  0.2457  0.4854  1.1929
 4971SOL     OW26548   0.665   1.970   5.067  0.0810 -0.1764  0.0365
 4971SOL    HW126549   0.669   1.971   5.163 -0.8069  0.1692  0.0698
 4971SOL    HW226550   0.732   2.034   5.043 -1.6888  2.1282  1.1867
 4972SOL     OW26551   3.730   3.191  10.696 -0.6047  0.1375  0.3156
 4972SOL    HW126552   3.652   3.244  10.680 -0.4793 -0.1096 -1.0952
 4972SOL    HW226553   3.742   3.155  10.608 -0.1478  0.1460  0.3732
 4973SOL     OW26554   1.800   4.618  11.781  0.2484 -0.0471 -0.2001
 4973SOL    HW126555   1.873   4.670  11.747  0.1129 -0.3710 -0.9890
 4973SOL    HW226556   1.835   4.565  11.853 -0.1219  0.9830  0.7348
 4974SOL     OW26557   2.337   0.578   7.966  0.2859 -0.0918 -0.0825
 4974SOL    HW126558   2.421   0.533   7.961  1.1572  1.7665 -1.9481
 4974SOL    HW226559   2.293   0.500   7.998 -1.3407  0.5629 -0.7125
 4975SOL     OW26560   3.994   1.149   5.794  0.2681 -0.1788  0.2707
 4975SOL    HW126561   3.966   1.096   5.869  0.0408  1.4221  1.3079
 4975SOL    HW226562   4.052   1.209   5.843 -0.0927  2.3529 -2.4413
 4976SOL     OW26563   4.233   3.735  10.046  0.7580  0.2840  0.2131
 4976SOL    HW126564   4.298   3.750   9.977  0.1824 -0.0693 -0.4181
 4976SOL    HW226565   4.193   3.651  10.021  0.8888  0.2878 -0.0118
 4977SOL     OW26566   1.089   1.663   4.328 -0.0432 -0.1798 -0.3058
 4977SOL    HW126567   1.035   1.597   4.372  0.8037 -0.0930  0.8527
 4977SOL    HW226568   1.165   1.614   4.297  0.8901  1.0749 -0.0095
 4978SOL     OW26569   4.055   2.560   4.059  0.2488 -0.3514  0.1139
 4978SOL    HW126570   4.064   2.607   4.142 -0.9774  0.7127 -0.3576
 4978SOL    HW226571   4.079   2.470   4.082  1.2818 -0.1194 -0.0446
 4979SOL     OW26572   0.806   3.839   5.327  0.0574 -0.0647 -0.3441
 4979SOL    HW126573   0.873   3.773   5.309 -1.1726 -1.1543 -0.8839
 4979SOL    HW226574   0.856   3.893   5.389 -1.6295  0.1398  0.8389
 4980SOL     OW26575   1.689   4.284   3.016  0.0544 -0.7440  0.1200
 4980SOL    HW126576   1.739   4.286   3.097 -1.6815 -0.1995  1.1790
 4980SOL    HW226577   1.597   4.294   3.042  0.0926 -2.1508  0.7893
 4981SOL     OW26578   0.288   3.438  11.537  0.3169 -0.3700 -0.7200
 4981SOL    HW126579   0.353   3.405  11.475  0.7142 -1.4365  0.2862
 4981SOL    HW226580   0.282   3.363  11.596  1.0394 -0.1583 -0.3767
 4982SOL     OW26581   0.465   2.611   8.266  0.1960  0.6477  0.1177
 4982SOL    HW126582   0.391   2.592   8.324  1.7016 -0.6837  1.6144
 4982SOL    HW226583   0.429   2.651   8.187  0.1206 -1.2060 -0.7915
 4983SOL     OW26584   2.539   3.786   8.942  0.4126 -0.0518 -0.3321
 4983SOL    HW126585   2.472   3.843   8.978  2.2661  1.9811 -0.0834
 4983SOL    HW226586   2.483   3.710   8.928 -2.1997  1.3189  2.7206
 4984SOL     OW26587   0.925   0.612   5.990 -0.7585  1.0907 -0.3646
 4984SOL    HW126588   0.936   0.685   5.930 -0.1740 -1.3311 -3.1870
 4984SOL    HW226589   1.001   0.559   5.964 -0.2596  1.5144  0.2186
 4985SOL     OW26590   3.234   1.900   0.960 -0.0796 -0.4064  0.3888
 4985SOL    HW126591   3.157   1.848   0.982 -0.1311 -0.0981  0.9427
 4985SOL    HW226592   3.271   1.858   0.882  1.5165 -1.5838  1.7651
 4986SOL     OW26593   1.895   4.129  14.795  0.5166 -0.2040 -0.2420
 4986SOL    HW126594   1.925   4.088  14.876 -0.0617 -0.8924 -0.3815
 4986SOL    HW226595   1.954   4.091  14.731 -1.2985 -0.2653 -1.8811
 4987SOL     OW26596   1.123   4.579  13.157 -0.3349 -0.1169 -0.1956
 4987SOL    HW126597   1.031   4.565  13.178  0.5522 -2.6516  1.9822
 4987SOL    HW226598   1.134   4.674  13.153  1.5780 -0.3102  0.3405
 4988SOL     OW26599   1.705   1.307   3.207 -0.0526 -0.5175 -0.2784
 4988SOL    HW126600   1.634   1.294   3.270  0.8365 -0.6188  0.7086
 4988SOL    HW226601   1.679   1.375   3.144  2.0514 -0.4186 -1.0320
 4989SOL     OW26602   1.330   2.875   4.266 -0.3871 -0.1318 -0.0568
 4989SOL    HW126603   1.235   2.862   4.272 -0.3873 -1.4228 -3.2771
 4989SOL    HW226604   1.350   2.793   4.221 -1.3781 -0.4293  0.0471
 4990SOL     OW26605   2.378   2.444  10.233 -0.4142  0.1378  0.4299
 4990SOL    HW126606   2.363   2.359  10.274 -0.3237 -0.0502  0.0750
 4990SOL    HW226607   2.355   2.428  10.141 -0.5948 -1.2169  0.7112
 4991SOL     OW26608   4.118   3.027  16.489 -0.2123 -0.9434  0.0106
 4991SOL    HW126609   4.095   3.086  16.417  1.5001 -0.1966  0.0852
 4991SOL    HW226610   4.063   3.053  16.562  0.3407 -0.8940  0.4118
 4992SOL     OW26611   4.720   3.673   5.476 -0.4807  0.5011  0.3793
 4992SOL    HW126612   0.022   3.625   5.402 -0.6544 -0.7899  1.1266
 4992SOL    HW226613   4.685   3.743   5.422  1.1148  0.4424 -0.7135
 4993SOL     OW26614   1.884   2.366  17.527  0.4146  0.3872 -0.4387
 4993SOL    HW126615   1.894   2.460  17.540  2.4578  0.0408  0.4347
 4993SOL    HW226616   1.789   2.364  17.541  0.4029  1.8002 -0.2836
 4994SOL     OW26617   3.831   2.145   5.743 -0.0816  0.2780  0.0370
 4994SOL    HW126618   3.857   2.231   5.776  0.6135  0.3308 -0.6532
 4994SOL    HW226619   3.745   2.137   5.784 -0.8269  0.1117 -1.5807
 4995SOL     OW26620   1.561   3.185   7.414 -0.2179 -0.1256  0.1314
 4995SOL    HW126621   1.474   3.170   7.451 -0.9090 -2.5087 -2.3597
 4995SOL    HW226622   1.575   3.272   7.450 -1.5256  0.5142 -0.8874
 4996SOL     OW26623   0.742   3.437   4.019 -0.0479 -0.3669 -0.2953
 4996SOL    HW126624   0.768   3.472   3.933 -2.5085 -0.4963 -1.0917
 4996SOL    HW226625   0.652   3.414   3.998  0.1539  0.7366 -2.3818
 4997SOL     OW26626   4.281   1.461  16.211  0.3470  0.3514 -0.1854
 4997SOL    HW126627   4.256   1.431  16.124 -0.9409 -0.2271  0.4000
 4997SOL    HW226628   4.372   1.432  16.214  0.2225  0.1342  1.3562
 4998SOL     OW26629   2.725   0.543   2.336 -0.0053  0.5333 -0.4445
 4998SOL    HW126630   2.659   0.546   2.406  1.6474  1.6743  1.0632
 4998SOL    HW226631   2.796   0.601   2.363  1.4309 -1.5774  0.2199
 4999SOL     OW26632   3.600   2.208   3.363 -0.4520 -0.3139  0.1713
 4999SOL    HW126633   3.628   2.275   3.301 -0.4349 -2.0134 -1.6824
 4999SOL    HW226634   3.688   2.178   3.384  0.2683  1.0525 -0.9051
 5000SOL     OW26635   2.087   2.754   2.442  0.3637  0.4396  0.2737
 5000SOL    HW126636   2.178   2.779   2.424  0.4313 -0.2524 -0.3334
 5000SOL    HW226637   2.037   2.803   2.375 -1.2056  0.5185  1.4994
 5001SOL     OW26638   0.634   2.022   5.492  0.2559 -0.0346  0.3450
 5001SOL    HW126639   0.574   1.962   5.447 -0.1691 -1.0420  2.2578
 5001SOL    HW226640   0.710   1.964   5.492 -0.6345 -1.2069 -0.4028
 5002SOL     OW26641   1.426   1.188   4.470 -0.0272 -0.0297  0.7630
 5002SOL    HW126642   1.466   1.111   4.429  1.2873  1.1967 -0.2685
 5002SOL    HW226643   1.385   1.140   4.542 -1.1936 -1.1994 -0.7033
 5003SOL     OW26644   0.257   4.020   9.543  0.2375  0.4486  0.1947
 5003SOL    HW126645   0.261   4.050   9.634  1.3886  1.6373 -0.2428
 5003SOL    HW226646   0.313   3.943   9.537 -1.0105 -0.3980 -0.6157
 5004SOL     OW26647   0.396   3.506   1.814 -0.1791 -0.1549 -0.3663
 5004SOL    HW126648   0.466   3.568   1.834 -0.4450 -0.4930  1.6326
 5004SOL    HW226649   0.426   3.474   1.728  0.6645  2.8143 -1.1727
 5005SOL     OW26650   1.291   4.615   2.903 -0.0461  0.6096  0.7979
 5005SOL    HW126651   1.263   4.564   2.826 -1.4358  1.4781  0.7230
 5005SOL    HW226652   1.357   4.673   2.865  0.4663 -0.4850 -0.0126
 5006SOL     OW26653   0.022   0.760  17.262  0.0131  0.5300 -0.2368
 5006SOL    HW126654   0.082   0.808  17.319  0.4346  0.6083 -0.7488
 5006SOL    HW226655   0.010   0.831  17.199 -0.5941  0.4012 -0.2647
 5007SOL     OW26656   2.132   0.820  11.079 -0.1848 -0.5295  0.2311
 5007SOL    HW126657   2.173   0.799  10.995  0.2618  1.0001  0.0494
 5007SOL    HW226658   2.042   0.811  11.049  0.1061 -0.2015 -0.7399
 5008SOL     OW26659   4.145   1.424  11.777 -0.5058 -0.1234  0.0828
 5008SOL    HW126660   4.181   1.495  11.723 -1.3055  0.1568 -0.0883
 5008SOL    HW226661   4.054   1.436  11.751 -0.1714  0.2824 -0.8872
 5009SOL     OW26662   0.708   4.241   0.923  0.2887  0.2125  0.3371
 5009SOL    HW126663   0.613   4.249   0.917  0.4065  0.4015 -1.3178
 5009SOL    HW226664   0.730   4.334   0.916 -2.8774  0.7793 -2.2740
 5010SOL     OW26665   2.796   2.961   8.608 -0.1358 -0.4570 -0.0447
 5010SOL    HW126666   2.717   2.983   8.558  0.2688  0.5169 -0.2575
 5010SOL    HW226667   2.856   3.030   8.579 -1.8553  2.3123  2.9610
 5011SOL     OW26668   1.098   0.363   6.224 -0.3489  0.2419 -0.0635
 5011SOL    HW126669   1.084   0.458   6.228 -0.4005  0.3016 -1.6991
 5011SOL    HW226670   1.188   0.360   6.257 -0.5789  3.9391  0.8760
 5012SOL     OW26671   0.580   2.236   3.648 -0.3313  0.0113 -0.2318
 5012SOL    HW126672   0.521   2.309   3.626  0.8376  1.4306  1.3441
 5012SOL    HW226673   0.637   2.226   3.572  2.3611 -2.8185  2.1617
 5013SOL     OW26674   2.431   1.357   7.376  0.9337  0.0326  0.7315
 5013SOL    HW126675   2.385   1.280   7.408 -1.3382  0.5379 -1.2805
 5013SOL    HW226676   2.521   1.346   7.405  0.5429  0.4899  2.0946
 5014SOL     OW26677   4.550   0.262   5.143  0.1274 -0.5011  0.8273
 5014SOL    HW126678   4.640   0.244   5.171  0.5769  1.3895  0.6362
 5014SOL    HW226679   4.528   0.333   5.203 -0.2751  0.0836 -0.0103
 5015SOL     OW26680   2.591   1.181  12.219  0.0413  0.2538  0.0339
 5015SOL    HW126681   2.552   1.107  12.171 -2.2094  1.3609  0.1939
 5015SOL    HW226682   2.513   1.203  12.269 -1.0965 -1.5758 -0.9331
 5016SOL     OW26683   1.330   0.603   4.492 -0.3619  0.2865 -0.4466
 5016SOL    HW126684   1.249   0.631   4.449 -2.0564  0.2904  2.7190
 5016SOL    HW226685   1.324   0.509   4.473  1.5007 -0.3424  2.0979
 5017SOL     OW26686   2.156   1.095  12.654  0.0511 -0.3676 -0.5280
 5017SOL    HW126687   2.110   1.050  12.583 -0.3929  0.2226 -0.6132
 5017SOL    HW226688   2.087   1.098  12.720  1.3596  0.3815  0.8287
 5018SOL     OW26689   0.173   0.290   4.212 -0.1643  0.3910 -0.5060
 5018SOL    HW126690   0.078   0.291   4.216 -0.2628  0.6259 -3.0101
 5018SOL    HW226691   0.195   0.312   4.121  0.3824 -0.1437 -0.4993
 5019SOL     OW26692   2.488   2.229  14.022  0.0972 -0.4048  0.3713
 5019SOL    HW126693   2.455   2.297  14.082 -1.2323  1.1991 -2.1985
 5019SOL    HW226694   2.570   2.266  13.990 -1.3139  0.8519 -1.7725
 5020SOL     OW26695   0.994   0.028  15.545 -0.0225  0.1212  0.0812
 5020SOL    HW126696   0.939   0.054  15.618 -1.3265 -1.2181 -0.4143
 5020SOL    HW226697   1.033   0.115  15.533  1.1705 -0.4730 -0.3940
 5021SOL     OW26698   0.840   2.761   8.788 -0.0926 -0.3959 -0.1621
 5021SOL    HW126699   0.869   2.852   8.796 -1.4340  0.1525 -1.4349
 5021SOL    HW226700   0.781   2.739   8.860 -0.8216 -0.7239 -0.8535
 5022SOL     OW26701   2.300   3.264   9.615  0.1141  0.5874  0.5609
 5022SOL    HW126702   2.352   3.345   9.615 -2.0314  1.9581 -1.0798
 5022SOL    HW226703   2.287   3.241   9.707  1.8967 -2.2434  0.1035
 5023SOL     OW26704   4.103   2.293   4.719 -0.1160  0.2976  0.1717
 5023SOL    HW126705   4.168   2.224   4.736 -1.1874 -0.1537  2.3708
 5023SOL    HW226706   4.140   2.327   4.637  0.0606 -1.5362 -0.5045
 5024SOL     OW26707   0.169   1.690   6.424  0.0399  0.0624  0.1696
 5024SOL    HW126708   0.158   1.780   6.456 -0.2549  0.3843 -0.8475
 5024SOL    HW226709   0.241   1.666   6.482  0.7560  0.7811 -0.4355
 5025SOL     OW26710   3.944   4.262   3.459 -0.3195 -0.0143 -0.2057
 5025SOL    HW126711   3.988   4.228   3.381  1.0353  0.1720  0.4686
 5025SOL    HW226712   3.855   4.292   3.443 -0.7193 -1.8893 -1.4959
 5026SOL     OW26713   1.374   1.984  12.402  0.1750 -0.2168 -0.1522
 5026SOL    HW126714   1.413   1.901  12.427 -1.3026 -0.8524  0.0529
 5026SOL    HW226715   1.312   1.997  12.474 -1.4111  0.6701 -1.6781
 5027SOL     OW26716   3.702   1.324   4.409  0.0197  0.0616  0.4640
 5027SOL    HW126717   3.650   1.362   4.480 -1.4127 -0.1748 -0.4659
 5027SOL    HW226718   3.789   1.351   4.439 -0.2303  1.0826  0.2659
 5028SOL     OW26719   0.635   2.092   7.612  0.4641 -0.0271 -0.1513
 5028SOL    HW126720   0.573   2.054   7.550 -0.6212  0.6080  0.5359
 5028SOL    HW226721   0.698   2.020   7.614 -0.7932 -1.1145  0.4865
 5029SOL     OW26722   1.539   4.279   8.572  0.3435  0.3982  0.2330
 5029SOL    HW126723   1.544   4.281   8.667 -0.1702 -0.2951  0.2794
 5029SOL    HW226724   1.628   4.261   8.542  0.8572  0.0698  1.9646
 5030SOL     OW26725   3.104   3.312  16.347  0.0210 -0.0822  0.0073
 5030SOL    HW126726   3.105   3.223  16.382  0.1093 -0.4761 -0.9794
 5030SOL    HW226727   3.118   3.354  16.432 -1.4264 -0.6987  0.5539
 5031SOL     OW26728   0.268   1.288   4.779 -0.5293  0.1783 -0.1343
 5031SOL    HW126729   0.321   1.251   4.849  0.6825 -0.0062 -1.1429
 5031SOL    HW226730   0.340   1.338   4.741  0.5127 -1.3253 -0.1351
 5032SOL     OW26731   2.406   0.317   4.736  0.7364 -0.5605  0.0230
 5032SOL    HW126732   2.357   0.253   4.788 -0.4276 -0.8503 -1.4311
 5032SOL    HW226733   2.491   0.308   4.781  0.2119  0.4639  1.2120
 5033SOL     OW26734   3.732   3.739   4.909  0.3568 -0.1730 -0.2917
 5033SOL    HW126735   3.816   3.695   4.919 -1.1790 -3.1933 -0.7124
 5033SOL    HW226736   3.713   3.714   4.819 -2.8096  0.1497  0.2907
 5034SOL     OW26737   4.644   0.840   2.624  0.2700  0.0399 -0.1105
 5034SOL    HW126738   4.583   0.909   2.649  0.2983  1.1605 -3.1467
 5034SOL    HW226739   4.716   0.895   2.595  0.2935 -0.8598 -1.7453
 5035SOL     OW26740   2.297   0.607  15.389 -0.8702 -0.4825  0.5441
 5035SOL    HW126741   2.301   0.694  15.350  1.2110 -1.2944 -1.0861
 5035SOL    HW226742   2.206   0.599  15.417 -0.7627 -2.6616  0.2908
 5036SOL     OW26743   2.965   1.363   2.016 -0.6383  0.8318  0.6674
 5036SOL    HW126744   3.048   1.388   2.058  0.2425 -0.4351 -0.3268
 5036SOL    HW226745   2.933   1.446   1.981  0.5408  0.8816 -0.3140
 5037SOL     OW26746   3.646   1.821  11.930 -0.3467  0.3601 -0.0588
 5037SOL    HW126747   3.664   1.907  11.968 -3.2142  0.9163  0.0651
 5037SOL    HW226748   3.563   1.841  11.888  0.2487 -1.6809 -2.2263
 5038SOL     OW26749   0.610   0.700   6.069  0.2604 -0.0747 -0.3811
 5038SOL    HW126750   0.588   0.691   5.977  1.6176  3.4084 -1.0462
 5038SOL    HW226751   0.539   0.747   6.113 -1.4757 -1.9883 -1.1495
 5039SOL     OW26752   3.657   1.499  11.029 -0.3604  0.3105  0.3252
 5039SOL    HW126753   3.632   1.513  10.938 -1.3582 -0.4811  0.4718
 5039SOL    HW226754   3.627   1.582  11.067 -0.7530  0.8323 -1.1369
 5040SOL     OW26755   0.492   1.777   0.795 -0.4717 -0.3940 -0.0704
 5040SOL    HW126756   0.566   1.807   0.742 -0.6143 -1.3165 -0.7814
 5040SOL    HW226757   0.445   1.857   0.818 -1.2429 -1.4187  1.9175
 5041SOL     OW26758   1.662   4.184   4.584 -0.3582 -0.4936 -0.3311
 5041SOL    HW126759   1.682   4.205   4.675 -2.3913 -2.3784  0.5436
 5041SOL    HW226760   1.641   4.272   4.551 -2.3950 -0.1620  1.8190
 5042SOL     OW26761   1.350   3.749   7.282  0.0914  0.2997  0.3867
 5042SOL    HW126762   1.395   3.774   7.202  1.2664 -0.0395  0.9406
 5042SOL    HW226763   1.380   3.659   7.296 -1.1707 -0.5749 -2.6029
 5043SOL     OW26764   0.768   0.943   5.101  0.3405 -0.1703 -0.5563
 5043SOL    HW126765   0.711   0.962   5.027  0.7786  1.7776 -0.4021
 5043SOL    HW226766   0.709   0.935   5.176  2.1917  0.9219  1.0356
 5044SOL     OW26767   2.761   1.158   4.387 -0.7132  0.0436  0.0222
 5044SOL    HW126768   2.696   1.213   4.430 -0.3887  1.7355 -1.6373
 5044SOL    HW226769   2.812   1.223   4.340 -0.2553 -0.3886 -0.0838
 5045SOL     OW26770   2.615   2.135   4.907  0.0869 -0.4024 -0.1080
 5045SOL    HW126771   2.628   2.200   4.838  3.0997 -4.4121 -3.2829
 5045SOL    HW226772   2.615   2.192   4.984  2.2025  0.4659 -0.7410
 5046SOL     OW26773   0.963   1.099   7.277 -0.0629  0.4600  0.4945
 5046SOL    HW126774   0.868   1.108   7.273 -0.0708 -0.5993 -1.9229
 5046SOL    HW226775   0.990   1.187   7.252 -0.2068  0.3282 -0.1414
 5047SOL     OW26776   3.624   2.806   8.068 -0.1369 -0.6101  0.0839
 5047SOL    HW126777   3.601   2.822   8.159  0.0461  1.7831 -0.2850
 5047SOL    HW226778   3.708   2.762   8.080 -0.2651 -0.1867  2.5572
 5048SOL     OW26779   0.305   4.116   3.757  0.0408 -0.0291  0.3691
 5048SOL    HW126780   0.252   4.196   3.762 -1.0899 -0.8573  1.4191
 5048SOL    HW226781   0.258   4.071   3.687  1.7943  0.7727 -1.3563
 5049SOL     OW26782   3.346   0.454   6.226  0.1780 -0.4246  0.2873
 5049SOL    HW126783   3.404   0.419   6.293 -1.3081  1.7624  2.7635
 5049SOL    HW226784   3.263   0.457   6.275 -0.1633  0.7019 -0.3692
 5050SOL     OW26785   2.594   3.492   4.544 -0.4968 -0.6411 -0.2281
 5050SOL    HW126786   2.505   3.498   4.510 -0.6556  0.1359  0.3174
 5050SOL    HW226787   2.589   3.430   4.616  1.4369 -2.1051 -1.3714
 5051SOL     OW26788   2.026   1.445   1.228 -0.6334 -0.1684 -0.3083
 5051SOL    HW126789   2.081   1.393   1.169 -0.9429 -0.0711 -0.6873
 5051SOL    HW226790   1.981   1.500   1.163 -0.0640  1.4530  0.6569
 5052SOL     OW26791   0.635   4.132   2.694  0.0922 -0.4076 -0.0364
 5052SOL    HW126792   0.591   4.171   2.770  2.9021  3.5733 -0.4702
 5052SOL    HW226793   0.712   4.097   2.739 -0.8473 -1.5390  0.6880
 5053SOL     OW26794   3.805   0.455   1.279 -0.3616  0.3423 -0.2318
 5053SOL    HW126795   3.874   0.389   1.277  0.6987  1.4131  0.9265
 5053SOL    HW226796   3.730   0.398   1.298 -0.3239  0.8586  1.4822
 5054SOL     OW26797   0.215   1.344   2.480 -0.5727 -0.2468  0.3078
 5054SOL    HW126798   0.211   1.250   2.496 -2.0625 -0.4094 -0.9288
 5054SOL    HW226799   0.307   1.362   2.498 -0.5833  1.8754 -1.6381
 5055SOL     OW26800   3.874   0.875  17.056 -0.3025  0.4942 -0.4918
 5055SOL    HW126801   3.911   0.960  17.079  1.5062 -0.8794  1.6922
 5055SOL    HW226802   3.840   0.888  16.967  2.3259 -0.1357 -1.6134
 5056SOL     OW26803   2.803   4.627   3.890 -0.0430 -0.2611  0.2308
 5056SOL    HW126804   2.876   4.651   3.947 -1.4568  0.3739  1.7801
 5056SOL    HW226805   2.733   4.599   3.949 -0.5008  0.0086 -0.1955
 5057SOL     OW26806   0.974   2.739   6.415 -0.0940 -0.2002 -0.4284
 5057SOL    HW126807   0.914   2.736   6.490 -0.9095  1.3486 -1.0284
 5057SOL    HW226808   0.931   2.796   6.351  1.7213  0.0671 -1.4153
 5058SOL     OW26809   0.928   2.925   6.213  0.1947 -0.3130 -0.6426
 5058SOL    HW126810   0.888   3.000   6.170 -0.8600  0.0049  0.8802
 5058SOL    HW226811   0.989   2.889   6.148  0.0053 -0.4893 -0.7228
 5059SOL     OW26812   0.551   3.818  13.261 -0.1531  0.0886  0.0527
 5059SOL    HW126813   0.455   3.821  13.255 -0.0485  0.5955 -1.3109
 5059SOL    HW226814   0.563   3.796  13.169 -0.2711  2.0621 -0.4232
 5060SOL     OW26815   3.064   4.701   5.055 -0.2548  0.4237 -0.8851
 5060SOL    HW126816   2.991   0.014   5.014 -0.2540 -0.0123 -1.3938
 5060SOL    HW226817   3.020   4.640   5.114 -0.0786 -1.8911 -3.1514
 5061SOL     OW26818   2.866   1.334   8.340  0.1307  0.4351  0.4120
 5061SOL    HW126819   2.886   1.260   8.398  1.0630  1.3627  1.2603
 5061SOL    HW226820   2.797   1.301   8.284 -1.6735 -1.0711  3.5115
 5062SOL     OW26821   1.053   1.872  13.633  0.5006  0.1862  0.2600
 5062SOL    HW126822   1.091   1.822  13.560 -0.5666  2.3666 -1.7707
 5062SOL    HW226823   0.961   1.846  13.629  0.5954  0.1001 -1.5062
 5063SOL     OW26824   4.082   1.318   5.969  0.5602  0.5843 -0.5068
 5063SOL    HW126825   4.118   1.309   6.057  0.8593 -0.0034 -0.6902
 5063SOL    HW226826   4.097   1.412   5.962  1.7072  0.7119  3.3214
 5064SOL     OW26827   2.492   0.426   8.671 -0.0777  0.3308  0.1262
 5064SOL    HW126828   2.540   0.400   8.750 -0.4156 -0.5868  0.0297
 5064SOL    HW226829   2.408   0.447   8.712 -0.1468 -1.9528  1.1624
 5065SOL     OW26830   3.833   0.783   4.140  0.6912 -0.3275 -0.1604
 5065SOL    HW126831   3.889   0.709   4.115  0.7632 -0.6118  0.8165
 5065SOL    HW226832   3.885   0.861   4.119  0.8289 -0.2478  0.4766
 5066SOL     OW26833   2.307   0.465  10.680  0.1571 -0.7000 -0.0478
 5066SOL    HW126834   2.215   0.475  10.705  0.8448 -1.5169  2.8652
 5066SOL    HW226835   2.297   0.383  10.632 -2.2530  0.3273 -1.2801
 5067SOL     OW26836   0.393   4.609   7.712 -0.3419 -0.1489  0.5492
 5067SOL    HW126837   0.426   4.695   7.736  1.1870 -0.4520 -0.4893
 5067SOL    HW226838   0.307   4.636   7.679 -0.5867 -2.5737 -0.8166
 5068SOL     OW26839   4.025   1.698   6.929  0.4988 -0.4378 -0.2127
 5068SOL    HW126840   4.059   1.666   7.013  1.6192  1.8883  0.2111
 5068SOL    HW226841   4.035   1.620   6.874  2.6594  0.2405 -0.8137
 5069SOL     OW26842   2.403   0.302   6.237 -0.0589  0.3289  0.5093
 5069SOL    HW126843   2.348   0.229   6.209  2.0379 -1.0351 -0.0348
 5069SOL    HW226844   2.374   0.368   6.174 -1.1426  2.0297  2.7420
 5070SOL     OW26845   2.554   1.379  16.410  0.2797  0.0211  0.0716
 5070SOL    HW126846   2.596   1.326  16.342  0.1951  1.3880 -1.0381
 5070SOL    HW226847   2.609   1.456  16.417  2.0677 -1.2555  0.1265
 5071SOL     OW26848   3.639   1.796  10.936  0.4749 -0.0675 -0.4292
 5071SOL    HW126849   3.619   1.879  10.979  3.6809  0.0034  0.9093
 5071SOL    HW226850   3.692   1.755  11.004 -0.2002  2.1760  1.4637
 5072SOL     OW26851   0.082   3.436   8.351 -0.6348 -0.3209 -0.3094
 5072SOL    HW126852   0.131   3.354   8.341 -2.3709 -1.7765  2.9273
 5072SOL    HW226853   0.144   3.507   8.334 -0.8676 -0.6605 -2.5316
 5073SOL     OW26854   1.939   4.652   0.989  0.1112 -0.0713  0.4886
 5073SOL    HW126855   1.889   4.578   1.026  0.4088 -0.4819  0.0636
 5073SOL    HW226856   1.967   4.690   1.072  1.6687  0.2128 -0.1756
 5074SOL     OW26857   2.700   2.943   5.844 -0.1503 -0.1974 -0.3750
 5074SOL    HW126858   2.643   2.910   5.913  1.6622  1.2189  1.8136
 5074SOL    HW226859   2.640   2.968   5.774 -0.5346 -0.0060  0.0278
 5075SOL     OW26860   1.418   1.828   6.246  0.0716  0.3988  0.0717
 5075SOL    HW126861   1.366   1.870   6.178  0.4575  0.0985 -0.4044
 5075SOL    HW226862   1.416   1.739   6.210  0.1179  0.7800 -0.8604
 5076SOL     OW26863   0.184   1.780  12.544 -0.0925  0.0339  0.3215
 5076SOL    HW126864   0.089   1.787  12.532 -0.0694  0.7805  0.5477
 5076SOL    HW226865   0.189   1.710  12.609  1.3259  0.8158  1.0674
 5077SOL     OW26866   0.944   3.097   5.242  0.6971  0.0060 -0.0727
 5077SOL    HW126867   0.940   3.087   5.338  1.4129  1.7718  0.1432
 5077SOL    HW226868   0.985   3.020   5.203  1.0364  0.1166  0.0615
 5078SOL     OW26869   0.983   2.779   7.665 -0.4310  0.6208 -0.6442
 5078SOL    HW126870   0.975   2.864   7.622  0.2122  0.3922 -1.2148
 5078SOL    HW226871   0.890   2.757   7.675 -0.1522 -0.8879 -1.3693
 5079SOL     OW26872   0.088   1.598   0.025  0.5778 -0.1802 -0.1688
 5079SOL    HW126873   0.074   1.624   0.116  0.0964  1.4892 -0.7009
 5079SOL    HW226874   0.023   1.529   0.013 -1.4316  1.7424 -0.5033
 5080SOL     OW26875   1.366   2.463   7.576 -0.2584 -0.0250  0.1576
 5080SOL    HW126876   1.399   2.403   7.643 -3.1775  0.7858  2.3521
 5080SOL    HW226877   1.290   2.500   7.621 -0.9351 -0.1902 -0.8357
 5081SOL     OW26878   1.548   2.474   8.348 -0.1361  0.1383  0.1261
 5081SOL    HW126879   1.476   2.411   8.359  0.9637 -0.7645  2.0405
 5081SOL    HW226880   1.605   2.418   8.295 -1.6227 -1.4888  0.2321
 5082SOL     OW26881   1.040   2.454   8.022  0.6540 -0.1333 -0.1943
 5082SOL    HW126882   0.968   2.391   8.031 -0.1101  0.8623  0.6206
 5082SOL    HW226883   1.080   2.407   7.948  1.1902  2.2958 -1.4511
 5083SOL     OW26884   2.381   0.864   5.857  0.6296  0.4089 -0.0837
 5083SOL    HW126885   2.401   0.798   5.790  0.3865 -1.7130  1.9176
 5083SOL    HW226886   2.467   0.898   5.883  0.2987  0.4084  1.0000
 5084SOL     OW26887   0.372   4.353   4.631 -0.1890  0.2565 -0.3091
 5084SOL    HW126888   0.415   4.415   4.691 -1.0320  0.9414 -0.4078
 5084SOL    HW226889   0.411   4.270   4.658 -0.8048  0.3679  0.9628
 5085SOL     OW26890   0.213   1.365   8.871  1.0541 -0.8697 -0.6410
 5085SOL    HW126891   0.270   1.349   8.795  1.5843 -0.1567 -0.3888
 5085SOL    HW226892   0.266   1.441   8.893 -0.5138 -0.1321  0.5163
 5086SOL     OW26893   2.770   2.867   8.869 -0.2074 -0.0165 -0.7608
 5086SOL    HW126894   2.812   2.877   8.784 -0.4551  2.1264 -0.6392
 5086SOL    HW226895   2.789   2.776   8.892 -0.5640  0.0884 -0.0380
 5087SOL     OW26896   1.244   2.922   4.834 -0.9021  0.4773 -0.1489
 5087SOL    HW126897   1.182   2.863   4.790 -2.6817  0.5057  2.3076
 5087SOL    HW226898   1.189   3.001   4.827 -0.1658  0.8694 -1.5628
 5088SOL     OW26899   0.959   1.656   7.856 -0.3426 -0.3401  0.2896
 5088SOL    HW126900   0.882   1.679   7.804 -1.7478 -3.9475  0.8180
 5088SOL    HW226901   0.934   1.566   7.874  0.3856 -0.6596 -0.3142
 5089SOL     OW26902   1.678   2.515   3.332 -0.4815 -0.0268  0.0162
 5089SOL    HW126903   1.660   2.576   3.403  1.1999  1.1554 -0.5603
 5089SOL    HW226904   1.658   2.575   3.260 -2.3361  0.3204  0.8204
 5090SOL     OW26905   0.410   3.169   4.100 -0.6668  0.4406  0.0697
 5090SOL    HW126906   0.472   3.159   4.172 -1.1223  0.0611  0.4166
 5090SOL    HW226907   0.473   3.173   4.028 -2.8135 -0.5608 -1.8715
 5091SOL     OW26908   2.394   3.178   1.958  0.0996 -0.0452  0.1119
 5091SOL    HW126909   2.471   3.122   1.948  0.3889  0.1863  1.1274
 5091SOL    HW226910   2.411   3.182   2.052  0.4293  4.0189 -0.1264
 5092SOL     OW26911   1.735   2.583   1.415  0.0029  0.0109 -0.5230
 5092SOL    HW126912   1.701   2.658   1.367 -1.2681  0.2527  0.7245
 5092SOL    HW226913   1.761   2.521   1.347 -0.3451  0.2772 -0.9012
 5093SOL     OW26914   0.661   1.119   3.694  0.0149 -0.1108 -0.0458
 5093SOL    HW126915   0.675   1.049   3.631 -2.3684 -1.3981  0.8498
 5093SOL    HW226916   0.618   1.075   3.767 -0.3898 -2.1831 -1.5526
 5094SOL     OW26917   0.245   4.011   3.492 -0.4314 -0.3378 -0.0401
 5094SOL    HW126918   0.236   3.946   3.423 -0.4825  0.6564 -0.9818
 5094SOL    HW226919   0.313   4.058   3.443  0.1344  0.0175  1.0967
 5095SOL     OW26920   2.004   2.022   3.673 -0.0452 -0.1390 -0.5066
 5095SOL    HW126921   1.980   2.072   3.595  0.4592 -2.6631 -2.2774
 5095SOL    HW226922   2.055   1.948   3.639  1.3328  0.4395  0.2869
 5096SOL     OW26923   1.967   2.636   5.643  0.1439 -0.2889 -0.6507
 5096SOL    HW126924   2.055   2.655   5.674  0.2436 -1.7049 -0.0426
 5096SOL    HW226925   1.979   2.650   5.549 -0.2793 -3.3296 -1.1602
 5097SOL     OW26926   2.145   4.218   0.794 -0.1045  0.4027 -0.2783
 5097SOL    HW126927   2.117   4.265   0.872 -1.1327  0.4235 -0.6595
 5097SOL    HW226928   2.217   4.275   0.768 -0.3935  0.1961 -1.5406
 5098SOL     OW26929   4.695   3.015   7.336  0.0011 -0.3175 -0.0375
 5098SOL    HW126930   4.718   3.022   7.429  0.7386 -1.9503 -0.0901
 5098SOL    HW226931   4.673   2.922   7.325 -0.6136 -0.4696  2.5937
 5099SOL     OW26932   2.435   4.540  15.766 -0.2400  0.4546  0.2250
 5099SOL    HW126933   2.397   4.456  15.742  1.1762  0.0352 -0.5162
 5099SOL    HW226934   2.363   4.599  15.744  1.4003  2.5234  0.4172
 5100SOL     OW26935   2.078   1.422   0.923  0.4086  0.8725  0.1977
 5100SOL    HW126936   2.037   1.341   0.954  1.9250  0.2111  0.4954
 5100SOL    HW226937   2.071   1.413   0.827 -1.0184  0.9326  0.2950
 5101SOL     OW26938   0.078   4.684   7.237  0.1384 -0.1048  0.1208
 5101SOL    HW126939   0.157   4.679   7.291 -0.7151 -1.4896  1.2642
 5101SOL    HW226940   0.018   4.629   7.287  0.0834 -0.7603 -0.6621
 5102SOL     OW26941   3.096   2.802   5.657 -0.4323 -0.4016  0.3411
 5102SOL    HW126942   3.136   2.882   5.693 -4.0660  0.8270  1.6431
 5102SOL    HW226943   3.169   2.740   5.660 -0.0352 -0.0179 -1.5187
 5103SOL     OW26944   1.556   0.571   6.946  0.8032 -0.4111  0.3231
 5103SOL    HW126945   1.511   0.596   6.865  3.0093 -2.4236 -1.5214
 5103SOL    HW226946   1.648   0.568   6.921  0.7068  1.2334 -0.2133
 5104SOL     OW26947   1.646   0.941   5.947 -0.1161  0.1199  0.6851
 5104SOL    HW126948   1.616   0.869   5.892 -0.1529 -1.0151  2.1902
 5104SOL    HW226949   1.742   0.942   5.941 -0.1120 -1.6798  0.5639
 5105SOL     OW26950   2.260   1.726   2.304  0.6040  0.1161  0.1748
 5105SOL    HW126951   2.271   1.771   2.220  0.5651  1.6966  1.0195
 5105SOL    HW226952   2.339   1.754   2.351  1.9973 -1.1220 -1.4252
 5106SOL     OW26953   1.546   2.300  13.904 -0.6401 -0.6198 -0.6686
 5106SOL    HW126954   1.510   2.215  13.877 -3.9755 -0.2158  2.4904
 5106SOL    HW226955   1.497   2.314  13.985 -2.4194 -0.2084 -1.8368
 5107SOL     OW26956   3.454   2.357  17.609  0.0532 -0.4609 -0.1500
 5107SOL    HW126957   3.398   2.407  17.549 -3.7360 -1.4812  2.5728
 5107SOL    HW226958   3.406   2.373  17.690 -0.2836  0.9560 -0.6312
 5108SOL     OW26959   3.761   3.160   1.510 -0.2182  0.3206  0.1040
 5108SOL    HW126960   3.855   3.168   1.527  0.3181 -4.4519 -0.4459
 5108SOL    HW226961   3.730   3.201   1.591 -1.3984 -0.4404  0.0470
 5109SOL     OW26962   1.852   0.704   3.880  0.0649  0.1931  0.2583
 5109SOL    HW126963   1.804   0.735   3.956 -0.2889 -1.1445  0.5766
 5109SOL    HW226964   1.910   0.637   3.916 -1.2591 -1.7927 -1.2911
 5110SOL     OW26965   0.741   3.493   5.366  0.2536  0.2451  0.6837
 5110SOL    HW126966   0.768   3.527   5.452 -0.7633  2.1290  0.2706
 5110SOL    HW226967   0.826   3.456   5.343 -0.6877 -2.2316  1.2517
 5111SOL     OW26968   3.939   2.843   2.422  0.1112  0.7304 -0.0139
 5111SOL    HW126969   3.890   2.873   2.345 -1.5085 -1.7523  0.0552
 5111SOL    HW226970   3.921   2.749   2.419 -0.4811  0.8982 -1.7181
 5112SOL     OW26971   2.333   1.395   9.176 -0.4707  0.2234 -0.4177
 5112SOL    HW126972   2.322   1.439   9.092  0.6781 -1.6156 -1.5438
 5112SOL    HW226973   2.402   1.336   9.145 -2.6350 -2.0440 -0.8214
 5113SOL     OW26974   2.796   2.656   4.174 -0.1789 -0.5088 -0.1543
 5113SOL    HW126975   2.706   2.639   4.202 -0.4574 -0.4625 -1.0052
 5113SOL    HW226976   2.848   2.622   4.247  0.4788  0.9206  0.0554
 5114SOL     OW26977   2.032   3.467   6.070 -0.3519  0.6812 -0.0008
 5114SOL    HW126978   2.122   3.478   6.039  0.1174 -1.1840  0.6953
 5114SOL    HW226979   2.050   3.395   6.131 -1.2112  0.6523  0.2149
 5115SOL     OW26980   2.760   1.089   5.774 -0.0880 -0.0398  0.4883
 5115SOL    HW126981   2.839   1.137   5.748  0.6883 -1.2887  0.5073
 5115SOL    HW226982   2.701   1.157   5.742 -2.4788 -2.4215 -0.1124
 5116SOL     OW26983   2.540   1.747  12.767  0.1568  0.6132 -0.0927
 5116SOL    HW126984   2.534   1.663  12.812  1.0001  0.8032  0.3758
 5116SOL    HW226985   2.629   1.778  12.784 -0.6995  2.1560  1.5690
 5117SOL     OW26986   1.290   0.378  14.456 -0.4304 -0.4273 -0.3469
 5117SOL    HW126987   1.374   0.390  14.412  0.3966  1.1697  1.7186
 5117SOL    HW226988   1.306   0.399  14.547  1.1093  0.5738 -0.8488
 5118SOL     OW26989   0.499   4.131   6.562  0.3283  0.1908  0.7647
 5118SOL    HW126990   0.522   4.049   6.518 -0.3376  0.4025  0.0271
 5118SOL    HW226991   0.574   4.184   6.534  1.6843 -3.1225 -1.9107
 5119SOL     OW26992   1.645   3.117   6.213  0.3243  0.1177  0.1535
 5119SOL    HW126993   1.695   3.168   6.149 -0.0055 -0.6873 -0.7437
 5119SOL    HW226994   1.651   3.160   6.298  0.3985 -1.8302  1.1553
 5120SOL     OW26995   0.594   3.735   3.829 -0.3590 -0.5335 -0.4867
 5120SOL    HW126996   0.567   3.649   3.795 -1.6808  0.1559 -1.2117
 5120SOL    HW226997   0.512   3.784   3.829  0.5674  1.0297 -1.6123
 5121SOL     OW26998   2.505   2.992  11.581  0.2793  0.2149  0.2643
 5121SOL    HW126999   2.575   3.057  11.575  1.5170 -1.3203 -2.0630
 5121SOL    HW227000   2.461   3.021  11.501 -0.0399 -0.3235  0.2451
 5122SOL     OW27001   1.037   2.082  16.397  0.2136  0.3505  0.6329
 5122SOL    HW127002   1.101   2.074  16.326  1.4887  0.6351  1.7555
 5122SOL    HW227003   1.026   2.177  16.390 -1.7222  0.2720  2.7456
 5123SOL     OW27004   3.098   2.532   4.141 -0.5847  0.5240 -0.0456
 5123SOL    HW127005   3.034   2.537   4.211 -0.1750  1.3601  0.2717
 5123SOL    HW227006   3.127   2.440   4.145  1.8271  1.3691  2.1125
 5124SOL     OW27007   3.103   4.086   7.971 -0.1736 -0.5809 -0.4990
 5124SOL    HW127008   3.013   4.103   7.999 -0.0171 -2.0139  0.8782
 5124SOL    HW227009   3.091   4.103   7.877 -0.0513  3.8979  0.2885
 5125SOL     OW27010   0.154   4.320   0.396 -0.1345  0.3232 -0.0520
 5125SOL    HW127011   0.088   4.283   0.338 -1.1692  0.7030  0.9013
 5125SOL    HW227012   0.207   4.368   0.331 -0.0021 -0.4996 -0.5532
 5126SOL     OW27013   4.520   1.015  14.211  0.2839 -0.5872  0.4042
 5126SOL    HW127014   4.560   1.099  14.187  0.1907 -0.9941 -1.1664
 5126SOL    HW227015   4.428   1.030  14.187  0.3789 -1.4499 -0.5151
 5127SOL     OW27016   3.698   0.525  17.632 -0.4146 -0.0276  0.4010
 5127SOL    HW127017   3.721   0.466  17.560  1.0398 -2.0772  2.5342
 5127SOL    HW227018   3.613   0.488  17.654 -0.5497  0.4307  0.6393
 5128SOL     OW27019   0.815   4.733   5.919 -0.6027  0.9742  0.3326
 5128SOL    HW127020   0.783   4.684   5.995 -1.9410 -0.2378 -1.0200
 5128SOL    HW227021   0.751   4.712   5.852 -0.4048 -0.4004  0.5783
 5129SOL     OW27022   4.704   1.419   0.434  0.2134  0.0778 -0.7271
 5129SOL    HW127023   4.634   1.408   0.370 -1.4144  1.0558  0.8815
 5129SOL    HW227024   4.691   1.331   0.469  0.9527  0.7662  1.2883
 5130SOL     OW27025   3.377   1.441   0.850  0.6388 -0.7541 -0.2571
 5130SOL    HW127026   3.446   1.422   0.914 -0.2751  2.0155  1.5726
 5130SOL    HW227027   3.411   1.390   0.777  1.4059  0.9555 -1.0801
 5131SOL     OW27028   2.949   1.743   3.564  0.2571  0.0974  0.1225
 5131SOL    HW127029   3.041   1.727   3.544  0.2721 -1.7711  1.6912
 5131SOL    HW227030   2.913   1.781   3.483  0.5582  2.8854  1.2847
 5132SOL     OW27031   2.933   1.179  17.703  0.4295 -0.1192 -0.3935
 5132SOL    HW127032   2.930   1.226  17.620 -1.8523  0.7213  0.1660
 5132SOL    HW227033   2.841   1.169  17.728  0.4797  1.6901  0.5298
 5133SOL     OW27034   3.921   3.912  13.390 -0.1815  0.1135 -0.0094
 5133SOL    HW127035   3.844   3.969  13.399 -0.0560  0.9528 -4.4727
 5133SOL    HW227036   3.880   3.833  13.354  2.1029 -1.7972  1.6201
 5134SOL     OW27037   0.622   2.663  15.174 -0.3950 -0.6853  0.3719
 5134SOL    HW127038   0.598   2.657  15.266  1.7890 -0.4029  0.9572
 5134SOL    HW227039   0.634   2.569  15.160  1.2280 -0.3132 -0.7849
 5135SOL     OW27040   3.704   1.214   5.010 -0.0074 -0.6304 -0.1608
 5135SOL    HW127041   3.632   1.208   5.073  0.5970  0.9606  0.6843
 5135SOL    HW227042   3.772   1.194   5.074 -0.8310 -2.5706  0.0904
 5136SOL     OW27043   0.525   4.322   3.110  0.2626 -0.4084  0.5572
 5136SOL    HW127044   0.486   4.287   3.030  1.7445  1.7126 -1.0969
 5136SOL    HW227045   0.539   4.237   3.153 -0.8592 -0.3394  1.0547
 5137SOL     OW27046   0.445   4.053  17.589 -0.3234  0.3110 -0.0500
 5137SOL    HW127047   0.365   4.060  17.537  0.1074  0.3179 -0.7241
 5137SOL    HW227048   0.501   4.025  17.517  0.0988  0.3750  0.2509
 5138SOL     OW27049   4.479   3.765  13.312  0.2677  0.6239 -0.2304
 5138SOL    HW127050   4.387   3.793  13.315 -0.4601 -1.7798 -0.1711
 5138SOL    HW227051   4.498   3.772  13.218 -0.2117  1.5276 -0.2645
 5139SOL     OW27052   3.070   2.515  14.415  0.3370 -0.6374  0.1711
 5139SOL    HW127053   2.984   2.478  14.395  0.8339 -0.4710 -2.2919
 5139SOL    HW227054   3.112   2.432  14.436  0.1362 -0.5748  0.8193
 5140SOL     OW27055   2.184   1.227   3.686 -0.4982  0.2395 -0.3880
 5140SOL    HW127056   2.279   1.235   3.675 -0.0708 -0.7833  2.4215
 5140SOL    HW227057   2.162   1.320   3.685  1.0345  0.6025 -0.6649
 5141SOL     OW27058   2.338   0.380   5.121  0.3512 -0.0394 -0.2012
 5141SOL    HW127059   2.261   0.366   5.177 -0.1518  1.1368 -0.5982
 5141SOL    HW227060   2.402   0.330   5.172 -0.4419 -2.5988 -1.6951
 5142SOL     OW27061   2.168   2.680   8.420  0.5404  0.2851  0.2651
 5142SOL    HW127062   2.106   2.751   8.406 -2.3855 -2.2526  0.1249
 5142SOL    HW227063   2.203   2.707   8.505  1.9761 -1.1864  0.1352
 5143SOL     OW27064   1.190   4.440   7.152 -0.2578 -0.3130 -0.0238
 5143SOL    HW127065   1.106   4.445   7.199 -1.1532  2.7693 -1.9029
 5143SOL    HW227066   1.240   4.382   7.209  1.6814  0.6076 -0.7717
 5144SOL     OW27067   1.414   0.658   9.705 -0.0209  0.6286  0.1987
 5144SOL    HW127068   1.465   0.624   9.631 -1.5012  0.2454 -0.6484
 5144SOL    HW227069   1.351   0.720   9.667 -0.9934  0.3010  1.3113
 5145SOL     OW27070   1.611   0.750   6.161 -0.0594 -0.2171 -0.2461
 5145SOL    HW127071   1.621   0.826   6.105  1.3285 -1.5748 -1.8539
 5145SOL    HW227072   1.577   0.786   6.243 -1.6316 -1.4644 -0.3411
 5146SOL     OW27073   2.257   2.685   7.420 -0.4519  0.6248 -0.3453
 5146SOL    HW127074   2.337   2.636   7.437 -0.9577 -0.9605 -2.5437
 5146SOL    HW227075   2.283   2.751   7.356  0.9462  0.2048 -0.1999
 5147SOL     OW27076   3.296   2.672  17.006 -0.1386  0.0356  0.0833
 5147SOL    HW127077   3.228   2.676  16.938 -0.7392  2.7289  0.8688
 5147SOL    HW227078   3.294   2.761  17.039  0.4764  1.5606 -4.0185
 5148SOL     OW27079   1.023   2.932   3.637  0.8049 -0.0473  0.1574
 5148SOL    HW127080   1.024   2.888   3.722 -0.1778 -0.5611 -0.0880
 5148SOL    HW227081   1.108   2.897   3.611 -0.2318 -2.7160  0.3144
 5149SOL     OW27082   3.549   4.122   2.903 -0.0387  0.1384  0.0933
 5149SOL    HW127083   3.527   4.177   2.978 -1.7772 -0.5671  0.0918
 5149SOL    HW227084   3.607   4.061   2.948  0.3192  1.1903  1.0735
 5150SOL     OW27085   3.020   0.150   4.703  0.4198  0.3015 -0.2331
 5150SOL    HW127086   3.101   0.196   4.725 -0.4873  1.2685  1.0728
 5150SOL    HW227087   2.965   0.155   4.780  0.4200 -0.9237 -0.1517
 5151SOL     OW27088   3.708   0.248   7.554  0.0192  0.6071 -0.6948
 5151SOL    HW127089   3.643   0.181   7.571  1.6820 -0.9639 -0.5050
 5151SOL    HW227090   3.755   0.256   7.638 -1.1786  0.1874  0.0117
 5152SOL     OW27091   3.398   0.053  15.430  0.2292  0.2553 -0.2692
 5152SOL    HW127092   3.317   0.017  15.465  0.7395  0.1093  0.7556
 5152SOL    HW227093   3.366   0.142  15.418 -2.1993 -0.6137 -0.3176
 5153SOL     OW27094   3.885   2.172   2.885 -0.1460 -0.0602  0.3670
 5153SOL    HW127095   3.899   2.261   2.853 -0.5139 -1.0426 -2.5235
 5153SOL    HW227096   3.945   2.165   2.959  0.7944 -2.9600 -0.6717
 5154SOL     OW27097   1.959   3.967   2.695  0.1893  0.1384  0.1128
 5154SOL    HW127098   1.903   4.037   2.729 -0.7925  0.5114 -2.3274
 5154SOL    HW227099   1.886   3.917   2.657 -0.6927  0.1419  1.7697
 5155SOL     OW27100   0.388   0.444   7.065 -0.2421  0.1833  0.9160
 5155SOL    HW127101   0.405   0.488   7.149 -0.7939  0.5449  0.8419
 5155SOL    HW227102   0.299   0.409   7.071 -0.1852  0.0911  1.2567
 5156SOL     OW27103   0.817   4.287   3.741  0.6444 -0.1654  0.2337
 5156SOL    HW127104   0.733   4.242   3.745  0.0145  0.9223 -0.5835
 5156SOL    HW227105   0.878   4.225   3.702 -1.3185 -0.6607 -2.0819
 5157SOL     OW27106   1.208   4.573  16.361  0.2643 -0.4321 -0.0968
 5157SOL    HW127107   1.301   4.582  16.339  0.4959 -1.3657  0.5010
 5157SOL    HW227108   1.187   4.664  16.382 -0.3401  0.0867 -2.8600
 5158SOL     OW27109   1.374   3.792  13.730 -0.0417  0.1422  0.1738
 5158SOL    HW127110   1.416   3.869  13.768 -1.7490  0.0121  2.3048
 5158SOL    HW227111   1.288   3.801  13.771  0.0425 -0.9141  0.5936
 5159SOL     OW27112   0.429   2.414   6.081 -0.3000 -0.0658  0.0271
 5159SOL    HW127113   0.365   2.428   6.151 -0.2428  1.3759 -0.2159
 5159SOL    HW227114   0.377   2.441   6.004 -0.9484  1.1120  0.8836
 5160SOL     OW27115   3.633   4.394   3.728 -0.4841  0.1879 -0.3782
 5160SOL    HW127116   3.671   4.313   3.695 -0.0431 -0.1934  1.0790
 5160SOL    HW227117   3.713   4.434   3.763 -2.1321  2.3034  1.0358
 5161SOL     OW27118   0.197   1.380   9.758 -0.5754  0.0533 -0.1451
 5161SOL    HW127119   0.198   1.419   9.845  4.2432 -1.7106  0.5983
 5161SOL    HW227120   0.106   1.352   9.752 -1.5834  3.1357  0.8299
 5162SOL     OW27121   4.518   3.564  16.783  0.1005  0.4598  0.3852
 5162SOL    HW127122   4.482   3.476  16.792  0.9243  0.0763 -0.0727
 5162SOL    HW227123   4.487   3.599  16.699  0.7470  1.0036  0.3751
 5163SOL     OW27124   0.749   1.924  12.435  0.1005 -0.4039 -0.5378
 5163SOL    HW127125   0.703   1.963  12.361 -0.2873 -1.2741 -0.7629
 5163SOL    HW227126   0.720   1.833  12.436  0.1653 -0.4020  0.7072
 5164SOL     OW27127   4.495   3.204   3.544 -0.6413  0.3605 -0.4288
 5164SOL    HW127128   4.435   3.246   3.482  0.7259  0.8499 -1.4177
 5164SOL    HW227129   4.572   3.187   3.491 -0.0399  1.1946  0.1863
 5165SOL     OW27130   4.019   4.446  10.126 -0.2455 -0.5223  0.1910
 5165SOL    HW127131   4.025   4.375  10.189 -0.8031 -1.3461 -0.6871
 5165SOL    HW227132   4.084   4.510  10.155 -0.0793 -0.8889  0.6204
 5166SOL     OW27133   4.319   1.072   8.318  0.1472  0.2306 -0.0381
 5166SOL    HW127134   4.291   1.089   8.408 -2.1286 -3.4109 -0.0730
 5166SOL    HW227135   4.409   1.041   8.323  0.0184 -0.1493 -0.0879
 5167SOL     OW27136   0.031   3.014   6.614 -0.2669  0.1373 -0.3079
 5167SOL    HW127137   4.677   2.985   6.639  0.0116 -2.1471 -1.9947
 5167SOL    HW227138   0.096   2.992   6.681 -0.8440 -0.7733 -0.0389
 5168SOL     OW27139   1.705   2.703   5.569  0.3082 -0.5558 -0.1420
 5168SOL    HW127140   1.793   2.668   5.583  1.2465  1.6167 -0.5972
 5168SOL    HW227141   1.656   2.648   5.630  1.6257 -0.5261  0.9654
 5169SOL     OW27142   3.471   2.779   1.797  0.2872  0.0652  0.3689
 5169SOL    HW127143   3.433   2.795   1.711 -1.5252 -2.4478  0.6999
 5169SOL    HW227144   3.538   2.848   1.792  0.1586  0.1005 -0.6869
 5170SOL     OW27145   0.452   2.302  13.825  0.5183  0.0016 -0.8433
 5170SOL    HW127146   0.451   2.372  13.890  0.9676 -2.8711  2.2151
 5170SOL    HW227147   0.471   2.355  13.748  0.9233  1.5615  0.3406
 5171SOL     OW27148   3.388   3.969  15.650 -0.4093 -0.7218 -0.5739
 5171SOL    HW127149   3.482   3.962  15.634  0.0808  2.5811  0.7007
 5171SOL    HW227150   3.367   4.062  15.637  0.8571 -0.8417 -3.4441
 5172SOL     OW27151   2.013   1.175   1.012  0.2381 -0.5755  0.0369
 5172SOL    HW127152   2.050   1.090   1.036  0.1114 -0.5301  0.4040
 5172SOL    HW227153   1.927   1.151   1.048  0.1168 -0.1886  0.0064
 5173SOL     OW27154   2.628   3.419  12.724 -0.3639 -0.1840 -0.3370
 5173SOL    HW127155   2.706   3.407  12.669  0.3529 -1.5857  0.9725
 5173SOL    HW227156   2.579   3.460  12.653  0.9310 -0.6172 -1.4967
 5174SOL     OW27157   0.027   1.415   4.476 -0.2248 -0.0892  0.6576
 5174SOL    HW127158   4.692   1.444   4.535  0.0750 -0.4084  1.1563
 5174SOL    HW227159   0.086   1.374   4.540 -1.4436 -1.7068  0.7226
 5175SOL     OW27160   4.404   3.937  11.930  0.1937  0.4882  0.1501
 5175SOL    HW127161   4.433   4.003  11.993 -0.5327  1.7417 -0.8446
 5175SOL    HW227162   4.347   3.885  11.987 -0.9464  1.1761 -0.3682
 5176SOL     OW27163   2.534   3.072   7.506 -0.0253 -0.8435 -0.1796
 5176SOL    HW127164   2.548   3.116   7.422 -4.5998 -1.1652 -1.1422
 5176SOL    HW227165   2.448   3.030   7.505 -0.7322  0.5700  0.6582
 5177SOL     OW27166   0.431   3.161   6.143 -0.1697 -0.1664  0.8216
 5177SOL    HW127167   0.337   3.165   6.125 -0.2084 -1.0116  0.8637
 5177SOL    HW227168   0.458   3.125   6.058 -0.2491  0.6852  0.4276
 5178SOL     OW27169   2.999   2.273  15.287  0.1642 -0.2329  0.0128
 5178SOL    HW127170   3.017   2.338  15.220 -0.1038  1.8159  1.9296
 5178SOL    HW227171   3.000   2.327  15.366  3.2986 -0.5815  0.1918
 5179SOL     OW27172   1.178   2.572   4.347 -0.2205  0.5414 -0.2460
 5179SOL    HW127173   1.184   2.523   4.265 -1.8841 -0.6919  0.3690
 5179SOL    HW227174   1.175   2.499   4.409  1.8751 -0.8667 -1.8039
 5180SOL     OW27175   1.729   3.992  16.950  0.1567  0.1099 -0.0911
 5180SOL    HW127176   1.774   3.935  16.887 -0.8758  0.6391 -1.3114
 5180SOL    HW227177   1.638   3.963  16.946  0.4852 -1.2880  2.4461
 5181SOL     OW27178   0.228   3.712  16.486  0.0279  0.3567  0.2708
 5181SOL    HW127179   0.321   3.730  16.499 -0.1763  0.9722  0.8667
 5181SOL    HW227180   0.192   3.791  16.445 -0.4033  0.2318  0.4055
 5182SOL     OW27181   0.884   4.403   7.865 -0.0218  0.4107 -0.8145
 5182SOL    HW127182   0.795   4.380   7.839 -0.1984  1.0489 -0.7779
 5182SOL    HW227183   0.897   4.488   7.823  0.2174 -0.0260 -1.6224
 5183SOL     OW27184   3.501   4.255   1.830  0.3075  0.4342  0.1756
 5183SOL    HW127185   3.479   4.344   1.803 -1.6255  0.3836  1.5858
 5183SOL    HW227186   3.481   4.205   1.752 -2.0763  0.3971  0.8055
 5184SOL     OW27187   1.870   3.064   1.631  0.3143  0.2451 -0.2083
 5184SOL    HW127188   1.920   3.027   1.559  1.4508 -1.6078  1.5364
 5184SOL    HW227189   1.784   3.025   1.612  1.0380 -0.4858 -1.9385
 5185SOL     OW27190   2.896   3.766   1.641 -0.5039  0.0120 -0.3799
 5185SOL    HW127191   2.978   3.729   1.672  0.6648  2.3194 -0.7651
 5185SOL    HW227192   2.879   3.833   1.706 -0.7818 -1.0408  0.6353
 5186SOL     OW27193   2.128   3.451   5.387  0.1554  0.5306  0.4452
 5186SOL    HW127194   2.208   3.405   5.361 -1.7525 -0.6870 -3.2692
 5186SOL    HW227195   2.089   3.384   5.444  0.3538 -0.8999 -1.1150
 5187SOL     OW27196   3.284   3.078   8.707 -0.2898  0.0436 -0.2094
 5187SOL    HW127197   3.211   3.141   8.711 -0.6276 -0.4759  1.8852
 5187SOL    HW227198   3.350   3.125   8.759  0.8611 -1.7756 -0.0330
 5188SOL     OW27199   4.714   0.024  14.991  0.8259  0.1454  0.0921
 5188SOL    HW127200   4.662   0.081  14.936  1.2610 -0.1691 -0.6505
 5188SOL    HW227201   0.067   0.055  14.964  0.6298  0.0650 -0.6463
 5189SOL     OW27202   2.524   3.422   9.734  0.5017 -0.0896 -0.0040
 5189SOL    HW127203   2.529   3.498   9.792  0.5993  1.2100 -1.7380
 5189SOL    HW227204   2.582   3.445   9.662  0.9454 -1.8349 -0.2094
 5190SOL     OW27205   3.195   2.756   0.990 -0.0430  0.2570  0.2254
 5190SOL    HW127206   3.178   2.749   0.896  0.9342  1.8129 -0.0690
 5190SOL    HW227207   3.290   2.742   0.992  0.0381  0.6320 -0.6787
 5191SOL     OW27208   0.881   0.831   3.865 -0.0816 -0.1057 -0.1439
 5191SOL    HW127209   0.789   0.841   3.838 -0.2870  3.4303  1.9376
 5191SOL    HW227210   0.916   0.884   3.794  1.6336  1.0916  1.6112
 5192SOL     OW27211   4.465   1.125   9.191  0.1734 -0.6628  0.1400
 5192SOL    HW127212   4.410   1.075   9.252  1.5370 -0.7264  1.3251
 5192SOL    HW227213   4.537   1.144   9.250 -0.3034  0.8080  0.2354
 5193SOL     OW27214   1.688   4.157   7.830  0.3249  0.3028  0.0401
 5193SOL    HW127215   1.665   4.137   7.921  0.8045 -0.2980  0.0300
 5193SOL    HW227216   1.665   4.084   7.773  2.3664 -2.0107  2.1410
 5194SOL     OW27217   3.294   0.774   9.378  0.3334  0.1598 -0.5247
 5194SOL    HW127218   3.306   0.775   9.473  0.6281 -2.8318 -0.5336
 5194SOL    HW227219   3.300   0.679   9.364 -1.4179  0.3199 -2.4609
 5195SOL     OW27220   4.726   4.260   5.221 -0.7964  0.4213 -0.2365
 5195SOL    HW127221   4.693   4.211   5.295 -2.8476  2.7188  0.3705
 5195SOL    HW227222   0.016   4.341   5.267 -0.3698  0.3139 -0.2672
 5196SOL     OW27223   4.291   2.851   5.710 -0.8839  1.1468 -0.0048
 5196SOL    HW127224   4.287   2.777   5.771 -1.4890 -0.0137 -1.4610
 5196SOL    HW227225   4.198   2.867   5.697 -1.2127 -1.8651 -1.3170
 5197SOL     OW27226   2.589   3.797   7.056  0.1831 -0.2124 -0.2066
 5197SOL    HW127227   2.648   3.851   7.004 -1.2544 -0.4163 -2.0618
 5197SOL    HW227228   2.641   3.770   7.132 -0.3450  1.5047  0.7524
 5198SOL     OW27229   3.562   3.916   6.540  0.6585  0.2442 -0.1357
 5198SOL    HW127230   3.554   4.002   6.499 -0.2652 -0.1296 -0.7397
 5198SOL    HW227231   3.650   3.888   6.517  1.4423 -0.1897  3.4719
 5199SOL     OW27232   0.755   1.863   0.950  0.3065 -0.1118 -0.1771
 5199SOL    HW127233   0.844   1.862   0.986 -1.3055 -0.6693  3.8279
 5199SOL    HW227234   0.712   1.931   1.003  0.2241 -0.0542 -0.3189
 5200SOL     OW27235   3.369   0.095   9.537  0.2123  0.3436  0.2792
 5200SOL    HW127236   3.329   0.139   9.611  0.4717  0.8943  0.0960
 5200SOL    HW227237   3.291   0.077   9.485 -0.1630  0.2703  0.8741
 5201SOL     OW27238   0.494   3.497   4.623 -0.2940  0.7476  0.3684
 5201SOL    HW127239   0.541   3.415   4.636 -0.5934  0.8460  2.0881
 5201SOL    HW227240   0.558   3.558   4.660  0.2592 -0.4185  1.3325
 5202SOL     OW27241   2.065   0.661   2.304 -0.0282 -0.0616 -0.2555
 5202SOL    HW127242   1.999   0.613   2.355  1.1686 -0.4297  0.9258
 5202SOL    HW227243   2.020   0.746   2.309  0.9804  0.5186 -0.9902
 5203SOL     OW27244   2.058   3.227   4.907 -0.0386 -0.3695 -0.1981
 5203SOL    HW127245   1.985   3.241   4.967 -0.2434 -0.4566 -0.4286
 5203SOL    HW227246   2.005   3.204   4.831 -0.4547  2.5461 -0.8161
 5204SOL     OW27247   1.610   3.571  15.915  0.3290 -0.2170  0.3698
 5204SOL    HW127248   1.538   3.610  15.866 -0.4783 -1.0857  0.8911
 5204SOL    HW227249   1.578   3.482  15.923 -0.3841 -0.0476 -0.5697
 5205SOL     OW27250   4.424   0.342  17.725 -0.4211 -0.9464  0.2923
 5205SOL    HW127251   4.428   0.251  17.696 -1.9702 -1.4560  1.6340
 5205SOL    HW227252   4.384   0.337   0.077  2.5001  1.0830  1.7236
 5206SOL     OW27253   1.575   1.610   9.260 -0.3184 -0.7454 -0.1358
 5206SOL    HW127254   1.536   1.691   9.294 -1.9928 -2.0628  1.1152
 5206SOL    HW227255   1.584   1.565   9.345  0.5669  0.2749  0.3009
 5207SOL     OW27256   4.308   2.627   4.194  0.4650  0.1480 -0.4029
 5207SOL    HW127257   4.333   2.534   4.195 -0.9048 -0.2236 -0.8777
 5207SOL    HW227258   4.338   2.651   4.282 -2.2247  0.8136  0.3258
 5208SOL     OW27259   1.357   4.121  12.175  0.0804  0.2706  0.1163
 5208SOL    HW127260   1.408   4.110  12.255 -0.5368 -1.6796  0.2316
 5208SOL    HW227261   1.357   4.039  12.126 -0.7426  0.3377  0.0130
 5209SOL     OW27262   2.124   3.694  16.653 -0.0683  0.2818 -0.0141
 5209SOL    HW127263   2.157   3.658  16.735 -1.3293 -0.7066  0.0659
 5209SOL    HW227264   2.206   3.722  16.614 -0.5867 -1.1873 -2.1424
 5210SOL     OW27265   3.315   3.907   2.178  0.0944 -0.2713 -0.2872
 5210SOL    HW127266   3.297   3.869   2.092 -2.8355  1.9246 -0.6364
 5210SOL    HW227267   3.357   3.987   2.146 -2.1761  1.6201  1.4748
 5211SOL     OW27268   4.278   3.943   3.515 -0.2763 -0.0687 -0.4991
 5211SOL    HW127269   4.307   4.034   3.507  3.7427 -1.2688  0.1625
 5211SOL    HW227270   4.326   3.911   3.591 -1.7312  0.1835  0.5136
 5212SOL     OW27271   4.530   4.578  13.850  0.0684  0.4017 -0.4301
 5212SOL    HW127272   4.464   4.511  13.837  0.0420  0.4564 -0.5781
 5212SOL    HW227273   4.611   4.536  13.823 -0.2469  0.0916 -0.8847
 5213SOL     OW27274   0.293   2.521   7.433  0.0125 -0.0854  0.1879
 5213SOL    HW127275   0.315   2.450   7.373 -1.1324  1.7473 -2.4257
 5213SOL    HW227276   0.258   2.593   7.381  0.1113 -1.6755 -2.0598
 5214SOL     OW27277   2.883   3.442   8.813 -0.1323  0.3016  0.4571
 5214SOL    HW127278   2.854   3.490   8.890 -0.8177  1.6369 -0.6323
 5214SOL    HW227279   2.816   3.376   8.800  1.0046 -1.1308  1.8016
 5215SOL     OW27280   2.105   2.053   5.765  0.9058  0.6399 -0.0206
 5215SOL    HW127281   2.120   1.992   5.838 -1.0722  2.0015  1.5163
 5215SOL    HW227282   2.114   1.995   5.690  1.0146 -0.5211  0.8865
 5216SOL     OW27283   1.961   1.263  17.035  0.2042 -0.0009 -0.1914
 5216SOL    HW127284   2.041   1.312  17.056  0.0087  1.1914 -2.2486
 5216SOL    HW227285   1.966   1.232  16.945  1.2775 -0.9048  0.1785
 5217SOL     OW27286   4.167   1.307   6.233 -0.1415  0.1606  0.0239
 5217SOL    HW127287   4.252   1.272   6.257  0.5135  0.4826 -1.8604
 5217SOL    HW227288   4.107   1.239   6.265  1.0097 -2.0893 -2.6189
 5218SOL     OW27289   4.353   2.314   7.588 -0.4910 -0.4108 -0.4586
 5218SOL    HW127290   4.395   2.281   7.508 -1.0602  0.5725 -1.1657
 5218SOL    HW227291   4.318   2.400   7.562  1.9024  0.7368  0.0631
 5219SOL     OW27292   0.826   1.018   7.532 -0.1152  0.6177  0.3454
 5219SOL    HW127293   0.876   1.085   7.485 -0.6936  1.6028  1.1362
 5219SOL    HW227294   0.752   1.009   7.472 -1.2456  0.1504  1.8192
 5220SOL     OW27295   1.364   4.479   8.735  0.1584  0.0113  0.0419
 5220SOL    HW127296   1.279   4.516   8.759  0.2854 -0.8363  1.8226
 5220SOL    HW227297   1.354   4.388   8.763 -0.0220  0.5351  1.7072
 5221SOL     OW27298   1.101   2.197  15.850  0.5749 -0.2276  0.5262
 5221SOL    HW127299   1.180   2.170  15.803 -0.0761  1.4216 -1.5121
 5221SOL    HW227300   1.115   2.288  15.876 -0.8196 -0.3330  1.6195
 5222SOL     OW27301   2.239   4.307   2.864  0.5794  0.1351 -0.2785
 5222SOL    HW127302   2.260   4.250   2.790 -0.8980 -0.8092  0.0324
 5222SOL    HW227303   2.324   4.306   2.907 -0.4439  0.0493  1.7372
 5223SOL     OW27304   2.457   4.314   8.401 -0.2403 -0.0433  0.9934
 5223SOL    HW127305   2.419   4.336   8.316  0.3575 -0.2791  0.6697
 5223SOL    HW227306   2.524   4.381   8.406 -3.4038  3.2989 -1.3967
 5224SOL     OW27307   1.175   1.408   5.262 -0.3778 -0.4836 -0.0378
 5224SOL    HW127308   1.231   1.348   5.213  2.2280  2.4700 -0.6697
 5224SOL    HW227309   1.093   1.394   5.214  1.1559  0.6013 -3.0099
 5225SOL     OW27310   0.885   2.774  15.825  0.4503 -0.2519  0.0877
 5225SOL    HW127311   0.792   2.778  15.851  0.6343  0.5255  0.6332
 5225SOL    HW227312   0.897   2.689  15.783  0.2674  0.1896 -0.8550
 5226SOL     OW27313   4.334   2.102   4.852 -0.1757  0.1124 -0.0566
 5226SOL    HW127314   4.289   2.051   4.920  0.2854  0.0174  0.1767
 5226SOL    HW227315   4.348   2.177   4.910 -0.5367  0.7908 -0.8496
 5227SOL     OW27316   2.860   3.727   8.394 -0.2019 -0.0476  0.0538
 5227SOL    HW127317   2.911   3.767   8.323  0.7489  1.4571  1.5758
 5227SOL    HW227318   2.847   3.641   8.355 -0.1517 -0.2645  0.5246
 5228SOL     OW27319   3.221   2.062   8.112  0.5800 -0.0959 -0.1819
 5228SOL    HW127320   3.233   2.001   8.184 -0.7682  1.2593  1.1970
 5228SOL    HW227321   3.285   2.133   8.121  0.8605 -0.3564 -0.1237
 5229SOL     OW27322   4.426   4.101  12.680 -0.2088 -0.0521 -0.2723
 5229SOL    HW127323   4.450   4.099  12.588 -1.6691 -2.0017 -0.6137
 5229SOL    HW227324   4.451   4.011  12.698 -0.3392 -0.3973 -1.8821
 5230SOL     OW27325   0.955   3.046  12.240 -0.4391  0.2759 -0.3538
 5230SOL    HW127326   0.928   3.044  12.148 -0.5859 -0.6003 -0.2927
 5230SOL    HW227327   0.870   3.076  12.274 -0.0932  0.6007  0.2181
 5231SOL     OW27328   3.580   2.187   2.771 -0.1891 -0.7417 -0.2136
 5231SOL    HW127329   3.647   2.123   2.746  1.0379  0.7668 -0.7420
 5231SOL    HW227330   3.621   2.271   2.750 -1.5239  0.3279  1.4884
 5232SOL     OW27331   3.165   0.541   7.763  0.4888 -0.2121  0.2470
 5232SOL    HW127332   3.192   0.520   7.853 -0.2759 -2.9494 -0.1499
 5232SOL    HW227333   3.080   0.581   7.778  0.5319  0.3141 -0.9662
 5233SOL     OW27334   2.259   2.391   5.874 -0.1468  0.6970  0.5844
 5233SOL    HW127335   2.267   2.311   5.821 -2.7675  0.6760  0.2332
 5233SOL    HW227336   2.346   2.427   5.855  0.3319 -0.2628  0.9063
 5234SOL     OW27337   1.137   4.019   5.340  0.7873  0.3729  0.4378
 5234SOL    HW127338   1.202   3.992   5.274  0.5638  1.9400 -0.4279
 5234SOL    HW227339   1.088   3.937   5.350  2.3400 -1.1518 -4.3052
 5235SOL     OW27340   4.565   1.400  16.831 -0.0801  0.0800  0.2760
 5235SOL    HW127341   4.612   1.462  16.887  3.8755 -2.5493 -0.1455
 5235SOL    HW227342   4.516   1.466  16.783  2.0510  1.4110 -0.0967
 5236SOL     OW27343   3.852   0.494  10.026  0.1392  0.1004 -0.1234
 5236SOL    HW127344   3.942   0.527  10.020 -0.2936  1.2891 -0.1766
 5236SOL    HW227345   3.872   0.405   9.999  0.4035 -0.1280  0.8336
 5237SOL     OW27346   2.555   2.309   8.898 -0.1294  0.1475  0.1706
 5237SOL    HW127347   2.582   2.291   8.808 -0.5231 -1.5310  0.3897
 5237SOL    HW227348   2.460   2.307   8.884 -0.1517 -0.3990  0.4099
 5238SOL     OW27349   3.707   3.075   5.610  0.2118 -0.1969  0.4577
 5238SOL    HW127350   3.680   3.162   5.581 -1.7828 -0.5437  1.2356
 5238SOL    HW227351   3.722   3.027   5.529 -1.9902  1.8831 -1.1513
 5239SOL     OW27352   3.479   1.799   3.695  0.0597  0.0498 -0.3110
 5239SOL    HW127353   3.547   1.866   3.700  1.5655 -1.6527  1.7365
 5239SOL    HW227354   3.525   1.716   3.707  1.8187  1.3333  1.8194
 5240SOL     OW27355   2.598   1.537   0.872  0.0123  0.1199  0.8116
 5240SOL    HW127356   2.605   1.489   0.790 -1.7022 -0.0542  0.7704
 5240SOL    HW227357   2.531   1.483   0.914  1.0649 -0.6728  1.4699
 5241SOL     OW27358   3.363   4.647  10.596  0.6470  0.1914 -0.0747
 5241SOL    HW127359   3.277   4.686  10.584  0.4336  0.1940  1.4951
 5241SOL    HW227360   3.355   4.604  10.682  0.2681  0.9115  0.2428
 5242SOL     OW27361   2.062   2.556   7.615  0.0522  0.5651 -0.1620
 5242SOL    HW127362   2.088   2.625   7.554 -0.7503  2.4472  1.6143
 5242SOL    HW227363   2.079   2.487   7.551 -0.3200 -0.1802  0.5532
 5243SOL     OW27364   4.513   0.720   5.380  0.3609  0.0079 -0.1852
 5243SOL    HW127365   4.468   0.766   5.309 -0.6177  0.0267  0.4460
 5243SOL    HW227366   4.593   0.773   5.376  1.4752 -1.5021  2.7775
 5244SOL     OW27367   2.105   3.484   3.974 -0.1907 -0.4004 -0.3812
 5244SOL    HW127368   2.018   3.503   4.007  0.0328 -0.9528  0.5123
 5244SOL    HW227369   2.163   3.546   4.019  0.8288 -1.3278 -0.4072
 5245SOL     OW27370   2.010   0.572   5.137 -0.3475 -0.0545 -0.1368
 5245SOL    HW127371   2.051   0.582   5.051 -1.9951  1.4900 -0.7232
 5245SOL    HW227372   1.938   0.512   5.115  0.2521 -0.5547 -0.7432
 5246SOL     OW27373   1.219   2.291   2.079  0.5051 -0.2231  0.3651
 5246SOL    HW127374   1.259   2.375   2.099  0.9951 -0.2534 -0.4768
 5246SOL    HW227375   1.129   2.321   2.063  0.2384 -0.6995  0.9837
 5247SOL     OW27376   4.468   4.040  11.293 -0.4275 -0.3245 -0.3194
 5247SOL    HW127377   4.499   4.019  11.381  0.1653  0.4970 -0.3375
 5247SOL    HW227378   4.541   4.091  11.258 -0.6022 -0.8148 -1.4113
 5248SOL     OW27379   3.809   4.301  11.220 -0.1707  0.0134  0.2745
 5248SOL    HW127380   3.867   4.281  11.147 -1.1780 -0.5043 -0.3853
 5248SOL    HW227381   3.833   4.394  11.222  0.9432 -0.2899  1.3446
 5249SOL     OW27382   2.073   1.628   5.883 -0.5208  0.4923 -0.4057
 5249SOL    HW127383   2.018   1.587   5.951 -0.1099  2.1209  0.9126
 5249SOL    HW227384   2.094   1.713   5.922 -0.1752 -0.5020  1.5860
 5250SOL     OW27385   2.154   2.710   6.591  0.0825  0.1417 -0.0765
 5250SOL    HW127386   2.070   2.713   6.546  0.3397 -0.3227 -0.5887
 5250SOL    HW227387   2.220   2.727   6.524  1.1146  0.0793  0.9218
 5251SOL     OW27388   2.549   3.685  10.748  0.7555 -0.1270  0.2574
 5251SOL    HW127389   2.618   3.723  10.693 -0.7463  0.2274 -1.3713
 5251SOL    HW227390   2.588   3.681  10.835 -1.5920 -1.5597  1.2448
 5252SOL     OW27391   2.859   2.954   3.104  0.1448 -0.0612  0.4838
 5252SOL    HW127392   2.928   3.015   3.133  0.5927 -0.5078  0.3623
 5252SOL    HW227393   2.888   2.876   3.152 -0.5667 -0.5626  0.1001
 5253SOL     OW27394   1.816   2.937   1.383  0.4088 -0.1936 -0.1317
 5253SOL    HW127395   1.739   2.932   1.440  0.2791 -1.3426 -0.3986
 5253SOL    HW227396   1.785   2.875   1.317 -0.1758  0.2123 -0.2314
 5254SOL     OW27397   0.010   1.198  17.650  0.4097 -0.5997 -0.0665
 5254SOL    HW127398   4.716   1.264  17.586 -1.4617 -1.4555 -0.1391
 5254SOL    HW227399   0.056   1.242  17.721 -0.2629  0.4214 -0.2619
 5255SOL     OW27400   2.052   1.243   6.174  0.0421 -0.0960 -0.5963
 5255SOL    HW127401   2.122   1.293   6.215 -0.3324 -0.5390  0.5713
 5255SOL    HW227402   2.018   1.308   6.112 -0.7613 -0.4394 -0.5226
 5256SOL     OW27403   4.371   1.807  12.637  0.4056  0.1074 -0.0032
 5256SOL    HW127404   4.370   1.803  12.541 -0.7812  0.6515 -0.0175
 5256SOL    HW227405   4.316   1.736  12.672  0.6698  0.7921  1.7745
 5257SOL     OW27406   2.533   2.056  16.922 -0.5190 -0.5759 -0.1068
 5257SOL    HW127407   2.560   2.081  17.010 -2.1657  1.5689 -0.2245
 5257SOL    HW227408   2.437   2.063  16.928 -0.7194  0.0632 -3.4924
 5258SOL     OW27409   3.998   3.108   4.672  0.5176  0.0629  0.0198
 5258SOL    HW127410   4.034   3.124   4.584  0.7424  2.5718  0.5948
 5258SOL    HW227411   3.914   3.066   4.651  0.7344  0.3629 -1.4734
 5259SOL     OW27412   3.421   0.458   7.250  0.0447  0.0728  0.5008
 5259SOL    HW127413   3.371   0.538   7.264 -2.8921 -1.8795  1.2176
 5259SOL    HW227414   3.505   0.483   7.288  0.5911  0.8891 -1.2698
 5260SOL     OW27415   1.001   2.136   1.042 -0.0523 -0.1166  0.3609
 5260SOL    HW127416   1.035   2.058   1.086  0.0348 -0.2112  0.1292
 5260SOL    HW227417   0.908   2.139   1.066 -1.2469 -2.3970 -3.9432
 5261SOL     OW27418   2.510   4.071   9.362 -0.1403  0.8114 -0.5212
 5261SOL    HW127419   2.563   4.080   9.441 -3.4409  0.2595  1.7699
 5261SOL    HW227420   2.575   4.058   9.294  0.9832  0.0553  0.7030
 5262SOL     OW27421   0.841   2.048   8.922  0.5962  0.4380 -0.1906
 5262SOL    HW127422   0.904   2.045   8.994  1.0907  2.0970 -0.5624
 5262SOL    HW227423   0.799   1.963   8.911  1.2255  0.3286 -1.7385
 5263SOL     OW27424   4.681   1.618   9.861 -0.6517  0.1456 -0.0977
 5263SOL    HW127425   4.633   1.592   9.940 -0.2941 -0.3012 -0.0257
 5263SOL    HW227426   0.033   1.637   9.900 -0.9409  0.3543  0.4446
 5264SOL     OW27427   2.883   1.623   1.947 -0.5500 -0.1187 -0.0461
 5264SOL    HW127428   2.899   1.638   1.854  0.4754  3.1816  0.6774
 5264SOL    HW227429   2.856   1.713   1.966 -1.1027  0.5925 -4.0241
 5265SOL     OW27430   3.319   2.547   6.162 -0.3462  0.6546  0.3644
 5265SOL    HW127431   3.227   2.552   6.138 -0.3317  1.0115  0.3884
 5265SOL    HW227432   3.308   2.565   6.255  1.8190  2.3645  0.2891
 5266SOL     OW27433   2.105   0.954   2.020 -0.4879 -0.1545 -0.2266
 5266SOL    HW127434   2.179   0.895   2.005  1.4194  2.0178  0.4746
 5266SOL    HW227435   2.130   0.990   2.105 -2.0464  0.7784 -0.1659
 5267SOL     OW27436   3.934   4.181   8.263  0.2009  0.1545 -0.3781
 5267SOL    HW127437   3.878   4.108   8.235 -1.9182  1.7262 -0.1887
 5267SOL    HW227438   4.006   4.140   8.312 -1.6617  0.9150  3.0007
 5268SOL     OW27439   4.270   4.653  15.754  0.3359  0.0971 -0.4981
 5268SOL    HW127440   4.341   4.717  15.767  0.4486 -0.9375  3.7606
 5268SOL    HW227441   4.191   4.694  15.789  0.2233  0.5966 -1.3268
 5269SOL     OW27442   4.028   2.926   3.215  0.2619 -0.3441  0.0258
 5269SOL    HW127443   3.972   2.882   3.279 -0.2410 -0.3433 -0.4130
 5269SOL    HW227444   4.110   2.925   3.263  0.0705 -1.3145  0.3255
 5270SOL     OW27445   2.534   2.124   9.319 -0.1718 -0.3192 -0.1684
 5270SOL    HW127446   2.451   2.159   9.287  0.7864  1.1979 -0.9553
 5270SOL    HW227447   2.598   2.193   9.305 -0.1067 -0.1283  1.1038
 5271SOL     OW27448   1.813   1.113  16.473 -0.1064 -0.0439 -0.0841
 5271SOL    HW127449   1.767   1.190  16.505  2.8545  0.5940  2.6737
 5271SOL    HW227450   1.767   1.052  16.530  0.9862 -0.4020  0.4307
 5272SOL     OW27451   2.006   2.512   7.204 -0.0165 -0.3722 -0.4829
 5272SOL    HW127452   2.078   2.561   7.164  0.6855  0.0475  1.3211
 5272SOL    HW227453   1.970   2.459   7.133  2.4042 -0.1620 -1.8832
 5273SOL     OW27454   4.001   3.106   3.018 -0.3312 -0.1540  0.6954
 5273SOL    HW127455   4.020   3.079   2.929 -1.5676 -2.3502  1.1049
 5273SOL    HW227456   4.040   3.033   3.066 -1.8944 -0.7675  1.0366
 5274SOL     OW27457   3.252   1.384   0.445 -0.3569  0.1395 -0.4293
 5274SOL    HW127458   3.177   1.329   0.421 -1.4608  1.9410 -1.0779
 5274SOL    HW227459   3.299   1.380   0.362  0.5224 -4.2659  0.2649
 5275SOL     OW27460   3.576   3.577   7.124  0.0272 -0.3755  0.1867
 5275SOL    HW127461   3.561   3.495   7.171  0.2236  0.9973  2.6641
 5275SOL    HW227462   3.604   3.629   7.200 -1.0632 -0.5897  0.7344
 5276SOL     OW27463   3.078   0.936  12.945  0.2588 -0.9059  0.0248
 5276SOL    HW127464   3.058   0.930  13.038  1.3394  1.9003  0.4250
 5276SOL    HW227465   3.132   0.857  12.938 -2.2495 -2.7737  2.2568
 5277SOL     OW27466   4.447   0.960   5.162 -0.0027 -0.2403  0.3017
 5277SOL    HW127467   4.403   0.901   5.101  0.7158 -0.1380 -0.3025
 5277SOL    HW227468   4.380   0.961   5.231 -0.4591  0.0723 -0.1385
 5278SOL     OW27469   4.016   0.279   5.470 -0.0435  0.1403 -0.1975
 5278SOL    HW127470   4.045   0.191   5.492  1.1982  0.5783 -0.1038
 5278SOL    HW227471   4.081   0.288   5.401  0.7102  0.4446  0.5577
 5279SOL     OW27472   4.676   3.056   2.990  0.2856  0.1041  0.0319
 5279SOL    HW127473   0.005   3.000   3.035  0.8354  1.5635  1.1028
 5279SOL    HW227474   0.002   3.120   2.953  1.2664 -0.1442  1.2027
 5280SOL     OW27475   4.197   2.812   8.661  0.0210 -0.6662  0.7462
 5280SOL    HW127476   4.249   2.892   8.665 -2.1800  0.8265 -0.4934
 5280SOL    HW227477   4.144   2.819   8.582  0.3768  2.4566  0.7768
 5281SOL     OW27478   1.976   1.540   9.003 -0.0554 -0.0025  0.0231
 5281SOL    HW127479   1.928   1.603   9.057 -0.0535 -0.8691  1.0141
 5281SOL    HW227480   1.927   1.460   9.018 -0.5531  0.2217 -0.4010
 5282SOL     OW27481   4.457   0.211   5.554 -0.1514 -0.7207  0.4738
 5282SOL    HW127482   4.545   0.227   5.519  0.8663 -2.4920  2.2819
 5282SOL    HW227483   4.473   0.121   5.582  0.9311 -0.0594  1.9818
 5283SOL     OW27484   0.977   4.466   4.581  0.3683  0.3311  0.0577
 5283SOL    HW127485   0.914   4.445   4.650  0.9943 -0.7378  0.2954
 5283SOL    HW227486   0.977   4.377   4.546 -1.3200  1.1293 -1.9936
 5284SOL     OW27487   2.877   4.122  11.675  0.1029 -0.2275  0.5621
 5284SOL    HW127488   2.862   4.207  11.717 -1.7424 -0.3730  0.1771
 5284SOL    HW227489   2.939   4.140  11.605 -1.1571  1.9226 -0.0069
 5285SOL     OW27490   3.937   1.220   6.920 -0.3591 -0.0914  0.0093
 5285SOL    HW127491   3.856   1.259   6.886 -0.0860  0.4914  0.0226
 5285SOL    HW227492   3.920   1.236   7.013  1.0184 -2.5887  0.6908
 5286SOL     OW27493   1.855   2.527   9.131  0.3204 -0.1799 -0.1926
 5286SOL    HW127494   1.799   2.465   9.085 -0.3474 -1.0711  1.8153
 5286SOL    HW227495   1.849   2.599   9.068  0.8015  0.1700  0.1574
 5287SOL     OW27496   1.176   1.140   5.214 -0.3017  0.3965  0.0596
 5287SOL    HW127497   1.167   1.080   5.288 -1.5073 -0.7627 -1.0434
 5287SOL    HW227498   1.085   1.166   5.205 -1.5642 -3.4043  2.3321
 5288SOL     OW27499   0.442   4.594   5.464 -0.1571  0.0407  0.1428
 5288SOL    HW127500   0.458   4.617   5.556 -0.2624 -0.7361  0.3539
 5288SOL    HW227501   0.532   4.613   5.438  0.1715  0.0510  1.2770
 5289SOL     OW27502   3.460   4.596  10.337  0.2060 -0.2346 -0.4667
 5289SOL    HW127503   3.445   4.612  10.430 -0.0430  1.6871 -0.8419
 5289SOL    HW227504   3.370   4.584  10.306  0.3141  1.6871 -1.5492
 5290SOL     OW27505   2.704   0.294  10.261 -0.2594 -0.2531  0.0983
 5290SOL    HW127506   2.623   0.330  10.226 -1.1618 -0.1939  2.2028
 5290SOL    HW227507   2.743   0.259  10.181 -1.5235 -0.2081 -0.5375
 5291SOL     OW27508   2.448   3.919   1.437  0.0138 -0.6526  0.4060
 5291SOL    HW127509   2.390   3.934   1.511  0.3791 -1.1226  0.7839
 5291SOL    HW227510   2.424   3.828   1.419 -0.3384 -0.5244  0.2197
 5292SOL     OW27511   4.022   2.335   7.202  0.1210  0.3076 -0.7643
 5292SOL    HW127512   3.982   2.347   7.116  1.9606  1.4158 -1.4782
 5292SOL    HW227513   3.950   2.345   7.264 -1.1877  1.9152 -2.5367
 5293SOL     OW27514   1.006   4.557   4.004  0.5813 -0.1088 -0.0958
 5293SOL    HW127515   0.998   4.546   3.909  1.8341 -0.1126 -0.1983
 5293SOL    HW227516   1.014   4.468   4.037  2.3746  0.1770  0.2473
 5294SOL     OW27517   1.112   2.357  12.085 -0.2480 -0.7027  0.0944
 5294SOL    HW127518   1.034   2.304  12.099 -1.0635  0.2915 -0.5993
 5294SOL    HW227519   1.166   2.340  12.162  1.0683 -0.1461 -0.7000
 5295SOL     OW27520   2.704   2.357   4.738 -0.3997  0.2963 -0.2910
 5295SOL    HW127521   2.647   2.430   4.762 -1.7666 -1.0998  0.6877
 5295SOL    HW227522   2.705   2.354   4.642  0.1850 -1.3700 -0.2420
 5296SOL     OW27523   3.647   0.091   4.913  0.3342  0.2146  0.2923
 5296SOL    HW127524   3.642   0.179   4.876  1.9500  1.0550  2.1188
 5296SOL    HW227525   3.614   0.104   5.002 -1.0097  0.8223 -0.2914
 5297SOL     OW27526   3.912   0.807  14.871  0.2717  0.1574  0.1966
 5297SOL    HW127527   3.912   0.882  14.812  1.9019  1.4301  1.8173
 5297SOL    HW227528   3.830   0.828  14.916  2.0731 -1.6956  4.3722
 5298SOL     OW27529   0.031   4.399   9.140  0.4294 -0.0649 -0.9198
 5298SOL    HW127530   4.703   4.326   9.142  0.2580  0.0281 -2.9022
 5298SOL    HW227531   4.705   4.474   9.145  0.7174  0.0497  0.7338
 5299SOL     OW27532   4.372   0.869  17.726  0.2087  0.5102 -0.1178
 5299SOL    HW127533   4.463   0.887  17.702  0.2535 -1.6227 -1.5613
 5299SOL    HW227534   4.348   0.942   0.048  1.5802  1.0217 -0.1969
 5300SOL     OW27535   3.184   3.752  10.724 -0.2210 -0.1093 -0.0187
 5300SOL    HW127536   3.240   3.822  10.691 -2.1041  1.7067  0.6905
 5300SOL    HW227537   3.245   3.737  10.797 -0.6034 -0.9623  0.1253
 5301SOL     OW27538   4.476   4.718   4.369  0.3986 -0.0343  0.0577
 5301SOL    HW127539   4.548   0.043   4.391  0.7827 -1.1724  1.8114
 5301SOL    HW227540   4.418   0.005   4.442  1.0042 -1.4911  0.9500
 5302SOL     OW27541   0.393   1.469  17.496 -1.1757 -0.9828  0.2300
 5302SOL    HW127542   0.427   1.444  17.582  3.5096 -0.2548 -1.4518
 5302SOL    HW227543   0.458   1.530  17.462  0.5339 -1.4696  2.6669
 5303SOL     OW27544   0.131   1.197   5.874  0.8677  0.2072 -0.5601
 5303SOL    HW127545   0.105   1.178   5.964  1.5923 -0.3913 -0.4820
 5303SOL    HW227546   0.219   1.232   5.885  0.5748  0.1431  1.9025
 5304SOL     OW27547   0.174   4.448  13.096 -0.2068 -0.1456 -0.5720
 5304SOL    HW127548   0.202   4.394  13.169  1.5620  1.6253  0.0582
 5304SOL    HW227549   0.157   4.386  13.025 -1.0086  0.8567 -1.2806
 5305SOL     OW27550   2.447   1.129   2.803  0.2180  0.0551  0.1309
 5305SOL    HW127551   2.501   1.118   2.881 -0.9764 -2.4486  0.5956
 5305SOL    HW227552   2.377   1.177   2.847 -0.3283 -0.9226  0.3176
 5306SOL     OW27553   2.196   4.505   1.853 -0.0842  0.1953  0.0345
 5306SOL    HW127554   2.198   4.492   1.758  2.4739 -1.1879  0.2783
 5306SOL    HW227555   2.186   4.420   1.897  4.2978 -0.1431  0.4324
 5307SOL     OW27556   1.878   3.339   2.961 -0.1403  0.1504 -0.1607
 5307SOL    HW127557   1.970   3.359   2.941  0.3052  1.0112  2.7241
 5307SOL    HW227558   1.833   3.364   2.880 -0.8381 -0.1551  0.1351
 5308SOL     OW27559   2.622   0.589   7.266 -0.3742  0.0142  0.0344
 5308SOL    HW127560   2.634   0.680   7.296  0.2904 -0.0548 -0.0031
 5308SOL    HW227561   2.585   0.617   7.183 -0.0503  1.9230  0.5206
 5309SOL     OW27562   3.688   1.569   8.888  0.3569  0.8937  0.2383
 5309SOL    HW127563   3.774   1.530   8.906  0.6637  1.7067  0.5407
 5309SOL    HW227564   3.627   1.496   8.879 -1.0589  2.0573  0.2754
 5310SOL     OW27565   1.089   1.407   6.680 -0.1825  0.1225 -0.0944
 5310SOL    HW127566   1.105   1.501   6.685  2.5213 -0.2293 -1.7576
 5310SOL    HW227567   1.022   1.398   6.748 -0.9155  1.2877 -0.6577
 5311SOL     OW27568   2.850   1.731   2.387 -0.4854  0.2312 -0.2134
 5311SOL    HW127569   2.816   1.820   2.392 -1.1725 -0.1574  1.8318
 5311SOL    HW227570   2.934   1.764   2.418 -0.3613 -2.2378  2.0851
 5312SOL     OW27571   1.917   3.206   6.157 -0.2775 -0.2771 -0.2869
 5312SOL    HW127572   1.866   3.249   6.226  1.4944  0.1646  0.7665
 5312SOL    HW227573   1.963   3.133   6.198  0.7623  0.5884  0.0923
 5313SOL     OW27574   4.138   4.591   2.727 -0.7195 -0.5469  0.6395
 5313SOL    HW127575   4.118   4.623   2.639 -1.7615 -1.4804  0.5467
 5313SOL    HW227576   4.229   4.620   2.726 -0.1649 -2.2977  0.9672
 5314SOL     OW27577   3.089   4.348   8.151  0.0442  0.0485 -0.2584
 5314SOL    HW127578   3.185   4.351   8.150  0.0461  0.9061  1.1540
 5314SOL    HW227579   3.073   4.258   8.125 -1.0936 -0.1840  1.2705
 5315SOL     OW27580   4.593   4.395   9.992 -0.3384  0.0971 -0.4094
 5315SOL    HW127581   4.616   4.308  10.025  3.4684  1.4720  0.4894
 5315SOL    HW227582   4.544   4.435  10.065 -0.4899 -0.5381 -0.1560
 5316SOL     OW27583   0.031   0.381   5.408  0.0281 -1.0575  0.6851
 5316SOL    HW127584   0.025   0.311   5.474  0.9954  0.3582  2.2596
 5316SOL    HW227585   0.093   0.361   5.338 -0.1313  1.3801 -0.1441
 5317SOL     OW27586   3.246   2.912   3.335  0.1263  0.3448  0.0018
 5317SOL    HW127587   3.162   2.949   3.307  0.5953  2.6313  1.7259
 5317SOL    HW227588   3.275   2.872   3.253  0.2089 -2.0318  1.1937
 5318SOL     OW27589   2.172   2.060   8.786  0.1271  0.1534  0.2213
 5318SOL    HW127590   2.237   2.054   8.855  1.0839  0.0968 -0.6898
 5318SOL    HW227591   2.120   1.980   8.795  0.7020 -0.2015  0.3579
 5319SOL     OW27592   1.182   0.683   3.576  0.8274  0.2207  0.6425
 5319SOL    HW127593   1.090   0.704   3.594  0.8633  1.1116 -0.2827
 5319SOL    HW227594   1.227   0.765   3.596 -0.0260  0.8641 -0.0430
 5320SOL     OW27595   3.444   1.815  11.205  0.0649  0.1196 -0.1315
 5320SOL    HW127596   3.404   1.881  11.148 -2.1558 -0.1324  1.1224
 5320SOL    HW227597   3.485   1.865  11.276 -0.3826  0.1556  0.1080
 5321SOL     OW27598   3.651   4.370   9.596 -0.1447 -0.3278 -0.2705
 5321SOL    HW127599   3.690   4.440   9.648 -1.7227 -0.8323  1.6091
 5321SOL    HW227600   3.708   4.302   9.633  0.4657 -0.2710 -1.1050
 5322SOL     OW27601   1.131   0.169   9.634  0.1099  0.3419 -0.1803
 5322SOL    HW127602   1.206   0.209   9.591  0.3356 -1.2341 -1.2627
 5322SOL    HW227603   1.059   0.230   9.619  0.2195  0.4807 -0.1396
 5323SOL     OW27604   1.730   1.191   4.121 -0.5090 -0.4001  0.2086
 5323SOL    HW127605   1.786   1.130   4.169 -1.0050 -1.0875 -0.0977
 5323SOL    HW227606   1.799   1.243   4.080 -1.2293 -0.3261 -0.9153
 5324SOL     OW27607   4.113   0.729   4.085 -0.3470  0.3958  0.2457
 5324SOL    HW127608   4.132   0.762   3.997  0.4965  0.7963  0.5762
 5324SOL    HW227609   4.185   0.666   4.089  0.3390  1.1788  0.4368
 5325SOL     OW27610   4.571   0.732   7.118 -0.0976 -0.0982  0.0967
 5325SOL    HW127611   4.656   0.767   7.146  0.8576 -3.0615  0.8955
 5325SOL    HW227612   4.565   0.659   7.179 -2.0738 -1.4116 -1.7005
 5326SOL     OW27613   1.807   3.401  10.976  0.3247  0.5956  0.4114
 5326SOL    HW127614   1.712   3.385  10.974  0.7014 -1.5274 -0.3626
 5326SOL    HW227615   1.818   3.494  10.956 -1.2790  0.6204 -0.3883
 5327SOL     OW27616   4.623   2.647   8.112  0.7268  0.5426 -0.5013
 5327SOL    HW127617   4.683   2.710   8.152  0.2266  1.5417 -1.3243
 5327SOL    HW227618   4.594   2.685   8.029  0.4022  0.0718 -0.6020
 5328SOL     OW27619   1.400   3.098   3.129  0.1951 -0.5436 -0.0250
 5328SOL    HW127620   1.400   3.052   3.213  0.0593  0.3022  0.4373
 5328SOL    HW227621   1.466   3.165   3.149 -2.0478  1.7048 -0.1896
 5329SOL     OW27622   1.557   2.694  14.775 -0.2850  0.5464  0.4076
 5329SOL    HW127623   1.500   2.662  14.704  1.9921  1.2008 -1.6870
 5329SOL    HW227624   1.530   2.636  14.846 -0.7862  0.8879  0.4993
 5330SOL     OW27625   1.280   1.026   3.385  0.0485  0.1798  0.4561
 5330SOL    HW127626   1.305   0.952   3.441 -1.3910 -1.2779 -0.8620
 5330SOL    HW227627   1.185   1.021   3.397 -0.2162  3.0528 -0.2941
 5331SOL     OW27628   3.274   3.435   1.208 -0.0587  0.6216  0.2399
 5331SOL    HW127629   3.348   3.464   1.262 -1.6257  0.5375  2.4358
 5331SOL    HW227630   3.219   3.513   1.212 -2.8536 -1.4665  2.3130
 5332SOL     OW27631   0.227   2.588   5.530 -0.2584 -0.3665 -0.2852
 5332SOL    HW127632   0.198   2.590   5.439  0.1958  0.6513 -0.4012
 5332SOL    HW227633   0.307   2.538   5.512 -0.5843 -0.7730 -0.5921
 5333SOL     OW27634   1.788   1.702  12.312 -0.4818  0.5669 -0.6681
 5333SOL    HW127635   1.767   1.774  12.372 -0.4616  0.1488 -0.1576
 5333SOL    HW227636   1.780   1.746  12.228  0.6011  0.5629 -0.7676
 5334SOL     OW27637   1.237   0.616  13.805  0.1073  0.2278  0.0354
 5334SOL    HW127638   1.185   0.594  13.728  1.2325 -2.3523 -0.0068
 5334SOL    HW227639   1.285   0.691  13.770  0.3604  1.2009  2.5083
 5335SOL     OW27640   3.733   3.739   8.947  0.0380  0.0026  0.3892
 5335SOL    HW127641   3.685   3.822   8.942 -0.7093 -0.3564  1.6576
 5335SOL    HW227642   3.778   3.740   9.031  0.3665 -1.5472  0.2206
 5336SOL     OW27643   2.749   4.131   2.323 -0.5774 -0.1558  0.1235
 5336SOL    HW127644   2.747   4.056   2.383 -0.2912 -1.3484 -1.3565
 5336SOL    HW227645   2.783   4.199   2.381  1.3518 -2.4937  1.7166
 5337SOL     OW27646   4.473   0.443   4.697  0.2002 -0.9916  0.2718
 5337SOL    HW127647   4.403   0.499   4.729  2.0030  0.6676  1.3155
 5337SOL    HW227648   4.426   0.360   4.704  0.5320 -1.4503 -3.0986
 5338SOL     OW27649   0.156   1.510   7.736 -0.4520 -0.0891  0.6379
 5338SOL    HW127650   0.117   1.511   7.823 -1.0930  1.7278  0.3211
 5338SOL    HW227651   0.083   1.519   7.674  0.4173  0.8072 -0.2638
 5339SOL     OW27652   0.942   4.672  16.214  0.3990  0.4064  0.0156
 5339SOL    HW127653   0.858   4.712  16.191 -0.7093 -1.2600  1.1541
 5339SOL    HW227654   0.950   4.596  16.156 -0.5273  1.4024 -1.4235
 5340SOL     OW27655   3.358   3.992   8.709 -0.1876 -0.5277  0.1708
 5340SOL    HW127656   3.324   4.027   8.627 -0.6103 -0.8576  0.2057
 5340SOL    HW227657   3.417   4.062   8.736 -1.9130  0.6815  0.6966
 5341SOL     OW27658   1.345   2.825   1.040  0.5092 -0.0016  0.3113
 5341SOL    HW127659   1.406   2.867   1.100 -1.0869  1.5344  0.8815
 5341SOL    HW227660   1.295   2.786   1.112  1.9721 -2.5885 -0.0819
 5342SOL     OW27661   1.488   1.298  12.648  0.0559  0.0132  0.1548
 5342SOL    HW127662   1.432   1.330  12.719 -1.2238 -0.3550 -0.7114
 5342SOL    HW227663   1.575   1.293  12.688  0.0585  0.2274  0.1778
 5343SOL     OW27664   2.887   1.023   6.172  0.1302  0.4156 -0.2108
 5343SOL    HW127665   2.956   0.995   6.113 -0.9057  1.4379 -1.8950
 5343SOL    HW227666   2.813   1.008   6.114 -2.1281  1.7349  2.3195
 5344SOL     OW27667   0.429   3.914   7.293  0.2556  0.3410  0.0098
 5344SOL    HW127668   0.398   3.996   7.255  1.4414  1.0251  0.5400
 5344SOL    HW227669   0.348   3.862   7.294  0.5876 -0.2138 -1.8756
 5345SOL     OW27670   2.994   2.532   7.079 -0.1961  0.2822 -0.2441
 5345SOL    HW127671   3.052   2.587   7.026 -1.8833  0.7479 -1.6182
 5345SOL    HW227672   3.012   2.572   7.164 -1.5389 -2.5297  1.3452
 5346SOL     OW27673   0.683   3.247   0.655 -0.2743  0.1688  0.4948
 5346SOL    HW127674   0.627   3.272   0.729 -0.9487 -0.8612  0.3331
 5346SOL    HW227675   0.633   3.173   0.622 -0.6323 -0.2206  1.8936
 5347SOL     OW27676   3.581   3.429  14.899 -0.4021  0.0169 -0.2390
 5347SOL    HW127677   3.585   3.334  14.908  0.9691  0.3957  3.1150
 5347SOL    HW227678   3.654   3.443  14.839 -0.6723 -0.1099 -0.6007
 5348SOL     OW27679   1.217   2.415   4.085  0.4600  1.0825  0.4615
 5348SOL    HW127680   1.135   2.461   4.064 -1.1408 -1.2797  1.5212
 5348SOL    HW227681   1.185   2.325   4.086  2.3038  0.4054 -2.9282
 5349SOL     OW27682   3.962   0.114   2.668 -0.0555  0.3950  0.0938
 5349SOL    HW127683   4.055   0.124   2.686 -0.0308  1.9673 -0.9289
 5349SOL    HW227684   3.938   0.040   2.724 -2.3700  0.9751 -0.1374
 5350SOL     OW27685   2.937   2.882   3.400  0.5267  0.3281  0.1476
 5350SOL    HW127686   2.940   2.832   3.482 -2.2567 -1.0220 -0.5569
 5350SOL    HW227687   2.857   2.934   3.408  0.6036  0.3275  0.9926
 5351SOL     OW27688   4.632   2.301   7.087  0.4382 -0.4026 -0.0160
 5351SOL    HW127689   4.559   2.341   7.040  0.2925 -1.2365 -0.5196
 5351SOL    HW227690   4.605   2.209   7.089  1.7042 -0.8005 -0.8839
 5352SOL     OW27691   3.083   1.358   0.149  0.5138  0.1258 -0.2662
 5352SOL    HW127692   3.057   1.329   0.062 -0.8043  2.3271 -0.6048
 5352SOL    HW227693   3.028   1.312   0.212  0.8763  0.7802  0.5440
 5353SOL     OW27694   3.426   3.477   6.208 -0.6081  0.4580  0.1593
 5353SOL    HW127695   3.353   3.522   6.165 -0.2986  1.9669  1.2147
 5353SOL    HW227696   3.405   3.384   6.202 -0.5270  0.4758 -0.4183
 5354SOL     OW27697   3.062   3.890  16.149 -1.0050  0.2294 -0.9622
 5354SOL    HW127698   3.153   3.883  16.176 -1.6837 -2.3743  0.5994
 5354SOL    HW227699   3.021   3.884  16.235  0.1587 -0.4567 -0.4595
 5355SOL     OW27700   0.244   1.296  13.550  0.4663  0.0307 -0.1199
 5355SOL    HW127701   0.187   1.315  13.624 -2.0013  0.3158 -2.1070
 5355SOL    HW227702   0.181   1.242  13.501  1.6305 -0.2934 -1.2732
 5356SOL     OW27703   2.443   4.158   9.728 -0.1414 -0.5557  0.1075
 5356SOL    HW127704   2.369   4.131   9.672  0.2415  1.5137 -1.4022
 5356SOL    HW227705   2.474   4.231   9.673 -3.4578 -0.9552 -2.3092
 5357SOL     OW27706   0.459   1.958   7.470 -0.4245  0.3601  0.2531
 5357SOL    HW127707   0.373   1.957   7.512 -0.5525 -0.3866 -0.0280
 5357SOL    HW227708   0.435   1.937   7.380  0.9493  1.0283 -0.2718
 5358SOL     OW27709   4.543   3.243   5.658  0.3097 -0.0596  0.0640
 5358SOL    HW127710   4.466   3.225   5.604  0.0991 -2.5344  1.1542
 5358SOL    HW227711   4.524   3.336   5.667 -2.7560 -0.3130 -3.2809
 5359SOL     OW27712   2.621   1.289   5.639  0.9611  0.5415 -0.3002
 5359SOL    HW127713   2.622   1.363   5.578 -2.1016  0.4644 -0.4186
 5359SOL    HW227714   2.529   1.292   5.666  1.0876 -0.1960  0.2236
 5360SOL     OW27715   4.561   1.469  10.748  0.0776  0.0011 -0.6885
 5360SOL    HW127716   4.514   1.396  10.790 -1.1122  1.7334  0.9696
 5360SOL    HW227717   4.632   1.420  10.706  0.7959 -0.3880  1.0241
 5361SOL     OW27718   2.684   2.024  12.715 -0.3392 -0.6783 -0.0882
 5361SOL    HW127719   2.727   2.038  12.799  0.0985 -0.0257 -0.4206
 5361SOL    HW227720   2.645   2.110  12.697  0.1578 -0.5165 -0.3803
 5362SOL     OW27721   1.335   1.224  11.851  0.0792 -0.7388 -0.0825
 5362SOL    HW127722   1.366   1.312  11.831 -0.6065  0.1698  2.9294
 5362SOL    HW227723   1.257   1.230  11.796  0.9851 -1.2840 -1.4346
 5363SOL     OW27724   2.284   2.325   3.159 -0.0092  0.4176  0.5287
 5363SOL    HW127725   2.363   2.333   3.105 -0.8207  0.6985 -0.6136
 5363SOL    HW227726   2.220   2.306   3.091  0.7047 -1.1419  0.2920
 5364SOL     OW27727   4.029   0.798   0.624 -0.6069 -0.3408 -0.2698
 5364SOL    HW127728   4.062   0.709   0.613  1.5020  0.8088 -3.1686
 5364SOL    HW227729   4.046   0.806   0.718 -2.2460 -1.6595  0.1338
 5365SOL     OW27730   0.982   2.050   7.375 -0.5613 -0.3548  0.2980
 5365SOL    HW127731   0.927   2.119   7.413 -0.0414 -0.2336  0.8202
 5365SOL    HW227732   0.922   1.975   7.377  0.0821 -0.9584 -2.5875
 5366SOL     OW27733   1.535   4.601   1.957  0.1724  0.3093  0.0595
 5366SOL    HW127734   1.441   4.584   1.964  0.0101  1.4428  0.5219
 5366SOL    HW227735   1.565   4.527   1.904  2.3041  0.7092  0.7325
 5367SOL     OW27736   2.180   0.960  12.279 -0.2233 -0.3666  0.4323
 5367SOL    HW127737   2.250   0.907  12.317  0.3664 -0.6020 -0.9467
 5367SOL    HW227738   2.229   1.041  12.264  0.8694 -1.2131 -0.5906
 5368SOL     OW27739   3.095   3.711   5.839 -0.0701 -0.2331 -0.5048
 5368SOL    HW127740   3.088   3.787   5.781 -2.3554  1.5409  2.0982
 5368SOL    HW227741   3.006   3.680   5.824 -0.7327  1.0877  0.7231
 5369SOL     OW27742   0.972   1.282   8.246 -0.3269  0.1409  0.6025
 5369SOL    HW127743   0.918   1.235   8.183 -0.1652 -0.4641  0.9196
 5369SOL    HW227744   1.033   1.332   8.192 -0.5015 -0.7861 -0.4372
 5370SOL     OW27745   3.837   2.151   3.490  0.1075  0.7341 -0.6869
 5370SOL    HW127746   3.889   2.227   3.518  0.0978  1.7510 -3.4555
 5370SOL    HW227747   3.910   2.089   3.495  0.7226  1.6180  1.1927
 5371SOL     OW27748   3.861   3.463   8.163  0.6603  0.0248  0.1945
 5371SOL    HW127749   3.914   3.428   8.235 -0.1193 -3.1304 -0.7702
 5371SOL    HW227750   3.901   3.406   8.098 -0.3703  0.6815 -0.9980
 5372SOL     OW27751   2.329   3.877   7.100  0.2499 -0.0111  0.0144
 5372SOL    HW127752   2.415   3.841   7.079 -0.4819 -1.9810  0.3583
 5372SOL    HW227753   2.359   3.959   7.140  2.3521 -0.9805  0.3946
 5373SOL     OW27754   2.181   2.636   0.455  0.6747 -0.3104 -0.1647
 5373SOL    HW127755   2.183   2.648   0.550 -0.6921  0.1315 -0.1912
 5373SOL    HW227756   2.178   2.722   0.414 -1.4693 -0.2089  0.2369
 5374SOL     OW27757   2.078   2.146   9.059 -0.1050 -0.2875 -0.3356
 5374SOL    HW127758   2.001   2.202   9.067 -0.9455 -1.6578  1.2586
 5374SOL    HW227759   2.053   2.082   8.992  1.7805 -0.8842 -0.4505
 5375SOL     OW27760   4.240   3.417   2.101 -0.2179  0.0916  0.2768
 5375SOL    HW127761   4.205   3.504   2.119 -0.2969  0.2392 -0.6351
 5375SOL    HW227762   4.273   3.395   2.188 -1.7271 -1.2116  0.5216
 5376SOL     OW27763   2.181   3.415  16.296 -0.2416 -1.0943 -0.5363
 5376SOL    HW127764   2.138   3.500  16.303  3.6808  0.8793 -0.4276
 5376SOL    HW227765   2.119   3.351  16.263 -2.8794  2.1317 -1.7539
 5377SOL     OW27766   1.036   2.536   5.831 -0.3383 -0.1928  0.2023
 5377SOL    HW127767   1.031   2.447   5.864  0.5288  0.1605  1.2962
 5377SOL    HW227768   0.971   2.581   5.885  1.3370  0.5926  1.5688
 5378SOL     OW27769   1.671   2.458   6.989 -0.6897  0.0678  0.0428
 5378SOL    HW127770   1.760   2.443   6.959 -1.3212 -0.8894 -1.3278
 5378SOL    HW227771   1.623   2.477   6.909 -2.4223  0.7705  1.2324
 5379SOL     OW27772   0.933   3.379   7.270 -0.1285 -0.4720 -0.6626
 5379SOL    HW127773   1.006   3.373   7.332 -0.3000 -1.0069 -0.5068
 5379SOL    HW227774   0.869   3.427   7.322 -1.5681 -1.5885 -1.4132
 5380SOL     OW27775   1.919   1.783   7.683  0.8049  0.6732  0.0610
 5380SOL    HW127776   1.908   1.877   7.696  0.6118 -0.0094  4.6381
 5380SOL    HW227777   1.998   1.789   7.629 -0.1685  2.4057 -1.1639
 5381SOL     OW27778   1.020   2.350   7.717 -0.4341 -0.0216 -0.1052
 5381SOL    HW127779   1.081   2.423   7.706 -2.4526  1.7623  0.6924
 5381SOL    HW227780   1.077   2.296   7.773 -0.6575  1.3160  1.3777
 5382SOL     OW27781   4.442   4.100   2.226  0.0402 -0.4537  0.0621
 5382SOL    HW127782   4.518   4.127   2.173 -0.1220  2.5470  1.3364
 5382SOL    HW227783   4.380   4.059   2.166  1.5308  0.3925 -2.0596
 5383SOL     OW27784   0.308   4.357   5.722  0.3736 -0.0217 -0.2774
 5383SOL    HW127785   0.262   4.291   5.670  1.5553  0.7139 -2.2650
 5383SOL    HW227786   0.393   4.340   5.682 -0.3664 -2.9597 -0.6386
 5384SOL     OW27787   3.565   1.669   7.821 -0.3364 -0.1541 -0.6287
 5384SOL    HW127788   3.525   1.675   7.908 -1.7246  0.7723 -1.3241
 5384SOL    HW227789   3.535   1.753   7.785 -0.6975  0.4316  1.0283
 5385SOL     OW27790   1.964   4.150   8.252  0.1525  0.6675  0.4034
 5385SOL    HW127791   2.057   4.166   8.241  0.3243  0.2704  1.2324
 5385SOL    HW227792   1.953   4.056   8.240  0.6509  0.4886  1.3298
 5386SOL     OW27793   2.177   1.745   2.871  0.2002 -0.4348 -0.4038
 5386SOL    HW127794   2.101   1.718   2.819  0.7088 -3.3206  0.3696
 5386SOL    HW227795   2.243   1.680   2.849  0.1939  1.0575 -5.0223
 5387SOL     OW27796   2.940   2.742   7.251  0.1391 -0.3393  0.3523
 5387SOL    HW127797   2.846   2.728   7.247  0.6423 -2.4514 -3.7068
 5387SOL    HW227798   2.957   2.825   7.207  1.2675 -1.1610 -0.7681
 5388SOL     OW27799   4.021   3.534   7.240 -0.3743  0.4586 -0.3553
 5388SOL    HW127800   3.968   3.496   7.170 -0.5761  0.2659 -0.1033
 5388SOL    HW227801   4.001   3.479   7.316  0.2730  0.4838 -0.1663
 5389SOL     OW27802   0.928   1.404   3.496 -0.2031 -0.1258 -0.6386
 5389SOL    HW127803   0.981   1.331   3.528 -0.4174  0.2957  0.7132
 5389SOL    HW227804   0.989   1.471   3.467  1.2777 -1.4403 -0.5589
 5390SOL     OW27805   0.805   1.654  12.765  0.1527 -0.3858 -0.0828
 5390SOL    HW127806   0.823   1.622  12.853 -2.1408 -0.5469  0.3328
 5390SOL    HW227807   0.710   1.644  12.757  0.1853 -0.3562 -0.5252
 5391SOL     OW27808   1.267   2.017  11.170  0.7203  0.5461 -0.3220
 5391SOL    HW127809   1.249   2.008  11.264 -0.6494  2.3710 -0.3981
 5391SOL    HW227810   1.217   2.095  11.147 -0.2876 -0.1448 -0.4955
 5392SOL     OW27811   1.181   0.350   3.398  0.4423  0.3426 -0.3012
 5392SOL    HW127812   1.177   0.413   3.326  0.1112  0.6467 -0.0159
 5392SOL    HW227813   1.238   0.279   3.368  1.0457  0.4789  0.5394
 5393SOL     OW27814   4.557   1.204   6.826  0.2374  0.5194 -0.3278
 5393SOL    HW127815   4.530   1.112   6.815  0.9479  0.1333  1.1701
 5393SOL    HW227816   4.626   1.197   6.892 -0.8772 -4.7190  0.3188
 5394SOL     OW27817   4.410   2.636   2.799  0.1037 -0.1499  0.1618
 5394SOL    HW127818   4.454   2.676   2.873  0.1091 -0.5858  0.3970
 5394SOL    HW227819   4.484   2.602   2.747  0.9978 -1.4052  2.2687
 5395SOL     OW27820   2.578   2.955   3.130 -0.3681 -0.2880 -0.5699
 5395SOL    HW127821   2.668   2.950   3.097 -0.9645 -1.7530 -1.9404
 5395SOL    HW227822   2.570   3.050   3.127  0.4157 -0.1116  2.5803
 5396SOL     OW27823   0.266   3.217  11.675 -0.4813 -0.7511  0.6230
 5396SOL    HW127824   0.309   3.132  11.666  0.4925 -0.1077 -0.8204
 5396SOL    HW227825   0.187   3.188  11.721 -0.3434 -0.4681  1.0322
 5397SOL     OW27826   3.122   2.046   5.327  0.3554  0.3155  0.9560
 5397SOL    HW127827   3.179   1.969   5.329 -0.0908 -0.0238  0.5342
 5397SOL    HW227828   3.128   2.086   5.240 -1.1529  1.8148  1.5288
 5398SOL     OW27829   4.634   1.322  13.706 -0.1768 -0.4689  0.2340
 5398SOL    HW127830   4.675   1.275  13.779 -2.7642  0.0026  1.9632
 5398SOL    HW227831   4.546   1.285  13.703 -0.5953  0.6854 -1.6574
 5399SOL     OW27832   0.231   1.645   5.125  0.8053 -0.0819 -0.3651
 5399SOL    HW127833   0.299   1.711   5.140 -0.0949  0.4914  1.2303
 5399SOL    HW227834   0.156   1.677   5.175 -0.5399  0.2821 -2.5929
 5400SOL     OW27835   3.457   3.751   1.010 -0.8445  0.0014 -0.1005
 5400SOL    HW127836   3.493   3.690   0.946 -1.1523 -0.4562  0.1660
 5400SOL    HW227837   3.469   3.831   0.958 -0.8614  1.2774  1.8548
 5401SOL     OW27838   0.758   3.919   1.675 -0.1178  0.2591 -0.5320
 5401SOL    HW127839   0.665   3.928   1.653 -0.1654 -0.4063 -0.6022
 5401SOL    HW227840   0.795   3.865   1.605 -1.2214 -0.1699 -0.7916
 5402SOL     OW27841   4.424   2.728  12.795  0.4907 -0.6891  0.5446
 5402SOL    HW127842   4.423   2.786  12.719  2.3845 -0.6566  0.5470
 5402SOL    HW227843   4.516   2.723  12.821  0.8136  0.1053 -0.4487
 5403SOL     OW27844   0.058   2.367  14.463 -0.1160 -0.0708  0.3163
 5403SOL    HW127845   4.703   2.397  14.443 -0.2628 -0.5379  0.2649
 5403SOL    HW227846   0.095   2.330  14.383 -2.0117  0.4284 -0.7844
 5404SOL     OW27847   4.307   4.679   7.718  0.5413  0.3182  0.4211
 5404SOL    HW127848   4.289   4.615   7.787 -0.3253 -0.3632 -0.4451
 5404SOL    HW227849   4.341   4.615   7.655  2.2524  0.6049  1.0429
 5405SOL     OW27850   0.249   3.016   6.821  0.2431 -0.0556  0.3940
 5405SOL    HW127851   0.326   3.019   6.877 -2.2025  1.0696  3.6870
 5405SOL    HW227852   0.297   3.035   6.740  1.3740  1.2337  1.3709
 5406SOL     OW27853   2.244   3.352   1.810 -0.3983 -0.6444  0.1011
 5406SOL    HW127854   2.312   3.298   1.852 -0.8318 -0.7343  0.6854
 5406SOL    HW227855   2.170   3.291   1.812 -1.2443  0.3645 -0.7218
 5407SOL     OW27856   2.626   2.682   4.927  0.1601  0.1346 -0.3904
 5407SOL    HW127857   2.697   2.652   4.869 -0.4600 -1.7119 -0.1917
 5407SOL    HW227858   2.660   2.762   4.967 -0.2752  0.6594 -1.0568
 5408SOL     OW27859   4.314   4.163   8.181  0.0104 -0.1173  0.0203
 5408SOL    HW127860   4.237   4.215   8.157 -0.0955  0.9238  2.6730
 5408SOL    HW227861   4.294   4.094   8.117  1.9053 -1.2211  0.6305
 5409SOL     OW27862   3.128   4.423  12.198  0.0133  0.1144  0.1450
 5409SOL    HW127863   3.110   4.360  12.268  1.3315 -1.5124 -0.9721
 5409SOL    HW227864   3.097   4.377  12.120  0.4600  0.2644 -0.1217
 5410SOL     OW27865   2.870   2.184   5.323  0.1091 -0.1474 -0.0232
 5410SOL    HW127866   2.921   2.104   5.308  0.5322  0.2161 -0.5436
 5410SOL    HW227867   2.873   2.188   5.418  0.9064 -0.8193 -0.0131
 5411SOL     OW27868   1.582   3.809  11.164  0.1836  0.1787  0.1375
 5411SOL    HW127869   1.488   3.796  11.154 -0.0461  0.3237  2.0976
 5411SOL    HW227870   1.583   3.896  11.204  1.8363  0.5806 -0.7632
 5412SOL     OW27871   0.552   2.898  15.752 -0.1903 -0.2757  0.4355
 5412SOL    HW127872   0.460   2.917  15.733 -0.0996  0.6847  0.9358
 5412SOL    HW227873   0.544   2.809  15.785 -4.1589 -0.8566 -1.9960
 5413SOL     OW27874   1.664   1.763   3.044  0.1293 -0.1403  0.2373
 5413SOL    HW127875   1.621   1.765   3.129 -2.0067  1.4947 -0.9104
 5413SOL    HW227876   1.700   1.852   3.043  2.0971 -0.9255  0.2247
 5414SOL     OW27877   4.011   2.036  14.613  0.5733 -0.5904  0.7635
 5414SOL    HW127878   4.058   2.088  14.678 -1.3578  0.7771  1.0386
 5414SOL    HW227879   4.071   2.028  14.539  2.0341 -1.5458  2.0443
 5415SOL     OW27880   4.056   0.802   0.893  0.1870  0.7068 -0.0508
 5415SOL    HW127881   4.088   0.883   0.934 -0.2424  1.2367 -0.7632
 5415SOL    HW227882   4.125   0.739   0.912 -0.8357 -0.8355 -1.5212
 5416SOL     OW27883   4.606   4.635   6.467  0.0424 -0.1252 -0.4582
 5416SOL    HW127884   4.696   4.661   6.489  0.4288 -1.3735 -0.5262
 5416SOL    HW227885   4.617   4.545   6.434  0.2545  0.2618 -1.4462
 5417SOL     OW27886   1.084   1.200   3.711 -0.2743  0.9200  0.1503
 5417SOL    HW127887   1.101   1.282   3.665  2.4687 -0.9785 -2.2387
 5417SOL    HW227888   1.088   1.226   3.803  1.2135 -0.9469  0.6194
 5418SOL     OW27889   1.112   1.261   2.260  0.2977  0.1410 -0.6286
 5418SOL    HW127890   1.203   1.276   2.287 -0.2319  1.4445  0.4691
 5418SOL    HW227891   1.116   1.166   2.248  3.2299  0.2432 -0.5447
 5419SOL     OW27892   2.037   2.596   8.036  0.0197 -0.0637 -0.2805
 5419SOL    HW127893   2.055   2.584   7.943 -0.5830 -1.7240 -0.1795
 5419SOL    HW227894   2.064   2.687   8.050 -0.7241  0.0562  0.3522
 5420SOL     OW27895   1.445   0.648   7.400  0.1688 -0.5270  0.4644
 5420SOL    HW127896   1.435   0.665   7.306  2.7750 -1.0096  0.0842
 5420SOL    HW227897   1.429   0.735   7.436  1.6035 -0.1890  0.2977
 5421SOL     OW27898   0.556   1.575  12.306 -0.4035  0.0760  0.5142
 5421SOL    HW127899   0.589   1.619  12.385  1.9498 -0.9325  0.0650
 5421SOL    HW227900   0.500   1.517  12.357 -4.1172  0.2860 -3.3103
 5422SOL     OW27901   1.384   1.239   9.270  0.1644  0.2696  0.5544
 5422SOL    HW127902   1.323   1.309   9.247 -1.2364 -1.6281 -1.4377
 5422SOL    HW227903   1.460   1.274   9.225  0.5978 -1.0653  0.2442
 5423SOL     OW27904   3.428   0.303   8.440 -0.0551  0.0376  0.3363
 5423SOL    HW127905   3.344   0.290   8.397  0.3708 -1.5696  0.0004
 5423SOL    HW227906   3.480   0.264   8.370  1.0085 -3.1261  2.8933
 5424SOL     OW27907   3.997   2.115   4.393  0.4633 -0.2594 -0.0772
 5424SOL    HW127908   3.945   2.164   4.457 -1.2514 -0.1748 -1.5307
 5424SOL    HW227909   3.925   2.092   4.333  2.1428 -0.8141 -1.8993
 5425SOL     OW27910   2.544   0.154   2.493  0.7227  0.4581 -0.5000
 5425SOL    HW127911   2.600   0.161   2.571  0.1947 -0.7240 -0.0021
 5425SOL    HW227912   2.601   0.177   2.421  2.9710  1.6038  1.6438
 5426SOL     OW27913   3.827   4.079   8.600  0.0520  0.1592 -0.4702
 5426SOL    HW127914   3.874   4.151   8.559 -1.1073  0.7582 -0.7372
 5426SOL    HW227915   3.796   4.125   8.679 -0.4685 -0.8493 -0.0783
 5427SOL     OW27916   2.594   0.437  13.047  0.1975 -0.3067 -0.4048
 5427SOL    HW127917   2.573   0.412  13.137 -0.1641  1.4232 -0.0221
 5427SOL    HW227918   2.518   0.401  13.000  0.3383 -1.6968  0.4391
 5428SOL     OW27919   4.651   1.740   5.956  0.0424  0.2311 -0.7833
 5428SOL    HW127920   4.730   1.745   6.010 -0.7216 -1.4224  0.4919
 5428SOL    HW227921   4.612   1.664   5.999  0.8666  0.2275 -0.0491
 5429SOL     OW27922   3.614   2.801  17.606 -0.1409 -0.3076  0.0051
 5429SOL    HW127923   3.623   2.786  17.512  0.2352 -0.9087  0.1357
 5429SOL    HW227924   3.666   2.880  17.623  1.4581 -0.6381 -3.4172
 5430SOL     OW27925   1.948   1.476   7.674  0.3394 -0.1307  0.0951
 5430SOL    HW127926   1.936   1.567   7.648 -0.5942 -0.3332 -0.2051
 5430SOL    HW227927   1.865   1.429   7.661 -0.9492  1.5838  2.1078
 5431SOL     OW27928   3.438   0.583   6.948  0.0763  0.0724  0.1395
 5431SOL    HW127929   3.363   0.642   6.939  0.1387 -0.0495 -1.1671
 5431SOL    HW227930   3.390   0.502   6.964  1.8201 -1.0268 -0.1348
 5432SOL     OW27931   2.869   1.730   9.513 -0.8225 -0.1983 -0.6231
 5432SOL    HW127932   2.848   1.820   9.539  0.6914 -0.3280  0.9706
 5432SOL    HW227933   2.852   1.689   9.597 -2.4440  0.8645 -0.4204
 5433SOL     OW27934   1.422   4.028   5.865 -0.4849  0.3701 -0.7286
 5433SOL    HW127935   1.387   3.943   5.891  2.4695 -1.1719 -1.8355
 5433SOL    HW227936   1.477   3.999   5.792  2.5347 -1.5840  2.2902
 5434SOL     OW27937   4.672   1.199  17.262 -0.3641 -0.7801  0.3734
 5434SOL    HW127938   4.636   1.213  17.175 -0.2256  1.3606  0.6694
 5434SOL    HW227939   4.640   1.111  17.283 -1.6648  0.0122  1.7206
 5435SOL     OW27940   1.378   3.474   9.270  0.1218  0.3628 -0.0213
 5435SOL    HW127941   1.292   3.507   9.245 -0.0541  1.0004  1.4389
 5435SOL    HW227942   1.433   3.486   9.192 -0.5746  0.9858 -0.4132
 5436SOL     OW27943   0.689   3.014   1.980 -0.1089 -0.3732  0.1793
 5436SOL    HW127944   0.692   3.087   2.042  1.9612  1.0147 -1.5397
 5436SOL    HW227945   0.778   2.982   1.997  0.2106 -0.0604 -0.9177
 5437SOL     OW27946   2.663   1.410   4.986  0.6595 -0.1182 -0.4858
 5437SOL    HW127947   2.750   1.412   4.945 -1.5996  4.3630 -5.0511
 5437SOL    HW227948   2.671   1.479   5.052 -0.8992  1.6671 -2.1633
 5438SOL     OW27949   0.688   0.464   5.929  0.0961 -0.3363  0.3591
 5438SOL    HW127950   0.650   0.513   6.002  0.7021  0.3047  0.2412
 5438SOL    HW227951   0.779   0.486   5.950  0.1079 -0.3943  0.3688
 5439SOL     OW27952   4.385   0.218  12.069 -0.3041  0.7492 -0.2827
 5439SOL    HW127953   4.382   0.293  12.129 -1.9001  0.1577  0.3705
 5439SOL    HW227954   4.359   0.139  12.116 -0.8986  1.1705  0.0925
 5440SOL     OW27955   1.809   1.612   6.979  0.0522  0.4664  0.6697
 5440SOL    HW127956   1.715   1.625   6.964  0.2864 -0.4605 -1.5625
 5440SOL    HW227957   1.831   1.687   7.035 -1.2390 -0.1579  2.0208
 5441SOL     OW27958   3.635   1.810   5.195  0.0914  0.4090 -0.4178
 5441SOL    HW127959   3.617   1.744   5.128 -2.5063 -0.2339  0.9018
 5441SOL    HW227960   3.685   1.753   5.253 -0.3028 -0.0680 -0.5470
 5442SOL     OW27961   1.518   3.623   1.019  0.0298  0.5971  0.6805
 5442SOL    HW127962   1.515   3.673   1.100  0.3683  0.5074  0.7507
 5442SOL    HW227963   1.439   3.659   0.978 -0.4498  1.1176  2.0633
 5443SOL     OW27964   0.243   3.840   8.345 -0.4484 -0.2801  0.3319
 5443SOL    HW127965   0.250   3.746   8.330  1.9709 -0.3806  2.0310
 5443SOL    HW227966   0.269   3.849   8.437 -1.2973 -1.3584  0.6745
 5444SOL     OW27967   4.233   1.160  11.823 -0.3682 -0.0128  0.0669
 5444SOL    HW127968   4.206   1.250  11.803 -1.3368 -0.1493  0.7809
 5444SOL    HW227969   4.167   1.099  11.790 -1.5235  1.3978 -0.2216
 5445SOL     OW27970   4.217   2.806   0.218 -0.6967 -0.3936 -0.0244
 5445SOL    HW127971   4.245   2.723   0.180  1.1770 -0.7764  2.1634
 5445SOL    HW227972   4.214   2.779   0.310 -0.6901  2.9072  0.9623
 5446SOL     OW27973   1.422   2.782  13.444  0.3892 -0.0424 -0.4617
 5446SOL    HW127974   1.484   2.796  13.372 -0.6976  1.7651 -1.0461
 5446SOL    HW227975   1.377   2.866  13.435 -0.9746 -0.6523  0.6711
 5447SOL     OW27976   4.254   1.460   2.743 -0.0953  0.6630 -0.6258
 5447SOL    HW127977   4.211   1.545   2.740 -1.2858  0.1825  2.6023
 5447SOL    HW227978   4.343   1.488   2.727 -0.4944  1.9280 -0.6047
 5448SOL     OW27979   1.822   2.256  11.898 -0.2750  0.2075  0.0770
 5448SOL    HW127980   1.784   2.254  11.986 -0.8583  1.6295 -0.1409
 5448SOL    HW227981   1.769   2.189  11.855 -0.2691  0.3959 -0.2264
 5449SOL     OW27982   2.699   3.962   8.298 -0.3929  0.1065 -0.2075
 5449SOL    HW127983   2.728   3.885   8.250  1.0077  0.5914 -0.1395
 5449SOL    HW227984   2.605   3.942   8.299 -0.1372 -1.0969 -0.7616
 5450SOL     OW27985   2.901   0.649   6.899 -0.1714  0.1081  0.6126
 5450SOL    HW127986   2.919   0.677   6.809  1.0159 -0.7987  0.5700
 5450SOL    HW227987   2.807   0.632   6.895 -0.0588  0.0347 -2.0213
 5451SOL     OW27988   1.026   2.002   2.333  0.1346 -0.3251 -0.7695
 5451SOL    HW127989   1.000   1.927   2.386  0.1309  0.3334  0.1497
 5451SOL    HW227990   1.112   2.027   2.365  0.2357  0.2118 -1.4622
 5452SOL     OW27991   3.398   4.403  13.952 -0.0371  0.1766  0.1193
 5452SOL    HW127992   3.307   4.398  13.925 -0.3181  0.2042  1.0598
 5452SOL    HW227993   3.390   4.436  14.041  1.3721 -1.0156  0.6955
 5453SOL     OW27994   2.421   4.274   5.321  0.0209  0.2767 -0.1465
 5453SOL    HW127995   2.327   4.294   5.327 -0.0760  0.0167 -0.6803
 5453SOL    HW227996   2.432   4.219   5.243 -2.3085 -0.4310  0.0076
 5454SOL     OW27997   3.661   0.070  14.749  0.0457  0.1394 -0.2124
 5454SOL    HW127998   3.613   0.034  14.675 -0.1719  0.4048 -0.1970
 5454SOL    HW227999   3.587   0.073  14.809 -0.0241  1.2292 -0.3581
 5455SOL     OW28000   2.507   0.184  12.797 -0.2257 -1.0767  0.1858
 5455SOL    HW128001   2.455   0.252  12.840  0.8329 -0.6312  0.7643
 5455SOL    HW228002   2.584   0.240  12.798 -2.5176  2.0925 -0.7341
 5456SOL     OW28003   4.312   1.917   8.709  0.1790  0.2444  0.3895
 5456SOL    HW128004   4.375   1.938   8.778  2.1326  0.7295 -1.5631
 5456SOL    HW228005   4.296   1.826   8.734  2.5894 -0.3294 -0.1501
 5457SOL     OW28006   3.469   0.354   3.869  0.6613  0.6737  0.2052
 5457SOL    HW128007   3.491   0.326   3.957  1.9184  2.7642  0.5487
 5457SOL    HW228008   3.373   0.354   3.880  1.0561 -2.8110  3.5102
 5458SOL     OW28009   0.267   1.121  16.482 -0.2244 -0.1337  0.3094
 5458SOL    HW128010   0.190   1.079  16.517 -0.4575  0.6512  0.7341
 5458SOL    HW228011   0.243   1.214  16.485 -1.3516 -0.4434  0.6551
 5459SOL     OW28012   0.537   3.998  17.347 -0.7684  0.1119 -0.3253
 5459SOL    HW128013   0.621   4.025  17.310 -0.8758  0.2265 -0.4863
 5459SOL    HW228014   0.475   4.045  17.292 -0.9953 -0.5035 -0.5900
 5460SOL     OW28015   3.664   1.086   4.660  0.3842 -0.6833  0.4834
 5460SOL    HW128016   3.664   1.078   4.565 -0.7056 -0.4324  0.4518
 5460SOL    HW228017   3.573   1.116   4.673  0.9982  1.4953 -0.2860
 5461SOL     OW28018   0.737   1.438   6.114 -0.1494 -0.1408 -0.0752
 5461SOL    HW128019   0.659   1.405   6.070 -0.6342  2.3430 -1.0858
 5461SOL    HW228020   0.707   1.463   6.202  1.1329  0.5287  0.1894
 5462SOL     OW28021   2.819   1.817  12.878  0.4610 -0.1673 -0.3063
 5462SOL    HW128022   2.891   1.881  12.879  1.0070 -0.8043  1.1137
 5462SOL    HW228023   2.859   1.734  12.904 -0.2453 -0.5363 -0.4001
 5463SOL     OW28024   1.713   1.536   2.685  0.1158  0.6908 -0.1633
 5463SOL    HW128025   1.691   1.444   2.701  1.7763  0.1970 -0.6965
 5463SOL    HW228026   1.643   1.559   2.624 -0.7661 -0.3703  0.4654
 5464SOL     OW28027   2.629   1.966   5.952 -0.1477  0.7637  0.6332
 5464SOL    HW128028   2.695   2.016   5.904 -0.0265  0.8250  0.8626
 5464SOL    HW228029   2.681   1.908   6.008  1.1660 -0.4344 -1.8310
 5465SOL     OW28030   2.994   1.776   0.977  0.0625 -0.5389 -0.0701
 5465SOL    HW128031   2.960   1.755   0.890  0.7138  1.3545 -0.7747
 5465SOL    HW228032   2.923   1.739   1.029 -1.1494  0.8976 -0.6780
 5466SOL     OW28033   0.626   0.039   4.872  0.1657  0.2850 -0.4070
 5466SOL    HW128034   0.659   0.128   4.861 -0.8351  0.7948  0.6152
 5466SOL    HW228035   0.667   0.016   4.955  0.0712  0.6718 -0.2485
 5467SOL     OW28036   1.253   0.409   0.821 -0.4716  0.0553  1.0073
 5467SOL    HW128037   1.320   0.423   0.888  0.8227  0.5418 -0.3820
 5467SOL    HW228038   1.296   0.437   0.740 -0.2668 -2.4227  0.2590
 5468SOL     OW28039   1.290   1.129   6.309  0.3435 -0.1408  0.0138
 5468SOL    HW128040   1.313   1.222   6.300 -0.3415  0.0429  0.1858
 5468SOL    HW228041   1.226   1.121   6.239 -2.2178  0.3460  2.3290
 5469SOL     OW28042   0.004   0.274   8.017  0.4409  0.5727  0.3174
 5469SOL    HW128043   4.711   0.282   8.109  0.8150  0.0176  0.4761
 5469SOL    HW228044   4.660   0.307   7.972  0.9619  1.3305 -0.0357
 5470SOL     OW28045   3.058   3.596  10.388 -0.0566  0.0756 -0.2461
 5470SOL    HW128046   3.005   3.638  10.320  1.4953 -1.2278 -2.2441
 5470SOL    HW228047   3.043   3.504  10.369  2.4905 -0.6492  1.3148
 5471SOL     OW28048   2.465   2.987   6.930 -0.5068  0.0322 -0.0497
 5471SOL    HW128049   2.401   2.918   6.917 -0.9361  0.3076  0.6017
 5471SOL    HW228050   2.540   2.938   6.963  0.5461  1.4064 -0.3491
 5472SOL     OW28051   3.903   4.426   6.367  0.0134  0.0764 -0.0201
 5472SOL    HW128052   3.910   4.459   6.278 -0.1818  0.5266  0.1355
 5472SOL    HW228053   3.902   4.504   6.422 -3.8071 -0.1859  0.2456
 5473SOL     OW28054   0.001   2.414   9.537 -0.6008  0.0662 -0.9725
 5473SOL    HW128055   4.689   2.404   9.620 -2.0879 -0.4036 -1.8614
 5473SOL    HW228056   0.070   2.476   9.559  0.0164 -0.3990 -1.5783
 5474SOL     OW28057   0.178   4.516   4.867 -0.1708 -0.4530  0.3741
 5474SOL    HW128058   0.110   4.449   4.872 -1.2980  0.6754  0.0301
 5474SOL    HW228059   0.245   4.471   4.815 -0.3804 -3.8828  3.0843
 5475SOL     OW28060   0.381   4.248  15.371 -0.7710  0.0751 -0.1087
 5475SOL    HW128061   0.310   4.303  15.338  0.7223  1.2827 -1.2866
 5475SOL    HW228062   0.411   4.209  15.289  1.5186  0.4100  0.5750
 5476SOL     OW28063   0.771   2.914   5.445 -0.0407 -0.3373 -0.7319
 5476SOL    HW128064   0.713   2.931   5.370 -0.8666  0.8715  0.1725
 5476SOL    HW228065   0.820   2.841   5.407 -0.4297 -0.7076 -0.5174
 5477SOL     OW28066   0.288   3.780   6.842 -0.2464 -0.4246 -0.4056
 5477SOL    HW128067   0.315   3.689   6.825  0.4564 -0.1642 -0.7127
 5477SOL    HW228068   0.351   3.801   6.911 -1.8700  1.0002  0.6115
 5478SOL     OW28069   1.624   0.763   2.188  0.5671  0.2685  0.7209
 5478SOL    HW128070   1.633   0.671   2.213  2.7480 -0.2022 -1.7918
 5478SOL    HW228071   1.528   0.758   2.179  0.1524  2.0916  4.1119
 5479SOL     OW28072   3.370   4.514  16.046 -0.2707  0.4081  0.2442
 5479SOL    HW128073   3.346   4.550  16.131  0.8394  2.2352 -0.2018
 5479SOL    HW228074   3.442   4.455  16.068 -0.8820 -0.4955 -0.1886
 5480SOL     OW28075   3.100   4.659   6.923 -0.4923 -0.1989 -0.5548
 5480SOL    HW128076   3.024   4.716   6.908  0.9420  2.2465  1.3574
 5480SOL    HW228077   3.166   4.728   6.935 -1.6362  0.8592 -0.2675
 5481SOL     OW28078   2.290   2.633   6.348  0.0548  0.6633 -0.0940
 5481SOL    HW128079   2.342   2.552   6.351 -0.4913  0.3360  0.4384
 5481SOL    HW228080   2.204   2.593   6.336  0.5857  0.1191 -2.0431
 5482SOL     OW28081   2.857   1.250  10.188  0.0719 -0.7610  0.2588
 5482SOL    HW128082   2.767   1.250  10.221 -0.2810  0.8061 -0.7314
 5482SOL    HW228083   2.875   1.159  10.165  2.2121 -0.3155  0.1769
 5483SOL     OW28084   1.281   3.641   3.593  0.0483  0.1458 -0.2699
 5483SOL    HW128085   1.341   3.653   3.667  0.3675 -0.9555 -0.3564
 5483SOL    HW228086   1.345   3.662   3.525  0.6561  0.3734  0.3670
 5484SOL     OW28087   0.919   3.264   4.987 -0.2218  0.6468  0.1734
 5484SOL    HW128088   0.941   3.199   5.054  1.1155 -1.0642 -1.9339
 5484SOL    HW228089   0.928   3.210   4.908  0.7499 -0.1392  0.8189
 5485SOL     OW28090   3.834   0.372   3.909  0.4228 -0.2781  0.0184
 5485SOL    HW128091   3.867   0.342   3.824 -0.6127 -1.3917  0.0107
 5485SOL    HW228092   3.917   0.390   3.952  0.2583 -0.6884  0.5138
 5486SOL     OW28093   4.267   3.608   7.172 -0.2343 -0.1711 -0.3834
 5486SOL    HW128094   4.243   3.520   7.142  0.7057  0.5122 -3.1260
 5486SOL    HW228095   4.181   3.638   7.201  0.2465  1.6323 -0.8063
 5487SOL     OW28096   0.752   1.608   0.120  0.2610  0.1078  0.1719
 5487SOL    HW128097   0.783   1.549   0.189 -0.5738 -0.1475  0.3351
 5487SOL    HW228098   0.785   1.695   0.140 -0.1126  0.2124  0.3341
 5488SOL     OW28099   3.329   2.947  11.754  0.3995  0.3573 -0.2776
 5488SOL    HW128100   3.356   3.019  11.811  1.0503 -0.6263  0.6578
 5488SOL    HW228101   3.395   2.950  11.684  0.9998  2.0465  0.3840
 5489SOL     OW28102   3.644   4.106   5.865 -0.5716  0.3777 -0.2865
 5489SOL    HW128103   3.662   4.012   5.860 -0.1295  0.4441  0.0998
 5489SOL    HW228104   3.708   4.136   5.801  0.8385 -2.0105 -0.0133
 5490SOL     OW28105   0.352   2.156  17.179 -0.5512  0.0411  0.0595
 5490SOL    HW128106   0.349   2.082  17.240 -0.2565 -0.6042 -0.6980
 5490SOL    HW228107   0.417   2.206  17.227 -0.8312 -1.0574  1.5968
 5491SOL     OW28108   3.322   3.027  10.491 -0.1491  0.2884 -0.0881
 5491SOL    HW128109   3.356   2.940  10.474 -0.4178  0.1258  0.2115
 5491SOL    HW228110   3.337   3.030  10.585  1.0470 -1.0493 -0.2512
 5492SOL     OW28111   1.660   4.367  10.015 -0.0830 -0.1496  0.4127
 5492SOL    HW128112   1.593   4.311   9.976 -1.7385  1.3937  1.0494
 5492SOL    HW228113   1.684   4.419   9.938 -1.8127 -2.4603 -1.6682
 5493SOL     OW28114   3.068   3.944  15.349 -0.1577 -0.3100 -0.1431
 5493SOL    HW128115   3.064   3.875  15.282  0.1057 -0.5698  0.1063
 5493SOL    HW228116   3.159   3.971  15.338 -0.5324  0.9775 -0.0492
 5494SOL     OW28117   4.187   1.426   1.731 -0.5090 -0.4525 -0.4580
 5494SOL    HW128118   4.135   1.397   1.807  2.0191 -0.5382  1.2265
 5494SOL    HW228119   4.172   1.521   1.731  0.7062 -0.2702  0.1760
 5495SOL     OW28120   3.251   1.884   6.761  0.0211  0.5136 -0.3239
 5495SOL    HW128121   3.266   1.791   6.778  0.1010  0.3486 -1.2984
 5495SOL    HW228122   3.165   1.900   6.801 -0.0173  0.6871 -0.4790
 5496SOL     OW28123   0.609   4.706   5.692 -0.2180  0.2709 -0.2271
 5496SOL    HW128124   0.638   4.632   5.639  0.6054 -0.9779  2.0032
 5496SOL    HW228125   0.634   0.048   5.638 -2.0838  0.7856 -0.3721
 5497SOL     OW28126   3.003   2.955   2.862  0.0265 -0.5444 -0.4712
 5497SOL    HW128127   2.955   3.014   2.805  0.5792  0.6851  0.3490
 5497SOL    HW228128   2.938   2.932   2.928 -0.4688 -1.1547 -1.1672
 5498SOL     OW28129   4.374   1.286  10.557 -0.1568  0.5796 -0.3327
 5498SOL    HW128130   4.388   1.273  10.651  1.2934 -0.4269 -0.6901
 5498SOL    HW228131   4.338   1.199  10.537  0.9503  0.4878 -1.8487
 5499SOL     OW28132   0.139   2.656  15.029  0.3777  0.2085  0.0678
 5499SOL    HW128133   0.153   2.575  14.980 -1.6116 -0.2229  0.2146
 5499SOL    HW228134   0.218   2.704  15.004  0.1138  2.0145  2.7667
 5500SOL     OW28135   2.838   2.633  11.356  0.4058  0.1398  0.5749
 5500SOL    HW128136   2.834   2.555  11.412 -0.5087  0.2157  0.6173
 5500SOL    HW228137   2.927   2.617  11.326  0.9817  1.2554  1.7215
 5501SOL     OW28138   0.795   2.881  10.050  0.2094 -0.1789 -0.1839
 5501SOL    HW128139   0.840   2.906  10.130  0.4949  0.3568 -0.5056
 5501SOL    HW228140   0.774   2.789  10.061 -1.7592  0.3624  0.6785
 5502SOL     OW28141   3.713   0.113   2.823 -0.2027  0.1707 -0.7466
 5502SOL    HW128142   3.703   0.114   2.727 -0.9766  0.7608 -0.6632
 5502SOL    HW228143   3.761   0.031   2.835  0.5941  1.0249  1.7664
 5503SOL     OW28144   3.398   3.783   8.197  0.1097 -0.3888  0.6421
 5503SOL    HW128145   3.446   3.722   8.254  1.1820  0.8732  1.0878
 5503SOL    HW228146   3.413   3.742   8.112 -0.6812 -0.9228  0.7640
 5504SOL     OW28147   1.479   0.751  16.424  0.0399  0.1043 -0.1649
 5504SOL    HW128148   1.569   0.727  16.442  0.4001  0.2190 -1.7872
 5504SOL    HW228149   1.448   0.670  16.385 -0.3822 -0.1846  0.7800
 5505SOL     OW28150   2.864   2.851   2.125 -0.0650 -0.2902 -0.0956
 5505SOL    HW128151   2.855   2.836   2.031  1.5039 -1.0938 -0.1180
 5505SOL    HW228152   2.889   2.943   2.114 -3.7057  0.7034  0.1151
 5506SOL     OW28153   3.384   0.077   6.112  0.5015  0.7681 -0.0125
 5506SOL    HW128154   3.301   0.098   6.155 -0.1534 -1.9339  0.0167
 5506SOL    HW228155   3.449   0.119   6.169  0.7286 -2.5481  2.1752
 5507SOL     OW28156   1.784   0.619   5.743 -0.2341 -0.0515  0.0960
 5507SOL    HW128157   1.849   0.552   5.720 -0.6099 -0.9034  1.5196
 5507SOL    HW228158   1.801   0.635   5.836  2.4443  0.8480 -0.5634
 5508SOL     OW28159   4.340   3.423   8.163  0.7284  0.2854 -0.0138
 5508SOL    HW128160   4.279   3.352   8.185 -0.4748  1.6826  1.1726
 5508SOL    HW228161   4.297   3.507   8.177 -1.6663 -0.7786 -1.0195
 5509SOL     OW28162   0.523   3.096   5.272  0.3389 -0.0305 -0.1574
 5509SOL    HW128163   0.506   3.187   5.297  2.4346  0.3073  0.1025
 5509SOL    HW228164   0.602   3.110   5.218 -0.0941  0.3755 -0.6844
 5510SOL     OW28165   2.354   1.447   0.959 -0.3468  0.1267 -0.3525
 5510SOL    HW128166   2.266   1.437   0.996  1.0527 -2.2459  2.4103
 5510SOL    HW228167   2.338   1.488   0.875 -0.8681 -0.0087 -0.3172
 5511SOL     OW28168   1.036   0.591   9.261  0.0324  0.3327 -0.0923
 5511SOL    HW128169   0.954   0.632   9.235 -0.1139 -1.0155 -1.7423
 5511SOL    HW228170   1.085   0.673   9.255  2.7384 -1.3376 -1.0327
 5512SOL     OW28171   4.264   3.230   3.789  0.4676  0.0356  0.8676
 5512SOL    HW128172   4.261   3.144   3.831  0.1765 -1.1290 -1.5854
 5512SOL    HW228173   4.358   3.246   3.792  0.4026  0.6608 -0.4088
 5513SOL     OW28174   1.189   4.026   6.204  0.4389 -0.3056 -0.3849
 5513SOL    HW128175   1.235   4.104   6.175  1.3557 -0.7866 -0.2187
 5513SOL    HW228176   1.248   3.985   6.268  1.2733 -0.3207 -1.1710
 5514SOL     OW28177   3.908   3.087   7.849  0.1406 -0.3191 -0.4465
 5514SOL    HW128178   3.928   2.994   7.859 -1.0173 -0.4757  0.4540
 5514SOL    HW228179   3.930   3.102   7.757 -0.0205  1.5255 -0.1797
 5515SOL     OW28180   4.556   0.181   2.160  0.2985 -0.5265  0.3532
 5515SOL    HW128181   4.475   0.133   2.145  0.5523  0.0731 -2.9465
 5515SOL    HW228182   4.522   0.263   2.195  1.7745  1.6328 -3.1786
 5516SOL     OW28183   1.262   1.368   4.949  0.0376 -0.4092  0.3504
 5516SOL    HW128184   1.344   1.360   4.900  0.3126  1.2359  0.5522
 5516SOL    HW228185   1.242   1.460   4.935  0.4064 -0.4401 -0.3921
 5517SOL     OW28186   4.622   3.808  16.223  0.5062 -0.1847  0.1282
 5517SOL    HW128187   4.651   3.732  16.172 -0.5934 -0.5099 -0.0085
 5517SOL    HW228188   4.622   3.877  16.157  1.5547  0.0085  0.3226
 5518SOL     OW28189   1.259   4.251   9.465 -0.3157  0.3525 -0.1756
 5518SOL    HW128190   1.230   4.268   9.554 -1.3885 -1.4782 -0.1723
 5518SOL    HW228191   1.309   4.332   9.453  2.3475 -1.4809 -1.5988
 5519SOL     OW28192   0.813   2.115   8.215  0.1174  0.7303 -0.0170
 5519SOL    HW128193   0.842   2.156   8.133  1.6831  0.4252  0.3880
 5519SOL    HW228194   0.745   2.056   8.181 -0.4977  0.1806  2.1942
 5520SOL     OW28195   0.839   2.938  14.350  0.2889 -0.1991 -0.1024
 5520SOL    HW128196   0.930   2.966  14.343 -0.5968  2.0819 -2.5012
 5520SOL    HW228197   0.780   3.013  14.356  0.4551 -0.0906  0.1758
 5521SOL     OW28198   2.951   0.711   2.404 -0.1590  0.3369  0.5227
 5521SOL    HW128199   2.921   0.782   2.347 -0.3530  0.9765  1.4141
 5521SOL    HW228200   2.926   0.759   2.483 -0.8134  0.1540  0.4276
 5522SOL     OW28201   3.125   1.540  17.394 -0.0797 -0.0915 -0.3082
 5522SOL    HW128202   3.186   1.468  17.380 -0.7034 -1.0990  2.2553
 5522SOL    HW228203   3.178   1.617  17.416 -0.7986  0.1759  0.5114
 5523SOL     OW28204   2.389   2.170  10.343  0.1977  0.6054  0.2714
 5523SOL    HW128205   2.353   2.082  10.355  2.2305 -0.0308  1.6914
 5523SOL    HW228206   2.482   2.151  10.331  0.0946  0.5559 -0.4108
 5524SOL     OW28207   4.412   0.422   4.344  0.4422 -0.1888 -0.2198
 5524SOL    HW128208   4.341   0.476   4.309  0.7760 -0.7498 -1.7630
 5524SOL    HW228209   4.486   0.482   4.351 -1.6500  2.2954  0.6411
 5525SOL     OW28210   3.863   2.297  13.887 -0.4607 -0.8307  0.2509
 5525SOL    HW128211   3.783   2.310  13.836 -1.5111  0.2961  2.1909
 5525SOL    HW228212   3.868   2.204  13.908  0.3933 -1.1436 -1.2927
 5526SOL     OW28213   3.859   1.716  14.704  0.2031  0.2637 -0.0646
 5526SOL    HW128214   3.908   1.635  14.716  0.2866  0.5133  1.3165
 5526SOL    HW228215   3.846   1.718  14.609 -1.6114 -0.7728  0.1610
 5527SOL     OW28216   0.132   2.260  15.239  0.0688  0.2200 -0.3820
 5527SOL    HW128217   0.058   2.299  15.193  0.0391  0.9484  0.2760
 5527SOL    HW228218   0.202   2.322  15.217  0.9242 -0.2046  1.1209
 5528SOL     OW28219   0.061   2.924   9.129  0.7397 -0.1679  0.4083
 5528SOL    HW128220   4.721   2.863   9.137  0.7372 -0.4449 -1.6046
 5528SOL    HW228221   0.136   2.869   9.152  1.6363  0.7119 -0.3913
 5529SOL     OW28222   1.482   2.270   3.363  0.8670  0.2320  0.2932
 5529SOL    HW128223   1.521   2.355   3.385 -0.8982  0.6789  1.7073
 5529SOL    HW228224   1.541   2.215   3.415 -0.0434 -0.9485  0.0674
 5530SOL     OW28225   4.067   4.464   0.354  0.1454 -0.5122 -0.2373
 5530SOL    HW128226   4.095   4.406   0.283  2.4181  1.7624 -1.2126
 5530SOL    HW228227   4.150   4.501   0.384 -0.7880 -0.2890  2.0335
 5531SOL     OW28228   1.986   2.279   7.916 -0.3443  0.4117  0.0185
 5531SOL    HW128229   1.924   2.299   7.985 -0.3952  0.9186 -0.1779
 5531SOL    HW228230   1.947   2.194   7.894  1.5080 -0.9464  2.0085
 5532SOL     OW28231   2.495   0.830  12.403 -0.3513  0.8606  0.5566
 5532SOL    HW128232   2.561   0.861  12.465 -0.5116 -1.1481  1.7394
 5532SOL    HW228233   2.460   0.912  12.368 -0.4281  0.3923 -0.4706
 5533SOL     OW28234   4.464   1.539   6.484 -0.4218  0.0721  0.4544
 5533SOL    HW128235   4.504   1.458   6.517 -0.0718 -0.8873 -2.2770
 5533SOL    HW228236   4.406   1.492   6.424 -1.4448  1.0329  0.7036
 5534SOL     OW28237   4.649   0.295   4.142  0.3644 -0.5461  0.0930
 5534SOL    HW128238   4.605   0.310   4.058 -1.7552  0.0525  1.3115
 5534SOL    HW228239   4.574   0.290   4.201  1.1819  0.3125  1.1966
 5535SOL     OW28240   4.461   4.520   5.885 -0.5917 -0.5506  0.4492
 5535SOL    HW128241   4.496   4.601   5.922  0.0807 -1.8665  2.6957
 5535SOL    HW228242   4.531   4.456   5.894  0.7149  0.6720 -0.9818
 5536SOL     OW28243   3.388   0.184  17.560 -0.2549 -0.4182  0.2450
 5536SOL    HW128244   3.438   0.154  17.484  0.7941 -0.0339  0.7814
 5536SOL    HW228245   3.305   0.139  17.543 -0.4109 -0.0461  0.0460
 5537SOL     OW28246   0.064   0.124   3.642 -0.3240 -0.0564 -0.0553
 5537SOL    HW128247   0.145   0.176   3.649  0.0502 -0.5301 -0.9197
 5537SOL    HW228248   0.072   0.066   3.718 -1.8257  1.8585  1.5780
 5538SOL     OW28249   1.524   3.238  15.585 -0.2754 -0.4184 -0.8359
 5538SOL    HW128250   1.458   3.190  15.535 -0.7274 -2.2975  1.5658
 5538SOL    HW228251   1.521   3.328  15.554  2.9093  0.1762  0.5645
 5539SOL     OW28252   2.614   4.115   5.206  0.3213 -0.0545  0.8772
 5539SOL    HW128253   2.640   4.150   5.292 -1.6767 -1.1327  1.9136
 5539SOL    HW228254   2.662   4.033   5.215 -1.5402 -1.1948  0.1338
 5540SOL     OW28255   0.543   2.685   7.953 -1.0061 -0.1752  0.2933
 5540SOL    HW128256   0.492   2.613   7.916  1.4473 -2.5275  1.4130
 5540SOL    HW228257   0.591   2.708   7.874  0.1350 -0.1489  0.9779
 5541SOL     OW28258   3.377   2.148   6.849 -0.5207 -0.2081  0.2773
 5541SOL    HW128259   3.455   2.093   6.852 -1.5825 -1.5823  2.6801
 5541SOL    HW228260   3.324   2.092   6.792 -2.1084 -0.3416  1.8688
 5542SOL     OW28261   4.390   1.537   1.493 -0.0185  0.1065  0.4913
 5542SOL    HW128262   4.329   1.514   1.423  1.0403 -0.8674 -0.1052
 5542SOL    HW228263   4.333   1.569   1.563  0.0186  0.2479  0.4571
 5543SOL     OW28264   1.078   0.461   5.705 -0.1812 -0.6018 -0.5482
 5543SOL    HW128265   1.056   0.391   5.643  0.2735  0.6860 -2.1309
 5543SOL    HW228266   1.088   0.417   5.790 -1.0292 -1.6153 -0.9543
 5544SOL     OW28267   3.029   4.620  15.153 -0.7858  0.4100 -0.0520
 5544SOL    HW128268   2.992   4.605  15.240 -0.2296 -1.4883 -0.1278
 5544SOL    HW228269   3.085   4.695  15.170  1.4349 -0.9482 -1.3719
 5545SOL     OW28270   1.734   0.803   4.468 -0.6312  0.2451 -0.0123
 5545SOL    HW128271   1.779   0.722   4.444 -2.2338 -0.2463 -1.3520
 5545SOL    HW228272   1.653   0.781   4.423 -0.5619  1.4591 -0.7415
 5546SOL     OW28273   2.379   0.374   7.732  0.1964 -0.1024 -0.3597
 5546SOL    HW128274   2.358   0.327   7.812  0.3028  1.9888  0.9005
 5546SOL    HW228275   2.456   0.416   7.770 -0.4083  1.5008 -0.8867
 5547SOL     OW28276   2.747   0.939  10.417  0.6758 -0.2588 -0.4518
 5547SOL    HW128277   2.670   0.985  10.383 -0.0656  1.1681  3.1455
 5547SOL    HW228278   2.789   1.019  10.448  0.5507 -1.4803  2.8375
 5548SOL     OW28279   4.407   1.004   4.196 -0.1590 -0.0868  0.2897
 5548SOL    HW128280   4.385   1.013   4.103 -2.2478 -1.1346  0.6853
 5548SOL    HW228281   4.316   0.994   4.225  0.2003  0.0517  1.4483
 5549SOL     OW28282   4.418   4.624   6.178 -0.3706  0.0485  0.0958
 5549SOL    HW128283   4.326   4.650   6.176  0.2191  1.9491 -2.5755
 5549SOL    HW228284   4.415   4.541   6.226  2.5412  0.3793  0.8431
 5550SOL     OW28285   3.952   1.077  11.513 -0.0487  0.2652 -0.1982
 5550SOL    HW128286   3.892   1.082  11.587 -1.8625 -0.6639 -1.5854
 5550SOL    HW228287   3.899   1.032  11.447  0.0223 -0.5076  0.2689
 5551SOL     OW28288   0.424   0.906   9.055  0.1471  0.0900 -0.9116
 5551SOL    HW128289   0.392   0.981   9.104  2.8063  1.9475 -1.9840
 5551SOL    HW228290   0.395   0.936   8.969  1.3981  1.0555 -0.9910
 5552SOL     OW28291   3.630   3.477   0.159  0.2110 -0.5371 -0.3999
 5552SOL    HW128292   3.640   3.431   0.243 -1.3810 -2.0755 -1.0795
 5552SOL    HW228293   3.699   3.539   0.183 -0.3696  0.8102 -2.3026
 5553SOL     OW28294   0.251   2.762   9.791 -0.5347 -0.0837  0.1430
 5553SOL    HW128295   0.261   2.745   9.697  1.5709  4.2761 -0.4189
 5553SOL    HW228296   0.179   2.702   9.813  0.3587 -1.9120 -1.9665
 5554SOL     OW28297   2.343   1.536   8.420 -0.1891  0.1048  0.8013
 5554SOL    HW128298   2.403   1.480   8.468 -4.3810 -3.6582  1.5991
 5554SOL    HW228299   2.381   1.623   8.433  0.6545 -0.1355 -0.0075
 5555SOL     OW28300   2.632   1.839  16.082  0.4932 -0.0292  0.2482
 5555SOL    HW128301   2.629   1.807  15.991 -0.2134  0.7061  0.0153
 5555SOL    HW228302   2.538   1.840  16.095  0.8189 -0.2310  2.5007
 5556SOL     OW28303   2.814   1.688  16.680 -0.2420 -0.4144 -0.3386
 5556SOL    HW128304   2.854   1.766  16.641  0.2779 -1.0323 -1.0462
 5556SOL    HW228305   2.760   1.717  16.753  0.5213 -1.7782  0.7657
 5557SOL     OW28306   2.334   3.602   1.735  0.0338 -0.0906 -0.4683
 5557SOL    HW128307   2.311   3.518   1.774 -0.5360  0.7689  1.0587
 5557SOL    HW228308   2.321   3.663   1.808 -1.2057  0.5785 -1.2539
 5558SOL     OW28309   3.799   2.753   5.853 -0.0913  0.0806 -0.0088
 5558SOL    HW128310   3.880   2.734   5.805 -0.6892 -0.5971 -0.7601
 5558SOL    HW228311   3.819   2.698   5.928  3.8778  1.3673 -0.1441
 5559SOL     OW28312   1.213   3.759   5.557  0.0247  0.1426 -0.2300
 5559SOL    HW128313   1.214   3.673   5.515  0.6916  0.0960 -0.1152
 5559SOL    HW228314   1.230   3.736   5.649  1.1294  1.3008 -0.1513
 5560SOL     OW28315   0.364   1.877   9.427  0.2496 -0.3845 -0.3643
 5560SOL    HW128316   0.404   1.950   9.474  0.5899 -1.6915  1.4046
 5560SOL    HW228317   0.432   1.810   9.434  1.8835  1.3634  0.4277
 5561SOL     OW28318   0.871   0.678   2.616  0.6249  0.0368 -0.6037
 5561SOL    HW128319   0.836   0.703   2.530  0.1215 -1.2706 -0.7770
 5561SOL    HW228320   0.827   0.747   2.665  1.9426 -0.2146  0.9487
 5562SOL     OW28321   4.305   0.214   4.807  0.1874  0.0230 -0.1369
 5562SOL    HW128322   4.332   0.125   4.830  2.2414  0.6339 -0.2342
 5562SOL    HW228323   4.290   0.204   4.713  0.5004 -0.1991 -0.1596
 5563SOL     OW28324   4.594   4.040   7.263  0.4566  0.1440  0.0074
 5563SOL    HW128325   4.529   3.977   7.295  0.4880  1.5004  2.7313
 5563SOL    HW228326   4.624   4.076   7.347  0.6301 -2.4974  1.0919
 5564SOL     OW28327   1.831   3.533   5.635 -0.1652 -0.0668 -0.3637
 5564SOL    HW128328   1.763   3.467   5.645  1.5323 -1.3976  2.3390
 5564SOL    HW228329   1.906   3.506   5.688  0.4896  2.3933 -0.0386
 5565SOL     OW28330   0.826   4.222   6.142 -0.1077  0.6571 -0.0356
 5565SOL    HW128331   0.734   4.206   6.121  0.3161 -1.9588  0.0406
 5565SOL    HW228332   0.841   4.138   6.185 -0.7087 -0.4971 -2.0657
 5566SOL     OW28333   4.110   1.683   2.659  0.4474 -0.0738  0.2261
 5566SOL    HW128334   4.148   1.764   2.692 -0.8718  0.3666  0.6637
 5566SOL    HW228335   4.034   1.663   2.713  1.2344 -2.0798  0.5743
 5567SOL     OW28336   3.690   0.122   2.546  0.1276 -0.6872 -0.1058
 5567SOL    HW128337   3.771   0.071   2.544 -0.4388 -1.6934  2.0542
 5567SOL    HW228338   3.710   0.200   2.496  1.5321  0.0893  1.6903
 5568SOL     OW28339   2.330   1.029   4.776 -0.5252  0.1300 -0.5987
 5568SOL    HW128340   2.287   1.063   4.698  2.8056  0.6911 -2.2151
 5568SOL    HW228341   2.397   1.094   4.795 -0.2745 -0.0566 -0.8370
 5569SOL     OW28342   4.192   2.169   1.970  0.1896 -0.6922  0.3189
 5569SOL    HW128343   4.106   2.210   1.973  0.8922  0.7463  0.7526
 5569SOL    HW228344   4.242   2.236   1.924  0.6155 -0.0286  1.7569
 5570SOL     OW28345   2.103   3.180   9.427  0.7180  0.0256 -0.3630
 5570SOL    HW128346   2.136   3.225   9.506  0.2706 -2.3079  1.1489
 5570SOL    HW228347   2.187   3.169   9.384  0.1744  2.5022 -2.0879
 5571SOL     OW28348   4.111   0.321   4.961 -0.0673  0.0124 -0.1067
 5571SOL    HW128349   4.185   0.376   4.987  0.1366 -0.0170 -0.6295
 5571SOL    HW228350   4.158   0.262   4.903  0.2541  1.0058 -0.8617
 5572SOL     OW28351   2.713   4.596   1.578 -0.1975 -0.6244  0.1084
 5572SOL    HW128352   2.755   4.621   1.660 -1.6728 -0.9200  0.9416
 5572SOL    HW228353   2.656   4.527   1.609 -3.4235  1.6262 -0.8337
 5573SOL     OW28354   1.721   0.356   3.779  0.1497 -0.1159  0.0173
 5573SOL    HW128355   1.703   0.369   3.686 -0.6412 -2.2785 -0.1259
 5573SOL    HW228356   1.645   0.302   3.804  1.2922 -1.5862  0.2797
 5574SOL     OW28357   0.660   3.289   5.896 -0.2060 -0.4796 -0.0299
 5574SOL    HW128358   0.597   3.222   5.870 -0.7947  0.4345 -0.9651
 5574SOL    HW228359   0.610   3.370   5.884 -0.3398 -0.4375  0.7967
 5575SOL     OW28360   1.989   3.468   6.630 -0.2398  0.0470  0.4342
 5575SOL    HW128361   1.893   3.470   6.634 -0.2243 -0.0963  0.8641
 5575SOL    HW228362   1.998   3.563   6.636 -1.4582  0.1284  0.8857
 5576SOL     OW28363   1.714   2.092  11.681 -0.1705  0.5269  0.5250
 5576SOL    HW128364   1.677   2.038  11.612 -2.0125  0.3992  1.6104
 5576SOL    HW228365   1.760   2.032  11.740 -0.3026 -1.9526 -1.8867
 5577SOL     OW28366   2.886   2.049   3.983  0.0214  0.5062 -0.3173
 5577SOL    HW128367   2.975   2.015   3.984 -0.1731 -0.0450 -1.3137
 5577SOL    HW228368   2.855   2.011   3.901  0.8100 -1.2330  0.2052
 5578SOL     OW28369   4.488   1.862   4.194  0.0404 -0.3207  0.4415
 5578SOL    HW128370   4.398   1.837   4.212 -0.8671  0.5188 -2.9707
 5578SOL    HW228371   4.544   1.784   4.199  0.2038 -0.3896 -2.8745
 5579SOL     OW28372   3.377   1.180   4.376  0.9775  0.1561 -0.3465
 5579SOL    HW128373   3.359   1.086   4.368  2.2516  0.0233 -1.8194
 5579SOL    HW228374   3.350   1.186   4.468  2.4500 -1.4652  0.1960
 5580SOL     OW28375   2.771   2.933   4.951  0.1201 -0.1049  0.2478
 5580SOL    HW128376   2.739   2.917   4.862 -0.5623  0.8866  0.3244
 5580SOL    HW228377   2.861   2.961   4.934  0.1895  0.7653  2.0860
 5581SOL     OW28378   0.624   2.110   4.754 -0.3619 -0.4461 -0.4399
 5581SOL    HW128379   0.666   2.061   4.683 -1.4640 -0.4801 -1.0616
 5581SOL    HW228380   0.553   2.052   4.780 -1.4828  0.0665 -2.3354
 5582SOL     OW28381   2.176   2.504  11.108  0.3835  0.4319 -0.1988
 5582SOL    HW128382   2.122   2.556  11.048 -2.8841  0.3450  2.6917
 5582SOL    HW228383   2.152   2.541  11.193 -0.1117 -0.6357  0.1129
 5583SOL     OW28384   3.778   0.860   2.732 -0.1592  0.0370  0.1472
 5583SOL    HW128385   3.803   0.798   2.664 -0.0140  0.0897  0.1534
 5583SOL    HW228386   3.807   0.815   2.811 -3.6262  1.6798  2.3995
 5584SOL     OW28387   4.540   4.025   3.200 -0.1145  0.2869  0.0889
 5584SOL    HW128388   4.558   3.932   3.186 -2.5841 -0.0706 -0.7851
 5584SOL    HW228389   4.620   4.067   3.169  0.2609  0.3857  1.1880
 5585SOL     OW28390   2.548   3.443   1.939 -0.5403  0.3646  0.3386
 5585SOL    HW128391   2.563   3.384   2.013  1.3730  0.4446  0.0122
 5585SOL    HW228392   2.561   3.371   1.877  3.7321  1.4980 -0.0934
 5586SOL     OW28393   4.264   2.874   4.088  0.5410 -0.0832  0.3974
 5586SOL    HW128394   4.288   2.926   4.165  1.1813 -0.0253  0.1593
 5586SOL    HW228395   4.264   2.784   4.121  1.3061 -0.2039  0.0816
 5587SOL     OW28396   2.768   3.526   9.059 -0.0422  0.0647  0.2642
 5587SOL    HW128397   2.857   3.531   9.093  0.9114 -3.0656 -1.7409
 5587SOL    HW228398   2.710   3.579   9.112  1.7046 -0.8597  3.1051
 5588SOL     OW28399   0.224   1.573  12.965 -0.4097 -0.0572  0.5561
 5588SOL    HW128400   0.211   1.594  13.058  0.6646 -3.0324  1.3819
 5588SOL    HW228401   0.143   1.598  12.921 -0.2646 -1.3912 -0.4589
 5589SOL     OW28402   3.935   3.865   2.716  0.1219 -0.5862  0.4560
 5589SOL    HW128403   3.971   3.777   2.707  0.7159 -0.2418 -0.5608
 5589SOL    HW228404   3.989   3.901   2.786  1.2965  1.2337 -1.3806
 5590SOL     OW28405   0.576   4.307   5.676 -0.1505 -0.8905 -0.0047
 5590SOL    HW128406   0.613   4.378   5.729 -0.4280 -1.6922  1.2634
 5590SOL    HW228407   0.654   4.279   5.628  0.6972 -1.4567  1.7175
 5591SOL     OW28408   1.566   2.960   3.656 -0.0579 -0.1161  0.8813
 5591SOL    HW128409   1.573   2.865   3.660  2.1765  0.2080  4.4125
 5591SOL    HW228410   1.625   2.975   3.730 -0.9888  0.1987  1.5704
 5592SOL     OW28411   3.023   1.531   4.856 -0.0371  0.0479  0.0835
 5592SOL    HW128412   3.085   1.602   4.838  2.7919 -1.5868  3.3339
 5592SOL    HW228413   3.030   1.534   4.951 -0.4834  0.6439  0.0968
 5593SOL     OW28414   3.457   3.975  11.317 -0.2231  0.3641 -0.4145
 5593SOL    HW128415   3.372   4.000  11.281 -0.6285 -1.1298 -0.4942
 5593SOL    HW228416   3.512   4.001  11.243 -0.4452  1.8074 -0.0753
 5594SOL     OW28417   3.213   2.558   6.413 -0.5829 -0.1938 -0.5229
 5594SOL    HW128418   3.149   2.616   6.454  1.7543  0.6246  1.9466
 5594SOL    HW228419   3.163   2.476   6.413  0.4936 -0.8623  2.6897
 5595SOL     OW28420   1.908   3.710   9.362 -0.2513  0.2263  0.6334
 5595SOL    HW128421   1.971   3.671   9.302 -0.5918 -1.1711  1.1951
 5595SOL    HW228422   1.904   3.797   9.322  0.1697 -0.1005 -0.1161
 5596SOL     OW28423   1.016   3.273   3.222 -0.3181  0.1774 -0.4385
 5596SOL    HW128424   1.071   3.348   3.244  1.6517 -1.6262  0.7820
 5596SOL    HW228425   1.033   3.257   3.129  0.6643  0.3717 -0.2946
 5597SOL     OW28426   3.989   2.807   4.257  0.3065  0.1437  0.3106
 5597SOL    HW128427   3.939   2.889   4.258 -0.2875 -0.2081 -1.8549
 5597SOL    HW228428   3.993   2.797   4.162 -0.6332  2.0780  0.0671
 5598SOL     OW28429   2.912   4.256   1.510 -0.6584 -0.0699  0.1781
 5598SOL    HW128430   2.981   4.207   1.555  0.0380 -0.2039 -1.0331
 5598SOL    HW228431   2.861   4.187   1.467  0.7321  0.2897 -1.9893
 5599SOL     OW28432   0.363   0.324   2.928  0.1139  0.0280  0.0224
 5599SOL    HW128433   0.337   0.274   2.851  0.8539 -1.0186  0.4528
 5599SOL    HW228434   0.454   0.297   2.941 -0.2674 -0.4397  1.7052
 5600SOL     OW28435   3.273   1.742   1.895  0.4797 -0.0208  0.1229
 5600SOL    HW128436   3.208   1.682   1.932 -1.7034  1.5939 -1.0694
 5600SOL    HW228437   3.336   1.685   1.851  0.3951 -0.6635  0.8400
 5601SOL     OW28438   2.610   4.225  10.698  0.1570  0.0402 -1.0874
 5601SOL    HW128439   2.667   4.300  10.686  0.1678  0.1434 -0.4047
 5601SOL    HW228440   2.665   4.154  10.731 -1.8819 -1.5653 -1.1395
 5602SOL     OW28441   3.237   0.698  14.399 -0.9996  0.3990 -0.4117
 5602SOL    HW128442   3.243   0.623  14.458 -1.7358  0.0083 -0.8345
 5602SOL    HW228443   3.330   0.721  14.393 -1.2356  1.3031 -0.6762
 5603SOL     OW28444   4.141   0.887  11.177  0.1587  0.4854 -0.3971
 5603SOL    HW128445   4.158   0.911  11.268 -0.9192  1.6432 -0.5045
 5603SOL    HW228446   4.107   0.969  11.142  1.6023  1.2464 -0.0231
 5604SOL     OW28447   3.412   1.192   7.241 -0.8309  0.1609  0.6496
 5604SOL    HW128448   3.333   1.139   7.228  0.8640 -2.2237  0.0996
 5604SOL    HW228449   3.463   1.161   7.315 -0.0625 -2.0210 -0.7833
 5605SOL     OW28450   1.248   4.487  14.342  0.2875  0.1368 -0.0519
 5605SOL    HW128451   1.260   4.518  14.432 -1.0607  1.1446 -0.2311
 5605SOL    HW228452   1.153   4.473  14.341  0.5239 -1.5794  0.4638
 5606SOL     OW28453   4.490   2.637   3.781  0.3237 -1.1171  0.3592
 5606SOL    HW128454   4.413   2.619   3.836  0.9217 -3.4342  0.4401
 5606SOL    HW228455   4.455   2.604   3.698 -0.7472  0.0955  0.3237
 5607SOL     OW28456   3.515   1.429   2.805 -0.1569 -0.3903  0.1570
 5607SOL    HW128457   3.544   1.362   2.743 -0.0004  0.0378 -0.2317
 5607SOL    HW228458   3.601   1.431   2.848  0.0218  0.8028 -0.2438
 5608SOL     OW28459   4.515   0.878   8.567  0.2175  0.0499 -0.1717
 5608SOL    HW128460   4.560   0.960   8.545  0.1045  0.2720  0.4079
 5608SOL    HW228461   4.554   0.820   8.502 -1.0651 -0.0732 -0.8484
 5609SOL     OW28462   0.752   3.088   9.214 -0.6341 -0.3652  0.0130
 5609SOL    HW128463   0.813   3.161   9.204 -0.5470 -0.6512 -1.6023
 5609SOL    HW228464   0.668   3.133   9.216 -0.6281 -0.4152  1.2822
 5610SOL     OW28465   2.491   3.378   5.640  0.6125  0.6072 -0.0348
 5610SOL    HW128466   2.443   3.377   5.723  0.3073  1.1459 -0.2043
 5610SOL    HW228467   2.459   3.464   5.610 -0.1981 -0.3850 -2.0283
 5611SOL     OW28468   4.086   1.445  17.653 -0.1729  0.0191  0.6773
 5611SOL    HW128469   4.055   1.412   0.003 -0.1162 -0.8328  0.3731
 5611SOL    HW228470   4.022   1.514  17.635  2.4560  1.8554 -1.7037
 5612SOL     OW28471   3.764   2.922   4.630 -0.1440 -0.3267 -0.4219
 5612SOL    HW128472   3.748   2.847   4.688  0.3016  0.2456  0.4419
 5612SOL    HW228473   3.692   2.913   4.568  1.5294  1.8689 -2.7067
 5613SOL     OW28474   0.036   3.940  16.738  0.3388 -1.0215 -0.0249
 5613SOL    HW128475   0.056   3.847  16.726 -0.3520 -1.3444  1.2740
 5613SOL    HW228476   4.675   3.929  16.746  0.2044  0.8421  0.9799
 5614SOL     OW28477   1.478   3.411   6.803  0.5029 -0.4895  0.0020
 5614SOL    HW128478   1.492   3.325   6.763 -1.0912 -0.9534  0.4162
 5614SOL    HW228479   1.469   3.390   6.896 -2.3294  2.8287  0.4921
 5615SOL     OW28480   3.243   3.469  10.641  0.0587 -0.0049  0.1857
 5615SOL    HW128481   3.172   3.534  10.641  0.4405  0.4112  0.1623
 5615SOL    HW228482   3.303   3.521  10.589 -0.8599 -0.0230 -0.8996
 5616SOL     OW28483   2.332   0.619   6.287 -0.5617  0.1033 -0.3073
 5616SOL    HW128484   2.266   0.641   6.221 -1.0985  0.1191  0.2279
 5616SOL    HW228485   2.281   0.558   6.341  2.4612 -0.8776  1.4535
 5617SOL     OW28486   4.495   0.905   7.387 -1.5223 -0.5532  0.3239
 5617SOL    HW128487   4.446   0.969   7.438  0.5877  1.7096 -0.4213
 5617SOL    HW228488   4.467   0.828   7.435  1.7667 -2.3147 -0.6090
 5618SOL     OW28489   0.286   2.794   6.477 -0.0620  0.1450 -0.0728
 5618SOL    HW128490   0.329   2.723   6.525 -0.6480  0.1116  0.4061
 5618SOL    HW228491   0.311   2.873   6.525  1.4161 -0.2838 -0.1426
 5619SOL     OW28492   4.276   1.689   5.763 -0.2806 -0.3169  0.1294
 5619SOL    HW128493   4.237   1.617   5.812  0.2901 -0.5715  0.2115
 5619SOL    HW228494   4.240   1.663   5.678  0.5364  0.3490 -0.4220
 5620SOL     OW28495   4.078   0.665  17.170 -0.1314 -0.1259  0.8097
 5620SOL    HW128496   4.032   0.745  17.142  1.0001 -0.4597 -1.9390
 5620SOL    HW228497   4.007   0.602  17.158 -1.1229  0.8578  1.3491
 5621SOL     OW28498   3.771   1.202   1.166 -0.0891 -0.6263  0.6781
 5621SOL    HW128499   3.743   1.120   1.126 -0.2797 -0.9981  1.5723
 5621SOL    HW228500   3.865   1.194   1.147 -0.2882 -0.2761 -0.4625
 5622SOL     OW28501   0.988   0.610   8.462  0.4035  0.0503 -0.2967
 5622SOL    HW128502   1.054   0.562   8.413 -0.5562 -0.0955 -1.4398
 5622SOL    HW228503   0.943   0.536   8.503  1.3781 -2.0712 -3.0605
 5623SOL     OW28504   1.129   3.191   6.843  0.2009 -0.1457 -0.1814
 5623SOL    HW128505   1.073   3.253   6.890  1.8620  0.1903  1.3397
 5623SOL    HW228506   1.165   3.249   6.776 -0.3491  1.8722  1.2933
 5624SOL     OW28507   0.307   2.815   6.005  0.3311 -0.7726 -0.0522
 5624SOL    HW128508   0.307   2.759   5.927  0.0115  1.5331 -1.7170
 5624SOL    HW228509   0.254   2.885   5.968  2.5512  1.3002  0.6873
 5625SOL     OW28510   4.673   1.556   7.910  0.0484 -0.2881 -0.1118
 5625SOL    HW128511   4.582   1.539   7.935 -0.4626  3.8550  0.8203
 5625SOL    HW228512   4.667   1.652   7.905 -2.5814 -0.3304  2.2439
 5626SOL     OW28513   1.278   2.322   3.748 -0.1818 -0.3749 -0.4908
 5626SOL    HW128514   1.332   2.395   3.719  2.6612 -2.2850  0.0290
 5626SOL    HW228515   1.291   2.259   3.677 -0.3090 -1.2074  0.2293
 5627SOL     OW28516   3.672   2.445  17.287  0.3221  0.0464  0.0558
 5627SOL    HW128517   3.622   2.527  17.292 -0.6179 -0.4484 -1.2711
 5627SOL    HW228518   3.615   2.397  17.226 -1.5686  2.0258  0.2284
 5628SOL     OW28519   3.132   3.748   4.182 -0.0574  0.2626 -0.3011
 5628SOL    HW128520   3.121   3.654   4.172 -1.7872  0.5729 -1.2595
 5628SOL    HW228521   3.101   3.782   4.098 -0.9159 -1.0281 -0.5092
 5629SOL     OW28522   4.056   2.724   7.178  0.1639  0.0105  0.1737
 5629SOL    HW128523   4.055   2.819   7.169  4.7641  0.0718  0.4145
 5629SOL    HW228524   3.962   2.713   7.162  0.3399 -1.5016  0.1471
 5630SOL     OW28525   3.493   2.846   6.281 -0.4992  0.3364  0.4762
 5630SOL    HW128526   3.579   2.857   6.241 -0.2449 -4.7185 -0.4503
 5630SOL    HW228527   3.493   2.757   6.317  2.5729 -0.8880 -2.4639
 5631SOL     OW28528   4.297   4.617   4.608 -0.5326 -0.1467 -0.4428
 5631SOL    HW128529   4.211   4.652   4.582 -0.3919 -0.0503 -0.7822
 5631SOL    HW228530   4.304   4.526   4.580  1.8369 -0.2315  0.4930
 5632SOL     OW28531   2.016   2.205   4.236 -0.4448 -0.2151 -0.1954
 5632SOL    HW128532   2.075   2.143   4.279 -0.7168 -0.4304 -0.1355
 5632SOL    HW228533   1.938   2.174   4.282 -1.1552 -0.7981 -1.8067
 5633SOL     OW28534   3.949   3.448   5.940 -0.1495 -0.0026 -0.3535
 5633SOL    HW128535   3.869   3.466   5.990 -1.1303  1.2145 -2.3210
 5633SOL    HW228536   3.923   3.475   5.852 -0.7826  2.5783  0.6110
 5634SOL     OW28537   0.291   2.247   4.479 -0.6360 -0.1373  0.5153
 5634SOL    HW128538   0.276   2.305   4.404  0.6457 -0.6274 -0.1189
 5634SOL    HW228539   0.201   2.216   4.483 -1.0807  1.4069  2.5278
 5635SOL     OW28540   2.700   3.364   2.504  0.3788  0.0198  0.1684
 5635SOL    HW128541   2.783   3.338   2.464  0.0771 -0.2418 -0.2911
 5635SOL    HW228542   2.668   3.274   2.492 -0.8347  0.7778 -2.3706
 5636SOL     OW28543   0.945   1.724   0.426  0.0239 -0.3076  0.4140
 5636SOL    HW128544   0.902   1.788   0.370 -2.3122  0.2713  2.8992
 5636SOL    HW228545   0.915   1.646   0.380 -2.1784 -0.7397  2.6201
 5637SOL     OW28546   0.421   1.913  13.716 -0.1613  0.0027  1.0875
 5637SOL    HW128547   0.452   1.927  13.626  0.8987  0.2389  1.4914
 5637SOL    HW228548   0.358   1.984  13.729  1.8550  1.7060  1.5362
 5638SOL     OW28549   0.434   1.690   6.551 -0.6078 -0.0731  0.1118
 5638SOL    HW128550   0.479   1.734   6.480 -0.1915 -1.4270 -0.4588
 5638SOL    HW228551   0.504   1.643   6.596  0.1043  0.7989 -0.0909
 5639SOL     OW28552   2.298   0.778   4.205  0.4814  0.6286  0.2381
 5639SOL    HW128553   2.214   0.782   4.160 -0.1749  0.8228  1.4660
 5639SOL    HW228554   2.342   0.850   4.160  1.6553  0.6909  1.4764
 5640SOL     OW28555   1.653   1.323  12.229 -0.9256 -0.1320  0.1647
 5640SOL    HW128556   1.702   1.271  12.293  0.6426  0.8885 -0.1911
 5640SOL    HW228557   1.638   1.274  12.148 -0.1011 -0.7533  0.3773
 5641SOL     OW28558   1.100   3.570   3.150  0.4386  0.1417  0.4875
 5641SOL    HW128559   1.142   3.618   3.078  2.2636  0.8596  2.0029
 5641SOL    HW228560   1.024   3.529   3.110  2.3063 -2.6191 -0.2009
 5642SOL     OW28561   2.717   4.316   8.845  0.6995  0.0289  0.0058
 5642SOL    HW128562   2.805   4.288   8.819 -0.5379 -2.7699 -1.1439
 5642SOL    HW228563   2.668   4.236   8.826  0.7379  0.3864 -1.6229
 5643SOL     OW28564   2.830   2.804   8.324  0.3381  0.3527  0.0333
 5643SOL    HW128565   2.756   2.804   8.263  1.3918 -0.2800 -1.2451
 5643SOL    HW228566   2.849   2.897   8.339 -0.9088  0.6246 -0.0286
 5644SOL     OW28567   2.041   0.223   5.557 -0.3452  0.2978 -0.3515
 5644SOL    HW128568   1.962   0.192   5.602 -0.7326  2.4227  0.4156
 5644SOL    HW228569   2.109   0.164   5.591  0.4007  0.8964 -0.8120
 5645SOL     OW28570   3.717   2.636   4.688  0.0142  0.3025  0.1663
 5645SOL    HW128571   3.714   2.555   4.737 -0.3834  0.4253  0.3384
 5645SOL    HW228572   3.752   2.601   4.606 -2.1746 -1.3728 -0.0372
 5646SOL     OW28573   0.837   0.388   8.522 -0.1890  0.3786 -0.0320
 5646SOL    HW128574   0.791   0.319   8.570  1.2383 -0.4177  0.1956
 5646SOL    HW228575   0.836   0.352   8.434  1.1325  0.3912 -0.0534
 5647SOL     OW28576   2.986   0.132  12.425  0.1464  0.3121 -0.1699
 5647SOL    HW128577   3.053   0.095  12.366 -0.0459  0.9846 -0.8100
 5647SOL    HW228578   3.029   0.212  12.454 -0.8923  0.7333  0.2071
 5648SOL     OW28579   2.065   2.919  13.101  0.6322 -0.1218  0.5235
 5648SOL    HW128580   2.010   2.879  13.168  0.8968 -0.4195  0.5629
 5648SOL    HW228581   2.127   2.850  13.080  2.1284  1.3089  0.2060
 5649SOL     OW28582   0.042   0.570  14.634 -0.0174 -0.3112  0.0137
 5649SOL    HW128583   0.006   0.516  14.564 -1.7452 -0.8859  1.3269
 5649SOL    HW228584   0.090   0.635  14.583  0.9588 -1.1703 -0.1541
 5650SOL     OW28585   4.712   0.068   3.373  0.5951 -0.8124 -0.3570
 5650SOL    HW128586   4.721   0.091   3.466 -0.0993  0.1838 -0.5297
 5650SOL    HW228587   4.617   0.058   3.368  0.4023  0.3500  0.8025
 5651SOL     OW28588   2.218   1.169   4.532 -0.1116  0.0725 -0.0216
 5651SOL    HW128589   2.253   1.088   4.496  2.1457  0.9869  0.1248
 5651SOL    HW228590   2.174   1.199   4.452 -2.2847 -1.6749  0.5158
 5652SOL     OW28591   2.380   1.160  12.363 -1.0405 -0.6117 -0.2464
 5652SOL    HW128592   2.428   1.177  12.444 -0.2133 -1.4990 -0.5505
 5652SOL    HW228593   2.354   1.249  12.340 -0.9740 -0.9012 -1.4633
 5653SOL     OW28594   1.852   3.363   6.363 -0.6251 -0.1785  0.0967
 5653SOL    HW128595   1.927   3.321   6.405 -1.5063 -1.1089  0.7317
 5653SOL    HW228596   1.804   3.393   6.440 -1.1641  0.8389 -0.6454
 5654SOL     OW28597   0.223   2.188   9.885 -0.5806 -0.3388 -0.1255
 5654SOL    HW128598   0.309   2.215   9.915 -1.3199  0.1871  1.5329
 5654SOL    HW228599   0.180   2.180   9.970  0.0836  0.4384  0.2780
 5655SOL     OW28600   1.395   0.807   5.290  0.6359 -0.1546 -0.4199
 5655SOL    HW128601   1.416   0.724   5.332 -1.4650  0.7193  2.3115
 5655SOL    HW228602   1.305   0.783   5.269 -0.1960  1.9857  0.7580
 5656SOL     OW28603   3.874   3.369  14.829  0.1656  0.4631  0.4691
 5656SOL    HW128604   3.858   3.285  14.872 -0.2793  0.2619 -0.0863
 5656SOL    HW228605   3.905   3.342  14.743  0.3762  2.4798 -0.0899
 5657SOL     OW28606   0.243   4.308  16.568 -0.0029 -0.2908  0.2147
 5657SOL    HW128607   0.277   4.397  16.583 -0.5992 -0.0374  0.0804
 5657SOL    HW228608   0.324   4.262  16.592  1.0404  0.0995 -2.5300
 5658SOL     OW28609   4.658   2.016   0.319 -0.0592 -0.1670 -1.0027
 5658SOL    HW128610   4.645   2.105   0.352 -3.6975 -0.9406 -0.3660
 5658SOL    HW228611   4.622   1.963   0.390 -1.8032  2.8353  0.3618
 5659SOL     OW28612   2.471   3.982   6.446  0.5727 -0.5262 -0.0472
 5659SOL    HW128613   2.439   3.985   6.537 -0.5745 -1.0333 -0.4378
 5659SOL    HW228614   2.393   3.956   6.398  0.8483  1.1888 -1.4115
 5660SOL     OW28615   3.253   1.618  13.640  0.1570  1.0473 -0.0222
 5660SOL    HW128616   3.169   1.573  13.647  0.9035 -0.5057 -1.0789
 5660SOL    HW228617   3.309   1.564  13.696  1.1215  0.2780 -1.7321
 5661SOL     OW28618   0.894   1.156   0.487  0.6981 -0.2995 -0.1171
 5661SOL    HW128619   0.813   1.106   0.487 -0.3890  1.4807  1.3689
 5661SOL    HW228620   0.888   1.207   0.567  0.0315 -1.1044  0.3343
 5662SOL     OW28621   0.668   4.374   8.632 -0.5245 -0.2595 -0.6168
 5662SOL    HW128622   0.755   4.334   8.639 -1.5544 -1.9535  2.4621
 5662SOL    HW228623   0.694   4.461   8.602  0.8324 -0.4402 -0.0056
 5663SOL     OW28624   4.380   2.237   8.522  0.4108  0.3451 -0.1903
 5663SOL    HW128625   4.395   2.263   8.613 -1.9413  1.8742 -0.2440
 5663SOL    HW228626   4.360   2.323   8.484 -0.0653  0.0303 -0.6561
 5664SOL     OW28627   2.095   3.253   6.488 -0.2108  0.0024  0.1502
 5664SOL    HW128628   2.073   3.333   6.537  1.4664  0.8314 -0.4580
 5664SOL    HW228629   2.059   3.184   6.543 -1.7680  0.8552  0.2050
 5665SOL     OW28630   2.389   1.044   2.272 -0.0033  0.5832 -0.1013
 5665SOL    HW128631   2.413   0.951   2.278  0.0421  0.5607 -0.6109
 5665SOL    HW228632   2.303   1.039   2.314  0.4936  0.1764  0.8816
 5666SOL     OW28633   0.066   3.672  16.720  0.4417 -0.1260 -0.1799
 5666SOL    HW128634   0.149   3.669  16.673  0.3863 -2.7973 -0.1379
 5666SOL    HW228635   0.018   3.597  16.686  0.5004  0.3873 -1.3810
 5667SOL     OW28636   1.573   2.344   5.679 -0.2306 -0.1397 -0.6690
 5667SOL    HW128637   1.542   2.331   5.590  3.1407 -2.0733 -1.5746
 5667SOL    HW228638   1.661   2.310   5.661 -0.3611  0.1358 -1.8017
 5668SOL     OW28639   1.979   3.193  10.979  0.4745 -0.5438  0.1132
 5668SOL    HW128640   2.036   3.214  10.905  1.3922  0.0203  0.9741
 5668SOL    HW228641   1.927   3.273  10.982  0.4721 -0.5464  0.1425
 5669SOL     OW28642   2.003   1.576  12.760  0.0322 -0.0646 -0.0419
 5669SOL    HW128643   2.012   1.645  12.694 -4.1741  0.5163 -0.0356
 5669SOL    HW228644   2.096   1.563  12.777  0.6100  0.8468 -2.5347
 5670SOL     OW28645   4.365   0.745   0.347 -0.0201  0.2333  0.2147
 5670SOL    HW128646   4.415   0.704   0.277 -1.0597 -1.7206  0.5996
 5670SOL    HW228647   4.278   0.736   0.310  0.1719  0.8610 -0.3868
 5671SOL     OW28648   1.725   3.852   2.315 -0.2940 -0.3239 -0.2736
 5671SOL    HW128649   1.688   3.764   2.307  1.0284 -1.1401  2.6240
 5671SOL    HW228650   1.658   3.885   2.374 -0.2433 -0.4106 -0.1674
 5672SOL     OW28651   3.358   2.943  13.213 -0.1761 -0.2276 -0.6074
 5672SOL    HW128652   3.342   2.849  13.223  2.2103 -0.6790 -0.8846
 5672SOL    HW228653   3.274   2.979  13.241 -0.4002  0.0293 -1.6084
 5673SOL     OW28654   0.041   2.576  15.930  0.0641  0.4344 -0.3447
 5673SOL    HW128655   0.004   2.630  15.860 -1.3752 -1.3025 -0.9137
 5673SOL    HW228656   0.040   2.489  15.889  1.7450  0.5247 -0.5824
 5674SOL     OW28657   2.400   3.214  16.387  0.2021 -0.1696  0.2486
 5674SOL    HW128658   2.314   3.245  16.414 -0.0476 -1.0128  0.4042
 5674SOL    HW228659   2.442   3.300  16.395  1.3562 -0.7350  0.1646
 5675SOL     OW28660   3.118   2.273   1.871  0.0002 -0.2978 -0.2675
 5675SOL    HW128661   3.197   2.299   1.918 -1.3362  0.4331  1.5595
 5675SOL    HW228662   3.063   2.217   1.926 -0.4688  0.1655 -0.2637
 5676SOL     OW28663   0.757   2.017   4.246 -0.4123 -0.5435  0.0476
 5676SOL    HW128664   0.732   1.927   4.266 -1.7896  0.2489  1.9108
 5676SOL    HW228665   0.670   2.057   4.240  0.0055  0.3715  0.0147
 5677SOL     OW28666   2.179   3.826   6.663  0.1392 -0.1177 -0.1682
 5677SOL    HW128667   2.222   3.911   6.665  2.0156 -1.0322 -2.1090
 5677SOL    HW228668   2.242   3.771   6.617 -0.5278  0.0490 -1.2868
 5678SOL     OW28669   2.022   3.843   3.876  0.0974  0.3050  0.0982
 5678SOL    HW128670   2.061   3.858   3.963 -2.0413  1.2060  0.9027
 5678SOL    HW228671   2.074   3.901   3.821 -2.6243 -0.0055 -2.7671
 5679SOL     OW28672   2.990   2.707   5.043  0.3376  0.2403 -0.6228
 5679SOL    HW128673   2.941   2.629   5.015  0.4781 -0.2249  0.4265
 5679SOL    HW228674   3.034   2.676   5.122 -0.5039  0.0791 -0.2158
 5680SOL     OW28675   2.344   1.302   5.113  0.9708 -0.0558 -0.4186
 5680SOL    HW128676   2.316   1.368   5.050  0.1975 -0.2859 -0.3134
 5680SOL    HW228677   2.354   1.224   5.058 -0.8380 -1.0507  0.6536
 5681SOL     OW28678   3.145   4.184   6.690 -0.2184 -0.4973  0.3065
 5681SOL    HW128679   3.128   4.127   6.615 -1.0670  2.6184 -1.8420
 5681SOL    HW228680   3.240   4.176   6.701  0.1190  1.2685 -1.4498
 5682SOL     OW28681   4.384   0.198  13.878  0.1035  0.0995 -0.6668
 5682SOL    HW128682   4.313   0.149  13.835  1.3700 -1.7192 -0.6530
 5682SOL    HW228683   4.413   0.133  13.942  0.6692  0.3497 -0.6715
 5683SOL     OW28684   4.293   0.702   2.212  0.1320 -0.0329  0.4534
 5683SOL    HW128685   4.298   0.763   2.286  1.2365 -0.9955  1.1892
 5683SOL    HW228686   4.385   0.680   2.196  0.5174  1.3423  0.8066
 5684SOL     OW28687   4.316   0.702   1.520 -0.0675  0.2014  0.2052
 5684SOL    HW128688   4.316   0.631   1.457 -0.9258 -0.5986  1.1118
 5684SOL    HW228689   4.223   0.718   1.536 -0.5995 -0.0745 -2.5987
 5685SOL     OW28690   3.510   2.080   6.611 -0.0555 -0.5722 -0.2521
 5685SOL    HW128691   3.508   2.023   6.688 -2.6988 -0.7355 -0.4325
 5685SOL    HW228692   3.598   2.062   6.577 -0.4917 -0.1003 -1.6206
 5686SOL     OW28693   0.769   1.501   4.804  0.6128 -0.2120  0.0855
 5686SOL    HW128694   0.865   1.498   4.804  0.6646  1.7687 -0.2344
 5686SOL    HW228695   0.753   1.412   4.838 -0.3632  0.5130  1.5233
 5687SOL     OW28696   2.916   0.425   1.399  0.3136  0.8589 -0.2099
 5687SOL    HW128697   2.915   0.517   1.374 -0.1200  1.3651  1.6864
 5687SOL    HW228698   2.991   0.412   1.457  0.6591  1.5265 -0.5053
 5688SOL     OW28699   4.361   1.330   4.147 -0.3259  0.1789 -0.1079
 5688SOL    HW128700   4.448   1.313   4.182 -1.3146 -2.8340  0.8399
 5688SOL    HW228701   4.316   1.389   4.208 -0.8109  2.0690 -2.2581
 5689SOL     OW28702   0.088   3.827   9.688 -0.5700  0.0478  0.8418
 5689SOL    HW128703   0.063   3.764   9.621  0.6146 -0.1862  0.6281
 5689SOL    HW228704   0.137   3.886   9.631 -0.2789 -1.7397 -0.7733
 5690SOL     OW28705   2.077   0.257  11.608 -0.0520  0.6084  0.2528
 5690SOL    HW128706   2.100   0.223  11.521 -2.4615  0.2638 -0.2436
 5690SOL    HW228707   2.097   0.349  11.592  1.4878  0.0936 -0.7687
 5691SOL     OW28708   1.791   3.607   5.922  0.2480  0.3996 -0.0628
 5691SOL    HW128709   1.866   3.555   5.952 -0.0195 -0.9402 -1.6842
 5691SOL    HW228710   1.720   3.544   5.927 -0.1245  0.6181 -2.5920
 5692SOL     OW28711   0.324   1.296  13.007  0.3023  0.2043 -0.2684
 5692SOL    HW128712   0.284   1.377  12.976  0.3250  1.0008  1.7779
 5692SOL    HW228713   0.415   1.316  13.027 -0.1119  3.1498 -1.3253
 5693SOL     OW28714   1.729   4.090   6.212 -0.4569  0.4247  0.1930
 5693SOL    HW128715   1.782   4.025   6.259 -0.0872  1.2286  0.8941
 5693SOL    HW228716   1.752   4.166   6.266  0.6626 -0.4815  1.0185
 5694SOL     OW28717   3.342   2.687  17.670  0.0504  0.6167 -0.2699
 5694SOL    HW128718   3.334   2.671  17.576  0.6184 -1.6156  0.0544
 5694SOL    HW228719   3.413   2.750  17.659 -0.1223  0.5855 -1.4974
 5695SOL     OW28720   1.734   4.399   7.210  0.3107  0.0321 -0.0606
 5695SOL    HW128721   1.763   4.425   7.123 -0.2603 -0.1029 -0.2849
 5695SOL    HW228722   1.751   4.306   7.192 -1.3111 -0.3678  0.4823
 5696SOL     OW28723   1.473   4.644   4.771  0.3419 -0.3612 -0.9633
 5696SOL    HW128724   1.525   4.623   4.693 -0.6971  0.2151 -1.8102
 5696SOL    HW228725   1.388   4.602   4.758 -0.3235  1.2670 -1.9880
 5697SOL     OW28726   0.097   1.014   9.714 -0.0974 -0.8263 -0.1826
 5697SOL    HW128727   0.131   0.993   9.801 -0.8933 -0.3403  0.2451
 5697SOL    HW228728   0.157   0.964   9.659  0.4220  0.3171 -0.6502
 5698SOL     OW28729   3.571   0.109   4.250 -0.0421  0.0875  0.5050
 5698SOL    HW128730   3.489   0.126   4.295 -0.8105  0.7860 -1.1502
 5698SOL    HW228731   3.632   0.158   4.306  0.6843  1.9192 -1.8900
 5699SOL     OW28732   1.152   3.515  12.479  0.0932  0.1733  0.1462
 5699SOL    HW128733   1.165   3.421  12.465  1.8252  0.5417 -0.7740
 5699SOL    HW228734   1.059   3.529  12.466 -0.0363  1.1483  2.0811
 5700SOL     OW28735   4.496   4.438   4.394  0.2222 -0.6439 -0.5416
 5700SOL    HW128736   4.492   4.530   4.369 -1.8572 -0.3677  0.9181
 5700SOL    HW228737   4.526   4.444   4.484 -0.6715 -2.3358 -0.1245
 5701SOL     OW28738   4.432   2.962   8.607  0.2358 -0.5579 -0.3126
 5701SOL    HW128739   4.481   3.023   8.551 -0.9246  1.7090  1.1415
 5701SOL    HW228740   4.346   3.004   8.606  0.7280  0.4667 -0.0253
 5702SOL     OW28741   1.159   2.298   4.496 -0.3047  0.2394 -0.0562
 5702SOL    HW128742   1.105   2.218   4.498 -0.1474  0.1502  0.8690
 5702SOL    HW228743   1.248   2.265   4.491 -0.4961  0.1384 -2.4083
 5703SOL     OW28744   1.337   3.486   3.989  0.0482  0.1632 -0.4535
 5703SOL    HW128745   1.308   3.421   3.925  0.4212  1.4943 -1.9864
 5703SOL    HW228746   1.427   3.456   4.000  1.1403  3.2652 -0.9846
 5704SOL     OW28747   0.974   0.252  12.891 -0.4449 -0.1141  0.5537
 5704SOL    HW128748   0.934   0.337  12.876 -3.9092 -1.7499  0.6993
 5704SOL    HW228749   1.045   0.282  12.948 -1.1137  0.5751  1.0061
 5705SOL     OW28750   3.480   1.053   6.835  1.0182 -0.1370  0.2427
 5705SOL    HW128751   3.483   1.016   6.924 -1.8359  0.0818  0.4115
 5705SOL    HW228752   3.400   1.011   6.804  2.1187 -1.1517 -1.1974
 5706SOL     OW28753   2.825   4.362  10.604 -0.5360  0.3900  0.0636
 5706SOL    HW128754   2.896   4.422  10.630 -1.1598  0.0970  2.4136
 5706SOL    HW228755   2.848   4.345  10.512 -4.3368 -2.3698 -0.3858
 5707SOL     OW28756   2.529   4.474   9.819  0.5166  0.6487 -0.2729
 5707SOL    HW128757   2.479   4.434   9.748 -0.9584 -1.4811  1.9546
 5707SOL    HW228758   2.563   4.558   9.788  1.8595 -0.5276 -1.9656
 5708SOL     OW28759   2.179   0.345   6.423 -0.3512  0.1887 -0.0647
 5708SOL    HW128760   2.257   0.318   6.375  0.0487 -1.3797  1.4678
 5708SOL    HW228761   2.166   0.265   6.474  1.1249  1.5950  2.5176
 5709SOL     OW28762   0.734   1.621  10.481  0.7459 -0.3896 -0.2485
 5709SOL    HW128763   0.654   1.651  10.438 -0.8418 -0.5078  2.5952
 5709SOL    HW228764   0.744   1.533  10.447  0.1868 -0.8069  0.6511
 5710SOL     OW28765   1.616   2.614   2.202  0.5894 -0.2747 -0.1672
 5710SOL    HW128766   1.548   2.546   2.200  1.0446 -0.7199 -0.4017
 5710SOL    HW228767   1.560   2.691   2.218 -2.0951 -2.9134  3.2332
 5711SOL     OW28768   0.028   2.794   0.365  0.1084 -0.4330 -0.5355
 5711SOL    HW128769   0.008   2.815   0.273  0.5410  1.5058 -0.1897
 5711SOL    HW228770   0.050   2.881   0.399  0.7460 -0.4753 -0.8470
 5712SOL     OW28771   2.821   0.915   2.307 -0.0653 -0.3274 -0.1861
 5712SOL    HW128772   2.824   0.925   2.212  2.6762 -0.1974 -0.0633
 5712SOL    HW228773   2.812   1.008   2.330  2.2095  0.1002 -1.0802
 5713SOL     OW28774   0.559   4.566   7.260  0.1767 -0.0255 -0.1588
 5713SOL    HW128775   0.534   4.645   7.308  0.5390  1.0469 -1.7206
 5713SOL    HW228776   0.639   4.542   7.305  2.1279  0.2785 -3.4900
 5714SOL     OW28777   0.301   2.547   5.861  0.1013  0.3927 -0.1827
 5714SOL    HW128778   0.299   2.624   5.804 -2.1283 -1.2528 -2.3512
 5714SOL    HW228779   0.252   2.481   5.812  0.6748  0.0936 -0.3586
 5715SOL     OW28780   1.233   3.259   7.776 -0.2385  0.2337  0.0725
 5715SOL    HW128781   1.205   3.257   7.868 -0.3538  0.4035  0.0426
 5715SOL    HW228782   1.241   3.165   7.761  1.3650  0.4607 -0.4590
 5716SOL     OW28783   1.502   0.592  14.861 -0.2356 -0.3706 -0.0411
 5716SOL    HW128784   1.473   0.672  14.818 -0.5240 -1.0689 -1.1667
 5716SOL    HW228785   1.525   0.540  14.783 -0.5750 -0.5723 -0.0051
 5717SOL     OW28786   2.648   0.368  13.927 -0.0013 -0.6857  0.4947
 5717SOL    HW128787   2.657   0.287  13.876  0.5609 -0.7751  0.7397
 5717SOL    HW228788   2.630   0.328  14.012  2.0982  0.1744  1.3265
 5718SOL     OW28789   4.005   3.126   2.136  0.5018  0.1750  0.4875
 5718SOL    HW128790   4.045   3.041   2.159 -0.0910 -0.7133 -1.7862
 5718SOL    HW228791   4.073   3.193   2.146  2.0833 -1.0618 -2.0945
 5719SOL     OW28792   3.236   1.767  14.904  0.0663 -0.7613 -0.6818
 5719SOL    HW128793   3.299   1.835  14.928  0.2259 -1.0388 -0.3173
 5719SOL    HW228794   3.157   1.812  14.932  1.0779 -0.7284  2.1649
 5720SOL     OW28795   4.087   3.768   9.583  0.4075  0.4240  0.0207
 5720SOL    HW128796   3.995   3.751   9.564  1.1424 -1.7221 -1.7433
 5720SOL    HW228797   4.121   3.721   9.506  0.3619  0.2249  0.1233
 5721SOL     OW28798   1.478   2.215   7.933  0.4582  0.5504 -0.2773
 5721SOL    HW128799   1.518   2.180   8.012 -0.3796 -1.5769 -0.8073
 5721SOL    HW228800   1.548   2.247   7.877  1.3983 -0.3508  0.3768
 5722SOL     OW28801   4.667   3.071  16.854  0.5682  0.2912 -0.1444
 5722SOL    HW128802   4.630   2.990  16.890 -0.6116 -0.1301 -2.3052
 5722SOL    HW228803   0.006   3.043  16.799  0.0780 -1.8129  0.2553
 5723SOL     OW28804   0.078   4.727   8.848  0.0479  0.4198  0.5872
 5723SOL    HW128805   0.006   0.055   8.861 -1.6805 -1.3854 -0.2484
 5723SOL    HW228806   0.145   0.040   8.897  0.3220  1.0166 -0.3636
 5724SOL     OW28807   4.535   0.549   6.148 -0.0338  0.4647 -0.5010
 5724SOL    HW128808   4.535   0.455   6.165  1.8837  0.3673 -1.0668
 5724SOL    HW228809   4.441   0.553   6.129 -0.0178  1.6758 -0.3250
 5725SOL     OW28810   4.061   1.458   3.599 -0.7405 -0.0582  0.2979
 5725SOL    HW128811   4.156   1.464   3.613 -0.2965 -0.6109 -2.5881
 5725SOL    HW228812   4.065   1.372   3.559 -2.2426 -0.1483  0.3755
 5726SOL     OW28813   0.268   3.443   3.985 -0.2315  0.1668 -0.4019
 5726SOL    HW128814   0.240   3.391   4.060  0.6815 -0.2881 -0.3756
 5726SOL    HW228815   0.202   3.510   3.967  0.4877  1.7889  2.9957
 5727SOL     OW28816   3.579   4.558   2.758 -0.3192  0.5145  0.7174
 5727SOL    HW128817   3.493   4.591   2.787  0.1565  1.9157  0.5549
 5727SOL    HW228818   3.571   4.558   2.662 -1.2267  0.1215  0.7918
 5728SOL     OW28819   3.514   0.984   8.116  0.6639  0.0809  0.1464
 5728SOL    HW128820   3.516   1.079   8.128  2.8732  0.2828 -1.8623
 5728SOL    HW228821   3.537   0.955   8.204 -1.7206  0.8958  1.0473
 5729SOL     OW28822   3.414   1.896  11.777  0.2048  0.7466 -0.0223
 5729SOL    HW128823   3.398   1.971  11.719 -1.3114 -0.2736 -0.9168
 5729SOL    HW228824   3.382   1.825  11.722 -2.7250  1.5389  0.6206
 5730SOL     OW28825   3.039   0.280  10.152  0.2162 -0.4585  0.2876
 5730SOL    HW128826   3.034   0.202  10.207  0.1791 -1.6483 -1.3873
 5730SOL    HW228827   3.026   0.338  10.226  1.1031  0.9496 -0.6545
 5731SOL     OW28828   2.117   2.792   9.211 -0.2257 -0.0452  0.5837
 5731SOL    HW128829   2.117   2.756   9.122 -0.0920 -1.6830  1.2514
 5731SOL    HW228830   2.178   2.866   9.205  0.3511 -0.4768  1.1123
 5732SOL     OW28831   0.532   1.497  10.679  0.3707 -0.0209  0.2514
 5732SOL    HW128832   0.599   1.539  10.625  0.2318  0.8872  0.7797
 5732SOL    HW228833   0.491   1.459  10.602 -3.4347  1.8992  1.2869
 5733SOL     OW28834   1.303   4.399   4.148 -1.0643 -0.8660 -0.9880
 5733SOL    HW128835   1.338   4.430   4.065 -0.1618 -0.5387 -0.4872
 5733SOL    HW228836   1.288   4.482   4.192 -0.4416 -1.3599  0.1619
 5734SOL     OW28837   3.377   0.632   2.900 -0.2854 -0.1330 -0.1349
 5734SOL    HW128838   3.285   0.608   2.907  0.4325 -2.8116  0.2115
 5734SOL    HW228839   3.364   0.682   2.820  0.1984 -0.1131 -0.2020
 5735SOL     OW28840   3.634   0.593   1.734  0.4025 -0.1111  0.1712
 5735SOL    HW128841   3.618   0.686   1.718  1.3188 -0.0047 -0.1038
 5735SOL    HW228842   3.695   0.575   1.663 -0.5575 -0.0633 -0.6605
 5736SOL     OW28843   4.408   0.078   9.082  0.2513 -0.0079 -0.2087
 5736SOL    HW128844   4.444   0.157   9.040 -0.8924  0.9302  0.5969
 5736SOL    HW228845   4.475   0.061   9.149 -0.1204  1.1082  0.4453
 5737SOL     OW28846   4.463   3.299  16.522  0.6169  0.5871  0.0312
 5737SOL    HW128847   4.457   3.226  16.584 -1.8045  1.1463  0.4195
 5737SOL    HW228848   4.381   3.288  16.474  0.7411 -1.4453  0.2912
 5738SOL     OW28849   2.672   3.290   3.566 -0.0667  0.4804  0.2130
 5738SOL    HW128850   2.596   3.342   3.542 -0.8277 -0.2163  1.1295
 5738SOL    HW228851   2.735   3.348   3.607 -0.5405  0.1906  1.3399
 5739SOL     OW28852   4.016   4.428   7.424 -0.2469  0.2985 -0.5187
 5739SOL    HW128853   4.041   4.345   7.464  0.2640  1.3834  1.4003
 5739SOL    HW228854   3.935   4.402   7.379  0.6380 -0.4912 -1.6540
 5740SOL     OW28855   1.269   4.582   1.921  0.3917  0.0563  0.5956
 5740SOL    HW128856   1.237   4.670   1.901  1.8942  0.5079  0.2088
 5740SOL    HW228857   1.188   4.556   1.966 -0.2242  0.3324 -0.3616
 5741SOL     OW28858   0.755   4.095   4.380 -0.5355 -0.2648 -0.1302
 5741SOL    HW128859   0.671   4.052   4.392 -0.9250  1.1511  2.3214
 5741SOL    HW228860   0.734   4.164   4.444  2.1535  1.1873 -0.7854
 5742SOL     OW28861   0.570   4.059   3.216  0.1993  0.0027 -0.0224
 5742SOL    HW128862   0.631   4.060   3.291  0.8925  1.3868 -0.6021
 5742SOL    HW228863   0.597   3.972   3.188 -1.8472 -0.7942  0.5465
 5743SOL     OW28864   4.710   0.190  12.210  0.6363  1.1425  0.6699
 5743SOL    HW128865   0.064   0.211  12.181  0.1950  0.1295 -1.4089
 5743SOL    HW228866   4.668   0.239  12.139  1.2612 -1.5593 -1.6061
 5744SOL     OW28867   4.696   3.700   2.750 -0.4422  0.2366  0.2186
 5744SOL    HW128868   4.725   3.758   2.680 -1.6160 -1.0605 -1.3542
 5744SOL    HW228869   4.622   3.750   2.784 -1.1535  0.6076 -1.8838
 5745SOL     OW28870   1.369   0.877   7.524  0.3885 -0.1061  0.0341
 5745SOL    HW128871   1.414   0.962   7.518 -1.4894  0.7609 -2.2131
 5745SOL    HW228872   1.304   0.892   7.455  1.1652 -0.1101 -0.7114
 5746SOL     OW28873   2.387   2.300  16.525  0.3612 -0.1185 -0.2674
 5746SOL    HW128874   2.374   2.276  16.433 -0.1011  3.1226 -1.0626
 5746SOL    HW228875   2.479   2.280  16.544  0.3179  0.4489  0.5225
 5747SOL     OW28876   2.277   4.434   4.690  0.0355  0.7433 -0.0819
 5747SOL    HW128877   2.209   4.502   4.689 -1.7255 -0.9350  3.7798
 5747SOL    HW228878   2.261   4.388   4.773  1.6425 -0.0806 -0.2325
 5748SOL     OW28879   3.561   0.366   1.000  0.3129 -0.3313  0.1876
 5748SOL    HW128880   3.591   0.406   0.918  0.2220  1.4541  1.0411
 5748SOL    HW228881   3.585   0.273   0.997  0.4346 -0.2489 -1.3967
 5749SOL     OW28882   2.101   2.023  16.979  0.2154  0.5111 -0.3297
 5749SOL    HW128883   2.104   2.095  16.917  2.9768  0.3301 -0.3883
 5749SOL    HW228884   2.186   2.021  17.024 -0.9903 -2.9249  1.8150
 5750SOL     OW28885   0.643   3.573  14.284  0.1619  0.2721 -0.3473
 5750SOL    HW128886   0.621   3.588  14.192  0.9574 -1.8771 -0.8836
 5750SOL    HW228887   0.657   3.478  14.279 -0.0412  0.2980 -1.4089
 5751SOL     OW28888   2.228   3.571   6.951  0.2848  0.1636 -0.7713
 5751SOL    HW128889   2.240   3.568   6.856 -1.2505 -1.6604 -0.9029
 5751SOL    HW228890   2.194   3.659   6.961  1.5450  0.5048  0.4615
 5752SOL     OW28891   0.604   2.662   6.839  0.2903 -0.3467  0.8761
 5752SOL    HW128892   0.675   2.648   6.776 -1.7369  0.6014 -1.6266
 5752SOL    HW228893   0.580   2.754   6.826  0.1242 -0.4259  0.6376
 5753SOL     OW28894   2.991   0.767  14.093 -0.4528  0.4087 -0.2375
 5753SOL    HW128895   2.906   0.811  14.084  0.0726  1.5015  0.1810
 5753SOL    HW228896   3.005   0.750  13.999 -1.7768  0.7047 -0.4861
 5754SOL     OW28897   3.345   3.137   1.197  0.0163 -0.2089  0.4054
 5754SOL    HW128898   3.424   3.171   1.241  1.6605 -1.2573 -1.7228
 5754SOL    HW228899   3.314   3.226   1.178 -2.6883 -1.3839 -0.6794
 5755SOL     OW28900   3.137   4.301  10.536  0.4440 -0.0221  0.7142
 5755SOL    HW128901   3.200   4.255  10.592  0.3174 -0.0436  0.8411
 5755SOL    HW228902   3.064   4.238  10.533  1.0694 -0.8712  2.9016
 5756SOL     OW28903   2.776   0.704   5.985  1.0477  0.4308  0.5154
 5756SOL    HW128904   2.701   0.689   6.042  1.1711 -0.2031  0.5108
 5756SOL    HW228905   2.738   0.723   5.899 -0.5105  1.3477  1.4077
 5757SOL     OW28906   2.011   2.679   1.601 -0.0551 -0.4775 -0.0752
 5757SOL    HW128907   2.019   2.605   1.661  0.6584 -2.1983 -2.2873
 5757SOL    HW228908   1.950   2.650   1.534  0.5536  1.3590 -1.4046
 5758SOL     OW28909   3.962   0.531  11.240  0.4668 -0.1945 -0.0255
 5758SOL    HW128910   3.935   0.616  11.275  0.1263 -0.7061  0.9550
 5758SOL    HW228911   4.057   0.533  11.241  0.4610  2.1628 -1.9998
 5759SOL     OW28912   4.077   1.757   2.199  0.6954  0.1278 -0.2125
 5759SOL    HW128913   4.094   1.841   2.241 -0.0735  0.4312 -0.5202
 5759SOL    HW228914   4.017   1.771   2.125 -1.5222  1.0073  1.7701
 5760SOL     OW28915   1.558   4.487  11.664  0.4842 -0.3131 -0.0026
 5760SOL    HW128916   1.627   4.544  11.698 -0.9578  1.1372  0.5107
 5760SOL    HW228917   1.612   4.429  11.612 -1.1884 -1.9915  0.1343
 5761SOL     OW28918   1.413   2.747   3.347  0.3824 -0.0042 -0.4365
 5761SOL    HW128919   1.479   2.753   3.278 -0.4547 -2.8515 -1.4958
 5761SOL    HW228920   1.334   2.705   3.312  1.3708 -2.2657  0.0388
 5762SOL     OW28921   0.124   4.577   5.605 -0.1124 -0.2944 -0.1215
 5762SOL    HW128922   0.205   4.584   5.655 -1.8681 -0.3496  2.7595
 5762SOL    HW228923   0.067   4.542   5.673 -2.1442 -0.3081 -1.8185
 5763SOL     OW28924   1.625   1.441   9.481 -0.4687  0.1544  0.2908
 5763SOL    HW128925   1.548   1.422   9.535 -0.0043  0.9105  1.2200
 5763SOL    HW228926   1.677   1.361   9.479 -0.9026 -0.0910 -1.3953
 5764SOL     OW28927   0.004   2.252   4.943 -0.1963 -1.0222  0.0917
 5764SOL    HW128928   0.025   2.344   4.958 -0.4922 -0.1187 -4.8919
 5764SOL    HW228929   0.012   2.236   4.849 -0.5026  1.5924 -0.3729
 5765SOL     OW28930   1.253   2.936   5.374 -0.3599 -0.0288 -0.2156
 5765SOL    HW128931   1.200   2.903   5.302 -0.7586  1.6913 -0.7015
 5765SOL    HW228932   1.245   2.861   5.433 -1.1311  1.8949  2.1570
 5766SOL     OW28933   0.680   1.997  12.688  0.4903  0.0487 -0.2367
 5766SOL    HW128934   0.653   1.912  12.723 -0.8328 -0.4449 -2.4400
 5766SOL    HW228935   0.719   1.970  12.605  1.0858  2.3435 -0.7176
 5767SOL     OW28936   2.199   0.194   9.220 -0.1841  0.0955  0.4682
 5767SOL    HW128937   2.166   0.131   9.156 -0.4063 -1.1281  1.7858
 5767SOL    HW228938   2.128   0.209   9.283  0.0836  0.3711  0.7055
 5768SOL     OW28939   1.789   2.660   7.313 -0.1311  0.0473 -0.0662
 5768SOL    HW128940   1.870   2.620   7.283 -0.6705  0.5495 -2.1734
 5768SOL    HW228941   1.769   2.714   7.236  0.3477  0.7781  0.3164
 5769SOL     OW28942   3.828   0.688   0.467 -0.2918  0.0461  0.0391
 5769SOL    HW128943   3.818   0.746   0.391  1.5468  1.5970  0.9725
 5769SOL    HW228944   3.859   0.748   0.535 -0.7344  0.3064  0.0100
 5770SOL     OW28945   1.512   0.343   9.172 -0.0741 -0.9686  0.1038
 5770SOL    HW128946   1.462   0.424   9.168 -0.8240 -1.4393 -0.0165
 5770SOL    HW228947   1.592   0.373   9.129  0.8832  0.0122  2.5417
 5771SOL     OW28948   0.094   1.150   6.878 -0.4857  0.5550  0.2463
 5771SOL    HW128949   0.095   1.176   6.970  3.2308 -0.1232  0.4101
 5771SOL    HW228950   0.184   1.127   6.853 -0.1338 -0.8381  2.7697
 5772SOL     OW28951   0.524   2.973   5.608 -0.5925  0.3684  0.5187
 5772SOL    HW128952   0.609   2.991   5.568  0.2180 -1.9471  1.2368
 5772SOL    HW228953   0.490   2.935   5.527  0.5324 -1.8180  1.0801
 5773SOL     OW28954   2.423   2.572  12.620 -0.2113 -0.4303 -0.0769
 5773SOL    HW128955   2.393   2.521  12.696 -0.8477  1.3694  0.8787
 5773SOL    HW228956   2.517   2.558  12.634 -0.3702  0.9296  2.3773
 5774SOL     OW28957   1.682   0.051   6.409  0.2078  0.1615 -0.3386
 5774SOL    HW128958   1.764   0.044   6.458  0.6548 -0.3105 -1.1669
 5774SOL    HW228959   1.636   0.127   6.445 -1.3231 -0.2677 -1.3938
 5775SOL     OW28960   4.580   1.384   2.729  0.1218  0.6306  0.8059
 5775SOL    HW128961   4.533   1.379   2.646  1.8485 -1.2653 -0.0583
 5775SOL    HW228962   4.668   1.407   2.697  0.4470 -0.4187  0.9650
 5776SOL     OW28963   2.591   0.732  13.078 -0.3387  0.1977 -0.0911
 5776SOL    HW128964   2.571   0.641  13.100 -0.5967  0.4629  0.7759
 5776SOL    HW228965   2.536   0.767  13.148 -0.1338  0.3611 -0.0121
 5777SOL     OW28966   4.419   1.011  11.028  0.4307  0.3702 -0.7230
 5777SOL    HW128967   4.358   1.022  11.100 -0.7170  1.2110 -1.8264
 5777SOL    HW228968   4.398   0.922  11.001 -0.2636 -0.0463  1.1899
 5778SOL     OW28969   4.462   1.455   9.359 -0.3615 -0.0246 -0.1766
 5778SOL    HW128970   4.519   1.402   9.414  0.0554  1.9328  1.3106
 5778SOL    HW228971   4.533   1.517   9.339  0.6858 -0.9683  0.5857
 5779SOL     OW28972   1.485   2.526   7.957  0.3701  0.0056 -0.5716
 5779SOL    HW128973   1.477   2.434   7.932  0.8018 -0.2449  0.1964
 5779SOL    HW228974   1.575   2.521   7.990  0.2035 -0.0331 -0.1212
 5780SOL     OW28975   1.294   4.374   9.180  0.2613 -0.4610  0.2640
 5780SOL    HW128976   1.229   4.437   9.149  0.1732 -0.7055 -0.0529
 5780SOL    HW228977   1.285   4.389   9.274  1.0138 -0.1755  0.2900
 5781SOL     OW28978   4.418   4.055   9.440 -0.0139 -0.3457  0.9640
 5781SOL    HW128979   4.502   4.079   9.400  0.4822 -1.4780  1.3128
 5781SOL    HW228980   4.398   4.125   9.502  1.2519  1.4502 -0.6398
 5782SOL     OW28981   1.151   2.618  17.391  0.2362 -0.4527 -0.3137
 5782SOL    HW128982   1.214   2.684  17.361 -0.0825  1.1508  2.4988
 5782SOL    HW228983   1.162   2.562  17.315 -1.9750  2.8563 -3.0803
 5783SOL     OW28984   1.551   1.329   4.271 -0.8356  0.4513 -0.2290
 5783SOL    HW128985   1.498   1.265   4.319 -1.9847  1.6235  0.0554
 5783SOL    HW228986   1.598   1.272   4.211  0.9981  0.2858  1.3590
 5784SOL     OW28987   1.143   1.926   4.451 -0.1581 -0.1759  0.0548
 5784SOL    HW128988   1.231   1.924   4.414 -0.2523 -1.2227 -0.1217
 5784SOL    HW228989   1.116   1.835   4.437 -0.6047  0.2059 -1.5533
 5785SOL     OW28990   1.605   4.487   7.974  0.6200  0.1554  0.2529
 5785SOL    HW128991   1.531   4.456   7.921  1.8759 -0.9380 -0.8555
 5785SOL    HW228992   1.643   4.399   7.978 -0.8921 -0.5211 -0.2186
 5786SOL     OW28993   0.072   4.295  14.198  0.1595 -0.3630  0.2753
 5786SOL    HW128994   0.003   4.341  14.246  2.2437  2.9971  0.0473
 5786SOL    HW228995   0.018   4.233  14.148 -2.6867  1.0697  1.5510
 5787SOL     OW28996   3.639   4.207   6.118  0.1335 -0.0442  0.5647
 5787SOL    HW128997   3.640   4.148   6.042 -3.6604  0.4267  0.1281
 5787SOL    HW228998   3.659   4.157   6.197 -0.7630 -0.3427  0.6043
 5788SOL     OW28999   4.287   0.033   1.741 -0.2175 -1.0766  0.3175
 5788SOL    HW129000   4.381   0.026   1.758 -0.1137 -0.2836  0.0600
 5788SOL    HW229001   4.285   4.724   1.655 -0.5373 -0.5055  0.0409
 5789SOL     OW29002   0.531   3.674   6.699 -0.1196 -0.1772  0.2747
 5789SOL    HW129003   0.584   3.743   6.739  0.0480 -1.3880  2.1309
 5789SOL    HW229004   0.585   3.596   6.716  2.0380  1.3147  0.2804
 5790SOL     OW29005   0.113   1.572   5.464 -0.3410  0.6911 -0.1286
 5790SOL    HW129006   0.087   1.634   5.395 -0.2682  0.3259 -0.4888
 5790SOL    HW229007   0.194   1.532   5.432  0.6001  3.1588 -0.7948
 5791SOL     OW29008   3.762   0.849   5.264  0.3845 -0.0578 -0.0043
 5791SOL    HW129009   3.771   0.821   5.355  1.5717  3.7543  1.0270
 5791SOL    HW229010   3.687   0.794   5.240 -0.0367  0.7273 -0.4831
 5792SOL     OW29011   0.203   3.767   7.310  0.1286 -0.3003 -0.0131
 5792SOL    HW129012   0.158   3.720   7.380 -0.0760  0.4217  0.3510
 5792SOL    HW229013   0.133   3.761   7.245  0.2954  0.8903 -0.3056
 5793SOL     OW29014   3.942   3.557   4.917 -0.5458  0.0205 -0.7722
 5793SOL    HW129015   3.982   3.551   4.831 -1.2471 -1.1496 -1.0066
 5793SOL    HW229016   3.935   3.463   4.934 -0.1554  0.1112 -0.1223
 5794SOL     OW29017   2.689   0.111   7.120 -0.0249 -0.1815 -0.0452
 5794SOL    HW129018   2.723   0.190   7.162 -0.6274  0.2288 -0.3211
 5794SOL    HW229019   2.771   0.089   7.077 -0.2662  0.5858 -0.8949
 5795SOL     OW29020   1.952   4.456  11.002 -0.1051  0.4141 -0.3681
 5795SOL    HW129021   1.938   4.543  11.040 -1.8795 -1.8192  4.1308
 5795SOL    HW229022   1.959   4.484  10.911 -0.3945  1.4915 -0.0715
 5796SOL     OW29023   1.413   0.304   4.379  0.3695  0.7326  0.0158
 5796SOL    HW129024   1.342   0.335   4.322  1.1517  1.9726 -0.2836
 5796SOL    HW229025   1.386   0.212   4.373 -1.4702  1.2775  0.0617
 5797SOL     OW29026   0.190   4.701   8.605 -0.2961 -0.4381 -0.4358
 5797SOL    HW129027   0.178   4.606   8.616 -0.8696 -0.3883 -0.6448
 5797SOL    HW229028   0.163   4.732   8.691  1.6048  2.9836 -1.0724
 5798SOL     OW29029   3.733   3.492   7.636 -0.0790 -0.1913  0.6010
 5798SOL    HW129030   3.743   3.504   7.730  1.5799  0.4863  0.3333
 5798SOL    HW229031   3.639   3.505   7.622 -0.0145  1.0376  1.3510
 5799SOL     OW29032   3.944   0.285  15.488 -0.6181  0.5938  0.3565
 5799SOL    HW129033   3.929   0.241  15.571  0.3327  0.6416  0.5488
 5799SOL    HW229034   3.861   0.268  15.443  0.0528 -0.2220 -0.5685
 5800SOL     OW29035   4.053   3.691   7.901 -0.6165  0.4971 -0.4887
 5800SOL    HW129036   4.010   3.776   7.912  1.7352  1.4662  1.1935
 5800SOL    HW229037   3.985   3.631   7.930  0.1706  0.0264  0.3824
 5801SOL     OW29038   0.962   3.368   5.270  0.4167  0.1131 -0.3099
 5801SOL    HW129039   0.938   3.279   5.243  0.9929 -0.2601  0.3838
 5801SOL    HW229040   1.017   3.406   5.201 -3.0107 -0.1993 -3.1957
 5802SOL     OW29041   4.312   4.510   7.901 -0.3013 -0.1345 -0.2035
 5802SOL    HW129042   4.269   4.548   7.977  0.0427  0.9813 -0.5701
 5802SOL    HW229043   4.390   4.468   7.938 -0.3341  1.8919  2.1524
 5803SOL     OW29044   3.351   3.073   3.786  0.3265 -0.5433  0.1763
 5803SOL    HW129045   3.337   3.078   3.880  0.4100  2.2088  0.0520
 5803SOL    HW229046   3.269   3.048   3.744  1.6924  1.6873 -3.7963
 5804SOL     OW29047   2.700   3.943   4.157  0.6768  0.0167 -0.2175
 5804SOL    HW129048   2.787   3.934   4.118  0.3365 -1.0196 -0.7680
 5804SOL    HW229049   2.715   3.899   4.241 -0.1381 -0.0313 -0.1028
 5805SOL     OW29050   0.909   2.545   2.898  0.0979 -0.2735 -0.4664
 5805SOL    HW129051   0.888   2.573   2.987  0.9162  1.3693 -0.7804
 5805SOL    HW229052   1.004   2.555   2.899  0.1803 -1.3187  1.6092
 5806SOL     OW29053   0.582   0.355   7.711  0.3333 -0.6071  0.4429
 5806SOL    HW129054   0.654   0.415   7.691 -1.8714  1.8736 -0.0834
 5806SOL    HW229055   0.604   0.317   7.796  2.0783 -1.1776 -0.2552
 5807SOL     OW29056   3.244   1.485   7.831 -0.4528  0.2065  0.0501
 5807SOL    HW129057   3.182   1.443   7.772  0.3774  0.7579 -1.2225
 5807SOL    HW229058   3.314   1.504   7.768 -0.2915 -2.2013 -0.5256
 5808SOL     OW29059   1.310   3.829   9.477  0.1678 -0.5360 -0.2798
 5808SOL    HW129060   1.309   3.912   9.430 -0.9518  0.6972  1.8988
 5808SOL    HW229061   1.385   3.782   9.442  1.8137  1.5780  0.4691
 5809SOL     OW29062   4.247   2.640   8.897 -0.5238  0.3755  0.2689
 5809SOL    HW129063   4.198   2.686   8.965  2.3708  1.2948  1.7316
 5809SOL    HW229064   4.226   2.696   8.823 -1.1805 -1.3135 -0.8341
 5810SOL     OW29065   4.385   2.374   6.983  0.0450  0.2681 -0.3600
 5810SOL    HW129066   4.333   2.413   7.054  0.1065  0.2303 -0.2944
 5810SOL    HW229067   4.326   2.306   6.950 -0.9831  0.3090  1.3678
 5811SOL     OW29068   1.051   3.734   5.279 -0.0985 -0.3250  0.0754
 5811SOL    HW129069   1.137   3.762   5.248 -0.3826  2.2849  1.6151
 5811SOL    HW229070   1.059   3.694   5.365  2.3544 -0.4422 -0.1848
 5812SOL     OW29071   4.685   4.012   6.295  0.4763  0.1615  0.3073
 5812SOL    HW129072   4.646   3.932   6.332  0.2438  0.0522 -0.1742
 5812SOL    HW229073   4.695   4.063   6.375  0.9655  0.2996  0.1557
 5813SOL     OW29074   1.721   3.919   3.193  0.1596  0.1083 -0.0229
 5813SOL    HW129075   1.741   3.986   3.127  0.5873 -0.4446 -0.4636
 5813SOL    HW229076   1.634   3.889   3.166  0.3874  1.1898 -1.9779
 5814SOL     OW29077   0.714   3.361  17.658  0.3245  0.2368 -0.0547
 5814SOL    HW129078   0.741   3.269  17.653  0.2657  0.3524 -2.4947
 5814SOL    HW229079   0.706   3.367   0.018  0.3146 -0.9634  0.0226
 5815SOL     OW29080   1.785   1.193   1.453 -0.1683  0.2838  0.5435
 5815SOL    HW129081   1.876   1.171   1.473 -1.0708 -1.7410  2.3696
 5815SOL    HW229082   1.744   1.186   1.539 -1.2585  0.7665  0.0647
 5816SOL     OW29083   2.529   2.619   4.226  0.3078 -0.2187 -0.1801
 5816SOL    HW129084   2.440   2.646   4.248  0.3810 -0.0304 -0.1205
 5816SOL    HW229085   2.511   2.535   4.182 -0.2646 -1.1928  1.8950
 5817SOL     OW29086   3.514   3.732   5.172  0.0765 -0.8120 -0.2368
 5817SOL    HW129087   3.462   3.652   5.164  1.2894 -1.6836  0.5897
 5817SOL    HW229088   3.470   3.781   5.103 -2.7956 -1.2298  1.3013
 5818SOL     OW29089   1.253   4.616  14.620 -0.5085 -0.6385 -0.1096
 5818SOL    HW129090   1.334   4.662  14.640 -0.1918 -0.8854 -0.8239
 5818SOL    HW229091   1.198   4.694  14.631  2.1790  1.3182 -0.6935
 5819SOL     OW29092   0.747   2.714  15.475  0.0430  0.4265  0.7171
 5819SOL    HW129093   0.675   2.760  15.518 -0.2947 -0.1595  0.7783
 5819SOL    HW229094   0.774   2.654  15.544 -1.0581  3.0198  3.4123
 5820SOL     OW29095   1.261   1.637  16.685  0.3613 -0.1629 -0.2577
 5820SOL    HW129096   1.191   1.577  16.661  2.0195 -2.0645 -0.3143
 5820SOL    HW229097   1.290   1.664  16.598  0.3500 -0.6599 -0.4159
 5821SOL     OW29098   4.212   4.596   7.348 -0.3370  0.0123 -0.0197
 5821SOL    HW129099   4.147   4.526   7.348 -1.6641  1.2445  0.5316
 5821SOL    HW229100   4.282   4.566   7.406 -1.8534  0.7814  2.1895
 5822SOL     OW29101   4.632   2.717   9.113  0.2595  0.0016 -0.1143
 5822SOL    HW129102   4.597   2.638   9.072  0.4876  1.0968 -2.4051
 5822SOL    HW229103   4.630   2.687   9.204 -0.4852  0.4300  0.0110
 5823SOL     OW29104   1.272   3.472   3.340 -0.2402  0.1528  0.4216
 5823SOL    HW129105   1.208   3.500   3.274 -0.0451 -1.1753 -0.3457
 5823SOL    HW229106   1.319   3.555   3.340  0.7004 -0.3911  1.9098
 5824SOL     OW29107   1.397   0.151   2.832  0.2733 -0.6104  0.3285
 5824SOL    HW129108   1.455   0.135   2.907 -1.7229  0.0411  2.0227
 5824SOL    HW229109   1.457   0.137   2.759 -0.5749 -0.4466 -0.4055
 5825SOL     OW29110   4.575   3.067  14.384 -0.0575 -0.6919  0.2185
 5825SOL    HW129111   4.548   3.154  14.413 -0.4873 -0.9427  0.5685
 5825SOL    HW229112   4.496   3.018  14.406  0.4919 -2.0196 -0.7524
 5826SOL     OW29113   3.847   2.368   5.901 -0.5356 -0.3363 -0.2623
 5826SOL    HW129114   3.934   2.375   5.940 -0.8232  0.3876  0.2510
 5826SOL    HW229115   3.801   2.388   5.983 -2.4321  1.8674 -1.8669
 5827SOL     OW29116   0.802   2.378   5.052  0.2413  0.2611  0.2756
 5827SOL    HW129117   0.857   2.301   5.039 -1.1404 -0.6778 -0.0167
 5827SOL    HW229118   0.748   2.386   4.973 -1.2439 -2.2596  1.0521
 5828SOL     OW29119   1.974   0.028  11.652 -0.0498  0.4513 -0.1676
 5828SOL    HW129120   1.985   0.123  11.650 -2.1146  0.6599 -0.9006
 5828SOL    HW229121   2.054   0.006  11.603  0.9241  0.2079  1.5269
 5829SOL     OW29122   2.252   3.010  15.815  0.2252 -0.3134 -0.4683
 5829SOL    HW129123   2.220   2.976  15.731  2.0602 -0.1336 -1.2279
 5829SOL    HW229124   2.167   3.042  15.848  1.5731  1.1557  1.5733
 5830SOL     OW29125   0.928   0.783   7.659  0.0699  0.2084 -0.3858
 5830SOL    HW129126   0.881   0.852   7.611  0.8051 -0.5005 -2.1126
 5830SOL    HW229127   1.021   0.805   7.656  0.6624 -1.9000  2.5460
 5831SOL     OW29128   0.873   2.015   7.883  0.0024 -0.1827  0.2052
 5831SOL    HW129129   0.960   1.985   7.907  0.0877  0.9145  1.2761
 5831SOL    HW229130   0.851   1.980   7.797  1.5414 -0.5241 -0.0448
 5832SOL     OW29131   4.294   2.033   2.478 -0.0535 -0.2279  0.1110
 5832SOL    HW129132   4.338   1.949   2.465  0.7362  0.4827 -1.8502
 5832SOL    HW229133   4.207   1.998   2.497  0.1051 -1.3231 -1.2029
 5833SOL     OW29134   4.622   2.155  14.051 -0.2723  0.1645  0.1915
 5833SOL    HW129135   4.659   2.069  14.030 -0.3538  0.4542 -1.1161
 5833SOL    HW229136   4.530   2.139  14.031  0.3881 -0.4591 -2.3465
 5834SOL     OW29137   3.187   3.303   4.226 -0.0356 -0.2897 -0.1223
 5834SOL    HW129138   3.199   3.312   4.321 -0.6309 -1.2221  0.0422
 5834SOL    HW229139   3.097   3.274   4.241 -0.1461  0.0889 -0.0682
 5835SOL     OW29140   3.829   1.762   4.883 -0.1402 -1.0687 -0.0042
 5835SOL    HW129141   3.872   1.847   4.879  1.3003 -1.8417 -1.1207
 5835SOL    HW229142   3.750   1.774   4.830  0.9044  0.1152 -1.2810
 5836SOL     OW29143   3.316   2.571  14.616 -0.3935 -0.4045  0.2683
 5836SOL    HW129144   3.247   2.532  14.563  0.1004 -3.0380  1.6037
 5836SOL    HW229145   3.303   2.664  14.595  1.9394 -0.3746 -1.0044
 5837SOL     OW29146   1.578   3.678   8.517 -0.4603 -0.2500  0.1390
 5837SOL    HW129147   1.654   3.718   8.474 -0.6246  0.0278  0.1060
 5837SOL    HW229148   1.514   3.719   8.458 -0.3945  1.5969  1.3434
 5838SOL     OW29149   4.389   1.606  16.698  0.2783  0.3699  0.1811
 5838SOL    HW129150   4.303   1.570  16.718  0.9284 -1.0847  0.3108
 5838SOL    HW229151   4.392   1.695  16.734  2.1928  0.7286 -0.8483
 5839SOL     OW29152   1.690   2.971   7.783 -0.1222 -0.3943  0.7707
 5839SOL    HW129153   1.617   2.910   7.796  0.3507 -0.7368  1.8814
 5839SOL    HW229154   1.708   2.946   7.692  0.6545  0.8609  0.5757
 5840SOL     OW29155   0.468   4.302  14.332  0.1917 -0.0202 -0.2402
 5840SOL    HW129156   0.430   4.266  14.251  0.0914  0.5092 -0.4231
 5840SOL    HW229157   0.554   4.335  14.306 -0.5440  0.7435 -1.7086
 5841SOL     OW29158   4.654   1.315   3.245  0.0863  0.0331  0.6208
 5841SOL    HW129159   4.627   1.366   3.168  2.5306 -0.8875 -0.8297
 5841SOL    HW229160   4.613   1.376   3.306  3.9467  1.7934  1.4245
 5842SOL     OW29161   1.472   1.366   3.958  0.1725  0.6342 -0.2927
 5842SOL    HW129162   1.548   1.356   4.015  1.0198 -0.7894 -1.6845
 5842SOL    HW229163   1.409   1.305   3.999  1.3564 -0.3839  0.0020
 5843SOL     OW29164   3.559   4.373   4.778 -0.3746 -0.3981  0.0807
 5843SOL    HW129165   3.520   4.461   4.781  0.7194  0.0963  0.0487
 5843SOL    HW229166   3.556   4.354   4.685 -1.6691 -1.9022  0.4333
 5844SOL     OW29167   1.723   3.743   1.888 -0.1161  0.6441 -0.3876
 5844SOL    HW129168   1.800   3.720   1.939  1.0868  2.7537 -1.2395
 5844SOL    HW229169   1.687   3.659   1.862 -2.7027  2.3034 -2.2428
 5845SOL     OW29170   4.186   4.041   8.785  0.6929 -0.0206 -0.0047
 5845SOL    HW129171   4.268   4.026   8.832  0.6556  0.1108  0.1034
 5845SOL    HW229172   4.171   4.135   8.798 -0.1037  0.0785 -1.6299
 5846SOL     OW29173   1.631   2.157   4.833 -0.3706  0.5190  0.2316
 5846SOL    HW129174   1.605   2.232   4.779 -1.1632 -0.5023 -0.7986
 5846SOL    HW229175   1.722   2.146   4.805  0.0041 -1.2787  2.1964
 5847SOL     OW29176   4.095   2.160   6.083 -0.4486 -1.5003  0.4151
 5847SOL    HW129177   4.163   2.146   6.017  0.3787  0.0215  0.9319
 5847SOL    HW229178   4.068   2.073   6.110 -0.9417 -1.4325  0.1494
 5848SOL     OW29179   1.527   0.238   7.420 -0.0561  0.3577  0.6857
 5848SOL    HW129180   1.579   0.317   7.435  1.3728 -0.2768 -0.8053
 5848SOL    HW229181   1.475   0.261   7.344 -0.5206  0.7453  1.1276
 5849SOL     OW29182   3.027   1.625   4.000 -0.7622  0.1484 -0.5375
 5849SOL    HW129183   3.098   1.564   4.020 -0.0226  1.6840  1.5630
 5849SOL    HW229184   2.978   1.613   4.082  3.9754  1.9654  2.5549
 5850SOL     OW29185   2.909   1.824   4.546  0.1479  0.4935  0.5091
 5850SOL    HW129186   2.890   1.901   4.492 -1.5486 -2.1039 -2.6224
 5850SOL    HW229187   3.004   1.818   4.558  0.3791  0.1292 -1.4788
 5851SOL     OW29188   3.403   1.010   1.868  0.0923  0.1417  0.0381
 5851SOL    HW129189   3.406   1.105   1.864  0.5598  0.0959 -0.5925
 5851SOL    HW229190   3.457   0.989   1.945  1.9692 -0.7033 -1.5072
 5852SOL     OW29191   1.732   0.993   8.223  0.7185 -1.0367  0.4065
 5852SOL    HW129192   1.693   0.976   8.137  0.5512  0.6853  0.1354
 5852SOL    HW229193   1.793   1.063   8.201 -1.7169  1.1841  0.7247
 5853SOL     OW29194   3.479   4.411   6.172  0.2698  0.1765 -0.2071
 5853SOL    HW129195   3.523   4.327   6.157  2.2348  1.6438 -2.7755
 5853SOL    HW229196   3.513   4.439   6.257  0.8449 -0.9008 -0.0758
 5854SOL     OW29197   3.218   2.177   0.993 -0.0511 -0.1177 -0.0032
 5854SOL    HW129198   3.257   2.094   1.020  1.0150  0.1625 -0.6618
 5854SOL    HW229199   3.200   2.158   0.901 -1.0166 -2.1059  0.6113
 5855SOL     OW29200   2.314   2.887   7.268 -0.4066 -0.1029  0.4776
 5855SOL    HW129201   2.397   2.910   7.227  0.5984 -3.0791  0.8419
 5855SOL    HW229202   2.261   2.967   7.261 -0.7010 -0.4850 -1.5154
 5856SOL     OW29203   1.479   0.538   4.046  0.5664 -0.4656 -0.1220
 5856SOL    HW129204   1.569   0.540   4.079  0.3416  1.5094  0.3742
 5856SOL    HW229205   1.483   0.496   3.960  3.0109  0.2288 -0.3600
 5857SOL     OW29206   2.955   3.994  12.706 -0.1575  0.3296  0.1310
 5857SOL    HW129207   3.032   3.982  12.762  0.5291  2.5047 -0.3372
 5857SOL    HW229208   2.920   3.905  12.712  1.7300 -0.2895  1.8051
 5858SOL     OW29209   1.175   1.005   8.256  0.1457  0.2006 -0.3173
 5858SOL    HW129210   1.095   1.039   8.295  1.9850  3.2059  0.8298
 5858SOL    HW229211   1.154   0.992   8.163 -0.0172 -1.7665  0.0025
 5859SOL     OW29212   1.533   1.721   7.842  0.2791  0.2479 -0.0044
 5859SOL    HW129213   1.582   1.677   7.772 -1.9156 -0.0251 -1.3398
 5859SOL    HW229214   1.524   1.810   7.810 -1.5864  0.1340  0.2459
 5860SOL     OW29215   2.080   3.326   8.317  0.0532  0.0800  0.1795
 5860SOL    HW129216   2.091   3.324   8.222  1.1905  0.0883  0.3120
 5860SOL    HW229217   2.161   3.364   8.348 -1.8061  2.9286  1.5141
 5861SOL     OW29218   3.017   0.140   1.616 -0.1475 -0.4128 -1.1534
 5861SOL    HW129219   3.045   0.221   1.574  1.7699 -0.7712 -0.5322
 5861SOL    HW229220   2.938   0.165   1.665 -0.0650 -1.6553 -0.3762
 5862SOL     OW29221   4.037   2.925   5.615  0.1361  0.0179  0.0621
 5862SOL    HW129222   3.964   2.959   5.667 -0.1797  0.3025 -0.5671
 5862SOL    HW229223   4.028   2.975   5.534  0.2326 -2.0694 -1.2633
 5863SOL     OW29224   2.504   1.641  15.619 -0.4583 -0.0214 -0.0651
 5863SOL    HW129225   2.430   1.627  15.559  0.3051  1.0700 -1.2384
 5863SOL    HW229226   2.543   1.553  15.614 -1.0455 -0.3341  0.9326
 5864SOL     OW29227   2.439   0.188  16.624 -0.7525 -0.3579 -0.0285
 5864SOL    HW129228   2.527   0.199  16.661 -1.7999  1.3991  1.8881
 5864SOL    HW229229   2.438   0.093  16.611 -1.2271 -0.4863  1.0090
 5865SOL     OW29230   3.651   1.393   5.701  0.6072 -0.2373  0.2963
 5865SOL    HW129231   3.648   1.439   5.617 -1.1476  0.1210  0.5639
 5865SOL    HW229232   3.743   1.369   5.688  0.1954  0.6036 -4.2667
 5866SOL     OW29233   4.457   1.438   2.494 -0.0009  0.1290  0.2889
 5866SOL    HW129234   4.441   1.526   2.461  0.8052  0.3265  0.4232
 5866SOL    HW229235   4.518   1.417   2.423  0.0081  0.1421  0.2928
 5867SOL     OW29236   1.185   3.821  17.732 -0.2859  0.9283 -0.1405
 5867SOL    HW129237   1.178   3.784   0.086  0.3160  1.3396  0.0874
 5867SOL    HW229238   1.253   3.774  17.684 -0.3729 -1.5211  2.1410
 5868SOL     OW29239   0.344   2.814   0.274 -0.1241  0.0899  1.0885
 5868SOL    HW129240   0.337   2.824   0.369  0.3396  2.0436  0.9333
 5868SOL    HW229241   0.411   2.881   0.257 -0.3007  0.3812  1.5057
 5869SOL     OW29242   2.904   3.474   8.290 -0.4974  0.4070  0.0597
 5869SOL    HW129243   2.964   3.484   8.364 -1.8898 -0.4912  1.3195
 5869SOL    HW229244   2.823   3.434   8.323  0.0581 -0.4629  0.3630
 5870SOL     OW29245   2.551   1.306   1.443  0.3123  0.1539 -0.3408
 5870SOL    HW129246   2.571   1.357   1.522 -1.6426  0.2944  0.0651
 5870SOL    HW229247   2.531   1.381   1.386  2.5882  1.8206  1.0290
 5871SOL     OW29248   4.672   4.504   4.624 -0.6149 -0.3864  0.3402
 5871SOL    HW129249   4.676   4.439   4.694 -0.3942  0.9207  1.5320
 5871SOL    HW229250   4.696   4.590   4.656 -0.5899 -1.0235  2.0427
 5872SOL     OW29251   3.342   0.129  17.252 -0.1972 -1.3080 -0.8524
 5872SOL    HW129252   3.249   0.117  17.273 -0.2029  0.6896  0.2278
 5872SOL    HW229253   3.391   0.058  17.294  1.7664  0.7890  0.3808
 5873SOL     OW29254   1.740   1.554   4.175 -1.0680  0.0961 -0.2706
 5873SOL    HW129255   1.781   1.551   4.089  0.1313 -1.2786  0.3469
 5873SOL    HW229256   1.662   1.500   4.164 -0.8891  0.0215 -1.1737
 5874SOL     OW29257   1.847   4.292   9.108 -0.5093  0.0192 -0.0019
 5874SOL    HW129258   1.805   4.360   9.161  1.8919  0.7653  0.9595
 5874SOL    HW229259   1.779   4.265   9.046 -0.7649  0.1130  0.2390
 5875SOL     OW29260   3.295   3.895   5.051  0.6003 -0.2534  0.2923
 5875SOL    HW129261   3.326   3.914   5.139 -1.1985 -0.9828  1.0755
 5875SOL    HW229262   3.258   3.982   5.040  1.5654  0.1454  0.1617
 5876SOL     OW29263   0.725   4.582   5.429 -0.0328 -0.6296  0.0028
 5876SOL    HW129264   0.745   4.493   5.398 -1.3026 -1.0117  0.2567
 5876SOL    HW229265   0.788   4.596   5.499  0.9352 -0.3788 -0.9322
 5877SOL     OW29266   1.004   4.070   3.356 -0.0429 -0.1165  0.2386
 5877SOL    HW129267   1.099   4.060   3.363 -0.1634 -1.3133  0.1959
 5877SOL    HW229268   0.979   3.995   3.303  0.5386 -0.5479  0.5670
 5878SOL     OW29269   3.990   1.105   6.290  0.3301 -0.9523 -0.4301
 5878SOL    HW129270   3.908   1.125   6.335 -0.1717 -2.1190 -0.8395
 5878SOL    HW229271   4.048   1.097   6.365 -1.1899 -1.2153  0.7168
 5879SOL     OW29272   0.793   2.683  11.286 -0.5629  0.0634  0.2864
 5879SOL    HW129273   0.835   2.638  11.359 -0.9733 -1.1228 -0.1974
 5879SOL    HW229274   0.831   2.769  11.302  1.4552 -0.4727 -1.7134
 5880SOL     OW29275   2.219   2.321   5.032 -0.1641  0.4566 -0.0018
 5880SOL    HW129276   2.210   2.235   5.073  3.1769  1.0965  2.0737
 5880SOL    HW229277   2.210   2.374   5.111  0.7592 -1.6454  1.5340
 5881SOL     OW29278   1.086   2.495   5.445  0.5861  0.4724 -0.3227
 5881SOL    HW129279   1.117   2.421   5.393 -1.8761  0.0989 -1.2571
 5881SOL    HW229280   1.039   2.440   5.508  1.0589 -0.2595 -0.6151
 5882SOL     OW29281   1.118   3.483  16.765  0.3167  0.2327 -0.3384
 5882SOL    HW129282   1.103   3.509  16.856 -0.0336  0.9953 -0.6143
 5882SOL    HW229283   1.208   3.453  16.772 -0.3182 -1.1982  1.5286
 5883SOL     OW29284   4.467   0.351   8.920 -0.0029  0.0980  0.3018
 5883SOL    HW129285   4.464   0.395   8.835  0.9042 -0.7521 -0.1736
 5883SOL    HW229286   4.387   0.393   8.953 -0.4112 -2.0417  2.0053
 5884SOL     OW29287   3.944   1.073   2.290  0.5603 -1.1403 -0.7656
 5884SOL    HW129288   3.871   1.059   2.351 -1.4710 -0.2606 -2.9708
 5884SOL    HW229289   3.956   0.981   2.265 -1.2946 -1.1007 -1.7852
 5885SOL     OW29290   1.918   2.254  11.616 -0.1367 -0.9585 -0.4539
 5885SOL    HW129291   1.920   2.285  11.706 -0.6478 -1.2285 -0.3513
 5885SOL    HW229292   1.844   2.195  11.629 -0.9227  0.1122 -0.1290
 5886SOL     OW29293   0.292   0.315   3.935  0.1627 -0.0926  0.2494
 5886SOL    HW129294   0.378   0.355   3.951  0.3966 -0.5847  0.2204
 5886SOL    HW229295   0.314   0.250   3.868 -2.3304 -1.6584  0.9642
 5887SOL     OW29296   4.385   3.130   2.387 -0.0339  0.2867  0.5426
 5887SOL    HW129297   4.411   3.117   2.296  0.8095 -0.8371  0.9423
 5887SOL    HW229298   4.461   3.086   2.425 -1.3578 -1.4353  1.2360
 5888SOL     OW29299   3.887   3.495   4.581  0.0041 -0.0922 -0.0885
 5888SOL    HW129300   3.814   3.555   4.597  0.8000  0.6792  0.6123
 5888SOL    HW229301   3.879   3.466   4.490  2.9512  1.9477 -1.0040
 5889SOL     OW29302   4.511   2.614   3.134 -0.9421 -0.2408 -0.1186
 5889SOL    HW129303   4.466   2.668   3.199 -0.2484 -1.0413  1.0202
 5889SOL    HW229304   4.511   2.680   3.064  0.4822  0.3623  0.4610
 5890SOL     OW29305   3.262   3.971   5.305 -0.0222 -0.5842 -0.1170
 5890SOL    HW129306   3.339   3.964   5.361 -0.3532 -3.3623  0.0075
 5890SOL    HW229307   3.197   3.995   5.371  1.0515 -1.0627  1.1089
 5891SOL     OW29308   3.178   2.719  11.843  0.1555  0.2958  0.1423
 5891SOL    HW129309   3.220   2.803  11.860  1.9352 -0.6506  0.5000
 5891SOL    HW229310   3.186   2.721  11.747 -1.5940  0.2964  0.0011
 5892SOL     OW29311   1.371   1.373   6.594 -0.2474 -0.2996 -0.1987
 5892SOL    HW129312   1.439   1.367   6.662 -1.3271  1.6072  1.0345
 5892SOL    HW229313   1.292   1.351   6.643 -2.3010  1.7706 -2.5615
 5893SOL     OW29314   3.844   3.652  16.345  0.6105 -0.3168 -0.0090
 5893SOL    HW129315   3.866   3.744  16.329  1.2173 -0.3971  0.3489
 5893SOL    HW229316   3.784   3.633  16.273 -0.8750 -0.2238  1.2028
 5894SOL     OW29317   3.763   4.406   7.289 -0.1403 -0.0098  0.0415
 5894SOL    HW129318   3.749   4.500   7.290  0.5173  0.0880  0.2465
 5894SOL    HW229319   3.732   4.394   7.200 -0.0332  0.6197 -0.0812
 5895SOL     OW29320   1.556   0.595  13.740 -0.3342  0.0828 -0.2918
 5895SOL    HW129321   1.505   0.663  13.697 -0.4788 -0.1087 -0.4208
 5895SOL    HW229322   1.628   0.648  13.776 -0.4536  1.1365 -1.6267
 5896SOL     OW29323   1.287   4.234   8.481  0.4082  0.3703  0.1595
 5896SOL    HW129324   1.287   4.271   8.392 -1.8678  0.3306  0.1442
 5896SOL    HW229325   1.376   4.256   8.506  0.0656  0.5547  1.1997
 5897SOL     OW29326   2.315   1.890   4.947  0.3834  0.1510 -0.1789
 5897SOL    HW129327   2.301   1.799   4.975 -0.8872 -0.4443 -2.7490
 5897SOL    HW229328   2.341   1.933   5.028 -1.7194  1.8568 -0.4117
 5898SOL     OW29329   0.436   0.235  15.004  0.4134  0.1989  0.4490
 5898SOL    HW129330   0.509   0.250  15.065 -0.4856  0.9923  1.3323
 5898SOL    HW229331   0.484   0.191  14.934  1.7014  0.4369  1.1756
 5899SOL     OW29332   0.723   2.385   2.013 -0.5725  0.2939  0.0155
 5899SOL    HW129333   0.700   2.477   2.023 -0.4220  0.3085  0.2258
 5899SOL    HW229334   0.811   2.381   2.050  0.1013 -0.6978 -1.7206
 5900SOL     OW29335   1.594   1.987   2.100  0.2125 -0.3739  0.1536
 5900SOL    HW129336   1.627   2.074   2.077  2.8718 -2.0992 -2.6228
 5900SOL    HW229337   1.505   1.986   2.065 -0.0386  1.4224  0.7246
 5901SOL     OW29338   2.050   0.040   5.843 -0.3102  0.0354 -0.6947
 5901SOL    HW129339   2.076   4.687   5.812  1.2427  0.9668 -1.9948
 5901SOL    HW229340   1.968   0.053   5.796 -2.3642 -1.7709  2.3364
 5902SOL     OW29341   2.482   2.063   2.967 -0.1675  0.2036 -0.3706
 5902SOL    HW129342   2.394   2.062   2.929 -0.3211 -0.2008 -0.0073
 5902SOL    HW229343   2.532   2.007   2.907 -0.5756 -1.1661  0.5595
 5903SOL     OW29344   3.180   1.120   8.317  0.4992 -0.1867  0.9694
 5903SOL    HW129345   3.127   1.079   8.385  0.6442  0.0481  1.2228
 5903SOL    HW229346   3.256   1.136   8.373  0.8217  2.0843 -0.1087
 5904SOL     OW29347   3.522   0.537   2.084  0.0691  0.1541 -0.1194
 5904SOL    HW129348   3.440   0.554   2.038 -0.0343  1.7735  0.6879
 5904SOL    HW229349   3.543   0.629   2.098 -0.8073  0.6656 -2.1000
 5905SOL     OW29350   0.805   0.381  13.193  0.2760  0.0443  0.0202
 5905SOL    HW129351   0.820   0.295  13.232 -1.7727 -0.8052 -1.0701
 5905SOL    HW229352   0.859   0.443  13.242 -1.3340 -1.5886  3.8754
 5906SOL     OW29353   3.121   3.007   0.873 -0.3435  0.1698  0.2293
 5906SOL    HW129354   3.151   2.944   0.939 -0.7507 -1.5001 -1.1838
 5906SOL    HW229355   3.135   3.088   0.922  0.7789 -0.1233  0.3962
 5907SOL     OW29356   4.658   3.439   9.303 -0.3784  0.3968  0.7788
 5907SOL    HW129357   0.003   3.491   9.289 -0.7734  1.1766  1.4102
 5907SOL    HW229358   4.590   3.471   9.244 -0.9906 -0.6768  0.8915
 5908SOL     OW29359   2.733   4.314   5.743  0.0270 -0.5521 -0.4763
 5908SOL    HW129360   2.812   4.350   5.703  1.7898 -1.6655  2.0287
 5908SOL    HW229361   2.728   4.363   5.825 -0.8585  1.2052 -1.5657
 5909SOL     OW29362   4.498   0.430   3.916 -0.2182 -0.0321 -0.3636
 5909SOL    HW129363   4.488   0.374   3.840 -1.5999 -2.5175  1.6646
 5909SOL    HW229364   4.563   0.483   3.869 -0.8419  0.7999 -0.2932
 5910SOL     OW29365   2.145   2.724   8.696  0.3435  1.0285 -0.7481
 5910SOL    HW129366   2.160   2.718   8.790 -1.0268  0.7195 -0.5488
 5910SOL    HW229367   2.065   2.776   8.690 -1.9215 -2.3939  0.2489
 5911SOL     OW29368   0.469   4.237  15.066  0.2449 -0.1745 -0.5354
 5911SOL    HW129369   0.489   4.231  14.973 -0.8031 -1.3746 -0.6759
 5911SOL    HW229370   0.539   4.292  15.102  1.2556 -0.7177 -1.6790
 5912SOL     OW29371   4.478   1.985   8.922  0.1725  0.6214  0.3837
 5912SOL    HW129372   4.527   1.907   8.948 -1.9687 -0.2117  1.9467
 5912SOL    HW229373   4.420   1.993   8.998  0.1121  0.6509  0.3343
 5913SOL     OW29374   0.223   1.100  11.749  0.0121  0.2520 -0.4659
 5913SOL    HW129375   0.281   1.176  11.741 -0.1246  0.4063  0.0618
 5913SOL    HW229376   0.269   1.045  11.812 -0.6022 -0.0384 -0.2701
 5914SOL     OW29377   1.938   2.070   7.669 -0.1218  0.1737  0.1532
 5914SOL    HW129378   1.981   2.136   7.724 -0.9120  0.8401 -0.0304
 5914SOL    HW229379   1.983   2.074   7.585 -1.6789  1.8498 -0.5896
 5915SOL     OW29380   3.711   1.327   2.234 -0.4471 -0.1951 -0.0852
 5915SOL    HW129381   3.798   1.368   2.237 -0.8191  0.5212  1.0643
 5915SOL    HW229382   3.718   1.282   2.150 -0.0933 -0.7451  0.2472
 5916SOL     OW29383   2.557   0.757   3.529  0.0182 -0.1237 -0.4031
 5916SOL    HW129384   2.474   0.797   3.504 -1.2837 -2.8838 -0.5468
 5916SOL    HW229385   2.598   0.742   3.444  0.4772 -0.3865 -0.1368
 5917SOL     OW29386   2.468   0.986   4.101 -0.4495  0.1440 -0.3052
 5917SOL    HW129387   2.447   1.066   4.149  0.4370  0.2421 -0.0785
 5917SOL    HW229388   2.499   1.021   4.017  0.6484 -2.0681 -0.8163
 5918SOL     OW29389   4.571   2.887   4.294 -0.5284  0.4532 -0.8363
 5918SOL    HW129390   4.642   2.939   4.332  0.0719  0.0202 -1.3614
 5918SOL    HW229391   4.545   2.844   4.376 -1.0023 -0.3498 -1.3984
 5919SOL     OW29392   1.457   3.426   9.013  0.5828  0.2464  0.2592
 5919SOL    HW129393   1.404   3.353   8.982 -0.4670 -0.4433  3.6456
 5919SOL    HW229394   1.463   3.476   8.932  0.8372  0.3597  0.3475
 5920SOL     OW29395   0.359   0.335   2.424  0.6308 -0.4221 -0.4658
 5920SOL    HW129396   0.410   0.259   2.453  1.6836  0.0472 -1.0602
 5920SOL    HW229397   0.378   0.393   2.498  2.4870  0.8757 -1.9309
 5921SOL     OW29398   3.276   1.908  13.605  0.1660 -0.7053 -0.2112
 5921SOL    HW129399   3.290   1.889  13.512 -1.3447 -0.6366 -0.4505
 5921SOL    HW229400   3.328   1.834  13.637  0.3340 -0.6184 -0.2809
 5922SOL     OW29401   3.007   2.505   2.803 -0.2046 -0.4228  0.0909
 5922SOL    HW129402   2.982   2.542   2.718 -1.3577  0.3392  0.7578
 5922SOL    HW229403   2.941   2.435   2.801 -2.2871  1.4593  2.3397
 5923SOL     OW29404   1.964   3.027   5.728 -0.5836 -0.1709 -0.5246
 5923SOL    HW129405   1.963   3.112   5.772 -1.7312  0.0030 -0.8958
 5923SOL    HW229406   1.876   2.994   5.745 -0.8162  1.0305  0.6150
 5924SOL     OW29407   3.071   0.825   1.934  0.0724  0.1074  0.6896
 5924SOL    HW129408   3.118   0.891   1.984 -1.1773  0.3883  1.4948
 5924SOL    HW229409   3.094   0.837   1.842  0.2634 -0.4918  0.6564
 5925SOL     OW29410   2.628   3.563   7.337  0.5228  0.1596  0.1050
 5925SOL    HW129411   2.553   3.552   7.278  0.3036 -1.1040  0.6338
 5925SOL    HW229412   2.698   3.571   7.272  0.1164 -2.7901 -0.6858
 5926SOL     OW29413   4.541   4.662   1.815  0.0212  0.1508 -0.4486
 5926SOL    HW129414   4.520   4.627   1.902 -0.9003  0.2463 -0.6415
 5926SOL    HW229415   4.569   4.575   1.787 -2.4418 -0.0917 -2.0910
 5927SOL     OW29416   0.123   0.783   2.015 -0.8444  0.5631  0.3140
 5927SOL    HW129417   0.044   0.729   2.006  0.3980 -1.1035 -0.6868
 5927SOL    HW229418   0.189   0.739   1.961 -0.6752  0.1924  0.8217
 5928SOL     OW29419   1.134   3.561   9.184 -0.0077 -0.3776 -0.4579
 5928SOL    HW129420   1.055   3.602   9.218  0.9249  1.4800 -0.5630
 5928SOL    HW229421   1.093   3.514   9.111 -1.2254 -1.7392  1.0869
 5929SOL     OW29422   1.659   4.260   2.101 -0.1285  0.8268  0.6377
 5929SOL    HW129423   1.588   4.305   2.147  0.1014  1.9234 -0.0668
 5929SOL    HW229424   1.660   4.299   2.013 -0.6338  0.1189  0.3154
 5930SOL     OW29425   4.537   3.633   5.072 -0.3174  0.8318 -0.0533
 5930SOL    HW129426   4.594   3.607   5.000 -1.0637  1.6517 -0.9499
 5930SOL    HW229427   4.554   3.565   5.136  2.5518 -0.3217 -2.0245
 5931SOL     OW29428   0.357   3.864   8.601  0.4002 -0.9423 -0.4659
 5931SOL    HW129429   0.320   3.886   8.686  1.0223 -3.3981  0.4468
 5931SOL    HW229430   0.417   3.937   8.587 -1.6557  0.4066 -2.1512
 5932SOL     OW29431   1.331   3.601   4.962 -0.4152 -0.0394  0.0669
 5932SOL    HW129432   1.411   3.575   4.916  0.4169 -0.4648  1.7638
 5932SOL    HW229433   1.326   3.695   4.944  1.7208  0.8500  4.0715
 5933SOL     OW29434   2.403   4.631  14.422  0.4861  0.4023  0.1365
 5933SOL    HW129435   2.496   4.638  14.443  0.6479  0.4268 -0.5854
 5933SOL    HW229436   2.380   4.593  14.506  0.0753 -0.2447 -0.2660
 5934SOL     OW29437   3.871   3.792   4.418 -0.3533  0.1892 -0.1459
 5934SOL    HW129438   3.863   3.877   4.373 -1.5685 -0.0817 -0.4404
 5934SOL    HW229439   3.936   3.750   4.361 -0.4651 -0.2660  0.0634
 5935SOL     OW29440   0.329   0.897  10.217 -0.1894 -0.4285 -0.2306
 5935SOL    HW129441   0.330   0.801  10.226  0.7537 -0.5465 -1.6222
 5935SOL    HW229442   0.388   0.926  10.287 -0.4561 -2.7125  0.9386
 5936SOL     OW29443   1.604   1.498   4.473 -0.3761 -0.0178  0.0832
 5936SOL    HW129444   1.693   1.513   4.443 -0.1571  1.4847  1.4720
 5936SOL    HW229445   1.571   1.440   4.405  1.6411 -0.7068 -0.3075
 5937SOL     OW29446   3.852   1.813  11.109  0.3770 -1.1408 -0.0059
 5937SOL    HW129447   3.800   1.893  11.103 -1.0574 -2.0980 -0.6041
 5937SOL    HW229448   3.943   1.840  11.114  0.9160 -3.0710  0.7989
 5938SOL     OW29449   3.686   4.355   8.066  0.4873 -0.7571  0.3787
 5938SOL    HW129450   3.642   4.305   8.134  0.1233  1.8963  2.0802
 5938SOL    HW229451   3.734   4.290   8.013 -1.3129 -1.9712  0.2470
 5939SOL     OW29452   1.430   1.362  16.734 -0.6914  0.2923  0.2555
 5939SOL    HW129453   1.379   1.281  16.743  1.0102 -0.7041  0.9216
 5939SOL    HW229454   1.367   1.420  16.690 -2.8060 -2.6383 -0.5973
 5940SOL     OW29455   4.469   4.337   8.993  0.1765  0.2891  0.1398
 5940SOL    HW129456   4.374   4.327   9.001  0.1178  0.1667 -0.7697
 5940SOL    HW229457   4.485   4.405   9.059  1.0326  1.6714 -1.5014
 5941SOL     OW29458   3.568   0.211   8.214 -0.0501  0.0661 -0.1366
 5941SOL    HW129459   3.527   0.144   8.161  1.8957 -0.6194 -0.7861
 5941SOL    HW229460   3.657   0.174   8.213  0.1814  0.6130  0.0277
 5942SOL     OW29461   2.037   0.460  14.532 -0.0212 -0.0661  0.9198
 5942SOL    HW129462   2.053   0.537  14.587  0.9564  0.1208  0.3652
 5942SOL    HW229463   1.958   0.421  14.568 -0.5032 -1.1200 -1.3018
 5943SOL     OW29464   1.958   3.628   5.182  0.4587  0.3295  0.8210
 5943SOL    HW129465   1.874   3.582   5.188  1.3388 -1.6934 -2.0860
 5943SOL    HW229466   2.005   3.586   5.254  0.7843 -0.3515  0.2092
 5944SOL     OW29467   2.256   4.526  16.330  0.3878 -0.0418 -0.5426
 5944SOL    HW129468   2.287   4.461  16.267 -1.3575 -0.4400 -0.9825
 5944SOL    HW229469   2.164   4.499  16.329  0.9173 -1.9076  0.5708
 5945SOL     OW29470   3.224   0.463   2.689 -0.1872 -0.4733  0.3228
 5945SOL    HW129471   3.297   0.401   2.701  0.5814  0.6424  1.4594
 5945SOL    HW229472   3.178   0.453   2.773 -0.9747 -0.2603 -0.0932
 5946SOL     OW29473   2.538   2.581  14.358 -0.5668  0.0998 -0.3032
 5946SOL    HW129474   2.572   2.663  14.323  0.1807 -1.1900 -2.5657
 5946SOL    HW229475   2.608   2.541  14.409 -0.7992  0.9094  0.6388
 5947SOL     OW29476   0.761   4.616   8.499  0.2222 -0.0370  0.4090
 5947SOL    HW129477   0.840   4.665   8.476  0.2430 -0.6670 -0.8496
 5947SOL    HW229478   0.688   4.667   8.462  1.1829 -1.0765 -2.8897
 5948SOL     OW29479   3.761   2.602   4.371 -0.0243  0.0676 -0.0650
 5948SOL    HW129480   3.813   2.659   4.314 -0.0365 -0.6021 -0.7520
 5948SOL    HW229481   3.671   2.633   4.360 -0.0264  0.6284  1.5687
 5949SOL     OW29482   1.041   1.505   0.610 -0.9914  0.0069 -0.3798
 5949SOL    HW129483   1.054   1.424   0.561 -0.6447  0.4703 -1.0683
 5949SOL    HW229484   1.061   1.568   0.540 -0.7986 -0.3938 -0.6830
 5950SOL     OW29485   4.053   1.380  12.053 -0.3850 -0.8259 -0.3062
 5950SOL    HW129486   4.052   1.407  11.961 -2.1774 -1.5843 -0.5125
 5950SOL    HW229487   3.959   1.385  12.071 -0.2518  1.7261 -0.2298
 5951SOL     OW29488   1.715   1.652  13.454 -0.0229 -0.2640 -0.4503
 5951SOL    HW129489   1.805   1.672  13.481 -0.1022 -1.7145  0.8709
 5951SOL    HW229490   1.702   1.711  13.380 -1.7880  2.4970  2.0520
 5952SOL     OW29491   0.271   4.005   6.550 -0.1895 -0.5928  0.3702
 5952SOL    HW129492   0.340   4.068   6.566  0.8938 -1.5906 -0.3891
 5952SOL    HW229493   0.217   4.001   6.629  0.8285 -0.7908  1.0457
 5953SOL     OW29494   2.057   0.203   6.070  0.2115  0.0746 -0.7259
 5953SOL    HW129495   2.130   0.263   6.056  0.0338 -0.1314 -2.4882
 5953SOL    HW229496   2.056   0.146   5.993  0.9313  0.9008 -1.3514
 5954SOL     OW29497   2.945   1.495  11.977 -1.0734 -0.1180  0.3527
 5954SOL    HW129498   2.891   1.571  11.998 -0.6609  0.3902 -0.4159
 5954SOL    HW229499   2.979   1.466  12.062 -3.1782  0.3580  1.3479
 5955SOL     OW29500   0.067   3.508   5.267 -0.6054  0.2572 -0.1047
 5955SOL    HW129501   4.720   3.460   5.248  1.0123 -2.5075 -0.0510
 5955SOL    HW229502   0.129   3.468   5.206 -0.9385 -0.8868  0.2903
 5956SOL     OW29503   0.651   4.183   7.421  0.0461  0.0299 -0.5777
 5956SOL    HW129504   0.647   4.224   7.335  0.5918 -0.8220 -1.0103
 5956SOL    HW229505   0.594   4.246   7.466 -0.4777  0.0523 -1.2717
 5957SOL     OW29506   4.143   3.695   9.145  0.4407  0.9416 -0.0355
 5957SOL    HW129507   4.150   3.790   9.135  0.0594  1.1125  1.4108
 5957SOL    HW229508   4.186   3.688   9.230 -1.8749  0.5189  1.1005
 5958SOL     OW29509   1.427   1.918   3.321  0.7166 -0.2902 -0.1864
 5958SOL    HW129510   1.466   1.832   3.308  0.4242 -0.7655  2.2030
 5958SOL    HW229511   1.394   1.903   3.409 -0.1434 -1.4387 -0.6948
 5959SOL     OW29512   1.199   3.965   8.441  0.0717  0.0751  0.3935
 5959SOL    HW129513   1.215   4.043   8.493  1.3461  0.6902 -0.9189
 5959SOL    HW229514   1.107   3.969   8.412  0.8151  2.5893 -1.5580
 5960SOL     OW29515   1.835   0.111   0.256 -0.1170 -0.1518 -0.6674
 5960SOL    HW129516   1.881   0.042   0.209 -0.9374 -0.1189 -1.5254
 5960SOL    HW229517   1.787   0.065   0.324 -0.3548  1.6107  0.3625
 5961SOL     OW29518   3.194   0.627   7.285 -0.2097 -0.7451  0.3092
 5961SOL    HW129519   3.146   0.605   7.364  0.3777 -1.0749  0.5743
 5961SOL    HW229520   3.137   0.605   7.211  2.0891 -2.9859 -0.8023
 5962SOL     OW29521   2.394   3.174   7.923 -0.0447 -0.5127 -0.4521
 5962SOL    HW129522   2.315   3.125   7.901 -0.1997 -0.0707 -0.8653
 5962SOL    HW229523   2.375   3.256   7.877  0.2127 -0.2114 -0.0206
 5963SOL     OW29524   4.659   4.600   4.100 -0.2791 -0.1191  0.3116
 5963SOL    HW129525   4.649   4.611   4.194 -0.3272  3.0986 -0.0646
 5963SOL    HW229526   0.020   4.589   4.091  0.1801  1.9335  2.5729
 5964SOL     OW29527   2.490   1.200   6.891  0.2916  0.4219  0.0352
 5964SOL    HW129528   2.466   1.241   6.974 -0.6323 -0.2820  0.0991
 5964SOL    HW229529   2.555   1.263   6.858 -0.5495  1.8755  1.1344
 5965SOL     OW29530   4.560   2.913   2.440 -0.3388 -0.3215 -0.4101
 5965SOL    HW129531   4.542   2.827   2.477  2.5860 -1.0756 -0.7759
 5965SOL    HW229532   4.645   2.924   2.482  0.4276 -0.1289 -2.0011
 5966SOL     OW29533   3.783   2.717  15.824 -0.5845  0.1433 -0.4426
 5966SOL    HW129534   3.807   2.766  15.902  0.9667  1.4685 -1.7325
 5966SOL    HW229535   3.789   2.625  15.849  0.1859  0.0097 -1.1035
 5967SOL     OW29536   1.010   4.491  10.558  0.5380 -0.1585  0.1358
 5967SOL    HW129537   1.021   4.472  10.651  1.9592 -0.6225 -0.1341
 5967SOL    HW229538   1.030   4.409  10.513 -1.5311  0.1846 -1.4164
 5968SOL     OW29539   0.237   4.379   7.390  0.2555  0.2884  0.4590
 5968SOL    HW129540   0.168   4.389   7.457 -1.3449  1.3967 -1.3568
 5968SOL    HW229541   0.274   4.468   7.389  0.9456  0.0184  1.7163
 5969SOL     OW29542   3.895   3.175   0.721  0.5076  0.4156  0.4551
 5969SOL    HW129543   3.976   3.171   0.670  0.2086  3.0908 -0.2434
 5969SOL    HW229544   3.880   3.082   0.737  1.6761  0.4628  1.8052
 5970SOL     OW29545   3.658   3.471   6.037  0.0897 -0.0183  0.1799
 5970SOL    HW129546   3.580   3.493   6.086 -0.9210  3.8084 -3.1446
 5970SOL    HW229547   3.626   3.408   5.973 -2.9451  0.8694  0.8528
 5971SOL     OW29548   3.261   0.087   3.180 -0.0034 -0.0557 -0.2340
 5971SOL    HW129549   3.305   0.003   3.187 -2.5698 -1.5137 -1.6759
 5971SOL    HW229550   3.308   0.131   3.252 -0.8730 -0.2922  0.4744
 5972SOL     OW29551   1.159   4.014   9.317 -0.2940 -0.2587  0.0873
 5972SOL    HW129552   1.162   4.097   9.365  0.0972 -0.2450  0.0442
 5972SOL    HW229553   1.066   3.998   9.307 -0.5466  1.5829 -0.4237
 5973SOL     OW29554   4.157   1.689   3.954  0.0850 -0.0085  0.2592
 5973SOL    HW129555   4.116   1.723   3.874 -0.8139 -0.7098  0.4242
 5973SOL    HW229556   4.138   1.596   3.965  0.4003 -0.1913 -0.7822
 5974SOL     OW29557   1.549   1.562   3.501 -0.0231 -0.7993  0.0934
 5974SOL    HW129558   1.641   1.576   3.523 -0.1477  0.9872 -0.5180
 5974SOL    HW229559   1.503   1.612   3.567 -0.7182  1.4377 -2.0715
 5975SOL     OW29560   3.775   3.232  12.014  0.3798 -0.5124 -0.0884
 5975SOL    HW129561   3.846   3.233  11.951 -1.4177  1.2132 -2.0931
 5975SOL    HW229562   3.759   3.323  12.040  4.2086 -0.1593  0.9834
 5976SOL     OW29563   0.628   3.318   9.752 -0.0831 -0.0196  0.2770
 5976SOL    HW129564   0.712   3.330   9.707 -1.4583 -1.0801 -2.6413
 5976SOL    HW229565   0.639   3.250   9.818 -0.0803  1.1234  1.4316
 5977SOL     OW29566   2.280   4.026   4.739  0.2209 -0.2396  0.3564
 5977SOL    HW129567   2.337   3.985   4.673 -0.6173 -0.1507 -0.4375
 5977SOL    HW229568   2.338   4.016   4.814 -0.3511 -1.6578  0.6179
 5978SOL     OW29569   2.741   2.486   8.116  0.5503 -0.8113  0.1276
 5978SOL    HW129570   2.728   2.581   8.113 -1.5630 -1.0746  1.0165
 5978SOL    HW229571   2.656   2.460   8.150 -0.6586 -0.2931 -2.5750
 5979SOL     OW29572   2.798   1.529   7.706  0.2291  0.2027  0.2479
 5979SOL    HW129573   2.883   1.514   7.664  1.5919  1.8551  2.4658
 5979SOL    HW229574   2.811   1.471   7.780  1.3054  1.0419  0.7237
 5980SOL     OW29575   3.407   2.936   5.582  0.0234  0.0474  0.3962
 5980SOL    HW129576   3.444   2.892   5.657 -0.4838 -1.3448 -0.1795
 5980SOL    HW229577   3.474   3.003   5.570 -1.0457  0.9335 -0.7354
 5981SOL     OW29578   1.893   0.906   3.635 -0.4947 -0.3569  0.2528
 5981SOL    HW129579   1.810   0.952   3.631 -0.1999  0.0612 -0.9014
 5981SOL    HW229580   1.936   0.939   3.714 -0.3099  0.2911 -0.1203
 5982SOL     OW29581   1.074   2.692   8.639  0.7916 -0.1714 -0.3653
 5982SOL    HW129582   1.005   2.740   8.685  1.3289 -0.1628  0.4318
 5982SOL    HW229583   1.020   2.647   8.574 -0.1234  0.6379 -0.1697
 5983SOL     OW29584   3.192   2.273   8.939 -0.4323  0.3353  0.7711
 5983SOL    HW129585   3.281   2.256   8.907 -1.2773  0.3345 -1.5993
 5983SOL    HW229586   3.131   2.239   8.874  0.2468 -0.7079  0.6903
 5984SOL     OW29587   2.458   1.756   0.751 -0.4331  0.3255  0.3585
 5984SOL    HW129588   2.497   1.816   0.687  1.3301  1.6674  2.6647
 5984SOL    HW229589   2.533   1.750   0.811 -0.3343 -0.9317  0.1041
 5985SOL     OW29590   0.192   1.243  10.838  0.5565 -0.1384 -0.1341
 5985SOL    HW129591   0.130   1.293  10.891  0.6107 -0.0821 -0.1249
 5985SOL    HW229592   0.176   1.154  10.870 -3.6499  0.4873 -0.4927
 5986SOL     OW29593   4.257   3.802   2.283 -0.7507  0.7682 -0.5415
 5986SOL    HW129594   4.245   3.885   2.237  0.8449  2.0859  1.4453
 5986SOL    HW229595   4.236   3.744   2.209  2.7303 -2.7116  1.1998
 5987SOL     OW29596   1.375   1.698   7.163  0.4655  0.1837 -0.5742
 5987SOL    HW129597   1.412   1.741   7.086 -1.0914 -1.3568 -2.1854
 5987SOL    HW229598   1.382   1.604   7.144 -0.0715 -0.6227  3.3657
 5988SOL     OW29599   1.285   3.805   0.922 -0.0289 -0.8010  0.2528
 5988SOL    HW129600   1.269   3.897   0.902  1.7153 -0.2182  1.5082
 5988SOL    HW229601   1.247   3.795   1.010 -1.8637  0.9013 -0.3334
 5989SOL     OW29602   1.846   1.769   4.289  0.2435  0.1939  0.4714
 5989SOL    HW129603   1.828   1.683   4.252  1.6739 -0.2872  0.8689
 5989SOL    HW229604   1.775   1.810   4.240 -0.1908 -0.3550  0.6455
 5990SOL     OW29605   3.797   3.103   8.178 -0.1245  0.1472 -0.2539
 5990SOL    HW129606   3.796   3.119   8.273  0.3402 -1.2510 -0.0210
 5990SOL    HW229607   3.710   3.134   8.151  0.9386  2.4909 -1.0248
 5991SOL     OW29608   2.818   4.554   2.650  0.4334  0.3615 -0.5112
 5991SOL    HW129609   2.867   4.601   2.719 -1.4709  2.0336 -0.3084
 5991SOL    HW229610   2.728   4.561   2.679  1.1856 -1.3417  2.2741
 5992SOL     OW29611   3.260   3.395   3.812 -0.0653 -0.4386 -0.3903
 5992SOL    HW129612   3.219   3.479   3.789  0.0858 -0.2939 -0.1303
 5992SOL    HW229613   3.307   3.369   3.734  2.3172 -2.3836  1.7072
 5993SOL     OW29614   0.868   3.396   1.961  0.1319  0.6246  0.1085
 5993SOL    HW129615   0.915   3.453   1.900  1.6847 -1.6477 -0.8433
 5993SOL    HW229616   0.823   3.454   2.021  0.2724  0.5733  0.2652
 5994SOL     OW29617   2.110   0.870   3.988 -0.1415  0.2015  0.7375
 5994SOL    HW129618   2.086   0.923   3.912  0.9481 -1.1652 -0.5822
 5994SOL    HW229619   2.037   0.809   3.986  0.2400 -0.3033  1.8929
 5995SOL     OW29620   1.337   3.598   1.873 -0.2093 -0.4318 -0.7186
 5995SOL    HW129621   1.412   3.652   1.898 -0.3072 -0.7251  0.2005
 5995SOL    HW229622   1.378   3.512   1.868  0.2531 -0.2945  0.7411
 5996SOL     OW29623   1.469   3.913   3.086  0.2254  0.3054  0.3578
 5996SOL    HW129624   1.463   3.869   3.001 -2.1297 -0.2365  0.8098
 5996SOL    HW229625   1.440   4.004   3.075  0.3138  0.1552 -1.1647
 5997SOL     OW29626   1.721   4.481   8.456 -0.2139 -0.1966 -0.2703
 5997SOL    HW129627   1.714   4.419   8.383 -0.5089  0.8839 -1.1701
 5997SOL    HW229628   1.718   4.426   8.534 -0.5597  0.0013 -0.1427
 5998SOL     OW29629   1.128   4.048   4.541 -0.0241  0.0979 -0.7701
 5998SOL    HW129630   1.197   4.080   4.599 -0.2542 -0.8229  0.0075
 5998SOL    HW229631   1.175   3.991   4.479  0.6520 -0.0847 -0.0937
 5999SOL     OW29632   1.701   1.257   4.737 -0.3024  0.5075  0.2134
 5999SOL    HW129633   1.664   1.207   4.664  0.6458  0.2693 -0.0999
 5999SOL    HW229634   1.782   1.213   4.761 -1.2824 -1.0734  0.5726
 6000SOL     OW29635   1.888   4.273   2.760 -0.3293  0.6282 -0.2687
 6000SOL    HW129636   1.829   4.317   2.820 -0.2160 -0.6568  0.7868
 6000SOL    HW229637   1.959   4.250   2.820 -1.5590  0.0158  0.9535
 6001SOL     OW29638   0.672   0.140   7.899 -0.0849  0.0597  0.6641
 6001SOL    HW129639   0.591   0.099   7.869  2.0127 -3.4732 -0.1025
 6001SOL    HW229640   0.679   0.103   7.986 -0.0371 -0.5343  0.4038
 6002SOL     OW29641   1.060   2.590   7.068 -0.1727  0.2177 -0.0053
 6002SOL    HW129642   1.027   2.609   7.155  0.4009  2.7325 -0.3387
 6002SOL    HW229643   1.133   2.650   7.052  0.6623 -0.8744 -0.3092
 6003SOL     OW29644   3.166   2.440   5.237 -0.0944  0.0810  0.3420
 6003SOL    HW129645   3.163   2.533   5.263 -1.3259 -0.3328  1.6941
 6003SOL    HW229646   3.196   2.402   5.320 -3.4898 -0.9785  1.0572
 6004SOL     OW29647   2.022   1.322  11.682 -0.2385  0.3483  0.6903
 6004SOL    HW129648   2.091   1.302  11.619 -0.4290 -1.8410  1.1851
 6004SOL    HW229649   1.947   1.277  11.643  1.8488 -0.8395 -1.9703
 6005SOL     OW29650   0.402   2.883   5.381  0.3623  0.5980  0.4738
 6005SOL    HW129651   0.395   2.821   5.308 -2.6331  1.6820 -0.1661
 6005SOL    HW229652   0.433   2.959   5.333 -0.2765  0.8476  0.4598
 6006SOL     OW29653   3.210   1.626   2.411 -0.3097 -0.0125 -0.4875
 6006SOL    HW129654   3.191   1.644   2.503  1.9095 -1.3710  0.2484
 6006SOL    HW229655   3.300   1.658   2.402 -0.3274 -0.2802 -1.5673
 6007SOL     OW29656   1.125   1.054   0.430  0.3173 -0.2409  0.5340
 6007SOL    HW129657   1.170   1.137   0.411 -0.3724  0.3436  1.4565
 6007SOL    HW229658   1.034   1.077   0.446  0.6463 -1.0725  3.4918
 6008SOL     OW29659   2.572   4.726   8.399 -0.3176 -0.0371  0.1203
 6008SOL    HW129660   2.613   0.058   8.343  0.3612  1.0749  1.9155
 6008SOL    HW229661   2.481   4.733   8.369 -0.4408 -0.7662  0.3267
 6009SOL     OW29662   1.561   1.141   5.078 -0.0145  0.1307 -0.4070
 6009SOL    HW129663   1.626   1.173   5.016  1.8001 -0.2559  1.2961
 6009SOL    HW229664   1.612   1.137   5.159 -0.4200  1.3755 -0.0882
 6010SOL     OW29665   1.457   0.498  11.137  0.4197  0.2239 -0.9591
 6010SOL    HW129666   1.415   0.482  11.053 -2.3564  1.3178  0.2272
 6010SOL    HW229667   1.394   0.469  11.203  0.2289  1.6618 -0.5004
 6011SOL     OW29668   1.561   3.336   3.222 -0.0527 -0.1101  0.4518
 6011SOL    HW129669   1.551   3.401   3.152  1.5200  0.0282  0.3473
 6011SOL    HW229670   1.576   3.404   3.287 -4.0994 -1.3628  2.6983
 6012SOL     OW29671   4.263   0.600   6.036 -0.1588  0.4915  0.6485
 6012SOL    HW129672   4.189   0.554   5.997  0.2387 -0.4622  1.0317
 6012SOL    HW229673   4.270   0.679   5.982 -0.7971  1.1031  1.4509
 6013SOL     OW29674   2.954   0.776   8.443  0.1717 -0.3358 -0.3201
 6013SOL    HW129675   2.946   0.694   8.491 -0.4845  2.1968  3.8389
 6013SOL    HW229676   2.862   0.801   8.445  0.3001  0.0531  0.5313
 6014SOL     OW29677   1.458   1.561  13.515 -0.1430 -0.0509  0.9035
 6014SOL    HW129678   1.548   1.583  13.492 -0.4363 -1.4053 -1.5731
 6014SOL    HW229679   1.409   1.624  13.461 -2.2220 -2.4705 -0.0649
 6015SOL     OW29680   2.862   3.138   9.314 -1.0659 -0.0812  0.6341
 6015SOL    HW129681   2.912   3.056   9.316 -1.7839 -0.4593  3.0706
 6015SOL    HW229682   2.809   3.129   9.235 -0.4606 -1.2620  0.3662
 6016SOL     OW29683   3.440   1.838   5.796  0.5943 -0.1402 -0.5321
 6016SOL    HW129684   3.453   1.803   5.708  0.2360 -0.4876 -0.4446
 6016SOL    HW229685   3.346   1.854   5.794  0.4260 -1.0698 -0.0792
 6017SOL     OW29686   1.015   2.032   3.545 -0.1810 -0.3086  0.1931
 6017SOL    HW129687   1.029   1.946   3.586 -0.7037  1.2399  3.6758
 6017SOL    HW229688   1.103   2.068   3.554 -0.1134  0.0543 -2.0249
 6018SOL     OW29689   1.816   4.202   8.498  0.4676  0.0622 -0.0159
 6018SOL    HW129690   1.869   4.228   8.573  1.2755 -2.7039  0.3794
 6018SOL    HW229691   1.888   4.191   8.437  0.7144  0.6036  0.1852
 6019SOL     OW29692   2.301   4.088   1.128  0.2199 -0.6132  0.4250
 6019SOL    HW129693   2.367   4.127   1.185 -0.7088 -1.1300  1.8462
 6019SOL    HW229694   2.221   4.096   1.179  0.6315 -0.8362  1.0998
 6020SOL     OW29695   1.599   2.422   4.750 -0.2898  0.2293 -0.2803
 6020SOL    HW129696   1.681   2.469   4.766 -0.0070 -0.0553 -0.8977
 6020SOL    HW229697   1.573   2.411   4.842  4.0748 -1.6043  0.7568
 6021SOL     OW29698   4.323   0.608  17.661  0.4517 -0.0097 -0.2831
 6021SOL    HW129699   4.277   0.600  17.578 -0.2110  0.2248  0.0652
 6021SOL    HW229700   4.338   0.700  17.679 -0.2088 -0.1209  0.8396
 6022SOL     OW29701   4.492   2.508   7.347 -0.4700 -0.1789  0.1920
 6022SOL    HW129702   4.506   2.414   7.354  1.3362  0.2395  2.2154
 6022SOL    HW229703   4.407   2.507   7.303 -2.1750 -1.3521  3.4435
 6023SOL     OW29704   0.252   1.998  15.448  0.0884 -0.1241 -0.4401
 6023SOL    HW129705   0.158   2.016  15.444  0.5248  2.1139 -1.0235
 6023SOL    HW229706   0.281   2.082  15.410  1.3880 -0.2218  0.3375
 6024SOL     OW29707   2.923   4.155  13.773 -0.4215  0.0262  0.1385
 6024SOL    HW129708   2.850   4.195  13.821 -0.0067  1.4386 -0.4309
 6024SOL    HW229709   2.945   4.222  13.709 -2.4523  0.2958 -0.2567
 6025SOL     OW29710   3.452   1.652   1.135 -0.4754 -0.7129  0.1651
 6025SOL    HW129711   3.419   1.687   1.052 -1.1889 -0.0900  0.7041
 6025SOL    HW229712   3.379   1.597   1.164 -1.9818  0.6377 -1.0626
 6026SOL     OW29713   0.356   0.042   4.807  0.2202  0.4572  0.1613
 6026SOL    HW129714   0.374   4.682   4.813 -0.4751  0.2800 -0.4854
 6026SOL    HW229715   0.350   0.060   4.713  0.4090  0.2311  0.1053
 6027SOL     OW29716   1.966   4.617   0.172  0.7351 -0.2002 -0.0875
 6027SOL    HW129717   1.979   4.579   0.259 -1.0075  1.9198  1.1138
 6027SOL    HW229718   1.939   4.541   0.121  1.6947 -1.0803  0.7112
 6028SOL     OW29719   2.585   3.167   4.947 -0.7652 -0.0110  0.7364
 6028SOL    HW129720   2.636   3.087   4.963 -2.4658 -1.0613  0.9682
 6028SOL    HW229721   2.581   3.161   4.852  1.0458  0.7792  0.6197
 6029SOL     OW29722   2.389   0.848   6.487 -0.1528  0.2342  0.3052
 6029SOL    HW129723   2.419   0.782   6.424  1.0650  0.1346  0.9935
 6029SOL    HW229724   2.300   0.816   6.500  0.9518 -1.8211  2.7262
 6030SOL     OW29725   0.511   1.613  15.463 -0.3226  0.1832 -0.1471
 6030SOL    HW129726   0.538   1.681  15.401 -2.0092 -1.4085 -2.6601
 6030SOL    HW229727   0.539   1.531  15.424  1.4466 -0.6149  2.8268
 6031SOL     OW29728   3.501   4.707   9.807  0.2670 -0.3878 -0.2380
 6031SOL    HW129729   3.416   4.686   9.769 -0.1249 -0.2664  0.5623
 6031SOL    HW229730   3.485   4.668   9.893  1.7687  1.3913  0.8554
 6032SOL     OW29731   0.622   3.760  11.614 -0.1721  0.3808 -0.2358
 6032SOL    HW129732   0.567   3.694  11.656  2.0052 -1.5628 -0.4552
 6032SOL    HW229733   0.696   3.709  11.580 -2.0096 -1.4494 -1.5046
 6033SOL     OW29734   4.576   1.799   6.572 -0.8503  1.0270  0.0961
 6033SOL    HW129735   4.518   1.742   6.623 -1.6183  1.1866 -0.6061
 6033SOL    HW229736   4.597   1.745   6.496  0.9038  2.2014 -0.2551
 6034SOL     OW29737   1.361   0.076   1.325 -0.1195 -0.2803  0.3911
 6034SOL    HW129738   1.386   0.092   1.416 -1.7257 -4.1844  1.4921
 6034SOL    HW229739   1.268   0.099   1.326  0.4202  1.9429 -0.3197
 6035SOL     OW29740   2.635   4.186   6.808 -0.0630  0.5202 -0.6796
 6035SOL    HW129741   2.599   4.230   6.884  2.2756 -2.2491  2.0417
 6035SOL    HW229742   2.616   4.256   6.746 -0.7219  0.3413 -0.6766
 6036SOL     OW29743   4.009   2.627   2.653 -0.4906 -0.4196  0.4773
 6036SOL    HW129744   4.076   2.695   2.658 -0.4889 -0.5101  1.7312
 6036SOL    HW229745   3.941   2.676   2.700  0.1410  0.9312 -0.0197
 6037SOL     OW29746   2.517   4.034   3.696  0.4411 -0.1905  0.0349
 6037SOL    HW129747   2.539   4.110   3.643  2.0462 -0.5651  0.1650
 6037SOL    HW229748   2.431   4.054   3.734  0.4260  1.7431 -1.0105
 6038SOL     OW29749   0.645   4.018   2.296  0.4917  0.3001  0.3224
 6038SOL    HW129750   0.588   3.975   2.360 -1.3682  0.2835 -1.3591
 6038SOL    HW229751   0.706   3.945   2.283  0.7480  0.6699 -0.5192
 6039SOL     OW29752   1.363   0.774   2.547  0.4496  1.1233  0.8456
 6039SOL    HW129753   1.282   0.746   2.589 -0.6961  4.5493  0.8958
 6039SOL    HW229754   1.328   0.796   2.460  3.5166  0.8778 -0.4647
 6040SOL     OW29755   3.495   1.928   7.707  0.1931 -0.1694  0.3825
 6040SOL    HW129756   3.534   2.011   7.735 -0.5043 -0.2866  1.6924
 6040SOL    HW229757   3.414   1.917   7.756 -0.2376 -2.5766 -0.8515
 6041SOL     OW29758   2.619   4.636  10.521  0.1233  0.0044 -0.1058
 6041SOL    HW129759   2.654   4.723  10.538 -0.1243 -0.0949  0.8860
 6041SOL    HW229760   2.691   4.581  10.552 -1.6435 -0.6542  2.8308
 6042SOL     OW29761   4.655   4.153   2.042 -0.6339  0.7850 -0.1660
 6042SOL    HW129762   4.720   4.096   2.081 -1.3451  0.1264  0.0623
 6042SOL    HW229763   4.709   4.209   1.986  0.2515 -0.6939 -0.7955
 6043SOL     OW29764   2.612   4.431   2.285  0.2882 -0.1102 -0.0986
 6043SOL    HW129765   2.683   4.392   2.337  0.2978 -1.0688 -0.8493
 6043SOL    HW229766   2.661   4.502   2.243 -0.8286  0.5907 -0.2052
 6044SOL     OW29767   0.722   1.967  16.872 -0.4279 -0.5896  0.1278
 6044SOL    HW129768   0.772   1.977  16.791  1.2096 -2.5201  0.8790
 6044SOL    HW229769   0.793   1.976  16.936  0.0703  3.3508 -0.9813
 6045SOL     OW29770   3.451   2.303   4.086 -0.0574 -0.6546  0.2479
 6045SOL    HW129771   3.459   2.389   4.044  0.3431 -0.5843  0.4653
 6045SOL    HW229772   3.360   2.277   4.069 -0.2295  0.3394 -0.3420
 6046SOL     OW29773   0.667   1.802   8.926 -0.2648  0.0275 -0.2904
 6046SOL    HW129774   0.725   1.727   8.911 -1.5969 -1.0574 -0.0854
 6046SOL    HW229775   0.691   1.835   9.013  0.9281  0.0664 -0.6383
 6047SOL     OW29776   3.175   0.494  10.668 -0.0622  0.2569  0.4731
 6047SOL    HW129777   3.209   0.575  10.707 -1.0338  2.1338 -2.5926
 6047SOL    HW229778   3.092   0.494  10.715  0.0378  1.9813  0.6754
 6048SOL     OW29779   2.717   0.592   7.645  0.6170 -0.2711  0.0737
 6048SOL    HW129780   2.707   0.665   7.582 -1.9055 -0.1637  0.5928
 6048SOL    HW229781   2.628   0.583   7.680 -0.2649 -0.6021 -2.2397
 6049SOL     OW29782   1.392   0.021   7.549 -0.9075  0.1084  0.5031
 6049SOL    HW129783   1.459   0.083   7.520 -0.7058  0.1190  0.9967
 6049SOL    HW229784   1.446   4.695   7.601 -1.8805  0.3328  1.7666
 6050SOL     OW29785   1.491   2.871  13.725  1.1354 -0.5957 -0.0367
 6050SOL    HW129786   1.481   2.959  13.763 -0.1309 -0.8251  0.1575
 6050SOL    HW229787   1.513   2.816  13.801  0.8755 -1.3798 -0.5310
 6051SOL     OW29788   3.475   2.808   3.173 -0.2732 -0.1077 -0.3080
 6051SOL    HW129789   3.414   2.821   3.100 -0.8414  0.5832  0.2929
 6051SOL    HW229790   3.547   2.866   3.147 -0.6597 -0.5959 -2.4531
 6052SOL     OW29791   1.886   3.271   9.941 -0.0258  0.4071  0.0555
 6052SOL    HW129792   1.935   3.202   9.898  0.0057 -0.4476  1.4574
 6052SOL    HW229793   1.942   3.348   9.931 -0.1688  0.2179 -2.0256
 6053SOL     OW29794   3.832   3.988  11.711  0.5546  0.1985 -0.5970
 6053SOL    HW129795   3.844   4.046  11.635  1.8173 -1.1922 -1.4609
 6053SOL    HW229796   3.913   4.009  11.758 -1.1846  3.4429  0.8613
 6054SOL     OW29797   3.663   3.764  17.018 -0.3151 -0.1068  0.1542
 6054SOL    HW129798   3.694   3.844  17.060  0.0546 -1.5222  2.5707
 6054SOL    HW229799   3.735   3.707  17.043  0.0643  0.4753  0.3783
 6055SOL     OW29800   0.532   0.089   2.497  0.2598  0.3592 -0.1492
 6055SOL    HW129801   0.610   0.118   2.449  0.7236  0.7687  0.8507
 6055SOL    HW229802   0.548   4.728   2.496  0.6355  0.4142  0.8223
 6056SOL     OW29803   4.037   0.301   1.251 -0.0822  0.3423  0.7233
 6056SOL    HW129804   4.106   0.252   1.207  1.1991  1.9157  0.9630
 6056SOL    HW229805   4.004   0.257   1.329 -2.3523  0.0073 -0.4153
 6057SOL     OW29806   2.542   1.904   8.094 -0.0609 -0.0455  0.2973
 6057SOL    HW129807   2.608   1.928   8.160 -0.2660  1.0150  0.1173
 6057SOL    HW229808   2.585   1.925   8.011 -0.8394  1.4898  0.2675
 6058SOL     OW29809   0.242   2.011   5.646  0.0759 -0.0255 -0.2028
 6058SOL    HW129810   0.155   1.990   5.681  0.3503 -0.6927  0.0746
 6058SOL    HW229811   0.235   2.107   5.642  0.2261  0.0332  0.8688
 6059SOL     OW29812   4.457   0.729   3.181 -0.8384 -0.3274 -0.3966
 6059SOL    HW129813   4.395   0.663   3.153 -1.7323  0.2183  0.2954
 6059SOL    HW229814   4.487   0.683   3.259  3.6553 -1.5120 -2.7731
 6060SOL     OW29815   3.569   4.377  16.192 -0.0006  0.1589 -0.4364
 6060SOL    HW129816   3.601   4.411  16.276  0.8237  1.8220 -1.4340
 6060SOL    HW229817   3.610   4.290  16.198  1.2900  0.8761  1.1952
 6061SOL     OW29818   0.864   3.930   9.119  0.2069  0.2009  0.1346
 6061SOL    HW129819   0.819   3.989   9.179  1.6852  0.3828  1.0593
 6061SOL    HW229820   0.861   3.849   9.169  0.8211 -0.4172 -0.8396
 6062SOL     OW29821   4.299   1.400   3.089  0.2521  0.0422  0.2377
 6062SOL    HW129822   4.284   1.361   3.175 -0.8578 -0.3430 -0.1316
 6062SOL    HW229823   4.217   1.381   3.043 -0.7610  0.2845  1.9351
 6063SOL     OW29824   3.221   1.767   5.319 -0.0023  0.4145  0.0694
 6063SOL    HW129825   3.265   1.789   5.236  1.2720 -0.2977  0.5693
 6063SOL    HW229826   3.273   1.691   5.342  2.7481  1.6776 -1.9410
 6064SOL     OW29827   0.396   4.207   2.509 -0.0966  0.1842 -0.3717
 6064SOL    HW129828   0.483   4.190   2.545  1.0385  2.9320 -1.8279
 6064SOL    HW229829   0.342   4.135   2.542 -1.7826  0.8167 -1.7520
 6065SOL     OW29830   3.390   3.715   5.916 -0.4458  0.3845  0.2939
 6065SOL    HW129831   3.349   3.654   5.855 -0.4473 -0.0017  0.6805
 6065SOL    HW229832   3.319   3.738   5.977 -0.5516  2.7465 -0.7120
 6066SOL     OW29833   1.889   0.509   3.111  0.1054 -0.1906 -0.2012
 6066SOL    HW129834   1.929   0.473   3.032 -1.1132 -1.3754 -0.2899
 6066SOL    HW229835   1.945   0.476   3.180 -1.3092 -0.2128  0.9410
 6067SOL     OW29836   0.680   0.733  13.190 -0.3952 -0.2461  0.2039
 6067SOL    HW129837   0.629   0.711  13.268  0.4493  3.7893  1.9123
 6067SOL    HW229838   0.632   0.681  13.126  2.0943  0.3405 -2.1088
 6068SOL     OW29839   2.529   4.138   1.311 -0.3077  0.1094 -0.0910
 6068SOL    HW129840   2.493   4.062   1.358  0.9550 -0.4495 -0.0334
 6068SOL    HW229841   2.514   4.210   1.372  0.3447  0.2737 -0.1303
 6069SOL     OW29842   3.814   1.351   1.781 -0.3751  0.2065  0.3263
 6069SOL    HW129843   3.749   1.400   1.729  0.5440 -0.5097 -1.4875
 6069SOL    HW229844   3.858   1.422   1.828  1.0888  0.3657 -1.2683
 6070SOL     OW29845   3.286   4.366   1.479 -0.3023  0.1562  0.0416
 6070SOL    HW129846   3.330   4.367   1.394 -2.9310  0.9645 -1.2847
 6070SOL    HW229847   3.352   4.392   1.544 -0.3061 -1.0124  0.5040
 6071SOL     OW29848   1.292   1.219   4.092  0.1872 -0.3623 -0.2170
 6071SOL    HW129849   1.257   1.235   4.179 -2.0199  0.2848 -1.2217
 6071SOL    HW229850   1.208   1.199   4.051  0.3668 -2.9149  0.6948
 6072SOL     OW29851   4.559   4.078   7.860 -0.6509  0.4542  0.1326
 6072SOL    HW129852   4.540   4.139   7.932  1.5452  2.9680 -1.3972
 6072SOL    HW229853   4.563   3.992   7.901 -2.8303  0.9626  1.4092
 6073SOL     OW29854   1.427   4.563   8.482  0.2875 -0.3231  0.1795
 6073SOL    HW129855   1.521   4.566   8.500  0.5906 -0.5758 -1.3519
 6073SOL    HW229856   1.403   4.503   8.553 -0.9818  0.4061  0.3612
 6074SOL     OW29857   2.395   2.974  17.734 -0.2219  0.2230 -0.0239
 6074SOL    HW129858   2.416   3.062   0.028  2.1870  0.0339 -1.2252
 6074SOL    HW229859   2.480   2.930   0.003 -0.1607  0.3288 -0.1902
 6075SOL     OW29860   0.216   3.736   7.967  0.2158  0.5726  0.0870
 6075SOL    HW129861   0.278   3.795   7.925  0.6448  1.2409  1.6650
 6075SOL    HW229862   0.255   3.652   7.942 -2.0155 -0.3062 -0.4465
 6076SOL     OW29863   1.894   4.363   6.658  0.0378 -0.3601 -0.6152
 6076SOL    HW129864   1.864   4.399   6.741 -0.9832  0.4507 -1.3455
 6076SOL    HW229865   1.939   4.440   6.622  0.0208  1.1895  2.6835
 6077SOL     OW29866   4.653   2.187   2.753 -0.4112  0.1613 -0.2614
 6077SOL    HW129867   4.708   2.139   2.691 -1.0837  1.0118 -1.5173
 6077SOL    HW229868   4.571   2.193   2.703  0.1203 -0.9859 -1.2660
 6078SOL     OW29869   2.738   3.692   1.413 -0.4190 -0.1524 -0.0656
 6078SOL    HW129870   2.812   3.652   1.369  0.6183  1.6293  0.0587
 6078SOL    HW229871   2.774   3.695   1.502  0.9874 -0.2337 -0.6315
 6079SOL     OW29872   0.709   0.295   4.967 -0.4516 -0.5005 -0.2598
 6079SOL    HW129873   0.717   0.372   4.910 -0.9910  0.0135  0.3555
 6079SOL    HW229874   0.700   0.330   5.056 -0.3951 -2.8319  0.6638
 6080SOL     OW29875   3.783   0.566   6.542 -0.5414 -0.4304  0.2921
 6080SOL    HW129876   3.871   0.545   6.573 -0.5019 -1.6106 -0.6270
 6080SOL    HW229877   3.756   0.626   6.612 -3.4546 -0.6597 -0.6329
 6081SOL     OW29878   3.722   3.699   4.641  0.3987 -0.2797  0.5619
 6081SOL    HW129879   3.769   3.737   4.566  0.7788  1.2013  1.5515
 6081SOL    HW229880   3.629   3.698   4.619  1.2445  2.3889 -3.2903
 6082SOL     OW29881   0.126   0.284   8.367 -0.6484 -0.2480  0.4168
 6082SOL    HW129882   0.034   0.282   8.394 -0.6989 -2.2350  0.1311
 6082SOL    HW229883   0.128   0.342   8.291 -0.5008 -0.1866  0.4689
 6083SOL     OW29884   3.463   1.191   2.132 -0.2745 -0.1193  0.3079
 6083SOL    HW129885   3.517   1.112   2.131  0.3150  0.3018 -0.8870
 6083SOL    HW229886   3.470   1.217   2.224 -0.4327  0.0848  0.2613
 6084SOL     OW29887   2.269   4.141   6.105 -0.1845 -0.3546  0.1297
 6084SOL    HW129888   2.204   4.107   6.043  0.2502  2.5350 -1.9285
 6084SOL    HW229889   2.262   4.235   6.087 -1.5604 -0.6010 -0.5927
 6085SOL     OW29890   3.596   0.784   5.036  0.0883 -0.4102  0.8813
 6085SOL    HW129891   3.518   0.835   5.055 -0.3094 -0.8394  0.3809
 6085SOL    HW229892   3.635   0.831   4.962 -0.8031 -1.3326 -0.1691
 6086SOL     OW29893   2.553   4.281   0.000  0.3709  0.3871 -0.7015
 6086SOL    HW129894   2.531   4.241   0.084  2.9664  0.3315 -0.0405
 6086SOL    HW229895   2.545   4.376   0.006 -0.2414  0.2935 -0.0730
 6087SOL     OW29896   1.818   0.858   2.837  0.3803  0.7111 -0.6241
 6087SOL    HW129897   1.796   0.768   2.812  0.1530  0.4725  0.4544
 6087SOL    HW229898   1.889   0.883   2.778  2.5691 -3.4749  0.2702
 6088SOL     OW29899   4.596   0.638  16.896 -0.0569 -0.0702  0.2228
 6088SOL    HW129900   4.666   0.689  16.937 -1.3055  1.3568  0.5939
 6088SOL    HW229901   4.610   0.547  16.921 -1.6089 -0.8841 -1.8821
 6089SOL     OW29902   0.785   1.378   9.332 -0.3155  0.5853 -0.2857
 6089SOL    HW129903   0.835   1.456   9.355  0.5791 -0.8597  2.6891
 6089SOL    HW229904   0.769   1.339   9.418 -3.1266  2.4920  0.0568
 6090SOL     OW29905   4.165   3.661   2.996  0.3539  0.0010  0.1861
 6090SOL    HW129906   4.102   3.615   3.053  0.4827 -0.9952 -0.4899
 6090SOL    HW229907   4.244   3.607   3.003  1.9271  2.3578  0.4729
 6091SOL     OW29908   2.181   1.471   3.171  0.1351  0.1156  0.5415
 6091SOL    HW129909   2.092   1.506   3.166  0.2699  0.0993 -1.8238
 6091SOL    HW229910   2.161   1.377   3.175 -0.1960  0.1085 -1.1738
 6092SOL     OW29911   3.012   2.720  10.213 -0.4422 -0.2572  0.0491
 6092SOL    HW129912   2.976   2.632  10.226  0.9665 -0.5039  2.1759
 6092SOL    HW229913   3.090   2.728  10.268  1.0693 -1.1756 -1.9720
 6093SOL     OW29914   0.668   0.618   7.923  0.6260  0.1891  0.2307
 6093SOL    HW129915   0.763   0.627   7.927  0.6155 -0.3068  1.7013
 6093SOL    HW229916   0.657   0.659   7.837  0.9273  0.5580  0.3668
 6094SOL     OW29917   3.753   2.954   5.393 -0.6830 -0.1548  0.1246
 6094SOL    HW129918   3.724   2.913   5.311 -0.5538  1.1207 -0.5588
 6094SOL    HW229919   3.841   2.988   5.380 -1.3778  1.0897 -1.3577
 6095SOL     OW29920   3.978   4.233   6.162 -0.3235 -0.4377  0.3384
 6095SOL    HW129921   3.950   4.252   6.251  0.3565  2.2731 -0.0348
 6095SOL    HW229922   4.037   4.308   6.150  0.1179 -0.7422  0.5992
 6096SOL     OW29923   4.650   0.067   1.272 -0.3569  0.0397 -0.0656
 6096SOL    HW129924   4.665   0.139   1.212  3.0683 -0.3204  0.3355
 6096SOL    HW229925   4.629   4.733   1.207  0.8832  0.3245 -0.7706
 6097SOL     OW29926   4.571   0.001   3.844  1.1233  0.4210  0.0668
 6097SOL    HW129927   4.580   4.703   3.934  0.0453  0.0741  0.0572
 6097SOL    HW229928   4.605   4.665   3.788  0.7059  0.6688 -0.4913
 6098SOL     OW29929   0.005   1.773   4.694 -0.2434 -0.1129 -0.6095
 6098SOL    HW129930   0.036   1.713   4.762  0.1306  0.5049 -0.2334
 6098SOL    HW229931   4.646   1.778   4.714 -0.3988  0.5635 -1.5018
 6099SOL     OW29932   3.060   2.507  11.249 -0.4017 -0.3904 -0.5663
 6099SOL    HW129933   3.152   2.523  11.225 -0.5200  2.2514  0.7526
 6099SOL    HW229934   3.025   2.477  11.166 -0.4798 -1.0721 -0.2884
 6100SOL     OW29935   0.489   4.006   4.378  0.3039  0.2543 -0.2114
 6100SOL    HW129936   0.419   4.052   4.333  3.5270  2.3756 -3.0903
 6100SOL    HW229937   0.460   4.004   4.469 -1.4031  2.1700 -0.7192
 6101SOL     OW29938   4.302   3.689   7.766 -0.4069  0.6827 -0.3238
 6101SOL    HW129939   4.295   3.659   7.675  0.8221  1.0826 -0.5374
 6101SOL    HW229940   4.216   3.674   7.806  0.2573 -0.3862  0.7239
 6102SOL     OW29941   2.777   1.416   7.036 -0.0465 -0.6348  0.1352
 6102SOL    HW129942   2.759   1.368   7.117  0.0835 -1.1166 -0.1219
 6102SOL    HW229943   2.831   1.492   7.059 -2.2203  0.8058  0.4548
 6103SOL     OW29944   0.249   1.221   7.569  0.3374 -0.2336  0.7515
 6103SOL    HW129945   0.263   1.281   7.642 -2.1413  1.6412 -0.3190
 6103SOL    HW229946   0.254   1.273   7.489 -1.7829 -0.8847  0.1921
 6104SOL     OW29947   0.726   0.156   4.429  0.0063  0.4095  0.1356
 6104SOL    HW129948   0.684   0.206   4.499 -0.7530 -0.6513  0.4333
 6104SOL    HW229949   0.809   0.202   4.437 -2.0557  3.9922  1.0791
 6105SOL     OW29950   2.542   4.162  16.951  0.1590 -0.4365 -0.0693
 6105SOL    HW129951   2.507   4.179  16.864 -0.5724  0.2569  0.3647
 6105SOL    HW229952   2.486   4.212  17.011  0.2596 -1.0540  0.5485
 6106SOL     OW29953   4.542   2.002   9.583  0.0291 -0.1570  0.1628
 6106SOL    HW129954   4.512   1.911   9.586 -0.3798 -0.1299 -2.8248
 6106SOL    HW229955   4.636   1.999   9.601 -0.3420  2.9124  2.5938
 6107SOL     OW29956   1.248   2.924   5.768  0.4496 -0.0060  0.4172
 6107SOL    HW129957   1.177   2.910   5.706  0.1234  0.7581  0.6216
 6107SOL    HW229958   1.304   2.847   5.755  2.2182  1.5820 -1.3800
 6108SOL     OW29959   2.331   4.317  15.666 -0.0402 -0.5398 -0.0939
 6108SOL    HW129960   2.403   4.256  15.648 -1.7126 -2.0088 -1.7439
 6108SOL    HW229961   2.258   4.282  15.616 -0.6079 -0.0625  0.4065
 6109SOL     OW29962   3.161   3.461  13.168  0.3539 -0.0422 -0.0970
 6109SOL    HW129963   3.206   3.536  13.131 -0.6141  0.0382 -1.1080
 6109SOL    HW229964   3.232   3.403  13.194 -3.1625 -5.1044 -1.7472
 6110SOL     OW29965   2.384   2.861   6.243 -0.5089 -0.0700 -0.4989
 6110SOL    HW129966   2.359   2.936   6.298 -1.5237 -0.0862 -0.9372
 6110SOL    HW229967   2.337   2.787   6.282  0.4126  0.4601  1.6387
 6111SOL     OW29968   2.138   3.703   0.125  0.1635  0.1605 -0.2298
 6111SOL    HW129969   2.075   3.640   0.090 -0.3308  0.8264 -0.5342
 6111SOL    HW229970   2.078   3.764   0.168 -1.6053 -1.4603 -0.3733
 6112SOL     OW29971   1.217   1.683   2.202  0.1820 -0.5297  0.1536
 6112SOL    HW129972   1.291   1.723   2.247  1.0701 -3.1427  0.9822
 6112SOL    HW229973   1.207   1.729   2.118  2.6269  4.4183  2.5475
 6113SOL     OW29974   0.516   1.710  12.825 -0.1089  0.1661 -0.2171
 6113SOL    HW129975   0.454   1.648  12.863 -0.1908 -1.0807 -2.3526
 6113SOL    HW229976   0.479   1.792  12.858  0.5878  1.0350 -1.5981
 6114SOL     OW29977   2.669   3.116   6.165  0.0627 -0.4396  0.3628
 6114SOL    HW129978   2.589   3.066   6.151 -1.6978  1.9223  1.8156
 6114SOL    HW229979   2.643   3.208   6.158 -0.8598 -0.7443 -0.2700
 6115SOL     OW29980   0.891   4.385  11.059 -0.2063  0.0207  0.2290
 6115SOL    HW129981   0.948   4.408  11.132  0.8790  0.4347 -0.7646
 6115SOL    HW229982   0.811   4.337  11.084 -1.5026  2.9771  1.7773
 6116SOL     OW29983   4.565   2.231   5.755  0.0896 -0.1314 -0.3204
 6116SOL    HW129984   4.493   2.234   5.818  0.7251  2.9886  0.2968
 6116SOL    HW229985   4.528   2.186   5.680  0.1879  0.5591 -0.7901
 6117SOL     OW29986   1.141   0.474   8.118 -0.7220  0.5272  0.2613
 6117SOL    HW129987   1.155   0.561   8.081  1.3855 -0.0814 -0.3636
 6117SOL    HW229988   1.178   0.485   8.206 -0.2891  0.8177  0.0429
 6118SOL     OW29989   1.570   3.312   1.939  0.2977 -0.0145  0.2891
 6118SOL    HW129990   1.557   3.244   1.872  1.1063  1.2482 -1.1444
 6118SOL    HW229991   1.655   3.346   1.912 -1.5083  3.9722 -0.3829
 6119SOL     OW29992   3.074   0.174  14.879  0.2358 -0.2607  0.0423
 6119SOL    HW129993   3.118   0.115  14.819 -1.7593 -0.9659 -0.7340
 6119SOL    HW229994   3.088   0.262  14.847  0.3547 -1.3195 -2.7631
 6120SOL     OW29995   4.364   4.712  14.996 -0.0126 -0.6867  0.4103
 6120SOL    HW129996   4.411   0.027  15.063 -1.5105 -1.5354  2.0855
 6120SOL    HW229997   4.365   0.040  14.923  1.4642 -1.1284  0.0736
 6121SOL     OW29998   2.703   1.695   1.084  0.7220  0.2638  0.0019
 6121SOL    HW129999   2.734   1.656   1.166  1.3015 -1.2355 -0.9322
 6121SOL    HW230000   2.684   1.618   1.030 -0.0645  1.4046 -1.3516
 6122SOL     OW30001   1.582   3.886   5.667  0.7451 -0.0327  0.1392
 6122SOL    HW130002   1.579   3.791   5.678  1.3277 -0.2170 -1.3445
 6122SOL    HW230003   1.630   3.903   5.586  0.9747  1.8002  0.6468
 6123SOL     OW30004   4.630   0.032   6.088  0.1306 -0.4670 -0.3607
 6123SOL    HW130005   4.547   0.008   6.129  1.4341 -0.2961  2.3750
 6123SOL    HW230006   4.692   0.046   6.160 -0.4268  0.9492 -0.1396
 6124SOL     OW30007   1.363   3.644   0.739  0.2570  0.7428 -0.7897
 6124SOL    HW130008   1.446   3.691   0.735 -0.2667  1.7352  0.0418
 6124SOL    HW230009   1.323   3.703   0.803 -0.8080 -0.6481 -0.1858
 6125SOL     OW30010   4.652   0.471   5.765  0.0492  0.7021  0.4039
 6125SOL    HW130011   4.577   0.459   5.707  2.0505  0.8604 -2.2157
 6125SOL    HW230012   4.615   0.422   5.839 -1.8067  0.0538 -0.9634
 6126SOL     OW30013   3.227   4.366   3.864 -0.3158 -0.3167 -0.2633
 6126SOL    HW130014   3.218   4.371   3.959  2.6878 -3.1313  0.1409
 6126SOL    HW230015   3.157   4.430   3.847 -0.1514  0.0624  0.4951
 6127SOL     OW30016   2.564   0.665   6.162  0.1063  0.1342  0.2951
 6127SOL    HW130017   2.595   0.730   6.225 -1.2009  1.0846 -0.0560
 6127SOL    HW230018   2.485   0.633   6.206 -1.3676  1.7773 -1.1460
 6128SOL     OW30019   2.427   4.505  13.719 -0.4256  0.2682 -0.1233
 6128SOL    HW130020   2.353   4.564  13.733 -0.2607  1.3150 -3.7377
 6128SOL    HW230021   2.384   4.426  13.686  1.6730 -0.6656 -0.6418
 6129SOL     OW30022   4.671   4.036   8.751 -0.2340 -0.1372 -0.1396
 6129SOL    HW130023   0.004   4.105   8.748  0.6316 -1.0315 -1.3314
 6129SOL    HW230024   4.692   3.982   8.675  2.2094  0.7460 -0.1072
 6130SOL     OW30025   1.312   4.225   2.133 -0.3274  0.2391  0.2552
 6130SOL    HW130026   1.365   4.301   2.157  3.1496 -2.7436  2.0240
 6130SOL    HW230027   1.227   4.270   2.125 -0.7217 -0.6691 -0.6464
 6131SOL     OW30028   0.248   4.051  17.443  0.4678  0.2094 -0.3850
 6131SOL    HW130029   0.282   4.071  17.355  0.4224 -0.5917 -0.5798
 6131SOL    HW230030   0.155   4.070  17.434  0.1073 -1.1808  0.4719
 6132SOL     OW30031   3.361   4.542  15.116  0.0252 -0.2672 -0.2263
 6132SOL    HW130032   3.321   4.519  15.200  0.7263 -0.6629 -0.0013
 6132SOL    HW230033   3.285   4.541  15.058  0.2032 -2.4868 -0.4027
 6133SOL     OW30034   0.587   1.853   8.338 -0.3032  0.3199  0.2552
 6133SOL    HW130035   0.543   1.776   8.375 -2.6504  0.9542 -1.2250
 6133SOL    HW230036   0.592   1.913   8.413 -1.5767 -0.4673  0.9746
 6134SOL     OW30037   1.268   1.299   0.713  0.1907 -0.5611  0.5180
 6134SOL    HW130038   1.299   1.297   0.803  0.1347  2.7575  0.6388
 6134SOL    HW230039   1.329   1.348   0.658  0.5121  0.0716  1.4412
 6135SOL     OW30040   3.455   1.424   6.826 -0.5697  0.6444  0.1903
 6135SOL    HW130041   3.394   1.383   6.888 -0.7850  0.5500 -0.0882
 6135SOL    HW230042   3.407   1.500   6.794 -0.2057  1.2089  0.9855
 6136SOL     OW30043   4.082   1.961   3.484 -0.4377 -0.0763  0.4084
 6136SOL    HW130044   4.174   1.954   3.459 -0.7694  0.9958 -1.1481
 6136SOL    HW230045   4.031   1.936   3.407  1.7443 -1.0083 -0.7403
 6137SOL     OW30046   3.240   3.798   4.791 -0.7305 -0.4919 -0.3008
 6137SOL    HW130047   3.236   3.808   4.886  0.4502 -0.6173 -0.2337
 6137SOL    HW230048   3.327   3.834   4.775  0.7627 -4.4643 -1.0045
 6138SOL     OW30049   2.195   0.654   7.207  0.2388 -0.0472 -0.3184
 6138SOL    HW130050   2.185   0.592   7.135  0.0659  0.9920 -1.1854
 6138SOL    HW230051   2.155   0.734   7.172 -1.0578 -0.1092  1.0039
 6139SOL     OW30052   2.964   2.259   7.009  0.2946 -0.0969 -0.3871
 6139SOL    HW130053   2.977   2.350   7.038  1.9316 -0.8648  1.2818
 6139SOL    HW230054   3.031   2.223   7.068  0.1171  0.2875  0.0505
 6140SOL     OW30055   2.863   4.286  13.415  0.3625 -0.2505 -0.0126
 6140SOL    HW130056   2.800   4.303  13.345 -0.4009 -1.4206  0.3765
 6140SOL    HW230057   2.822   4.340  13.482 -0.6299 -0.0687 -0.7648
 6141SOL     OW30058   3.430   4.505   1.673  0.1786  0.2847  0.0101
 6141SOL    HW130059   3.351   4.558   1.684  1.1750  1.6038  0.9058
 6141SOL    HW230060   3.492   4.578   1.666 -0.3477  0.8853  1.6512
 6142SOL     OW30061   3.605   4.716  15.687 -0.4284  0.6550 -0.3474
 6142SOL    HW130062   3.668   4.660  15.641 -0.5081 -0.1901  0.5938
 6142SOL    HW230063   3.579   0.049  15.623 -1.1430  0.7197  0.0143
 6143SOL     OW30064   0.793   3.584   5.845  0.5207  0.1867  0.1562
 6143SOL    HW130065   0.855   3.641   5.892  0.9693  0.5565 -0.8795
 6143SOL    HW230066   0.807   3.501   5.890  1.8679  0.9223  1.1169
 6144SOL     OW30067   1.710   1.924   3.285 -0.2543 -0.2399 -0.5166
 6144SOL    HW130068   1.622   1.950   3.311  0.2356  0.7925  0.1026
 6144SOL    HW230069   1.749   2.003   3.249 -0.4463  0.1445  0.1096
 6145SOL     OW30070   2.789   3.705   3.856  0.3221  0.3073 -0.1955
 6145SOL    HW130071   2.701   3.734   3.833 -0.5841 -2.9362 -0.7202
 6145SOL    HW230072   2.835   3.785   3.827  0.2615  0.8362  1.1994
 6146SOL     OW30073   2.726   4.179   7.120 -0.4227  0.2094 -0.2427
 6146SOL    HW130074   2.762   4.103   7.074  0.4439 -0.5435  1.7004
 6146SOL    HW230075   2.729   4.152   7.212 -1.8660  0.3741 -0.1526
 6147SOL     OW30076   0.896   4.727   2.762  0.3156  0.9494  0.1577
 6147SOL    HW130077   0.860   0.070   2.807  0.2601  2.0064 -1.6796
 6147SOL    HW230078   0.987   4.726   2.791  0.6789 -2.5669 -1.0557
 6148SOL     OW30079   4.343   4.405  15.770  0.0901 -0.1598  0.1225
 6148SOL    HW130080   4.326   4.499  15.768 -0.8445 -0.3326 -0.0068
 6148SOL    HW230081   4.261   4.369  15.736 -0.4429  2.2626 -1.1643
 6149SOL     OW30082   4.640   1.830  12.627 -0.2918  0.3580 -0.4150
 6149SOL    HW130083   4.665   1.921  12.616  2.2561 -0.5661 -2.4256
 6149SOL    HW230084   4.545   1.834  12.622 -0.0936  0.9411 -3.3234
 6150SOL     OW30085   0.234   1.690   2.475  0.2428 -0.7385 -0.5928
 6150SOL    HW130086   0.244   1.730   2.562 -1.5281 -1.3218 -0.1360
 6150SOL    HW230087   0.146   1.656   2.489 -0.1654 -0.0572 -1.5501
 6151SOL     OW30088   2.248   2.427  16.033  0.1119  0.4512 -0.1871
 6151SOL    HW130089   2.199   2.374  15.970  0.9394  0.5259 -0.8930
 6151SOL    HW230090   2.224   2.400  16.121  0.1775  0.5257 -0.1459
 6152SOL     OW30091   4.345   0.789   2.864  0.1766  0.5545  0.1347
 6152SOL    HW130092   4.323   0.712   2.917  1.3564 -0.0669 -0.2892
 6152SOL    HW230093   4.441   0.781   2.871  0.3561  2.7595  0.1071
 6153SOL     OW30094   0.574   4.724   7.019 -0.3184 -0.0726 -0.3371
 6153SOL    HW130095   0.587   4.683   7.104 -1.6953 -1.2583 -0.6907
 6153SOL    HW230096   0.492   4.693   6.981  0.0003 -2.5157  0.9903
 6154SOL     OW30097   3.359   3.298  13.221 -0.2046 -0.6077 -0.1837
 6154SOL    HW130098   3.398   3.259  13.143  0.7488  1.5316 -0.7919
 6154SOL    HW230099   3.362   3.222  13.278  1.1153 -0.1970  0.2964
 6155SOL     OW30100   0.332   4.251   3.347 -0.5133 -0.5335 -0.4616
 6155SOL    HW130101   0.322   4.330   3.295 -1.2524  0.2423  0.8408
 6155SOL    HW230102   0.422   4.257   3.380  0.1131 -0.3106 -2.2461
 6156SOL     OW30103   3.259   4.706  10.883 -0.5897 -0.0291  0.1554
 6156SOL    HW130104   3.253   0.067  10.873 -1.0948 -0.2053 -1.1656
 6156SOL    HW230105   3.187   4.676  10.828 -0.7314  0.6492 -0.0280
 6157SOL     OW30106   0.192   2.079   0.328 -0.0819 -0.0821 -0.2267
 6157SOL    HW130107   0.140   2.111   0.255  2.1169  0.6793 -1.4564
 6157SOL    HW230108   0.130   2.016   0.366 -1.3284 -0.0848 -2.2615
 6158SOL     OW30109   1.617   1.958  16.512 -0.4473  0.3603 -0.0464
 6158SOL    HW130110   1.678   2.003  16.571 -1.1474 -0.8346  1.5812
 6158SOL    HW230111   1.631   1.868  16.540  1.4227  0.6618  0.0197
 6159SOL     OW30112   3.458   2.603   2.008  0.1273 -0.1289  0.5734
 6159SOL    HW130113   3.485   2.669   1.944  2.2172  0.7410  2.3098
 6159SOL    HW230114   3.420   2.656   2.078  0.0800 -1.7089  1.7348
 6160SOL     OW30115   2.497   1.363  15.762 -0.1619  0.0227  0.3418
 6160SOL    HW130116   2.525   1.282  15.721 -2.3833 -0.7735  0.3572
 6160SOL    HW230117   2.558   1.364  15.836  2.4376  0.7131 -1.8282
 6161SOL     OW30118   3.998   0.501   4.760  0.7088  0.3506 -0.2539
 6161SOL    HW130119   3.949   0.571   4.804  1.0434 -0.4395  1.3765
 6161SOL    HW230120   4.005   0.432   4.827 -0.3724  0.7780  0.3036
 6162SOL     OW30121   4.606   1.382   5.231 -0.9336 -0.1381 -0.4247
 6162SOL    HW130122   4.652   1.339   5.304 -1.9873  0.0980  0.3809
 6162SOL    HW230123   4.686   1.400   5.182  0.1299  2.3878  2.1643
 6163SOL     OW30124   3.154   1.123  10.629  0.0335 -0.2641 -0.4514
 6163SOL    HW130125   3.155   1.142  10.723  2.6435 -0.4815 -0.4346
 6163SOL    HW230126   3.195   1.037  10.625  0.5928  0.0136 -0.6481
 6164SOL     OW30127   3.898   2.584  12.126 -0.0003  0.5859 -0.2108
 6164SOL    HW130128   3.974   2.619  12.080  0.0278  0.3172 -0.3669
 6164SOL    HW230129   3.843   2.662  12.135 -0.4708  0.5026 -2.3778
 6165SOL     OW30130   2.440   3.777   7.387 -0.2618  0.3622  0.4914
 6165SOL    HW130131   2.465   3.867   7.365  1.7494 -0.1089  0.7742
 6165SOL    HW230132   2.524   3.733   7.399  1.4317  2.8524 -2.1752
 6166SOL     OW30133   1.665   3.747   4.067 -1.0846  0.0280 -0.0043
 6166SOL    HW130134   1.683   3.840   4.060  1.1678 -0.4795 -0.9327
 6166SOL    HW230135   1.606   3.748   4.143  2.2746 -0.3207  2.5733
 6167SOL     OW30136   0.227   2.869   2.760 -0.2319 -0.1228 -0.2492
 6167SOL    HW130137   0.271   2.790   2.728  0.3551  1.4573 -3.2631
 6167SOL    HW230138   0.146   2.842   2.804 -0.7744  1.2905 -0.3765
 6168SOL     OW30139   1.984   0.810  15.749 -0.1305  0.1590 -0.6300
 6168SOL    HW130140   2.013   0.855  15.670 -0.6215 -3.0811 -2.6530
 6168SOL    HW230141   2.065   0.795  15.798 -1.0061 -1.5772  0.2877
 6169SOL     OW30142   2.592   1.444   1.667  0.0745  0.4413  0.2047
 6169SOL    HW130143   2.636   1.459   1.751  1.9472 -0.1850 -0.6421
 6169SOL    HW230144   2.560   1.531   1.643 -2.0393 -0.8142 -1.5201
 6170SOL     OW30145   4.323   1.174  11.252 -0.6098  0.6072  0.2050
 6170SOL    HW130146   4.344   1.237  11.321  3.4232  2.8726 -3.0653
 6170SOL    HW230147   4.294   1.103  11.310 -0.9000  0.1867 -0.4601
 6171SOL     OW30148   0.267   2.004  15.139  0.0785 -0.1711 -0.2243
 6171SOL    HW130149   0.193   1.966  15.090  0.5130  0.6315 -1.4889
 6171SOL    HW230150   0.225   2.069  15.196  0.8323 -0.5183  0.7241
 6172SOL     OW30151   0.105   2.172  13.549 -0.7418  0.7020  0.0161
 6172SOL    HW130152   0.043   2.165  13.476 -0.7653 -1.5205  0.2571
 6172SOL    HW230153   0.169   2.223  13.499 -2.6306  1.5663 -1.5224
 6173SOL     OW30154   0.388   2.558  16.053 -0.4513 -0.5998 -0.1333
 6173SOL    HW130155   0.365   2.516  16.136  0.5747 -1.0868 -0.0938
 6173SOL    HW230156   0.398   2.648  16.082  0.7170 -0.5397 -0.7177
 6174SOL     OW30157   2.445   0.938   6.900  0.4816  1.1048 -0.2094
 6174SOL    HW130158   2.459   1.031   6.886 -3.0510  2.1566  3.0773
 6174SOL    HW230159   2.351   0.923   6.894  0.7010 -1.2020  2.2098
 6175SOL     OW30160   0.893   0.204   8.302 -0.1482 -0.0828  0.1347
 6175SOL    HW130161   0.871   0.259   8.226  2.1022  2.2835  1.1856
 6175SOL    HW230162   0.845   0.122   8.294  2.8958 -1.9072  0.7263
 6176SOL     OW30163   2.800   4.594   6.418 -0.1607 -0.0927  0.3689
 6176SOL    HW130164   2.709   4.624   6.427  0.0188  0.2967  0.9440
 6176SOL    HW230165   2.809   4.522   6.481  2.2167  1.4296  1.7588
 6177SOL     OW30166   1.566   2.967   7.052 -0.1140 -0.2427 -0.7159
 6177SOL    HW130167   1.525   2.886   7.081  1.0754 -0.6434 -0.1641
 6177SOL    HW230168   1.503   3.039   7.051  1.5557  1.2222 -0.6571
 6178SOL     OW30169   0.216   3.177   0.596  0.5378 -0.0558 -0.1450
 6178SOL    HW130170   0.160   3.227   0.536  1.1219  1.1378  0.2989
 6178SOL    HW230171   0.164   3.179   0.677 -2.1380 -0.9323 -1.8530
 6179SOL     OW30172   2.603   3.615   6.836  0.2065 -0.7714  0.2325
 6179SOL    HW130173   2.592   3.631   6.929  0.0180  0.8967 -0.0762
 6179SOL    HW230174   2.677   3.553   6.832 -1.2045 -2.3721 -1.0883
 6180SOL     OW30175   3.902   2.854   3.955 -0.3778 -0.2201  0.2681
 6180SOL    HW130176   3.854   2.927   3.917 -0.1074 -1.8593 -3.2413
 6180SOL    HW230177   3.982   2.862   3.902 -1.1109  2.1195 -0.4563
 6181SOL     OW30178   4.181   2.415   2.352  0.2800  0.0137 -0.2033
 6181SOL    HW130179   4.236   2.336   2.355 -0.6710 -0.6019  0.9489
 6181SOL    HW230180   4.231   2.482   2.306  1.2872  0.7540  1.9598
 6182SOL     OW30181   2.704   1.486   3.353 -0.3179  0.1760 -0.0055
 6182SOL    HW130182   2.622   1.437   3.359  0.2650 -0.3944  3.5160
 6182SOL    HW230183   2.753   1.456   3.431  0.7450 -2.5206 -1.7219
 6183SOL     OW30184   4.726   4.701   1.569 -0.4429 -0.3027 -0.5427
 6183SOL    HW130185   4.709   0.007   1.483  0.6960 -0.5633 -0.8841
 6183SOL    HW230186   4.706   0.042   1.626  2.7486 -0.5626  0.9173
 6184SOL     OW30187   3.347   4.363   3.633  0.0101  0.2394 -0.0119
 6184SOL    HW130188   3.301   4.379   3.715 -3.3411  1.2327 -2.0714
 6184SOL    HW230189   3.428   4.398   3.668  0.6966 -0.4868 -0.8728
 6185SOL     OW30190   3.390   0.183  11.925 -0.4133  0.3989  0.3266
 6185SOL    HW130191   3.323   0.177  11.993  0.7319  3.6408  1.7344
 6185SOL    HW230192   3.473   0.167  11.971 -0.4348  1.5803  0.7600
 6186SOL     OW30193   3.175   2.503  17.206  0.3931  0.2607  0.3945
 6186SOL    HW130194   3.079   2.508  17.210  0.2934 -0.1354 -1.6143
 6186SOL    HW230195   3.183   2.583  17.154  0.4355  0.7092  1.0803
 6187SOL     OW30196   0.567   3.399   1.591 -0.7453 -0.2417 -0.8210
 6187SOL    HW130197   0.588   3.337   1.521  1.1936  0.1497 -0.5822
 6187SOL    HW230198   0.610   3.357   1.666 -1.7296 -2.3920 -1.4606
 6188SOL     OW30199   1.391   2.591   2.475  0.5777 -0.4306  0.2659
 6188SOL    HW130200   1.305   2.549   2.467 -0.4912  1.8971 -0.4017
 6188SOL    HW230201   1.432   2.536   2.542  2.4001 -0.7423 -1.1206
 6189SOL     OW30202   0.144   4.065   2.881  0.2142 -0.7202 -0.7384
 6189SOL    HW130203   0.096   4.119   2.818 -1.4887 -1.5371 -0.1359
 6189SOL    HW230204   0.150   4.124   2.956  2.5633  0.0363 -1.5340
 6190SOL     OW30205   3.123   3.702   1.814  0.9110 -0.3833 -0.4564
 6190SOL    HW130206   3.115   3.796   1.827  0.6853 -0.5863  0.9334
 6190SOL    HW230207   3.159   3.666   1.895  0.9251 -0.7068 -0.6033
 6191SOL     OW30208   0.385   4.559   8.269 -0.2581 -0.6875 -0.0246
 6191SOL    HW130209   0.338   4.642   8.273  2.1485  0.6036  1.2060
 6191SOL    HW230210   0.325   4.487   8.250  0.5140 -1.2642 -0.2963
 6192SOL     OW30211   3.027   0.963   6.395  0.2565 -0.3185 -0.3457
 6192SOL    HW130212   3.018   1.028   6.465  1.7596 -3.3642  2.7221
 6192SOL    HW230213   2.962   0.990   6.331  0.0255  3.5410  1.4853
 6193SOL     OW30214   2.021   2.276   4.840  0.7159 -0.5382  0.8750
 6193SOL    HW130215   2.057   2.188   4.826  0.9792 -0.5829  1.8191
 6193SOL    HW230216   2.091   2.309   4.898 -0.1469  2.2961  0.2942
 6194SOL     OW30217   4.189   0.725   5.507  0.3121 -0.1077 -0.4263
 6194SOL    HW130218   4.258   0.692   5.565  0.1910 -0.1240 -0.2900
 6194SOL    HW230219   4.115   0.676   5.543  0.7743 -0.8504 -0.4680
 6195SOL     OW30220   3.870   0.191   2.279 -0.6010  0.3544 -0.5759
 6195SOL    HW130221   3.850   0.099   2.298 -1.9741  0.7099 -0.3232
 6195SOL    HW230222   3.821   0.217   2.201  1.1703  1.6735 -1.2618
 6196SOL     OW30223   1.093   1.069  17.253  0.2952 -0.3733 -0.3007
 6196SOL    HW130224   1.108   0.979  17.225  1.2697 -0.6164  1.0302
 6196SOL    HW230225   1.131   1.123  17.184  0.6433  0.3851  0.4721
 6197SOL     OW30226   1.322   4.000  15.329 -0.2651 -0.1850 -0.4962
 6197SOL    HW130227   1.274   4.019  15.248  0.0441 -0.1118 -0.6647
 6197SOL    HW230228   1.304   4.081  15.376  0.7004 -0.8028  0.9187
 6198SOL     OW30229   1.344   4.025  13.495 -0.2991  0.2348  0.6137
 6198SOL    HW130230   1.287   4.042  13.569 -0.1553  0.3610  0.6949
 6198SOL    HW230231   1.286   3.978  13.435 -1.7426  0.7570  1.6075
 6199SOL     OW30232   2.308   4.446   8.167 -0.1816  0.9903  0.4153
 6199SOL    HW130233   2.378   4.488   8.118 -2.6235  1.7631 -2.4018
 6199SOL    HW230234   2.247   4.512   8.202 -0.4218  0.6550  0.6284
 6200SOL     OW30235   2.206   2.415   3.407  0.2786 -0.0991  0.3291
 6200SOL    HW130236   2.233   2.356   3.336 -0.3142  0.5628 -0.4537
 6200SOL    HW230237   2.212   2.500   3.362  2.0965 -0.0096  0.7381
 6201SOL     OW30238   3.855   1.133   5.206 -0.3338  0.2825  0.8901
 6201SOL    HW130239   3.934   1.125   5.259  1.5276  3.6592 -1.4207
 6201SOL    HW230240   3.818   1.045   5.216 -1.4601  0.6137 -0.3712
 6202SOL     OW30241   1.349   0.538   5.983 -0.1834  0.0441  0.3687
 6202SOL    HW130242   1.294   0.464   5.958 -1.5203  1.0228  0.4305
 6202SOL    HW230243   1.381   0.560   5.895  0.2031  1.7236  0.9442
 6203SOL     OW30244   1.591   3.752  17.709  0.5003 -0.5831 -0.4861
 6203SOL    HW130245   1.584   3.662   0.005 -1.9684 -0.5145 -0.8402
 6203SOL    HW230246   1.502   3.756  17.675  0.8249 -1.1992 -1.4007
 6204SOL     OW30247   2.161   2.866   7.613  0.1586 -0.2316  1.1753
 6204SOL    HW130248   2.169   2.810   7.536  2.1638 -0.5025  1.5849
 6204SOL    HW230249   2.158   2.954   7.577 -2.6895 -0.7467  0.1922
 6205SOL     OW30250   2.929   2.778  15.543  0.1514  0.4555 -0.6070
 6205SOL    HW130251   2.880   2.847  15.499  2.1010  0.7713 -2.2693
 6205SOL    HW230252   3.022   2.799  15.532  0.1020  1.7852  1.6356
 6206SOL     OW30253   1.932   4.591   8.836  0.2676  0.3424  0.2113
 6206SOL    HW130254   1.900   4.516   8.785  1.3559 -1.4898  2.2414
 6206SOL    HW230255   1.853   4.628   8.874  0.4206 -0.9863  1.8069
 6207SOL     OW30256   3.416   2.095  13.790 -0.3438 -0.0387 -0.1062
 6207SOL    HW130257   3.450   2.015  13.749  2.3183  0.1748  1.6813
 6207SOL    HW230258   3.501   2.137  13.807 -0.6717  0.9341 -0.9157
 6208SOL     OW30259   3.499   2.183   1.809 -0.1064 -0.1448 -0.0352
 6208SOL    HW130260   3.473   2.223   1.892  1.7483  1.9319 -0.4719
 6208SOL    HW230261   3.465   2.248   1.748 -1.8570 -1.9521 -0.9638
 6209SOL     OW30262   2.600   2.786   7.805 -0.4080  0.0289 -0.1179
 6209SOL    HW130263   2.606   2.879   7.784  0.4969 -0.2397 -1.0544
 6209SOL    HW230264   2.507   2.773   7.792 -0.2264 -3.1004  1.6912
 6210SOL     OW30265   3.885   0.332   8.089 -0.5946  0.0815  0.5491
 6210SOL    HW130266   3.799   0.366   8.114 -0.4989  0.7387 -0.0213
 6210SOL    HW230267   3.917   0.393   8.023 -0.9190 -0.8033 -0.4276
 6211SOL     OW30268   1.661   2.957   5.781  0.0344  0.3727  0.6293
 6211SOL    HW130269   1.626   2.883   5.831  2.5214  2.4622  5.5251
 6211SOL    HW230270   1.647   2.919   5.695  2.0818  0.1131  0.4005
 6212SOL     OW30271   3.217   1.928   7.817 -0.0423 -0.8874 -0.5050
 6212SOL    HW130272   3.122   1.936   7.819  0.0335 -0.7424  2.4548
 6212SOL    HW230273   3.239   2.000   7.876 -1.4801 -0.4824 -0.4567
 6213SOL     OW30274   3.829   2.498  11.168 -0.0971 -0.5738  0.2064
 6213SOL    HW130275   3.838   2.577  11.220 -0.7751 -0.6212  0.3911
 6213SOL    HW230276   3.809   2.536  11.082  1.4544  1.3223  0.6847
 6214SOL     OW30277   2.552   4.535  15.471  0.1283 -0.1134 -0.4602
 6214SOL    HW130278   2.464   4.527  15.507 -0.1247  0.9916 -0.8118
 6214SOL    HW230279   2.587   4.448  15.490 -2.6081 -0.7140  1.8789
 6215SOL     OW30280   3.120   0.411   6.819 -0.0228 -0.0183  0.4883
 6215SOL    HW130281   3.188   0.381   6.880  1.2675  2.0274  0.0677
 6215SOL    HW230282   3.140   0.365   6.738  0.4038  0.3224  0.4030
 6216SOL     OW30283   3.118   3.625   2.558  0.5183  0.6664 -0.1802
 6216SOL    HW130284   3.201   3.615   2.605 -0.5917  0.1467  1.6407
 6216SOL    HW230285   3.143   3.617   2.465  2.6151 -2.2868  0.6064
 6217SOL     OW30286   1.225   0.345  12.103  0.4670 -0.5703  0.2026
 6217SOL    HW130287   1.244   0.259  12.066 -1.7134 -0.9592 -0.0402
 6217SOL    HW230288   1.229   0.406  12.029 -0.2181 -0.9371 -0.1413
 6218SOL     OW30289   0.125   3.372   4.216  0.8729  0.2619 -0.1235
 6218SOL    HW130290   0.179   3.346   4.290  1.2597 -0.7819 -0.7692
 6218SOL    HW230291   0.087   3.450   4.258  0.3914  1.3331 -2.5123
 6219SOL     OW30292   4.594   3.093   8.454 -0.5986 -0.1642 -0.3879
 6219SOL    HW130293   4.556   3.165   8.404  0.8064  0.0935 -1.0759
 6219SOL    HW230294   4.678   3.096   8.409 -0.4255 -1.0146 -0.1170
 6220SOL     OW30295   3.924   0.403   7.414 -0.3555  0.0800  0.4515
 6220SOL    HW130296   3.951   0.354   7.492  1.8662  0.4983 -0.0574
 6220SOL    HW230297   3.997   0.386   7.354 -1.6788 -1.8830 -0.5852
 6221SOL     OW30298   3.579   2.464  12.626  0.1226  0.7990 -0.3824
 6221SOL    HW130299   3.642   2.413  12.575  0.0597  3.3404 -2.9596
 6221SOL    HW230300   3.635   2.519  12.681 -0.7531  2.0342 -0.7249
 6222SOL     OW30301   2.309   1.006  15.650 -0.1899  0.6177 -0.8695
 6222SOL    HW130302   2.240   1.014  15.716  1.9512 -0.4171  1.4938
 6222SOL    HW230303   2.266   0.955  15.581  0.8356  1.6688 -2.2972
 6223SOL     OW30304   0.002   3.780   7.702  0.2627  0.9337 -0.6442
 6223SOL    HW130305   0.046   3.715   7.647 -0.9758 -1.4671  1.1989
 6223SOL    HW230306   4.691   3.728   7.769 -0.8966  1.2111 -1.1949
 6224SOL     OW30307   2.838   4.721   5.412  0.0469  1.2280  0.3043
 6224SOL    HW130308   2.809   0.050   5.478  0.7697  1.1020  0.7413
 6224SOL    HW230309   2.928   4.705   5.439  0.3749 -0.7653 -1.9804
 6225SOL     OW30310   3.191   2.858  15.654  0.5137  0.0024  0.0537
 6225SOL    HW130311   3.130   2.864  15.727  1.0443  0.2408  0.4724
 6225SOL    HW230312   3.274   2.879  15.697  0.4583  1.5906 -0.6193
 6226SOL     OW30313   2.568   3.573  15.875  0.2171 -0.0041 -0.1819
 6226SOL    HW130314   2.639   3.603  15.819  0.8522 -0.7694  0.2296
 6226SOL    HW230315   2.573   3.651  15.930  1.5621 -0.8349  0.8372
 6227SOL     OW30316   3.614   1.415   3.393  0.1681  0.2974  0.1260
 6227SOL    HW130317   3.626   1.324   3.421 -0.5553  0.3265  0.5404
 6227SOL    HW230318   3.703   1.443   3.373  0.7695 -2.0903 -0.5034
 6228SOL     OW30319   0.605   3.317   8.707 -0.2603 -0.2009  0.3418
 6228SOL    HW130320   0.542   3.270   8.652  0.9843 -0.3166 -0.9838
 6228SOL    HW230321   0.629   3.387   8.647 -1.8516 -3.2153 -3.7827
 6229SOL     OW30322   1.314   2.667  16.342 -0.6530  0.3751 -0.1669
 6229SOL    HW130323   1.257   2.675  16.418  0.7950  0.6145  0.8943
 6229SOL    HW230324   1.400   2.684  16.380 -0.4212  0.6565 -0.8198
 6230SOL     OW30325   3.228   3.638   8.845 -0.3391 -0.3067 -0.1027
 6230SOL    HW130326   3.174   3.636   8.924 -2.0821 -0.7674 -1.2867
 6230SOL    HW230327   3.156   3.653   8.784 -0.5827 -1.1386 -0.0264
 6231SOL     OW30328   1.370   1.743   4.102  0.1271 -0.2838 -0.7146
 6231SOL    HW130329   1.430   1.739   4.028  1.2996  2.0507  0.1000
 6231SOL    HW230330   1.288   1.725   4.056 -0.3708 -1.7866  0.7235
 6232SOL     OW30331   0.803   3.662   5.581  0.1516 -0.1916 -0.3958
 6232SOL    HW130332   0.844   3.748   5.571 -0.9715  0.6998  2.6502
 6232SOL    HW230333   0.808   3.634   5.672 -0.8383 -0.1387 -0.3212
 6233SOL     OW30334   4.347   2.610   1.686 -0.6621  0.2572 -0.2917
 6233SOL    HW130335   4.309   2.661   1.615  0.0169  0.8324 -0.2415
 6233SOL    HW230336   4.398   2.673   1.737 -0.7155  0.8762 -1.0031
 6234SOL     OW30337   1.936   2.074   2.006 -0.5999  0.3417 -0.9186
 6234SOL    HW130338   2.001   2.079   2.076 -1.2715  0.5451 -0.3057
 6234SOL    HW230339   1.981   2.034   1.932  1.5294  0.8315  0.1149
 6235SOL     OW30340   0.986   2.343   8.904 -0.3485 -0.6357 -0.1739
 6235SOL    HW130341   1.027   2.307   8.825  0.9335 -1.2292  0.7709
 6235SOL    HW230342   1.063   2.341   8.960  0.9103  2.7803 -1.7709
 6236SOL     OW30343   0.375   1.612   3.048  0.0469 -0.4697  0.0240
 6236SOL    HW130344   0.296   1.566   3.077  1.5329 -2.1172  1.5042
 6236SOL    HW230345   0.414   1.637   3.132 -0.9061  0.2030  0.2718
 6237SOL     OW30346   0.018   3.698   9.438  0.1522 -0.5440 -0.3395
 6237SOL    HW130347   0.098   3.682   9.388  0.2846 -1.6854  0.2562
 6237SOL    HW230348   4.692   3.711   9.364 -0.5588  0.3987  0.3945
 6238SOL     OW30349   1.906   1.199   8.205 -0.2467 -0.7296 -0.0316
 6238SOL    HW130350   1.945   1.256   8.271 -0.7449  0.0209 -0.3827
 6238SOL    HW230351   1.954   1.229   8.129 -0.8223 -1.8270 -0.8336
 6239SOL     OW30352   2.091   0.971   8.026 -0.2730  0.4872 -0.1035
 6239SOL    HW130353   2.152   0.910   8.067 -0.9817  0.4079  0.8353
 6239SOL    HW230354   2.032   0.906   7.989  1.4336 -0.9410 -0.2797
 6240SOL     OW30355   3.699   3.879   7.069  0.2626 -0.7253 -0.6554
 6240SOL    HW130356   3.700   3.845   7.159  1.3502 -0.0125 -0.4057
 6240SOL    HW230357   3.781   3.845   7.035  2.0639  0.3083  2.6565
 6241SOL     OW30358   3.104   2.018   8.763  0.1984  0.2212 -0.3388
 6241SOL    HW130359   3.101   2.071   8.683 -1.1873 -0.2969 -0.6240
 6241SOL    HW230360   3.017   2.037   8.799  1.5928  0.2532  3.0467
 6242SOL     OW30361   2.949   0.785   3.767 -0.2677 -0.3903 -0.6901
 6242SOL    HW130362   2.991   0.833   3.696 -0.6913  1.2060  0.1424
 6242SOL    HW230363   2.873   0.841   3.782 -0.7737 -0.9565 -1.1012
 6243SOL     OW30364   1.875   1.341   1.709  0.1189 -0.1251  0.3005
 6243SOL    HW130365   1.947   1.296   1.664 -0.4403 -1.1209  0.4069
 6243SOL    HW230366   1.901   1.342   1.801  1.3861  0.1282 -0.0570
 6244SOL     OW30367   3.228   0.522   9.497  1.0417  0.6723  0.1442
 6244SOL    HW130368   3.311   0.491   9.460  1.4188  0.6534  1.0147
 6244SOL    HW230369   3.243   0.521   9.591  2.9087 -0.7754 -0.1660
 6245SOL     OW30370   3.862   1.804   1.087  0.4422 -0.0490  0.1745
 6245SOL    HW130371   3.840   1.711   1.086  1.6117 -0.2884 -1.8615
 6245SOL    HW230372   3.789   1.836   1.035 -1.0051 -0.9371  1.6648
 6246SOL     OW30373   2.726   4.016  10.790  0.1465  0.3403  0.4442
 6246SOL    HW130374   2.732   3.952  10.719 -0.0946  0.9705 -0.1467
 6246SOL    HW230375   2.715   3.954  10.862  2.0823  1.5351  1.7672
 6247SOL     OW30376   0.282   2.874   7.401  0.1531 -0.1393  0.0166
 6247SOL    HW130377   0.251   2.819   7.329 -1.4283 -0.2363  0.7509
 6247SOL    HW230378   0.374   2.848   7.395  0.3746  0.5973  0.2055
 6248SOL     OW30379   2.685   0.020   4.649  0.1118 -0.4504 -0.3199
 6248SOL    HW130380   2.684   0.109   4.612 -0.7758  0.2704  1.4575
 6248SOL    HW230381   2.692   4.699   4.571 -0.8534  1.3482 -1.7038
 6249SOL     OW30382   1.820   2.117   6.628 -0.3156 -0.2707 -0.0261
 6249SOL    HW130383   1.866   2.035   6.647  1.4119  0.6122 -0.4098
 6249SOL    HW230384   1.750   2.114   6.693  0.4709 -0.8806  0.7762
 6250SOL     OW30385   3.023   0.682   1.487 -0.5025  0.3816  0.2346
 6250SOL    HW130386   3.057   0.596   1.512  0.4376  0.7250  0.1052
 6250SOL    HW230387   3.069   0.744   1.543 -0.3210  0.7462 -0.3189
 6251SOL     OW30388   1.536   0.027  13.404  0.1150 -0.5083 -0.0147
 6251SOL    HW130389   1.511   0.059  13.317  0.6154  1.3158  0.5135
 6251SOL    HW230390   1.562   4.671  13.385  0.1580 -0.0551 -2.0689
 6252SOL     OW30391   2.842   2.997   1.765  0.4221  0.2436 -0.0546
 6252SOL    HW130392   2.881   2.976   1.680  2.2059 -0.7378  1.0232
 6252SOL    HW230393   2.856   2.918   1.817  0.5277  0.8501  0.8437
 6253SOL     OW30394   2.316   2.879   3.467  0.4153 -0.2193 -0.0779
 6253SOL    HW130395   2.331   2.888   3.373 -1.2616 -0.1984 -0.3384
 6253SOL    HW230396   2.265   2.956   3.490 -1.1303 -0.5248 -2.5001
 6254SOL     OW30397   3.195   0.948  16.246  0.1766 -0.0314  0.0481
 6254SOL    HW130398   3.180   1.039  16.272  1.0216 -0.2723  1.3897
 6254SOL    HW230399   3.285   0.956  16.216 -0.6441 -2.1588 -2.8974
 6255SOL     OW30400   1.696   0.741   0.338  0.8782  0.4726  1.2057
 6255SOL    HW130401   1.681   0.661   0.287 -2.1543  0.0841  2.7051
 6255SOL    HW230402   1.773   0.711   0.387  2.3966  0.0410 -1.4210
 6256SOL     OW30403   4.412   2.223   2.639  0.7276  0.1326 -0.0921
 6256SOL    HW130404   4.338   2.237   2.699 -0.3507 -1.7666 -0.9715
 6256SOL    HW230405   4.374   2.162   2.576  1.4264 -1.3300  0.8864
 6257SOL     OW30406   0.577   2.431   0.665 -0.3877  0.2820 -0.3486
 6257SOL    HW130407   0.488   2.448   0.632 -2.0015  0.0487  3.8084
 6257SOL    HW230408   0.602   2.520   0.691 -0.3588 -0.6647  2.8768
 6258SOL     OW30409   1.573   3.304  10.861  0.1259 -0.2638 -0.0624
 6258SOL    HW130410   1.540   3.215  10.871  1.2691 -0.5261  1.3149
 6258SOL    HW230411   1.496   3.354  10.888  0.4096 -0.5451  1.2337
 6259SOL     OW30412   2.893   0.131   6.333 -0.5950  0.5235  0.7729
 6259SOL    HW130413   2.869   0.045   6.367  1.9028 -0.3842  0.2298
 6259SOL    HW230414   2.834   0.192   6.378  1.7871  1.8519  2.0424
 6260SOL     OW30415   3.602   0.438   9.915  0.8982 -0.3836  0.0970
 6260SOL    HW130416   3.681   0.480   9.949 -0.0434 -1.3170  3.3762
 6260SOL    HW230417   3.633   0.355   9.879 -2.0010 -0.5911 -1.9532
 6261SOL     OW30418   3.071   1.214  12.923 -0.4053  0.0516  0.1372
 6261SOL    HW130419   3.029   1.242  12.841 -1.4417 -0.0592  0.6323
 6261SOL    HW230420   3.085   1.120  12.918 -1.2882 -0.2763  3.8002
 6262SOL     OW30421   2.251   2.727  12.753  0.1070 -0.1534  0.9189
 6262SOL    HW130422   2.317   2.675  12.707 -2.0394 -0.2522 -2.0536
 6262SOL    HW230423   2.248   2.806  12.700  1.1852  0.2969  1.5318
 6263SOL     OW30424   0.442   1.446   3.502  0.1237  0.6044 -0.7682
 6263SOL    HW130425   0.494   1.450   3.422  0.3605 -1.3095 -0.6971
 6263SOL    HW230426   0.498   1.392   3.558  0.3652  2.2502  0.6102
 6264SOL     OW30427   4.696   0.670  17.593 -0.0043 -0.7878 -0.1166
 6264SOL    HW130428   4.729   0.759  17.602  0.0638 -0.9918  1.5622
 6264SOL    HW230429   4.623   0.675  17.531  1.9425 -2.0741 -2.5330
 6265SOL     OW30430   2.823   4.663  10.321 -0.0949  0.0452 -0.3281
 6265SOL    HW130431   2.741   4.678  10.368 -0.7338 -0.1520 -1.3691
 6265SOL    HW230432   2.796   4.633  10.234 -0.5004 -1.8491  0.4493
 6266SOL     OW30433   3.222   4.701  12.681  0.1829  0.5877 -0.3241
 6266SOL    HW130434   3.164   0.002  12.748  2.0515  0.0383  1.5894
 6266SOL    HW230435   3.210   4.607  12.694 -0.0302  0.4990 -1.1287
 6267SOL     OW30436   0.907   1.189   8.480  0.4441 -0.0468 -0.4683
 6267SOL    HW130437   0.946   1.232   8.404 -1.1756  1.8805 -0.1959
 6267SOL    HW230438   0.986   1.160   8.524 -0.4403  1.1980  1.9284
 6268SOL     OW30439   3.957   2.559   2.413 -0.3852 -0.1332  0.2563
 6268SOL    HW130440   3.983   2.577   2.503 -1.6118  0.0484  0.5805
 6268SOL    HW230441   4.032   2.509   2.381  0.1343  0.9278 -0.1765
 6269SOL     OW30442   2.378   3.781  17.731  0.0351  0.5537 -0.1452
 6269SOL    HW130443   2.308   3.759   0.058  1.5652 -0.1453  1.3337
 6269SOL    HW230444   2.339   3.823  17.654 -1.6885 -1.4565 -0.3646
 6270SOL     OW30445   4.424   1.645   2.318 -0.5986 -0.0711 -0.5694
 6270SOL    HW130446   4.471   1.671   2.239  2.9721  0.0652  1.6009
 6270SOL    HW230447   4.338   1.636   2.278 -1.6394  0.0103  1.6749
 6271SOL     OW30448   4.157   4.513   3.956 -0.4625  0.2589  0.6593
 6271SOL    HW130449   4.225   4.561   4.004 -2.1169  3.3849 -0.0852
 6271SOL    HW230450   4.107   4.587   3.922  1.0337  1.0750  0.2204
 6272SOL     OW30451   0.730   3.751   4.235 -0.0533  0.1143  0.2268
 6272SOL    HW130452   0.642   3.727   4.207 -0.6282  1.9345  0.4204
 6272SOL    HW230453   0.749   3.695   4.310 -0.3890 -0.8913 -0.4475
 6273SOL     OW30454   0.315   1.108   9.213  0.0992  0.2326  0.0199
 6273SOL    HW130455   0.356   1.148   9.290 -0.1711 -0.4919  0.5331
 6273SOL    HW230456   0.248   1.061   9.262  1.3881 -1.8445 -0.2060
 6274SOL     OW30457   2.552   1.117  15.685 -0.0405 -0.3449  0.5120
 6274SOL    HW130458   2.466   1.083  15.661  0.7146 -2.1748  0.4067
 6274SOL    HW230459   2.614   1.044  15.674  1.2448  1.0251 -1.4749
 6275SOL     OW30460   4.453   2.578   6.835 -0.2498  0.3493  0.1785
 6275SOL    HW130461   4.443   2.497   6.886 -1.5383 -0.1940 -0.9340
 6275SOL    HW230462   4.379   2.632   6.864 -0.7683 -0.6004  0.6417
 6276SOL     OW30463   4.696   1.363   5.775  0.0481  0.0264  1.1883
 6276SOL    HW130464   0.016   1.290   5.806  3.1808  1.6687 -0.3664
 6276SOL    HW230465   0.027   1.433   5.762 -1.2508  0.9367 -0.2957
 6277SOL     OW30466   2.023   0.106  11.303 -0.0219 -0.1191  0.0662
 6277SOL    HW130467   2.110   0.089  11.266 -0.2480  0.3060 -0.6634
 6277SOL    HW230468   1.988   0.172  11.243 -0.9358  0.0234  0.7641
 6278SOL     OW30469   3.766   2.438   1.394 -0.5424  0.2650 -0.8368
 6278SOL    HW130470   3.769   2.506   1.327  1.4254 -0.1868 -1.2103
 6278SOL    HW230471   3.806   2.366   1.344 -0.9662 -1.1886  0.8968
 6279SOL     OW30472   3.965   1.532   8.392  0.2836  0.3658  0.0835
 6279SOL    HW130473   3.874   1.522   8.418  0.1736  0.0002 -0.4525
 6279SOL    HW230474   3.989   1.442   8.369  1.3490  0.2498  1.6546
 6280SOL     OW30475   0.672   2.816   7.232  0.1532 -0.3901 -0.6223
 6280SOL    HW130476   0.747   2.849   7.182 -0.7953  0.4588 -1.4867
 6280SOL    HW230477   0.662   2.727   7.197 -0.0630 -0.0791 -1.3609
 6281SOL     OW30478   3.695   2.714  16.779 -0.2514  0.5179 -0.2473
 6281SOL    HW130479   3.726   2.636  16.825 -1.3704  0.4162  0.3322
 6281SOL    HW230480   3.692   2.681  16.689 -0.4460 -1.1034  0.3626
 6282SOL     OW30481   0.913   1.586  14.939  0.2243  0.5416  0.2461
 6282SOL    HW130482   0.864   1.504  14.934  0.1565  0.5221  1.3518
 6282SOL    HW230483   0.995   1.560  14.896 -0.0513  0.6643 -0.3446
 6283SOL     OW30484   0.369   1.579  17.044 -0.5389 -0.4568 -0.4711
 6283SOL    HW130485   0.339   1.516  17.110  0.9871 -0.0054  0.6660
 6283SOL    HW230486   0.333   1.541  16.964  3.5977 -1.4658 -1.8814
 6284SOL     OW30487   3.355   2.147  15.626  0.4251 -0.5869  0.0555
 6284SOL    HW130488   3.371   2.122  15.535 -0.4635 -0.5979 -0.0896
 6284SOL    HW230489   3.447   2.149  15.654 -0.3773  0.5159  2.5653
 6285SOL     OW30490   0.856   3.263   7.745 -0.4733  0.1478  0.2154
 6285SOL    HW130491   0.829   3.355   7.742  0.2486  0.4081  1.5113
 6285SOL    HW230492   0.842   3.261   7.839 -1.2482  1.3289  0.1261
 6286SOL     OW30493   3.273   1.905   0.018  0.1001 -0.3635 -0.4124
 6286SOL    HW130494   3.301   1.925  17.663 -3.5001  2.0099 -0.9968
 6286SOL    HW230495   3.194   1.854   0.001 -0.1741 -0.4555  1.1419
 6287SOL     OW30496   4.559   1.532   3.335 -0.6886 -0.0746  0.1785
 6287SOL    HW130497   4.538   1.595   3.266  1.1299 -1.1941 -1.3719
 6287SOL    HW230498   4.524   1.584   3.408  0.7979 -0.2009  0.9703
 6288SOL     OW30499   4.252   1.190   2.767 -0.0698  0.1570 -0.1080
 6288SOL    HW130500   4.250   1.285   2.757  2.8107  0.5848  3.3144
 6288SOL    HW230501   4.181   1.151   2.714  0.4287 -1.8148  0.6597
 6289SOL     OW30502   4.485   3.861  16.739 -0.1198  0.7492  0.1897
 6289SOL    HW130503   4.481   3.768  16.759 -1.9234  0.5491 -1.0671
 6289SOL    HW230504   4.474   3.869  16.645 -1.8029 -1.6626  0.1796
 6290SOL     OW30505   3.961   3.944   7.974 -0.4406 -0.0425 -0.3801
 6290SOL    HW130506   4.044   3.991   7.982 -0.7620  0.5087 -0.2783
 6290SOL    HW230507   3.921   3.944   8.061 -1.7780 -2.5775 -1.0027
 6291SOL     OW30508   4.149   1.516  10.666  0.3315  0.2186 -0.2420
 6291SOL    HW130509   4.086   1.568  10.717 -1.4954  0.0937 -2.3834
 6291SOL    HW230510   4.090   1.495  10.594  0.5727 -0.8788 -0.1258
 6292SOL     OW30511   0.660   2.430   8.209 -0.0018  0.0648  0.8994
 6292SOL    HW130512   0.585   2.489   8.218  1.2461  1.7303  0.2740
 6292SOL    HW230513   0.624   2.360   8.263 -2.3213 -0.0745 -0.8278
 6293SOL     OW30514   2.428   2.812  15.959 -0.2955  0.1611 -0.8651
 6293SOL    HW130515   2.422   2.896  15.914  3.1747  0.8366 -0.0745
 6293SOL    HW230516   2.365   2.760  15.908 -2.2386  0.6069  1.0592
 6294SOL     OW30517   3.826   1.529   6.487 -0.2993  0.4761 -0.0188
 6294SOL    HW130518   3.812   1.436   6.504 -1.9536  0.9882  1.4190
 6294SOL    HW230519   3.906   1.541   6.538  0.1856 -1.2726 -0.3644
 6295SOL     OW30520   2.925   3.055  12.039  0.2243  0.2568 -0.1297
 6295SOL    HW130521   2.945   3.038  12.131  0.9887  0.0905 -0.3315
 6295SOL    HW230522   2.834   3.023  12.040 -0.9640  3.6692 -1.9741
 6296SOL     OW30523   2.630   2.275   6.528  0.1723 -0.1465 -0.3853
 6296SOL    HW130524   2.581   2.196   6.554 -0.6931  1.6120  3.3983
 6296SOL    HW230525   2.676   2.301   6.608  0.4053 -0.3483 -0.4540
 6297SOL     OW30526   1.498   1.750  12.432  0.5788  0.0231  0.0188
 6297SOL    HW130527   1.428   1.685  12.429  0.1651  0.5097 -0.8048
 6297SOL    HW230528   1.550   1.710  12.502 -0.4594  0.8000  1.2277
 6298SOL     OW30529   0.141   3.044   7.582  0.3386 -0.0770  0.4043
 6298SOL    HW130530   0.103   2.968   7.626  0.1332  0.9433  1.9641
 6298SOL    HW230531   0.203   2.996   7.526 -0.0005 -1.1001  0.9030
 6299SOL     OW30532   4.709   1.066  14.424  0.4662 -0.1976 -0.4422
 6299SOL    HW130533   4.641   1.095  14.363  0.8777  2.4858  0.3938
 6299SOL    HW230534   0.056   1.105  14.389  0.8722  0.5547  1.3605
 6300SOL     OW30535   0.218   3.835   2.985  0.0948 -0.1838  0.2818
 6300SOL    HW130536   0.265   3.878   3.056  1.6728 -0.8876 -0.3448
 6300SOL    HW230537   0.173   3.908   2.943 -0.7679  0.1510  1.7732
 6301SOL     OW30538   1.377   4.693   2.194 -0.0554 -0.7387 -0.1565
 6301SOL    HW130539   1.418   0.029   2.143 -0.3295 -0.5320 -0.0926
 6301SOL    HW230540   1.286   4.697   2.164  0.0365  1.1482 -0.2050
 6302SOL     OW30541   3.794   1.795   6.075 -0.2734 -0.4688 -0.1657
 6302SOL    HW130542   3.797   1.761   5.986 -2.8821 -1.8518  0.2660
 6302SOL    HW230543   3.747   1.722   6.116  0.0664 -0.7900 -0.3511
 6303SOL     OW30544   0.807   1.912   3.065 -0.3519  0.1035 -0.6907
 6303SOL    HW130545   0.825   1.914   3.159  0.6049 -0.9617 -0.8530
 6303SOL    HW230546   0.711   1.914   3.068 -0.3044  0.6172  0.6901
 6304SOL     OW30547   2.412   0.813   7.687  0.2172  0.0271  0.3121
 6304SOL    HW130548   2.414   0.735   7.631 -1.0303 -0.4893  0.9689
 6304SOL    HW230549   2.320   0.812   7.714 -0.0983 -2.6710 -0.7837
 6305SOL     OW30550   3.184   0.205   9.711 -0.3000  0.6117 -0.3130
 6305SOL    HW130551   3.142   0.287   9.685 -0.1950  1.0048  0.7635
 6305SOL    HW230552   3.217   0.226   9.798  0.9907 -0.0718 -0.6405
 6306SOL     OW30553   4.289   4.145   7.214 -0.2890  0.1228 -0.2521
 6306SOL    HW130554   4.370   4.097   7.229  0.6042  1.8685  0.4700
 6306SOL    HW230555   4.310   4.236   7.197  0.6997 -0.1054 -0.2314
 6307SOL     OW30556   4.444   2.185   8.066  0.2745  0.2408  0.5062
 6307SOL    HW130557   4.502   2.183   8.142  0.3628  0.6311  0.4483
 6307SOL    HW230558   4.368   2.137   8.098  0.4664 -0.4484 -0.0788
 6308SOL     OW30559   1.193   1.597  17.146 -0.3863 -0.1354  0.1268
 6308SOL    HW130560   1.139   1.633  17.076  0.8877 -1.7248 -1.6850
 6308SOL    HW230561   1.266   1.583  17.085  0.2048  0.6667  0.6446
 6309SOL     OW30562   0.549   3.745   5.476  0.1277  0.2021  0.0935
 6309SOL    HW130563   0.475   3.685   5.480  2.4150 -2.7148 -1.5411
 6309SOL    HW230564   0.611   3.711   5.540  1.3045  0.6336 -0.8114
 6310SOL     OW30565   3.369   0.039   1.770  0.0038 -0.0224  0.3721
 6310SOL    HW130566   3.279   0.072   1.776 -0.6927 -2.2172  2.3327
 6310SOL    HW230567   3.373   0.015   1.863 -0.4805 -0.6914  0.2183
 6311SOL     OW30568   4.127   1.288   5.134 -0.3794 -0.0474  0.0345
 6311SOL    HW130569   4.130   1.240   5.051 -2.1917  0.1879 -0.1548
 6311SOL    HW230570   4.208   1.259   5.176  1.9524  2.4066 -2.7349
 6312SOL     OW30571   3.860   0.781   7.328 -0.5959  0.1784  0.5747
 6312SOL    HW130572   3.873   0.819   7.415  0.1281  1.5926 -0.1433
 6312SOL    HW230573   3.808   0.703   7.346  1.1965 -0.9339  1.0286
 6313SOL     OW30574   2.357   2.156   5.748 -0.2702  0.4972 -0.1847
 6313SOL    HW130575   2.387   2.071   5.716 -0.0955  1.1208 -1.6636
 6313SOL    HW230576   2.266   2.132   5.764 -0.2438 -0.1816 -1.0611
 6314SOL     OW30577   2.181   0.126   2.741  0.2527 -0.1054  0.0222
 6314SOL    HW130578   2.187   0.049   2.684 -1.2906 -2.8430  3.5682
 6314SOL    HW230579   2.238   0.093   2.810  1.0919  0.5889 -0.3316
 6315SOL     OW30580   3.120   0.180   9.272  0.4735 -0.3734  0.0331
 6315SOL    HW130581   3.074   0.260   9.295  1.3218 -0.1506  0.9526
 6315SOL    HW230582   3.195   0.210   9.221 -0.8356  0.5314 -1.3448
 6316SOL     OW30583   1.467   4.100   1.428  0.1945  0.7348  0.0420
 6316SOL    HW130584   1.412   4.033   1.388 -0.4951  1.2501  0.1371
 6316SOL    HW230585   1.450   4.172   1.368  1.8611  0.2608 -0.9948
 6317SOL     OW30586   3.036   3.602   1.346  0.5030 -0.7457 -0.7637
 6317SOL    HW130587   3.086   3.598   1.428 -0.3575  0.3295 -0.1826
 6317SOL    HW230588   3.078   3.677   1.304  1.3805 -0.8857 -0.1370
 6318SOL     OW30589   2.775   3.384  12.479 -0.1472  0.3263 -0.6905
 6318SOL    HW130590   2.744   3.359  12.391  0.1166 -0.6409 -0.5074
 6318SOL    HW230591   2.797   3.474  12.454 -3.6947  1.5855  0.6558
 6319SOL     OW30592   3.811   4.398   5.972 -1.0117  0.4462  0.1838
 6319SOL    HW130593   3.849   4.367   6.055 -0.6483  1.4458  0.3922
 6319SOL    HW230594   3.737   4.338   5.968 -0.1139 -0.8305  2.8328
 6320SOL     OW30595   1.439   1.842   8.703  0.2906  0.0591 -0.2390
 6320SOL    HW130596   1.367   1.880   8.754  1.4439 -0.1894  1.5796
 6320SOL    HW230597   1.390   1.791   8.639 -1.0473  0.5942  0.3640
 6321SOL     OW30598   0.318   3.539   4.859 -0.8669 -0.3779 -0.1313
 6321SOL    HW130599   0.272   3.460   4.885  1.5284 -2.1779 -1.3601
 6321SOL    HW230600   0.362   3.519   4.776  1.9244  1.0830  0.9790
 6322SOL     OW30601   0.762   3.504   8.554 -0.4691  0.7185 -0.4392
 6322SOL    HW130602   0.831   3.566   8.576 -0.5949  0.4980  0.5826
 6322SOL    HW230603   0.816   3.426   8.567 -2.0786 -0.5377 -1.2385
 6323SOL     OW30604   2.777   0.033   9.210  0.5946  0.6224  0.6209
 6323SOL    HW130605   2.854   4.710   9.220  0.4455  0.0509 -1.5046
 6323SOL    HW230606   2.808   0.112   9.167  2.4611 -1.1359 -1.3078
 6324SOL     OW30607   1.667   3.913   7.216 -0.1454  0.0673  0.0288
 6324SOL    HW130608   1.728   3.864   7.161 -0.4349  1.3847 -1.4565
 6324SOL    HW230609   1.671   3.864   7.298 -0.4388 -2.0578 -1.2335
 6325SOL     OW30610   3.174   1.900   6.143  0.0300 -0.1020  0.1521
 6325SOL    HW130611   3.244   1.836   6.137 -0.5243 -0.6315 -0.6781
 6325SOL    HW230612   3.126   1.869   6.066 -0.0318  1.0544 -0.2838
 6326SOL     OW30613   3.955   3.938   4.970 -0.1074  0.1223 -0.2316
 6326SOL    HW130614   3.984   3.922   4.880 -1.1414 -1.5093 -0.2692
 6326SOL    HW230615   3.885   3.876   4.993  0.0287 -0.0562 -0.2940
 6327SOL     OW30616   2.360   3.360   4.371 -0.4749  0.2897 -0.1552
 6327SOL    HW130617   2.360   3.400   4.284  1.3599 -2.2021 -1.2968
 6327SOL    HW230618   2.361   3.267   4.348 -0.7045 -0.0158  1.0787
 6328SOL     OW30619   1.341   1.410   7.184  0.0618 -0.5679 -0.0639
 6328SOL    HW130620   1.298   1.380   7.104  0.3841  0.0991 -0.4838
 6328SOL    HW230621   1.265   1.407   7.243  0.1276  1.0281  0.1054
 6329SOL     OW30622   1.789   2.725  17.547  0.5180  0.0767 -0.4101
 6329SOL    HW130623   1.799   2.802  17.490 -0.3782  0.0415 -0.6170
 6329SOL    HW230624   1.880   2.710  17.573  1.2875  1.5216 -2.2207
 6330SOL     OW30625   0.629   1.214   6.513  0.4360  0.2135  0.0009
 6330SOL    HW130626   0.557   1.266   6.551  0.3837 -0.3115  0.6168
 6330SOL    HW230627   0.591   1.174   6.435  0.6195 -0.8581  0.4582
 6331SOL     OW30628   0.378   2.155   4.106  0.0865 -0.3016 -0.4297
 6331SOL    HW130629   0.408   2.095   4.173  0.9602 -0.5796 -1.0650
 6331SOL    HW230630   0.346   2.231   4.154 -1.4868  1.0016 -3.5071
 6332SOL     OW30631   2.745   0.369  12.773  0.4888  0.0562 -0.3521
 6332SOL    HW130632   2.754   0.441  12.711 -0.1164  1.1347  0.8180
 6332SOL    HW230633   2.725   0.420  12.851  0.2730  0.7936 -0.8860
 6333SOL     OW30634   0.139   1.170  16.914 -0.0596 -0.1443 -0.7147
 6333SOL    HW130635   0.185   1.254  16.911  1.8857 -1.1421  0.5896
 6333SOL    HW230636   0.060   1.186  16.864 -1.0879  0.2348  1.0258
 6334SOL     OW30637   2.634   1.164  16.219  0.0689  0.4466  0.4139
 6334SOL    HW130638   2.605   1.077  16.190 -1.4375  1.2486 -0.5252
 6334SOL    HW230639   2.622   1.216  16.140  0.0541  0.2538  0.2888
 6335SOL     OW30640   0.764   0.849   2.896 -0.4488  0.9006 -0.2558
 6335SOL    HW130641   0.737   0.821   2.983  0.1692  1.6059  0.1673
 6335SOL    HW230642   0.860   0.846   2.899 -0.4520  1.0729  0.0502
 6336SOL     OW30643   0.361   1.312  11.861 -0.2657  0.8939  0.2937
 6336SOL    HW130644   0.412   1.338  11.938  1.9627 -0.6942 -0.6511
 6336SOL    HW230645   0.412   1.358  11.794 -0.1730 -1.3743 -1.2092
 6337SOL     OW30646   0.336   2.245  17.446 -0.0176  0.4793 -0.4742
 6337SOL    HW130647   0.332   2.149  17.449 -2.1093  0.6251  1.3310
 6337SOL    HW230648   0.243   2.265  17.439  0.2393  2.1828  1.0007
 6338SOL     OW30649   4.437   3.263   0.118 -0.1216 -0.0413 -0.0509
 6338SOL    HW130650   4.386   3.215   0.184  0.2829 -0.5187 -0.0826
 6338SOL    HW230651   4.527   3.231   0.125  0.3908  1.5463  0.5113
 6339SOL     OW30652   3.048   3.242  17.234  0.8721 -0.0880 -0.1828
 6339SOL    HW130653   3.037   3.206  17.146  2.8593  0.2558 -0.5684
 6339SOL    HW230654   2.986   3.195  17.291 -0.2677  2.3553  0.6232
 6340SOL     OW30655   1.104   1.580  13.605 -0.2244 -0.7347 -0.1801
 6340SOL    HW130656   1.028   1.566  13.662 -1.1517 -0.6982 -1.3885
 6340SOL    HW230657   1.111   1.493  13.568 -0.4346 -0.1900 -1.4968
 6341SOL     OW30658   0.693   0.871   3.537  0.2031  0.1670 -0.1371
 6341SOL    HW130659   0.678   0.777   3.545 -2.8344  0.5390 -1.6156
 6341SOL    HW230660   0.786   0.875   3.514  0.7704  1.6811  2.3675
 6342SOL     OW30661   2.778   4.490   7.622 -0.3595 -0.2383 -0.3323
 6342SOL    HW130662   2.866   4.484   7.659  0.3721  0.5556 -1.9338
 6342SOL    HW230663   2.792   4.557   7.555  1.9672 -0.6185 -0.2346
 6343SOL     OW30664   2.702   4.415   5.998  0.0538  0.0219 -0.1907
 6343SOL    HW130665   2.711   4.361   6.076 -0.8775 -0.4333 -0.3911
 6343SOL    HW230666   2.761   4.487   6.018  2.1376 -2.1377  1.4359
 6344SOL     OW30667   2.787   3.858  12.513 -0.1321 -0.5033 -0.1749
 6344SOL    HW130668   2.729   3.932  12.494  1.0863  0.6886  0.7781
 6344SOL    HW230669   2.872   3.902  12.507 -1.3822  1.7320 -1.2501
 6345SOL     OW30670   0.625   3.077   4.263 -0.1176  0.9339 -0.1144
 6345SOL    HW130671   0.701   3.134   4.252  0.4623 -0.0758 -1.3794
 6345SOL    HW230672   0.667   2.993   4.241 -1.5091  0.0593  0.5456
 6346SOL     OW30673   0.757   2.507   0.365 -0.2147 -0.2999  0.6529
 6346SOL    HW130674   0.683   2.496   0.305 -1.5957  1.2041  2.0837
 6346SOL    HW230675   0.769   2.422   0.406  2.4063 -0.1099  0.2547
 6347SOL     OW30676   2.580   3.071   5.566 -0.3139 -0.0668 -0.0586
 6347SOL    HW130677   2.569   3.157   5.606  2.6257 -0.7268  2.1554
 6347SOL    HW230678   2.660   3.084   5.516 -0.3302 -2.0832 -0.6217
 6348SOL     OW30679   4.445   1.286   3.718 -0.5595  0.0153  0.4312
 6348SOL    HW130680   4.429   1.203   3.673 -0.8494  0.9651 -1.2259
 6348SOL    HW230681   4.531   1.300   3.678  0.2428 -3.0766  1.0515
 6349SOL     OW30682   2.526   0.260   5.755  0.2015 -0.6051  0.0173
 6349SOL    HW130683   2.464   0.195   5.788 -0.5365  0.6637  1.1362
 6349SOL    HW230684   2.529   0.332   5.818 -1.9975  0.7187 -1.4224
 6350SOL     OW30685   1.325   2.057  13.855  0.1457  0.0654  0.0166
 6350SOL    HW130686   1.378   1.992  13.808  1.3698 -1.8915  4.1329
 6350SOL    HW230687   1.367   2.046  13.940 -0.7542  1.9310  0.7028
 6351SOL     OW30688   3.389   2.733   9.599 -0.1757  0.2329  0.1452
 6351SOL    HW130689   3.320   2.774   9.651  0.1299  0.1871  0.5836
 6351SOL    HW230690   3.335   2.686   9.536 -0.9800  0.9734  0.2714
 6352SOL     OW30691   3.574   4.192  13.918 -0.2875 -0.2592 -0.0243
 6352SOL    HW130692   3.542   4.175  13.830 -2.3503 -2.9145  1.2215
 6352SOL    HW230693   3.518   4.266  13.941 -1.3928 -0.3664 -2.4151
 6353SOL     OW30694   1.177   4.303   3.686 -0.3513  0.5763 -0.2070
 6353SOL    HW130695   1.245   4.267   3.742  0.3337 -0.3048 -1.5912
 6353SOL    HW230696   1.126   4.224   3.665  0.3750 -0.1227  0.6474
 6354SOL     OW30697   1.683   4.375   4.387 -0.3505 -0.1185  0.1921
 6354SOL    HW130698   1.661   4.347   4.298  1.6864 -1.7178  0.1821
 6354SOL    HW230699   1.775   4.351   4.398 -1.0173 -2.2932  1.0950
 6355SOL     OW30700   3.388   0.587   4.077 -0.4401  0.6312 -0.3914
 6355SOL    HW130701   3.345   0.625   4.154  0.4764  0.3482  0.2488
 6355SOL    HW230702   3.311   0.572   4.021  0.8288  2.0179 -2.5312
 6356SOL     OW30703   3.561   1.874   3.395 -0.0057 -0.3431  0.6061
 6356SOL    HW130704   3.517   1.846   3.476 -1.5512 -3.0418 -1.1465
 6356SOL    HW230705   3.584   1.964   3.418  0.6187 -0.5438  0.7456
 6357SOL     OW30706   3.568   0.856   1.717  0.7450  0.1313 -0.2709
 6357SOL    HW130707   3.640   0.916   1.738  0.5415 -0.0300  0.9258
 6357SOL    HW230708   3.494   0.898   1.761  0.4282 -0.4370 -0.2585
 6358SOL     OW30709   2.741   1.337   6.525 -0.3011 -0.0601 -0.5736
 6358SOL    HW130710   2.719   1.326   6.617  1.8408 -1.6125 -0.2418
 6358SOL    HW230711   2.687   1.410   6.494  1.8075  1.8483  0.1905
 6359SOL     OW30712   2.543   3.126   8.156 -0.6474 -0.0038 -0.3087
 6359SOL    HW130713   2.488   3.151   8.082  0.0762  1.9145 -0.1879
 6359SOL    HW230714   2.629   3.135   8.114 -1.3063  1.7929 -1.2681
 6360SOL     OW30715   2.120   3.050   7.135 -0.5845  0.1522 -0.1152
 6360SOL    HW130716   2.038   3.080   7.095 -0.6765 -0.5469 -0.4567
 6360SOL    HW230717   2.171   3.131   7.123  1.6146 -1.6527 -2.8967
 6361SOL     OW30718   3.877   0.926   7.552  0.2450 -0.3315 -0.4790
 6361SOL    HW130719   3.848   0.865   7.620  2.3310 -1.7235 -0.8289
 6361SOL    HW230720   3.966   0.941   7.583 -0.1634 -1.8817  1.4890
 6362SOL     OW30721   1.355   0.344   6.313 -0.0902 -0.2423 -0.0385
 6362SOL    HW130722   1.366   0.411   6.380 -0.0787  0.7317 -1.0305
 6362SOL    HW230723   1.442   0.363   6.278 -0.1752  0.0419 -0.0909
 6363SOL     OW30724   0.488   3.995   5.404  0.3518  0.2092  0.2442
 6363SOL    HW130725   0.539   3.916   5.420 -1.3402 -1.0390 -0.5989
 6363SOL    HW230726   0.407   3.966   5.447  0.4883 -0.4223  0.0773
 6364SOL     OW30727   4.598   2.461   4.395  0.1789 -0.1955  0.2103
 6364SOL    HW130728   4.667   2.470   4.329  0.8249  4.8349  1.5830
 6364SOL    HW230729   4.530   2.430   4.335  1.2670  0.7780 -1.5253
 6365SOL     OW30730   2.164   3.814   3.090 -0.9900  0.3943 -0.3221
 6365SOL    HW130731   2.100   3.793   3.158 -1.7629 -1.1310 -1.5304
 6365SOL    HW230732   2.224   3.875   3.134  0.0361 -0.6236 -0.3065
 6366SOL     OW30733   0.166   1.788   0.492  0.6996 -0.2243 -0.5559
 6366SOL    HW130734   0.215   1.749   0.564 -1.2526 -1.2498  0.2207
 6366SOL    HW230735   0.078   1.775   0.529  1.6979  1.3187  2.2735
 6367SOL     OW30736   1.044   1.637  15.173  0.2767  0.3671  0.2474
 6367SOL    HW130737   0.957   1.616  15.206 -0.0505  1.0678 -0.1566
 6367SOL    HW230738   1.053   1.583  15.094  0.6212 -1.1033  1.2963
 6368SOL     OW30739   4.626   0.944  17.585 -0.4017 -0.1907 -0.1960
 6368SOL    HW130740   4.670   1.003  17.646  2.3073 -0.4533 -1.9489
 6368SOL    HW230741   4.619   0.999  17.507 -0.7827  1.0978  0.7418
 6369SOL     OW30742   2.457   0.830   2.957  0.6729 -0.6118  0.2204
 6369SOL    HW130743   2.422   0.891   3.022  3.1774  1.9053 -0.7970
 6369SOL    HW230744   2.403   0.752   2.969 -2.4280  1.5088  0.0961
 6370SOL     OW30745   2.726   2.450   4.010  0.2796 -0.3486  0.2814
 6370SOL    HW130746   2.719   2.478   3.918  0.1241  0.1024  0.4333
 6370SOL    HW230747   2.732   2.533   4.057 -0.9799  0.0307 -0.2192
 6371SOL     OW30748   1.586   1.623   1.522 -0.0555 -0.4838  0.0330
 6371SOL    HW130749   1.619   1.592   1.606  0.4862  0.8167  0.3092
 6371SOL    HW230750   1.635   1.568   1.461 -0.7412 -2.7400  1.5383
 6372SOL     OW30751   0.433   3.094   7.297 -0.0828 -0.1821 -0.0571
 6372SOL    HW130752   0.454   3.056   7.383  0.6752  0.5731  0.0885
 6372SOL    HW230753   0.475   3.180   7.299 -1.1755  0.4107 -2.7599
 6373SOL     OW30754   3.180   1.305   3.860  0.3223 -0.5384  0.6404
 6373SOL    HW130755   3.178   1.334   3.952  0.3734 -0.0094  0.4779
 6373SOL    HW230756   3.175   1.211   3.876  0.6958 -0.3258  2.0520
 6374SOL     OW30757   0.385   1.295   8.686  0.2465  0.1670 -0.0435
 6374SOL    HW130758   0.369   1.202   8.669  0.8314  0.0036  0.3032
 6374SOL    HW230759   0.463   1.316   8.634 -1.3168 -0.3964 -2.5860
 6375SOL     OW30760   2.224   3.062   6.353  0.1040 -0.3912 -0.0137
 6375SOL    HW130761   2.203   3.144   6.397  0.1451  0.4846 -1.6004
 6375SOL    HW230762   2.135   3.033   6.332 -0.8609  0.4937  2.9008
 6376SOL     OW30763   3.752   2.129   1.958  0.4761  0.4178  0.6727
 6376SOL    HW130764   3.724   2.064   2.023 -1.3118 -0.3447 -0.8634
 6376SOL    HW230765   3.677   2.174   1.919  0.3788 -0.5405 -0.2588
 6377SOL     OW30766   3.244   2.201   5.554  1.2794  0.3916 -0.3259
 6377SOL    HW130767   3.222   2.187   5.461 -3.9828  0.7155  0.8254
 6377SOL    HW230768   3.300   2.127   5.575  2.1806  0.5154 -2.2767
 6378SOL     OW30769   1.046   2.857   2.679  0.0297  0.5540 -0.2389
 6378SOL    HW130770   1.053   2.849   2.774 -1.4093  1.5632 -0.0503
 6378SOL    HW230771   1.099   2.932   2.649 -0.2350 -0.1331 -2.4471
 6379SOL     OW30772   3.966   0.154  16.586 -0.3315  0.0903 -0.2278
 6379SOL    HW130773   4.024   0.143  16.661  0.7594 -0.0424 -1.0902
 6379SOL    HW230774   3.881   0.173  16.627 -0.0837  0.2918  0.1987
 6380SOL     OW30775   0.693   1.615  10.955  0.3430 -0.2573  0.1745
 6380SOL    HW130776   0.748   1.622  10.877  0.0841  3.4737  0.3433
 6380SOL    HW230777   0.608   1.645  10.924  1.1302  1.5412 -0.2232
 6381SOL     OW30778   1.741   0.953   2.011 -0.1973  0.0372 -0.0737
 6381SOL    HW130779   1.828   0.925   2.039  0.9032  2.5813 -1.0736
 6381SOL    HW230780   1.691   0.903   2.076  0.2282  2.7119  2.3028
 6382SOL     OW30781   0.693   1.473   5.502 -0.7761  0.0222 -0.3780
 6382SOL    HW130782   0.785   1.485   5.481 -0.4259 -2.0089  0.0205
 6382SOL    HW230783   0.650   1.519   5.430 -0.9782 -0.1236 -0.3523
 6383SOL     OW30784   1.455   3.991   2.201  0.1367  0.0423 -0.3953
 6383SOL    HW130785   1.373   3.961   2.239 -1.5302  2.1870 -2.3063
 6383SOL    HW230786   1.442   4.077   2.161 -3.0671 -0.5830 -0.6821
 6384SOL     OW30787   4.143   1.469   1.319 -0.2318 -0.0065 -0.2218
 6384SOL    HW130788   4.053   1.496   1.335 -0.1678 -1.2549  2.0962
 6384SOL    HW230789   4.143   1.380   1.353  1.6568 -0.1387 -0.5712
 6385SOL     OW30790   3.918   2.111   7.424 -0.0886  0.7363 -0.0057
 6385SOL    HW130791   3.929   2.149   7.511  2.3243  1.6760 -0.7110
 6385SOL    HW230792   3.826   2.132   7.409 -0.7894 -1.0080  1.7765
 6386SOL     OW30793   2.890   2.625   2.600 -0.8900  0.1526 -0.0926
 6386SOL    HW130794   2.909   2.626   2.506  0.1548  4.7959  0.1832
 6386SOL    HW230795   2.812   2.569   2.604  0.0189 -1.0757  0.5832
 6387SOL     OW30796   3.455   0.024  14.570 -0.4440  0.2369  0.1483
 6387SOL    HW130797   3.484   0.105  14.529 -0.3348  0.3213  0.3931
 6387SOL    HW230798   3.407   4.717  14.498 -0.7398  1.2229 -0.2058
 6388SOL     OW30799   0.130   0.463  12.557  0.5498 -0.2677  0.7181
 6388SOL    HW130800   0.165   0.529  12.498  1.3483 -2.2782 -1.0352
 6388SOL    HW230801   0.173   0.387  12.518  0.2885 -0.3326  0.5610
 6389SOL     OW30802   0.850   2.277   7.501  0.1483  0.3059  0.4950
 6389SOL    HW130803   0.916   2.305   7.565  1.0585 -0.5974 -0.0472
 6389SOL    HW230804   0.788   2.346   7.481  0.4365  0.6980  0.9488
 6390SOL     OW30805   1.034   0.988   3.108  0.5270  0.0909 -0.1333
 6390SOL    HW130806   1.056   1.081   3.102  3.6534 -0.6488  0.0985
 6390SOL    HW230807   1.032   0.948   3.021 -2.5641  2.5834 -1.2459
 6391SOL     OW30808   4.049   4.577  13.615 -0.4992  0.1500 -0.3518
 6391SOL    HW130809   4.126   4.528  13.584 -1.0761 -1.2643  0.4533
 6391SOL    HW230810   4.025   4.630  13.539 -1.6011  3.0687  2.0345
 6392SOL     OW30811   2.119   2.757   7.060 -0.2278  0.2509 -0.4128
 6392SOL    HW130812   2.171   2.824   7.104 -0.9760  0.1360  0.6518
 6392SOL    HW230813   2.034   2.788   7.090 -0.7987 -0.9426 -0.7976
 6393SOL     OW30814   0.603   2.819   6.057 -0.4044  0.1164  0.0047
 6393SOL    HW130815   0.636   2.843   6.143  0.0764  1.2413 -0.4889
 6393SOL    HW230816   0.508   2.817   6.062 -0.4230 -0.8467 -0.7746
 6394SOL     OW30817   2.500   1.688   4.802 -0.1568  0.1285 -0.0874
 6394SOL    HW130818   2.581   1.687   4.750  1.2665 -0.2794  2.1247
 6394SOL    HW230819   2.539   1.726   4.881  0.5609 -2.2271  0.6938
 6395SOL     OW30820   2.871   3.093  17.366  0.0540  1.0402  0.1944
 6395SOL    HW130821   2.873   3.118  17.459 -2.3639 -2.3275  1.1473
 6395SOL    HW230822   2.788   3.125  17.330  1.3235  0.9555 -2.7846
 6396SOL     OW30823   2.122   2.662   8.963  0.3439  0.0556  0.1953
 6396SOL    HW130824   2.087   2.589   8.911  0.0838  1.4970 -1.6751
 6396SOL    HW230825   2.215   2.637   8.962  0.3594  0.1625 -1.8353
 6397SOL     OW30826   2.984   1.052   5.155 -0.3985 -0.4098  0.6746
 6397SOL    HW130827   3.003   1.057   5.062  0.7703  0.5799  0.9709
 6397SOL    HW230828   2.892   1.077   5.146  0.6015  2.8811 -0.1795
 6398SOL     OW30829   4.712   1.176   9.337 -0.3696  0.5224  0.0967
 6398SOL    HW130830   4.677   1.235   9.403 -1.0201  2.4271 -1.9577
 6398SOL    HW230831   0.044   1.235   9.300 -0.6010 -0.2111 -1.4913
 6399SOL     OW30832   3.175   2.710  11.576 -0.0938 -0.2496 -0.2493
 6399SOL    HW130833   3.129   2.782  11.533  1.2687  1.1462  0.6261
 6399SOL    HW230834   3.261   2.727  11.537  0.1698 -1.5996 -0.2746
 6400SOL     OW30835   4.703   3.604   8.020 -0.4082  0.1166  0.1471
 6400SOL    HW130836   4.673   3.618   8.110 -0.2825  1.7099 -0.0556
 6400SOL    HW230837   0.047   3.660   8.017  0.7619 -1.6608 -2.3179
 6401SOL     OW30838   3.050   4.108  14.691 -0.3740  0.3652 -0.2699
 6401SOL    HW130839   3.071   4.048  14.620  1.1165 -0.1568  0.6155
 6401SOL    HW230840   2.998   4.167  14.636 -1.7020 -1.3416 -0.8211
 6402SOL     OW30841   2.887   3.720  10.202 -0.6283  0.1095 -0.3147
 6402SOL    HW130842   2.810   3.760  10.161 -1.3384 -0.3467  0.5720
 6402SOL    HW230843   2.840   3.647  10.242 -0.3020 -0.0646 -0.2476
 6403SOL     OW30844   1.735   1.702   5.793  0.3602 -0.1101  0.6172
 6403SOL    HW130845   1.716   1.664   5.879  1.7299  1.1208  1.4453
 6403SOL    HW230846   1.760   1.790   5.819 -1.0999  0.2929  0.6735
 6404SOL     OW30847   4.175   0.501   1.361  0.1953  0.2310  0.1902
 6404SOL    HW130848   4.138   0.449   1.290 -1.0985 -0.7350  1.5860
 6404SOL    HW230849   4.178   0.446   1.439  1.2929  0.2823  0.1897
 6405SOL     OW30850   0.721   0.563   4.813 -0.2155 -0.0938 -0.4771
 6405SOL    HW130851   0.813   0.575   4.790  0.6144  0.6819  3.1484
 6405SOL    HW230852   0.685   0.640   4.769  1.6149  1.1780  0.2908
 6406SOL     OW30853   3.718   3.692   1.758 -0.3662  0.0663 -0.5078
 6406SOL    HW130854   3.699   3.786   1.762 -1.9959 -0.2890 -0.2636
 6406SOL    HW230855   3.678   3.668   1.842 -1.1797 -0.7309 -1.1332
 6407SOL     OW30856   2.756   3.814  10.968  0.6067  0.2067 -0.0644
 6407SOL    HW130857   2.722   3.724  10.965  0.8452  0.2509 -3.3808
 6407SOL    HW230858   2.847   3.798  10.996  0.3845 -1.5593 -0.3078
 6408SOL     OW30859   3.232   4.677   9.065 -0.0972 -0.4813 -0.4941
 6408SOL    HW130860   3.202   4.599   9.019 -2.5855 -0.2759  0.8130
 6408SOL    HW230861   3.267   4.639   9.146  0.4495 -0.1247 -0.5612
 6409SOL     OW30862   1.742   2.110   0.469  0.6061  0.0810  0.3561
 6409SOL    HW130863   1.746   2.089   0.376  2.7684  0.7824  0.2873
 6409SOL    HW230864   1.703   2.031   0.506  2.9582 -0.4916  1.6409
 6410SOL     OW30865   0.133   1.539  17.477 -0.0031  0.1588 -0.1225
 6410SOL    HW130866   0.143   1.580  17.564  0.3782  0.2328 -0.2031
 6410SOL    HW230867   0.220   1.500  17.480 -0.7294 -1.4774 -0.9452
 6411SOL     OW30868   3.593   1.600   3.804 -1.1122 -0.7571  0.2316
 6411SOL    HW130869   3.645   1.574   3.728  0.2235  0.4339  0.7435
 6411SOL    HW230870   3.634   1.558   3.879  0.8816  0.5832 -0.1112
 6412SOL     OW30871   2.095   2.292   0.235  0.3052  0.6231  0.0030
 6412SOL    HW130872   2.002   2.270   0.225  0.3031 -0.0800  1.4468
 6412SOL    HW230873   2.114   2.254   0.321 -1.3819 -1.7107 -0.6670
 6413SOL     OW30874   3.698   2.330   2.513  0.1042 -0.1299 -0.1089
 6413SOL    HW130875   3.723   2.373   2.595 -1.2490 -0.6994  0.5952
 6413SOL    HW230876   3.645   2.401   2.477  0.1089  1.3636  2.7946
 6414SOL     OW30877   4.110   2.732   3.021 -0.3911 -0.0781 -0.0559
 6414SOL    HW130878   4.160   2.799   2.975 -1.0435  0.7761  0.4603
 6414SOL    HW230879   4.062   2.787   3.083 -3.3786 -3.0214  0.2490
 6415SOL     OW30880   0.736   2.229   3.416  0.0205  0.0744 -0.1762
 6415SOL    HW130881   0.684   2.279   3.353 -0.3259  2.7361  2.1633
 6415SOL    HW230882   0.740   2.139   3.386 -1.8302 -0.7849  2.1173
 6416SOL     OW30883   0.636   0.406   2.974 -0.0412 -0.0004 -0.1366
 6416SOL    HW130884   0.606   0.488   2.934  0.4983 -0.3646 -1.2953
 6416SOL    HW230885   0.602   0.413   3.064 -1.4182 -0.0989 -0.6510
 6417SOL     OW30886   2.558   1.191  12.583  0.3796 -0.0431 -0.1224
 6417SOL    HW130887   2.642   1.171  12.543  0.2886  2.1558 -1.3814
 6417SOL    HW230888   2.588   1.256  12.647  1.9483  1.2414 -2.1683
 6418SOL     OW30889   0.088   0.283   9.027  0.1683 -0.5803 -0.6379
 6418SOL    HW130890   0.079   0.348   9.096  2.4944 -0.3382 -0.5559
 6418SOL    HW230891   0.061   0.339   8.954  1.8359 -0.8632 -1.4852
 6419SOL     OW30892   1.830   0.833   9.153  0.2162  0.3508  0.0152
 6419SOL    HW130893   1.759   0.893   9.179  0.4879 -0.3110  2.2773
 6419SOL    HW230894   1.880   0.905   9.114 -2.2677  2.3761  0.5512
 6420SOL     OW30895   1.854   2.716   0.680  0.3768 -0.1516 -0.3891
 6420SOL    HW130896   1.834   2.810   0.687 -2.0308 -0.6983  0.1095
 6420SOL    HW230897   1.773   2.667   0.694  0.0073  0.0184 -1.9503
 6421SOL     OW30898   0.278   4.691  15.974 -0.1074 -0.5003 -0.4448
 6421SOL    HW130899   0.327   4.657  16.049 -1.2100  0.5377  0.7439
 6421SOL    HW230900   0.336   4.657  15.905  0.1144  0.7368 -0.8637
 6422SOL     OW30901   2.126   3.936   5.961 -0.1318  0.0681  0.4569
 6422SOL    HW130902   2.140   3.972   5.874  0.6011 -1.9650 -0.2613
 6422SOL    HW230903   2.033   3.917   5.953 -0.0988  0.2905 -0.3875
 6423SOL     OW30904   3.567   2.404   1.570  0.5658 -0.1209 -0.2548
 6423SOL    HW130905   3.641   2.431   1.516 -0.5109  2.1819 -0.6012
 6423SOL    HW230906   3.531   2.337   1.512  0.5376 -0.6072  0.3303
 6424SOL     OW30907   1.197   0.123   4.533  0.2156 -0.1458  0.1638
 6424SOL    HW130908   1.274   0.075   4.502  0.6527  1.5021 -1.3806
 6424SOL    HW230909   1.124   0.079   4.490  1.9724 -1.4685 -1.4721
 6425SOL     OW30910   1.548   0.927  12.494  0.3189 -0.2178 -0.1718
 6425SOL    HW130911   1.496   0.864  12.544 -0.6040 -0.4177 -1.3660
 6425SOL    HW230912   1.523   0.917  12.402 -0.1369  0.3077 -0.1040
 6426SOL     OW30913   0.187   3.535   6.267 -0.0014  0.2696  0.8772
 6426SOL    HW130914   0.244   3.498   6.334  0.9525 -0.5011 -0.3530
 6426SOL    HW230915   0.178   3.625   6.295 -1.2973 -0.5244  2.9695
 6427SOL     OW30916   2.765   4.645   1.177 -0.1435  0.1630  0.1510
 6427SOL    HW130917   2.706   4.700   1.229 -1.7213 -2.3865  1.0370
 6427SOL    HW230918   2.727   4.663   1.091  0.3140  1.1100  0.1471
 6428SOL     OW30919   1.886   2.497   4.830  0.1579  0.3903 -0.0901
 6428SOL    HW130920   1.970   2.541   4.842 -0.7225  1.7773  0.8740
 6428SOL    HW230921   1.911   2.406   4.814 -2.4808 -0.1029 -1.3488
 6429SOL     OW30922   3.733   2.030   6.460  0.2141 -0.1890 -0.3023
 6429SOL    HW130923   3.803   2.078   6.416  0.6026 -1.4734 -1.0941
 6429SOL    HW230924   3.784   1.949   6.466  0.8661  0.2755  0.4243
 6430SOL     OW30925   0.171   3.135   6.060 -0.2410 -0.9436 -0.8303
 6430SOL    HW130926   0.156   3.105   5.970  2.2065 -2.0693 -0.8681
 6430SOL    HW230927   0.109   3.088   6.117  0.1737 -1.9871 -1.2305
 6431SOL     OW30928   1.873   2.038   4.763  0.1599  0.1850  0.4564
 6431SOL    HW130929   1.963   2.006   4.759  0.4042  0.7892  1.0979
 6431SOL    HW230930   1.829   1.995   4.690 -0.5101  0.4453  0.6995
 6432SOL     OW30931   3.961   2.229   8.358  0.2254 -0.3709 -0.0954
 6432SOL    HW130932   3.921   2.154   8.402 -0.1706 -2.5836 -4.1676
 6432SOL    HW230933   3.894   2.297   8.362 -1.3498 -1.9947  1.2044
 6433SOL     OW30934   0.830   3.544   2.654  0.6312 -0.4238 -0.3387
 6433SOL    HW130935   0.862   3.524   2.742  0.0354 -2.2062 -0.5278
 6433SOL    HW230936   0.770   3.613   2.683 -0.3688 -1.4995  0.2026
 6434SOL     OW30937   2.291   2.496  16.875 -0.0151  0.3232  0.1922
 6434SOL    HW130938   2.340   2.492  16.958  0.5281 -0.9652 -0.1731
 6434SOL    HW230939   2.272   2.589  16.863 -0.8800  0.2935  1.3784
 6435SOL     OW30940   2.150   0.621   3.544 -0.0008  0.7682  0.0042
 6435SOL    HW130941   2.064   0.624   3.586 -0.9034  2.6034 -2.0051
 6435SOL    HW230942   2.185   0.553   3.602  0.1532  0.9015  0.0673
 6436SOL     OW30943   1.696   2.913   0.960  0.3184  0.1035  0.2909
 6436SOL    HW130944   1.631   2.975   0.928  0.1902 -0.6393 -0.8826
 6436SOL    HW230945   1.768   2.937   0.902  2.6392  0.4722  3.2615
 6437SOL     OW30946   3.254   0.265   9.956 -0.7852 -0.5008 -0.3591
 6437SOL    HW130947   3.165   0.257   9.992 -0.7598 -0.6709 -0.3306
 6437SOL    HW230948   3.280   0.346   9.999 -1.1108  0.7898 -2.5737
 6438SOL     OW30949   3.843   2.539  16.019 -0.1344  0.0108 -0.2795
 6438SOL    HW130950   3.888   2.458  15.997  0.9378  0.7595 -0.8209
 6438SOL    HW230951   3.908   2.583  16.074 -1.9154 -0.4954  2.2802
 6439SOL     OW30952   2.399   2.035   4.164 -0.1983 -0.3956  0.1081
 6439SOL    HW130953   2.420   2.083   4.244 -0.4277  0.8685 -0.5943
 6439SOL    HW230954   2.467   2.070   4.108 -1.1070  0.5140 -0.4244
 6440SOL     OW30955   1.018   1.660   5.777  0.5810 -0.3173 -0.2510
 6440SOL    HW130956   1.109   1.689   5.778  0.2501  0.6800  0.7068
 6440SOL    HW230957   0.978   1.693   5.696 -1.3595  0.3905  0.9960
 6441SOL     OW30958   0.663   0.212   5.554  0.0070 -0.2223  0.0554
 6441SOL    HW130959   0.654   0.306   5.567 -0.2729  0.1080 -2.5336
 6441SOL    HW230960   0.752   0.223   5.521  0.1948 -0.3433  0.5151
 6442SOL     OW30961   1.451   2.026   4.982  0.3674 -0.0035  0.1400
 6442SOL    HW130962   1.520   2.064   4.928  2.0725 -0.3165  2.1116
 6442SOL    HW230963   1.433   1.946   4.931 -0.8584  0.9293 -0.8860
 6443SOL     OW30964   4.384   2.533   3.537 -0.1578  0.1404 -0.0532
 6443SOL    HW130965   4.324   2.458   3.535  2.3861 -1.8823 -1.2924
 6443SOL    HW230966   4.461   2.499   3.491  1.3659 -0.8426  3.2371
 6444SOL     OW30967   4.502   0.447   5.351 -0.4333  0.5756 -0.0616
 6444SOL    HW130968   4.596   0.434   5.361 -0.2077  0.8917 -1.7410
 6444SOL    HW230969   4.501   0.542   5.366  0.5221  0.2757  1.8809
 6445SOL     OW30970   4.504   3.584   2.579 -0.1978 -0.1812  0.2222
 6445SOL    HW130971   4.548   3.623   2.655 -0.6553  1.8063 -0.5201
 6445SOL    HW230972   4.576   3.578   2.516  0.7722 -0.3662  1.3503
 6446SOL     OW30973   2.092   0.814   9.009  0.1954 -0.4775 -0.2667
 6446SOL    HW130974   2.024   0.881   9.019  1.2401  0.7063 -1.0951
 6446SOL    HW230975   2.150   0.863   9.067  0.0995  0.9452 -1.3661
 6447SOL     OW30976   4.290   3.611   5.629 -0.0295 -0.3619  0.1764
 6447SOL    HW130977   4.255   3.681   5.573  1.5086 -1.2622 -1.8867
 6447SOL    HW230978   4.256   3.533   5.586 -0.8169  0.8567 -1.4048
 6448SOL     OW30979   4.298   0.571   3.018 -0.0997  0.3928 -0.2825
 6448SOL    HW130980   4.212   0.570   2.977 -1.1723 -0.1058  1.9730
 6448SOL    HW230981   4.328   0.482   2.999  0.8768  0.6489  0.0578
 6449SOL     OW30982   3.745   0.199   6.181  0.3495  0.2372 -0.3716
 6449SOL    HW130983   3.729   0.285   6.219  1.0439  0.9652 -1.7540
 6449SOL    HW230984   3.690   0.197   6.103  1.3898 -4.3318 -0.9882
 6450SOL     OW30985   1.428   1.345  15.695  0.2112  0.5230  0.5767
 6450SOL    HW130986   1.344   1.361  15.652  0.1174  0.2685  0.6678
 6450SOL    HW230987   1.459   1.432  15.719 -1.1478  0.6908  1.6905
 6451SOL     OW30988   4.405   4.673   5.521  0.8006  0.1308  0.2791
 6451SOL    HW130989   4.428   4.674   5.428 -3.2127  0.8742 -0.7227
 6451SOL    HW230990   4.408   4.580   5.545 -0.1822 -0.2584 -1.0941
 6452SOL     OW30991   3.204   4.203   6.237 -0.2352  0.4748 -0.0596
 6452SOL    HW130992   3.160   4.223   6.154 -0.2773  0.5610 -0.0169
 6452SOL    HW230993   3.276   4.266   6.241  0.3969 -0.2826  0.3499
 6453SOL     OW30994   0.157   3.559  10.768 -0.6282  0.3617 -0.8565
 6453SOL    HW130995   0.062   3.574  10.761 -0.7944  1.5659  4.0085
 6453SOL    HW230996   0.181   3.626  10.831 -0.5222 -0.6730  0.2026
 6454SOL     OW30997   3.526   3.494  13.305  0.5515 -0.0414 -0.3817
 6454SOL    HW130998   3.595   3.466  13.366  0.4843 -0.9447 -0.7143
 6454SOL    HW230999   3.474   3.414  13.304  1.6610 -0.7863  0.7476
 6455SOL     OW31000   3.368   1.937   8.802  0.2046 -0.1614  0.2711
 6455SOL    HW131001   3.273   1.933   8.790  0.2402  0.6264 -0.2529
 6455SOL    HW231002   3.396   1.894   8.721 -0.4801 -1.4592  0.7157
 6456SOL     OW31003   0.756   3.723   8.885  0.2440  0.4653 -0.9403
 6456SOL    HW131004   0.661   3.721   8.874  0.1979  3.1060 -1.2263
 6456SOL    HW231005   0.790   3.793   8.828  1.9867  1.0519  0.8567
 6457SOL     OW31006   3.331   3.970  11.058 -0.3241  0.0832 -0.6122
 6457SOL    HW131007   3.242   3.954  11.088  0.1101 -2.5138 -0.7045
 6457SOL    HW231008   3.343   4.055  11.099  0.9924 -0.8126  0.9065
 6458SOL     OW31009   4.350   2.806   7.237  0.1071 -0.1365  0.6364
 6458SOL    HW131010   4.364   2.806   7.142  1.5418  0.1080  0.8540
 6458SOL    HW231011   4.262   2.769   7.240 -0.7083  1.8073  0.3656
 6459SOL     OW31012   0.693   1.864   2.744 -0.6046  0.2530  0.4645
 6459SOL    HW131013   0.681   1.798   2.676  1.1016  0.9401 -0.4857
 6459SOL    HW231014   0.662   1.812   2.819 -1.0584  1.6459  1.2501
 6460SOL     OW31015   1.533   0.198  12.059 -0.4942  0.1595  0.0246
 6460SOL    HW131016   1.533   0.292  12.039 -1.1975  0.2917  0.6405
 6460SOL    HW231017   1.442   0.169  12.067 -0.9321  1.7674  0.8325
 6461SOL     OW31018   0.273   4.046   7.628 -0.0146 -0.5883 -0.5972
 6461SOL    HW131019   0.177   4.051   7.629  0.0659  1.0076 -1.1256
 6461SOL    HW231020   0.285   4.045   7.533 -1.3664 -2.7644 -0.7402
 6462SOL     OW31021   3.496   4.396   3.396  0.6419 -0.1022 -0.2916
 6462SOL    HW131022   3.588   4.406   3.421  0.5870 -2.4747  0.8310
 6462SOL    HW231023   3.444   4.406   3.475 -2.3118 -0.5784 -2.1896
 6463SOL     OW31024   3.193   1.798   0.322 -0.2305 -0.4731 -0.0553
 6463SOL    HW131025   3.276   1.753   0.341  0.2939  0.1175 -0.9122
 6463SOL    HW231026   3.136   1.753   0.384  0.1724  1.4397  1.7015
 6464SOL     OW31027   3.652   2.401   3.185  0.6398  0.2564  0.1845
 6464SOL    HW131028   3.654   2.401   3.089  0.4551  2.3311  0.1948
 6464SOL    HW231029   3.607   2.478   3.217  0.3550  0.6159 -1.0783
 6465SOL     OW31030   3.574   2.982   2.080  0.3243 -0.3276  0.1031
 6465SOL    HW131031   3.606   2.970   1.991 -1.1125  1.5426 -0.6565
 6465SOL    HW231032   3.510   3.052   2.068  1.1133  0.6428  1.5052
 6466SOL     OW31033   2.211   2.769  15.658  0.2556 -0.3570 -0.1479
 6466SOL    HW131034   2.197   2.744  15.749  0.4549  0.9991  0.2442
 6466SOL    HW231035   2.251   2.688  15.625  0.3732 -0.2921 -0.1646
 6467SOL     OW31036   2.681   2.528   6.360  0.2015 -0.5687 -0.3379
 6467SOL    HW131037   2.739   2.452   6.368  0.2284 -0.3124  1.8577
 6467SOL    HW231038   2.742   2.600   6.342 -2.2274  1.4136 -0.6515
 6468SOL     OW31039   3.703   3.021   0.064 -0.3040  0.0030  0.3038
 6468SOL    HW131040   3.633   3.064   0.112 -0.8247 -0.0100 -0.4483
 6468SOL    HW231041   3.784   3.058   0.099 -0.3907 -0.0746  0.5903
 6469SOL     OW31042   0.905   3.232   8.669 -0.4622  0.1768  0.4316
 6469SOL    HW131043   0.914   3.278   8.752  1.0255 -0.1647  0.4630
 6469SOL    HW231044   0.812   3.211   8.668 -0.1411 -1.2639 -0.1693
 6470SOL     OW31045   0.206   3.322   7.750  0.2813  0.2667 -0.1922
 6470SOL    HW131046   0.190   3.244   7.696  0.2107  1.8950 -2.5135
 6470SOL    HW231047   0.123   3.343   7.794  1.0240  2.2615  0.2271
 6471SOL     OW31048   3.076   0.165   8.980  0.2424  0.5212 -0.3342
 6471SOL    HW131049   3.159   0.135   9.017 -1.1554  0.0600  2.3983
 6471SOL    HW231050   3.035   0.080   8.965  0.1740  0.6209 -0.7171
 6472SOL     OW31051   0.909   1.990   2.643 -0.0390  0.2130  0.0805
 6472SOL    HW131052   0.936   1.908   2.601 -1.5633 -0.5356  0.5570
 6472SOL    HW231053   0.826   1.973   2.688  1.7167 -1.4899  2.7403
 6473SOL     OW31054   1.291   1.936   8.164  0.1524  0.3389 -0.6459
 6473SOL    HW131055   1.206   1.967   8.195  0.5587 -0.2512  1.0369
 6473SOL    HW231056   1.265   1.926   8.073 -0.9682  0.1240 -0.2933
 6474SOL     OW31057   2.373   2.196  13.265 -0.1393 -0.5777 -0.1155
 6474SOL    HW131058   2.446   2.229  13.318 -1.0546  0.1105  0.7022
 6474SOL    HW231059   2.302   2.240  13.312  0.2409  0.8694 -0.8654
 6475SOL     OW31060   2.410   0.503   4.141 -0.3732  0.5509 -0.1588
 6475SOL    HW131061   2.422   0.598   4.139  1.4712  0.3475  1.5885
 6475SOL    HW231062   2.463   0.472   4.215  0.6877 -0.0900 -1.1891
 6476SOL     OW31063   0.571   4.310  17.158  0.5428  0.2339 -0.7659
 6476SOL    HW131064   0.487   4.265  17.164  0.3455  1.0358  2.2798
 6476SOL    HW231065   0.559   4.367  17.081  0.3178  0.3122 -0.6738
 6477SOL     OW31066   1.008   1.197  14.834 -0.5451  0.5286  0.0457
 6477SOL    HW131067   0.934   1.257  14.833  0.9290  2.3310 -1.4468
 6477SOL    HW231068   1.035   1.196  14.742 -1.3986  0.1433 -0.1974
 6478SOL     OW31069   1.455   4.412   0.327  0.3267  0.6931  0.3784
 6478SOL    HW131070   1.495   4.495   0.350  0.1663  0.7104  0.5903
 6478SOL    HW231071   1.411   4.440   0.247 -1.4850 -2.4380  0.2385
 6479SOL     OW31072   3.500   0.441   7.622  0.2968  0.0346 -0.2012
 6479SOL    HW131073   3.470   0.390   7.697  1.1321  0.7954  0.6334
 6479SOL    HW231074   3.556   0.380   7.574  0.1783 -0.3108  0.1021
 6480SOL     OW31075   1.538   1.941   2.659 -0.6638 -0.8454 -0.0219
 6480SOL    HW131076   1.563   1.936   2.567  0.0654  0.8988  0.0727
 6480SOL    HW231077   1.605   1.891   2.706  0.5152  2.4424  1.8289
 6481SOL     OW31078   1.718   3.157   3.786  0.1007 -0.1224 -0.2959
 6481SOL    HW131079   1.811   3.136   3.799  0.2267  0.6012 -0.0311
 6481SOL    HW231080   1.731   3.229   3.724 -0.4604  0.3183  0.1103
 6482SOL     OW31081   0.464   3.128   5.832 -0.0651  0.1694 -0.0317
 6482SOL    HW131082   0.482   3.078   5.752 -1.4678 -1.3680  0.6175
 6482SOL    HW231083   0.383   3.171   5.806  0.0166  1.2230  1.4486
 6483SOL     OW31084   3.088   3.214   3.908  1.1121  0.3708  0.4123
 6483SOL    HW131085   3.119   3.125   3.928 -0.4498 -0.0660  0.9094
 6483SOL    HW231086   3.163   3.261   3.873  0.5131  0.0905 -1.2549
 6484SOL     OW31087   4.172   4.306   2.892 -0.8240  0.3687  0.3921
 6484SOL    HW131088   4.115   4.374   2.926 -2.6137 -1.0317  0.1933
 6484SOL    HW231089   4.174   4.332   2.800 -3.5714  3.0274  1.0894
 6485SOL     OW31090   1.242   3.588   1.449 -0.2561  0.1562  0.7010
 6485SOL    HW131091   1.223   3.656   1.384  3.4715  1.0911  0.5635
 6485SOL    HW231092   1.157   3.563   1.484 -0.8884 -0.3511 -1.2326
 6486SOL     OW31093   1.046   0.869   2.852  0.1428 -0.1417  0.1019
 6486SOL    HW131094   1.093   0.787   2.836 -0.0704 -0.1276 -0.5992
 6486SOL    HW231095   1.079   0.938   2.794  1.7485 -0.6307  0.4283
 6487SOL     OW31096   3.712   0.612   4.778 -0.0674  0.4579 -0.7242
 6487SOL    HW131097   3.693   0.569   4.862  2.0866 -0.0738 -0.5248
 6487SOL    HW231098   3.725   0.705   4.796 -0.9395  0.7540 -1.6503
 6488SOL     OW31099   0.374   2.425   8.595 -0.1357 -0.0613  0.2505
 6488SOL    HW131100   0.323   2.487   8.542  0.0776  1.1252  1.4624
 6488SOL    HW231101   0.400   2.482   8.667 -1.8392 -0.1609  0.9435
 6489SOL     OW31102   1.874   1.457   7.270  0.0399  0.1971 -0.0049
 6489SOL    HW131103   1.948   1.441   7.329  0.8692  1.5337 -0.6948
 6489SOL    HW231104   1.800   1.424   7.321 -1.8457  4.6675  0.1355
 6490SOL     OW31105   3.755   0.013   5.578 -0.4178  0.3027  0.1102
 6490SOL    HW131106   3.737   4.690   5.652  0.3816 -0.1971 -0.0845
 6490SOL    HW231107   3.778   4.679   5.515 -0.2605  0.7492 -0.3186
 6491SOL     OW31108   4.436   3.941   5.635 -0.2478  0.3009 -0.3706
 6491SOL    HW131109   4.531   3.934   5.629 -0.1814  2.5566 -2.0004
 6491SOL    HW231110   4.424   3.938   5.730 -1.4633  0.8201 -0.5089
 6492SOL     OW31111   3.708   1.347  11.940  0.3276 -0.2847 -0.2804
 6492SOL    HW131112   3.644   1.284  11.908 -0.0910  1.2074 -2.4001
 6492SOL    HW231113   3.741   1.295  12.013  0.9333  0.7185  0.1634
 6493SOL     OW31114   2.735   2.431   0.126 -0.7325  0.8102 -0.5009
 6493SOL    HW131115   2.642   2.441   0.147 -0.4681  0.3808  0.8457
 6493SOL    HW231116   2.777   2.407   0.208  0.6499 -2.1506 -2.0917
 6494SOL     OW31117   0.587   4.463   7.568  0.0248 -0.2715  0.3205
 6494SOL    HW131118   0.597   4.435   7.659 -0.1170 -0.5731  0.2420
 6494SOL    HW231119   0.541   4.544   7.588  1.7161  0.6427  0.5859
 6495SOL     OW31120   4.232   4.463   5.258 -0.3632 -0.0907  0.0306
 6495SOL    HW131121   4.190   4.517   5.325  1.1588 -1.1183  1.7791
 6495SOL    HW231122   4.155   4.412   5.232  0.6183 -0.0839 -2.9204
 6496SOL     OW31123   2.428   4.082   0.734 -0.1521 -0.2863  0.4485
 6496SOL    HW131124   2.410   4.174   0.754 -1.0826  0.2491 -2.9469
 6496SOL    HW231125   2.388   4.048   0.815  2.1797 -0.9427  1.3419
 6497SOL     OW31126   3.929   1.282   6.600  0.1583  0.6607 -1.2409
 6497SOL    HW131127   3.905   1.195   6.568  1.8569 -1.1843  2.4156
 6497SOL    HW231128   3.878   1.282   6.682  0.6758  1.2254 -0.9212
 6498SOL     OW31129   0.597   1.029   4.566 -0.0613 -0.6617 -0.1659
 6498SOL    HW131130   0.536   1.096   4.535  2.4041  2.3002  1.4482
 6498SOL    HW231131   0.668   1.041   4.502  0.6384 -0.7431  0.5895
 6499SOL     OW31132   2.322   3.902   0.504  0.0087 -0.7846  0.5245
 6499SOL    HW131133   2.290   3.939   0.586  1.1799 -1.0515  1.0969
 6499SOL    HW231134   2.258   3.831   0.492 -1.4417  0.5624  0.2427
 6500SOL     OW31135   3.318   2.811   6.931 -0.6370 -0.0168  0.3754
 6500SOL    HW131136   3.225   2.788   6.933 -1.1044  1.7600 -1.7894
 6500SOL    HW231137   3.326   2.906   6.923 -0.3025 -0.0036  0.8974
 6501SOL     OW31138   4.116   1.240   9.847  0.2080 -0.1661 -0.8020
 6501SOL    HW131139   4.185   1.279   9.794  0.1599 -0.1966 -0.8865
 6501SOL    HW231140   4.159   1.232   9.932 -2.9842 -1.3604  0.7078
 6502SOL     OW31141   2.107   3.695   8.925  0.2147 -0.2794  0.6924
 6502SOL    HW131142   2.124   3.604   8.902 -0.8840 -0.4861  0.6780
 6502SOL    HW231143   2.050   3.720   8.852  3.2500  1.4931 -1.0924
 6503SOL     OW31144   0.317   1.832  12.326 -0.2923 -0.2297  0.1291
 6503SOL    HW131145   0.265   1.822  12.405 -1.4348  1.8157 -0.3553
 6503SOL    HW231146   0.318   1.926  12.304  1.3330  0.1550  1.8095
 6504SOL     OW31147   1.529   0.974   3.770  0.2206  0.7045 -0.1324
 6504SOL    HW131148   1.574   1.054   3.742  1.4306  0.1532  0.2431
 6504SOL    HW231149   1.501   0.998   3.859  2.4401 -1.1768  1.0676
 6505SOL     OW31150   0.026   2.499   4.101 -0.5664 -0.7791  0.1859
 6505SOL    HW131151   4.691   2.556   4.069  1.5694  1.8180  0.2398
 6505SOL    HW231152   0.001   2.418   4.057 -1.2260  0.6193 -2.0089
 6506SOL     OW31153   2.365   1.035  12.809  0.0540  0.1150 -0.0639
 6506SOL    HW131154   2.307   1.049  12.734  0.7251  1.8980 -0.2411
 6506SOL    HW231155   2.430   1.096  12.776 -0.3637 -0.1163 -1.3159
 6507SOL     OW31156   3.372   4.313   2.334 -0.3654  0.1634  0.1628
 6507SOL    HW131157   3.278   4.309   2.315  0.2510  0.6276 -3.0745
 6507SOL    HW231158   3.390   4.363   2.254 -0.5844  2.0968  1.3114
 6508SOL     OW31159   0.775   3.467   1.268 -0.2217  0.5197 -0.3474
 6508SOL    HW131160   0.705   3.474   1.332 -0.7808 -0.4003 -0.8534
 6508SOL    HW231161   0.815   3.386   1.300  0.0919  0.6198 -0.4905
 6509SOL     OW31162   3.547   1.199   5.259 -0.4969  0.1705  0.2833
 6509SOL    HW131163   3.477   1.257   5.227 -0.6084  0.1517  0.4962
 6509SOL    HW231164   3.508   1.112   5.250  0.5345 -0.2449 -0.1690
 6510SOL     OW31165   1.482   4.692  14.745 -0.7130  0.0423  0.1488
 6510SOL    HW131166   1.557   0.017  14.748 -2.5419  2.3359  0.3505
 6510SOL    HW231167   1.492   4.654  14.833  3.0965  0.1220 -0.2471
 6511SOL     OW31168   3.182   0.563   4.937 -0.0502  0.2232  0.1579
 6511SOL    HW131169   3.145   0.621   4.871  0.2862 -0.7350 -0.8688
 6511SOL    HW231170   3.110   0.564   4.999  1.2305 -0.9672  1.6588
 6512SOL     OW31171   2.907   0.141  15.597  0.0649 -0.6500 -0.0044
 6512SOL    HW131172   2.825   0.095  15.580 -2.1613  2.8447  1.2630
 6512SOL    HW231173   2.922   0.165  15.505  0.7788 -1.1106 -0.0131
 6513SOL     OW31174   3.979   2.457   8.143  0.4894  0.4275  0.3625
 6513SOL    HW131175   4.018   2.422   8.063  0.6532  1.0213  0.1816
 6513SOL    HW231176   4.055   2.461   8.202  1.6865  0.0567 -1.1348
 6514SOL     OW31177   3.643   0.939   7.837  0.0452  0.1165  0.6165
 6514SOL    HW131178   3.586   0.989   7.896 -1.1772 -0.3610 -0.1442
 6514SOL    HW231179   3.615   0.849   7.853  0.5245 -0.3365 -1.0328
 6515SOL     OW31180   1.047   4.323  16.299  0.3921  0.3344  0.0938
 6515SOL    HW131181   1.116   4.257  16.290 -1.4708 -1.6067  0.0518
 6515SOL    HW231182   1.096   4.390  16.346 -0.3921  1.3174 -0.4817
 6516SOL     OW31183   1.085   4.550   5.913 -0.2929 -0.5208  0.1711
 6516SOL    HW131184   1.043   4.464   5.920  1.4172 -1.3014  0.9359
 6516SOL    HW231185   1.141   4.552   5.990  1.1764  0.2345 -0.9193
 6517SOL     OW31186   1.639   2.719   3.161  0.0252 -0.4609 -0.1154
 6517SOL    HW131187   1.660   2.777   3.235  1.4314 -0.6031 -0.3952
 6517SOL    HW231188   1.691   2.772   3.101 -1.1507 -0.6992 -1.3337
 6518SOL     OW31189   2.096   3.960   9.877 -0.6783 -0.4558 -0.1297
 6518SOL    HW131190   2.042   3.889   9.842 -0.1491 -0.4611 -0.9222
 6518SOL    HW231191   2.022   4.012   9.910 -0.8824 -0.5524 -0.4335
 6519SOL     OW31192   2.653   0.031   1.388 -0.1952  0.1188  0.3349
 6519SOL    HW131193   2.682   4.717   1.466  2.1680 -1.3609 -1.4823
 6519SOL    HW231194   2.588   4.702   1.357 -0.0494  0.3686 -0.4751
 6520SOL     OW31195   1.644   4.702   8.214  0.1433 -0.4559  0.0680
 6520SOL    HW131196   1.675   4.696   8.304 -1.9532 -1.4517  0.7316
 6520SOL    HW231197   1.650   4.610   8.189 -3.2727  0.1196 -2.8614
 6521SOL     OW31198   0.399   1.832   5.793 -0.5039 -0.1271  0.1664
 6521SOL    HW131199   0.436   1.771   5.729 -2.2339 -1.2553  0.2389
 6521SOL    HW231200   0.350   1.893   5.738  2.0678 -0.1481 -2.1400
 6522SOL     OW31201   0.307   3.964  16.630  0.0016  1.1410  0.3528
 6522SOL    HW131202   0.337   3.965  16.539 -0.1470 -0.2614  0.2922
 6522SOL    HW231203   0.381   3.918  16.670  1.0852  1.3116 -1.4254
 6523SOL     OW31204   1.748   2.804  13.926 -0.2216  0.2335 -0.6029
 6523SOL    HW131205   1.704   2.738  13.981  0.5262  1.0807  1.0115
 6523SOL    HW231206   1.786   2.743  13.863 -1.8313 -0.2208 -1.1592
 6524SOL     OW31207   1.380   3.180   5.733 -0.0694  0.0897 -1.0394
 6524SOL    HW131208   1.329   3.107   5.769 -1.0448  1.7611  0.9382
 6524SOL    HW231209   1.331   3.190   5.651 -2.1668  0.0239  0.2137
 6525SOL     OW31210   4.630   1.376  17.455  0.2058  0.0784  0.0493
 6525SOL    HW131211   4.702   1.440  17.449  0.2802  0.0134  0.2612
 6525SOL    HW231212   4.638   1.319  17.379  0.9730 -1.4110  1.2468
 6526SOL     OW31213   1.157   2.022   7.174 -0.9385 -0.1261 -0.5889
 6526SOL    HW131214   1.103   2.025   7.253 -1.0674  0.9396 -0.7104
 6526SOL    HW231215   1.134   2.111   7.146 -1.0083  0.6648  2.0519
 6527SOL     OW31216   4.658   2.053   1.811  0.2233 -0.5332 -0.2580
 6527SOL    HW131217   4.654   1.961   1.785  1.3188 -0.7831  0.4658
 6527SOL    HW231218   4.630   2.045   1.902  1.2348  0.9213  0.1745
 6528SOL     OW31219   3.711   0.565   6.940 -0.6945  0.0806 -0.2776
 6528SOL    HW131220   3.626   0.523   6.959  0.9417 -3.1262  0.0389
 6528SOL    HW231221   3.692   0.658   6.950  1.3230  0.5771 -1.1884
 6529SOL     OW31222   1.356   0.954   0.795  0.5389 -0.2655  0.3638
 6529SOL    HW131223   1.406   0.969   0.715  0.7668  1.3337  0.7968
 6529SOL    HW231224   1.269   0.989   0.774  0.3314 -1.1105 -0.1559
 6530SOL     OW31225   2.176   0.370   4.536 -0.6637 -0.6560  0.3779
 6530SOL    HW131226   2.233   0.374   4.612  1.5577  0.0662 -1.3021
 6530SOL    HW231227   2.170   0.461   4.504  0.3871 -0.2168  1.4374
 6531SOL     OW31228   2.249   1.057   8.835 -0.1348  0.0776 -0.2567
 6531SOL    HW131229   2.318   1.106   8.790 -0.5972  1.6919  0.8082
 6531SOL    HW231230   2.169   1.054   8.781  0.2493 -0.6483 -0.7799
 6532SOL     OW31231   3.799   3.118   3.657  0.0775  0.5678 -0.0752
 6532SOL    HW131232   3.831   3.207   3.670  0.9443 -0.1132  2.4520
 6532SOL    HW231233   3.707   3.121   3.685 -0.2090 -1.5955 -0.7250
 6533SOL     OW31234   3.233   4.709  14.017 -0.0387  0.6624 -0.5429
 6533SOL    HW131235   3.319   0.011  13.995  1.6081 -2.4242  0.8403
 6533SOL    HW231236   3.169   0.041  13.991 -0.1982  1.0382  0.7644
 6534SOL     OW31237   2.251   0.287   2.356  0.1558 -0.2185 -0.9131
 6534SOL    HW131238   2.331   0.263   2.310  0.2403 -1.8746  0.0885
 6534SOL    HW231239   2.187   0.265   2.289 -0.2487  0.5234 -0.7824
 6535SOL     OW31240   1.477   3.479   7.347 -0.4390  0.4052  0.1872
 6535SOL    HW131241   1.542   3.449   7.411 -3.2369 -1.4650  2.1111
 6535SOL    HW231242   1.395   3.432   7.361  0.0987 -0.4516  0.4920
 6536SOL     OW31243   0.695   1.865   9.469  0.2285 -0.0156 -0.1268
 6536SOL    HW131244   0.651   1.861   9.384 -0.8889 -0.9368  0.4918
 6536SOL    HW231245   0.679   1.776   9.501  2.5879 -0.2925  0.2115
 6537SOL     OW31246   1.271   0.986  11.536  0.0716  0.6363  0.7781
 6537SOL    HW131247   1.313   0.931  11.470 -0.4986  0.0771  0.8787
 6537SOL    HW231248   1.347   1.002  11.592  0.8377  1.0475 -0.3649
 6538SOL     OW31249   4.483   4.532  10.208 -0.4024  0.0500 -0.3649
 6538SOL    HW131250   4.562   4.583  10.188  0.1178 -1.1320 -1.2697
 6538SOL    HW231251   4.483   4.545  10.303 -0.2323 -0.4294 -0.3003
 6539SOL     OW31252   0.920   3.683  15.918  0.1613 -0.0849 -0.4473
 6539SOL    HW131253   0.871   3.738  15.857  0.6961 -0.9844 -1.6984
 6539SOL    HW231254   0.882   3.710  16.001  0.1002 -1.9759  0.1482
 6540SOL     OW31255   1.837   4.364   7.461 -0.1416  0.5920  0.5280
 6540SOL    HW131256   1.929   4.357   7.433 -1.2285 -1.5978 -2.4678
 6540SOL    HW231257   1.787   4.403   7.389 -0.6794 -1.5438 -0.2285
 6541SOL     OW31258   1.768   1.908   0.769  0.8251  0.8525 -0.4023
 6541SOL    HW131259   1.822   1.986   0.754 -1.2542  2.5082  0.7953
 6541SOL    HW231260   1.812   1.850   0.832 -1.6793  0.8207  1.2830
 6542SOL     OW31261   4.092   1.820   5.469  0.3638  0.0821  0.1402
 6542SOL    HW131262   4.106   1.856   5.381 -0.5778 -1.0414 -0.4688
 6542SOL    HW231263   4.076   1.733   5.433  0.2123 -1.0866  3.0991
 6543SOL     OW31264   0.481   3.004   3.670  0.2709 -0.9696  0.2863
 6543SOL    HW131265   0.543   3.077   3.677 -1.2271  0.4668 -1.5711
 6543SOL    HW231266   0.469   3.003   3.575  0.0708  3.0772  0.2864
 6544SOL     OW31267   1.536   1.859   7.442 -0.1375 -0.2647 -0.2941
 6544SOL    HW131268   1.607   1.903   7.396  1.4608 -1.0688  1.4032
 6544SOL    HW231269   1.465   1.920   7.420  1.3028  1.7117  0.5846
 6545SOL     OW31270   2.163   4.389   1.245  0.0298  0.3513 -0.1961
 6545SOL    HW131271   2.082   4.438   1.264  0.2584 -0.1338  2.1346
 6545SOL    HW231272   2.132   4.299   1.250 -0.3360  0.3378 -2.9199
 6546SOL     OW31273   3.359   1.695   6.121  0.2673 -0.2005 -0.2175
 6546SOL    HW131274   3.339   1.602   6.117  3.1652 -0.8711  1.5489
 6546SOL    HW231275   3.435   1.687   6.064 -0.5613  2.7848 -1.8053
 6547SOL     OW31276   1.288   2.690   5.491 -0.4249 -0.2188  0.5825
 6547SOL    HW131277   1.221   2.624   5.473  0.3379 -0.3775 -1.5902
 6547SOL    HW231278   1.286   2.677   5.586 -1.9846 -0.7367  0.4733
 6548SOL     OW31279   3.701   3.398   3.221  0.3498  0.5752  0.0272
 6548SOL    HW131280   3.688   3.425   3.311  2.2764 -0.3683  0.5888
 6548SOL    HW231281   3.753   3.319   3.236  0.5560  0.5079 -1.0303
 6549SOL     OW31282   1.699   2.896  14.635 -0.1248 -0.2142 -0.6792
 6549SOL    HW131283   1.634   2.852  14.691 -0.5095  1.2327  0.0030
 6549SOL    HW231284   1.760   2.824  14.617 -2.0632 -1.8466 -0.7923
 6550SOL     OW31285   3.144   4.430   2.894  0.0284 -0.0248  0.3521
 6550SOL    HW131286   3.135   4.350   2.842  0.9388  0.1927 -0.1442
 6550SOL    HW231287   3.077   4.408   2.959  0.4392 -0.2921  0.6778
 6551SOL     OW31288   1.562   1.912  12.210 -0.0996 -0.1350 -0.3345
 6551SOL    HW131289   1.505   1.856  12.157  0.2686  1.5743 -2.5512
 6551SOL    HW231290   1.538   1.881  12.297  2.7363  0.5823  0.7024
 6552SOL     OW31291   2.408   3.108   9.423 -0.2345  0.4260 -0.3318
 6552SOL    HW131292   2.359   3.166   9.481 -0.1967 -0.3543  0.4777
 6552SOL    HW231293   2.496   3.124   9.456  0.4562 -1.8585 -1.0796
 6553SOL     OW31294   4.588   1.863   7.700 -0.0594 -0.0603  0.1343
 6553SOL    HW131295   4.563   1.881   7.610 -0.4764  0.0821  0.2781
 6553SOL    HW231296   4.499   1.859   7.736 -0.4728 -0.2734 -0.9287
 6554SOL     OW31297   3.050   2.134   0.690 -0.0465  0.5384 -0.2883
 6554SOL    HW131298   3.074   2.173   0.606  1.5264  1.6831  0.6828
 6554SOL    HW231299   3.086   2.047   0.670 -4.4946 -0.5759 -3.4748
 6555SOL     OW31300   2.495   2.681  16.941 -0.0922 -0.5415  0.0540
 6555SOL    HW131301   2.481   2.637  17.025  1.0938 -1.1210 -0.0557
 6555SOL    HW231302   2.418   2.738  16.944  1.1159  1.2438 -2.9360
 6556SOL     OW31303   4.427   1.052   7.839 -0.5643  0.0671  0.0105
 6556SOL    HW131304   4.345   1.058   7.888 -1.4074 -0.0437 -1.4070
 6556SOL    HW231305   4.485   1.112   7.888 -0.1892 -0.5125  0.2734
 6557SOL     OW31306   1.259   0.957   1.989 -0.0816  0.2301 -0.2077
 6557SOL    HW131307   1.325   1.026   1.987 -0.5711  0.7035 -0.1040
 6557SOL    HW231308   1.173   0.990   2.015 -0.3096 -1.3641  1.0658
 6558SOL     OW31309   4.125   2.597  10.399  0.0844  0.0548 -0.0071
 6558SOL    HW131310   4.099   2.681  10.363  0.1253  0.5094  1.0318
 6558SOL    HW231311   4.187   2.570  10.331  1.8971 -0.5274  1.8815
 6559SOL     OW31312   0.956   0.326   3.734 -0.3754  0.3413  0.0261
 6559SOL    HW131313   0.897   0.254   3.756  0.3380 -0.3897 -0.4905
 6559SOL    HW231314   0.910   0.400   3.774  1.3806  1.6742 -0.4571
 6560SOL     OW31315   0.800   3.147   6.851  0.2223  0.3836 -0.0052
 6560SOL    HW131316   0.855   3.157   6.929 -0.9879  0.7030  0.8266
 6560SOL    HW231317   0.757   3.063   6.868 -0.2962  0.3750 -1.3374
 6561SOL     OW31318   3.407   3.512  11.793  0.1438  0.0818  0.4513
 6561SOL    HW131319   3.414   3.601  11.826 -4.0371 -0.0185  1.6224
 6561SOL    HW231320   3.446   3.533  11.708 -0.6551 -0.7926 -0.1322
 6562SOL     OW31321   2.565   2.554   5.535 -0.2473 -0.1947 -0.1755
 6562SOL    HW131322   2.620   2.555   5.457 -0.0284  0.1012 -0.0158
 6562SOL    HW231323   2.522   2.469   5.527  1.1033 -0.6750 -2.2754
 6563SOL     OW31324   3.775   3.827   3.659  0.4191 -0.0937  0.7359
 6563SOL    HW131325   3.846   3.836   3.595 -0.5098  0.6759 -0.2141
 6563SOL    HW231326   3.705   3.776   3.619 -1.7003  0.0267  4.3071
 6564SOL     OW31327   3.718   1.942  14.588  0.4395  0.1700 -0.5173
 6564SOL    HW131328   3.697   2.034  14.571  0.0989  0.1634 -0.1433
 6564SOL    HW231329   3.806   1.943  14.626  0.7905 -0.6512 -1.3238
 6565SOL     OW31330   1.708   0.857   1.147  0.9245  0.0740  0.0514
 6565SOL    HW131331   1.617   0.876   1.125  0.2544 -1.6425  1.3366
 6565SOL    HW231332   1.741   0.947   1.149  0.9696  0.0862 -1.4110
 6566SOL     OW31333   0.278   1.937   2.332 -0.7430  0.2472  0.5273
 6566SOL    HW131334   0.262   1.848   2.365  2.0927 -0.2782  0.5236
 6566SOL    HW231335   0.372   1.938   2.313 -0.5014  3.2463  1.8126
 6567SOL     OW31336   0.205   4.512   6.836 -0.6482 -0.8517  0.4568
 6567SOL    HW131337   0.198   4.480   6.926 -0.4246  1.2685  1.2250
 6567SOL    HW231338   0.111   4.519   6.818 -0.0120  3.7284 -1.0734
 6568SOL     OW31339   1.735   2.113   7.066  0.2384 -0.8841  0.0019
 6568SOL    HW131340   1.780   2.195   7.088 -1.0173 -0.3484  0.5743
 6568SOL    HW231341   1.652   2.160   7.074  0.7584  0.1564 -0.7105
 6569SOL     OW31342   0.041   1.998   6.255 -0.0889  0.5958 -0.4843
 6569SOL    HW131343   4.715   2.049   6.201 -2.3916 -2.4343 -0.8179
 6569SOL    HW231344   0.053   1.922   6.197 -1.7845 -0.3322  0.3744
 6570SOL     OW31345   1.406   0.806  13.687 -0.1348 -0.5296  0.1937
 6570SOL    HW131346   1.411   0.850  13.602 -2.6860  0.6632  0.6754
 6570SOL    HW231347   1.379   0.883  13.737 -1.6805 -0.3462 -0.9184
 6571SOL     OW31348   3.083   1.618  10.780 -0.3488 -0.1579  0.3395
 6571SOL    HW131349   3.142   1.655  10.846  1.3660 -0.7294 -0.8814
 6571SOL    HW231350   3.000   1.664  10.792  0.4303  1.8235 -1.7699
 6572SOL     OW31351   1.157   2.089  16.143  0.4221 -0.4901  0.2182
 6572SOL    HW131352   1.241   2.047  16.162  0.3487 -1.2956 -1.2650
 6572SOL    HW231353   1.166   2.121  16.053  1.5330  0.7293  0.7641
 6573SOL     OW31354   2.740   1.084   2.826 -0.0865  0.2000  0.2948
 6573SOL    HW131355   2.771   1.026   2.757  0.6276  1.8347 -0.7740
 6573SOL    HW231356   2.764   1.171   2.792 -0.8252 -0.4038 -1.7800
 6574SOL     OW31357   2.147   2.245   1.166  0.4381 -0.0951  0.2836
 6574SOL    HW131358   2.068   2.191   1.160  1.2213 -1.2598  0.3562
 6574SOL    HW231359   2.202   2.224   1.091 -0.1209  2.5159 -0.8503
 6575SOL     OW31360   1.145   1.118   2.769  0.2825  0.2845  0.0404
 6575SOL    HW131361   1.157   1.191   2.829 -0.4180  1.0249 -0.7350
 6575SOL    HW231362   1.229   1.074   2.784 -0.9153 -1.8799  0.5332
 6576SOL     OW31363   1.921   1.117  17.266 -0.0240 -0.5887  0.0170
 6576SOL    HW131364   1.933   1.173  17.190  2.8783 -0.7885  0.3373
 6576SOL    HW231365   1.971   1.156  17.337  0.0021 -1.4902  0.4937
 6577SOL     OW31366   0.386   3.559   7.184 -0.2334 -0.0630  0.4351
 6577SOL    HW131367   0.430   3.567   7.269  0.5731 -2.0332  0.2206
 6577SOL    HW231368   0.302   3.599   7.207 -0.5090 -0.6038  0.3767
 6578SOL     OW31369   2.996   3.437   5.865  0.1833 -0.2463  0.5113
 6578SOL    HW131370   2.927   3.405   5.807 -0.9458  2.0555  0.5750
 6578SOL    HW231371   3.065   3.379   5.833  1.0006  1.3430 -0.6335
 6579SOL     OW31372   2.090   3.036   3.051  0.0276 -0.4747 -0.3886
 6579SOL    HW131373   2.021   2.998   3.106  2.2370  1.8472  4.0554
 6579SOL    HW231374   2.061   3.010   2.964 -1.5572 -0.8586  0.2466
 6580SOL     OW31375   2.957   2.064   7.811  0.2516  0.4259 -0.1868
 6580SOL    HW131376   2.894   2.136   7.818 -0.5451 -0.1483 -1.4643
 6580SOL    HW231377   2.931   2.016   7.890  0.5002 -1.6108 -1.3655
 6581SOL     OW31378   0.517   1.014   9.926  0.0533  0.1938  0.3557
 6581SOL    HW131379   0.610   0.993   9.914  0.4725  2.9167 -1.2737
 6581SOL    HW231380   0.487   0.924   9.938 -1.4405  0.5512 -0.8153
 6582SOL     OW31381   3.350   0.821   7.983 -0.1299 -0.4884 -0.2784
 6582SOL    HW131382   3.436   0.854   8.009 -0.5422  1.4785 -1.3519
 6582SOL    HW231383   3.313   0.819   8.071 -0.8707  0.2640 -0.5625
 6583SOL     OW31384   3.323   3.123   5.924  0.5119 -0.1093 -0.1806
 6583SOL    HW131385   3.400   3.165   5.885 -1.6577  2.6087 -1.5244
 6583SOL    HW231386   3.305   3.179   5.999  0.8308  1.3164 -1.1737
 6584SOL     OW31387   0.499   0.003   0.944 -0.0572 -0.3505 -0.5185
 6584SOL    HW131388   0.472   4.710   1.032 -1.5799  0.1022 -0.8466
 6584SOL    HW231389   0.556   0.075   0.971 -0.8514 -0.3069  1.0716
 6585SOL     OW31390   1.351   3.889   7.043  0.0960  0.6798 -0.1262
 6585SOL    HW131391   1.401   3.967   7.065  0.1031  0.7955 -0.5405
 6585SOL    HW231392   1.264   3.925   7.022  0.6083  1.2979 -1.2167
 6586SOL     OW31393   0.100   1.166   3.086 -0.7079 -0.2859 -0.0177
 6586SOL    HW131394   0.016   1.122   3.074 -1.6524  1.0082  1.8955
 6586SOL    HW231395   0.075   1.218   3.162  0.3845 -1.2638  1.0080
 6587SOL     OW31396   2.612   1.600  13.736 -0.3634  0.3379 -0.2914
 6587SOL    HW131397   2.707   1.609  13.727 -0.1395  0.2763  2.1126
 6587SOL    HW231398   2.590   1.672  13.795 -1.6271 -0.5019  0.2604
 6588SOL     OW31399   3.229   3.662   7.645  0.1846 -0.2396 -0.2015
 6588SOL    HW131400   3.149   3.610   7.635  0.8131 -1.2055 -0.2237
 6588SOL    HW231401   3.225   3.696   7.556 -1.6682 -1.3007 -0.5303
 6589SOL     OW31402   1.602   2.170   3.645  0.6189 -0.5735 -0.3987
 6589SOL    HW131403   1.648   2.106   3.699 -0.2904  0.2376  1.3436
 6589SOL    HW231404   1.654   2.250   3.645 -0.3572  0.0666 -0.3291
 6590SOL     OW31405   0.584   4.341   3.959 -0.2104  0.2226 -0.2935
 6590SOL    HW131406   0.580   4.264   3.903 -3.6874  0.6217 -0.5930
 6590SOL    HW231407   0.628   4.312   4.039 -0.8807 -0.5550 -0.2057
 6591SOL     OW31408   3.448   2.484   2.478  0.8820  0.4324  0.3162
 6591SOL    HW131409   3.505   2.560   2.467  0.5739  0.6674  0.3343
 6591SOL    HW231410   3.422   2.504   2.568 -3.7859  1.6684 -1.3153
 6592SOL     OW31411   3.064   4.297   2.297  0.0241 -0.0407 -0.4602
 6592SOL    HW131412   3.042   4.368   2.237  1.7319  1.5945  0.8438
 6592SOL    HW231413   2.992   4.285   2.360 -0.5030 -0.4385 -1.1435
 6593SOL     OW31414   0.523   2.934   9.296  0.1992  0.5573 -0.0171
 6593SOL    HW131415   0.610   2.960   9.266  0.8090 -2.7556 -1.1297
 6593SOL    HW231416   0.522   2.903   9.387 -1.0240  0.1586 -0.1614
 6594SOL     OW31417   2.285   2.210   9.224 -0.1403 -0.3849  0.1971
 6594SOL    HW131418   2.251   2.280   9.167 -1.6048 -0.5086  0.9357
 6594SOL    HW231419   2.220   2.142   9.208  0.4813 -0.9297 -0.0003
 6595SOL     OW31420   3.893   2.519   7.483  0.3439  0.5952  0.3022
 6595SOL    HW131421   3.824   2.486   7.542  0.7247 -0.1317  0.3379
 6595SOL    HW231422   3.862   2.484   7.399 -0.6263 -1.3298  1.4499
 6596SOL     OW31423   1.486   1.319   1.315  0.3918 -0.1301 -0.3279
 6596SOL    HW131424   1.554   1.275   1.365 -0.3505 -0.4877  0.3572
 6596SOL    HW231425   1.413   1.330   1.375  0.7981 -2.2548  0.5451
 6597SOL     OW31426   3.851   4.588  11.251 -0.3002  0.9413  0.4201
 6597SOL    HW131427   3.871   4.588  11.345  0.1544 -1.2322  0.3325
 6597SOL    HW231428   3.779   4.651  11.244 -2.1569 -1.1615  0.6917
 6598SOL     OW31429   0.627   1.550   5.238 -0.1366  0.4792  0.2836
 6598SOL    HW131430   0.565   1.484   5.209  0.8841  0.8200 -2.6613
 6598SOL    HW231431   0.641   1.600   5.158  0.4087  1.5602  1.0419
 6599SOL     OW31432   1.867   3.940   9.245 -0.2236 -0.2382  0.6753
 6599SOL    HW131433   1.816   3.931   9.164 -1.1763  0.7369  1.1729
 6599SOL    HW231434   1.921   4.018   9.231 -0.7935  0.0845  0.2930
 6600SOL     OW31435   2.857   1.850  16.221  0.4752 -0.0308 -0.1858
 6600SOL    HW131436   2.787   1.833  16.159  2.3697 -1.8497 -1.8363
 6600SOL    HW231437   2.810   1.918  16.270  1.0993  0.3705 -0.1403
 6601SOL     OW31438   1.251   1.031  12.856 -0.2956 -0.0731 -0.2803
 6601SOL    HW131439   1.249   0.940  12.828  0.5338 -0.8102  2.0075
 6601SOL    HW231440   1.338   1.055  12.823  0.0655 -3.1059 -1.5036
 6602SOL     OW31441   1.870   1.579  11.805  0.2296 -0.1876  0.5499
 6602SOL    HW131442   1.884   1.498  11.755 -1.2585  1.1516 -2.0432
 6602SOL    HW231443   1.810   1.551  11.875 -0.8858 -0.0636 -0.3558
 6603SOL     OW31444   4.345   1.303   8.163  0.4967 -0.7078  0.9773
 6603SOL    HW131445   4.304   1.225   8.200 -0.6124 -0.1508  0.9300
 6603SOL    HW231446   4.284   1.377   8.163 -0.4370 -1.4772  2.6493
 6604SOL     OW31447   3.442   2.479   0.745  0.5750  0.3358 -0.4335
 6604SOL    HW131448   3.422   2.432   0.826 -1.7100  1.0965 -0.5671
 6604SOL    HW231449   3.433   2.407   0.684 -1.3950  0.3107 -0.1213
 6605SOL     OW31450   1.724   3.019  13.011  0.2688  0.2689 -0.3017
 6605SOL    HW131451   1.808   2.975  12.998 -0.5165 -1.6400  1.0014
 6605SOL    HW231452   1.734   3.038  13.105 -1.5381  0.5650 -0.1601
 6606SOL     OW31453   0.295   2.564  14.176 -0.2032  0.0770 -0.3676
 6606SOL    HW131454   0.231   2.625  14.211 -1.5288 -1.1679 -0.6469
 6606SOL    HW231455   0.238   2.512  14.120  0.2656  0.4913 -1.2183
 6607SOL     OW31456   4.188   0.024   6.207  0.5359 -0.2206  0.2266
 6607SOL    HW131457   4.104   0.067   6.220 -0.1550 -1.8406  1.1070
 6607SOL    HW231458   4.222   0.033   6.296  0.4014 -1.0752  0.3605
 6608SOL     OW31459   4.481   0.958   2.018 -0.8709  0.3723 -0.2420
 6608SOL    HW131460   4.432   1.015   2.078  1.0782  1.3044  0.4602
 6608SOL    HW231461   4.472   1.007   1.936  0.7366  1.2843  0.1397
 6609SOL     OW31462   1.923   1.625   3.118 -0.3471 -0.2269  0.3403
 6609SOL    HW131463   1.944   1.567   3.045 -0.0989  0.4268 -0.1105
 6609SOL    HW231464   1.887   1.697   3.067 -0.7939 -1.0366 -0.4990
 6610SOL     OW31465   3.984   4.070   6.607 -0.2993 -0.6329  0.1859
 6610SOL    HW131466   4.064   4.101   6.564 -0.2315  0.4541  1.1164
 6610SOL    HW231467   3.916   4.121   6.563 -0.0524 -0.6686 -0.2453
 6611SOL     OW31468   2.533   0.192   6.617  0.1863 -1.0690  0.1231
 6611SOL    HW131469   2.588   0.180   6.694  0.7505  1.5532  0.1279
 6611SOL    HW231470   2.461   0.237   6.661  0.1466 -0.4383 -0.5933
 6612SOL     OW31471   2.434   1.487   1.235  0.1973 -0.2218  0.3919
 6612SOL    HW131472   2.432   1.436   1.154  0.8554  1.3968 -0.6554
 6612SOL    HW231473   2.405   1.571   1.201  0.7782 -0.9221 -1.8344
 6613SOL     OW31474   0.855   2.363   6.254  0.1586  0.2377 -0.5065
 6613SOL    HW131475   0.806   2.429   6.204  0.7252  2.0291  1.2763
 6613SOL    HW231476   0.879   2.308   6.179  2.1735 -0.9219  0.9949
 6614SOL     OW31477   3.538   0.755   4.365 -0.3048 -0.2742  0.0029
 6614SOL    HW131478   3.619   0.770   4.414  0.6914  0.8082 -1.9617
 6614SOL    HW231479   3.547   0.661   4.357 -0.9020 -0.2424 -1.0307
 6615SOL     OW31480   0.819   3.662   8.283 -0.5892  0.2663  0.2357
 6615SOL    HW131481   0.827   3.662   8.188 -0.3025  2.9579  0.2537
 6615SOL    HW231482   0.912   3.645   8.299 -0.6185 -1.2469 -1.2603
 6616SOL     OW31483   0.912   0.028  15.274 -0.1288  0.1998 -0.7885
 6616SOL    HW131484   0.951   0.014  15.360  2.5090 -2.5428 -2.4462
 6616SOL    HW231485   0.818   0.020  15.291 -0.0318  3.2829  1.1914
 6617SOL     OW31486   1.271   2.172   3.513  0.0450  0.7266  0.4368
 6617SOL    HW131487   1.333   2.193   3.443  0.3582  0.1082  0.5294
 6617SOL    HW231488   1.312   2.093   3.548 -1.2862 -0.4043 -0.5679
 6618SOL     OW31489   2.080   0.626   6.400 -0.1036 -0.5529 -0.4836
 6618SOL    HW131490   2.060   0.533   6.387 -1.0333 -0.4399  0.1305
 6618SOL    HW231491   2.120   0.632   6.487  0.2585  0.3700 -0.7111
 6619SOL     OW31492   4.599   2.429   9.768  0.3648 -0.2470 -0.2873
 6619SOL    HW131493   4.578   2.354   9.824  1.4232  0.2376  0.7414
 6619SOL    HW231494   4.519   2.482   9.777  0.1214 -0.7748  0.6945
 6620SOL     OW31495   1.376   1.948  16.402 -0.6414  0.3782  0.4662
 6620SOL    HW131496   1.399   1.981  16.315  0.0806  0.5314  0.7169
 6620SOL    HW231497   1.451   1.966  16.459 -1.2713 -0.3613  1.5178
 6621SOL     OW31498   1.454   0.155   9.343 -0.4325 -0.0686 -0.1299
 6621SOL    HW131499   1.478   0.230   9.289  0.3990 -1.4797 -1.7045
 6621SOL    HW231500   1.485   0.183   9.429 -0.0481 -0.0777 -0.2685
 6622SOL     OW31501   3.738   1.951   1.297  1.1879  0.0907  0.2025
 6622SOL    HW131502   3.814   1.977   1.348  1.3127 -1.6191  0.8661
 6622SOL    HW231503   3.781   1.905   1.224 -1.7650  0.1174 -1.5777
 6623SOL     OW31504   1.570   3.546  16.699 -0.3695  0.6558 -0.5520
 6623SOL    HW131505   1.501   3.545  16.633 -1.5092 -1.0676  0.6666
 6623SOL    HW231506   1.527   3.473  16.744 -0.5488  1.1088  0.0183
 6624SOL     OW31507   3.279   3.386  10.362  0.2195  0.4950  0.0261
 6624SOL    HW131508   3.219   3.453  10.394 -0.4482  0.7736 -1.8235
 6624SOL    HW231509   3.234   3.307  10.393  0.0975  0.6613  0.2737
 6625SOL     OW31510   1.431   2.153   3.128  0.1136 -0.6166 -0.1456
 6625SOL    HW131511   1.415   2.069   3.171  1.9821 -1.1226 -0.4195
 6625SOL    HW231512   1.443   2.205   3.207  0.5441 -0.8699 -0.0416
 6626SOL     OW31513   0.160   1.178  12.576  0.3125 -0.1204  0.0430
 6626SOL    HW131514   0.174   1.272  12.573 -0.7311  0.0601  0.5288
 6626SOL    HW231515   0.194   1.159  12.664 -0.2473  0.3439  0.3632
 6627SOL     OW31516   2.916   1.950  15.645 -0.2748 -0.0299 -0.1188
 6627SOL    HW131517   2.864   1.902  15.581 -0.1378 -0.5560  0.1650
 6627SOL    HW231518   2.920   2.036  15.603 -1.4069 -0.4606 -1.0853
 6628SOL     OW31519   3.848   0.526   2.010 -0.2902  0.8019 -0.1991
 6628SOL    HW131520   3.909   0.496   1.943 -1.2790  0.4096 -0.9290
 6628SOL    HW231521   3.773   0.472   1.984 -0.2404  0.0940  1.1377
 6629SOL     OW31522   1.267   2.783   3.636 -0.4565 -0.6005 -0.6018
 6629SOL    HW131523   1.317   2.702   3.622 -0.3629 -0.9758  1.9363
 6629SOL    HW231524   1.222   2.752   3.714  0.9073  0.3731  0.5731
 6630SOL     OW31525   2.640   3.060  13.878  0.4826 -0.0036  0.0086
 6630SOL    HW131526   2.699   3.019  13.815 -0.3005  0.1638 -0.8202
 6630SOL    HW231527   2.574   3.102  13.824  1.7786  0.2660 -1.3695
 6631SOL     OW31528   1.136   3.367   2.068 -0.6201  0.0377  0.0982
 6631SOL    HW131529   1.046   3.346   2.040 -0.4956 -0.3675  0.0020
 6631SOL    HW231530   1.141   3.462   2.071 -2.2893  0.1282  0.3645
 6632SOL     OW31531   1.668   1.129   3.600  0.3258  1.2803  0.6783
 6632SOL    HW131532   1.753   1.165   3.575  0.0638  0.9352 -0.6665
 6632SOL    HW231533   1.619   1.124   3.518 -0.9310  2.6515  1.3462
 6633SOL     OW31534   4.220   3.808  13.295  0.2691  0.0320 -0.8472
 6633SOL    HW131535   4.175   3.734  13.255  0.8372 -0.7602 -0.0084
 6633SOL    HW231536   4.148   3.857  13.334  1.7200  1.7917 -0.3716
 6634SOL     OW31537   0.067   0.990  16.596 -0.4331 -0.3308 -0.0343
 6634SOL    HW131538   4.734   0.927  16.621  0.4456 -0.8806  0.9239
 6634SOL    HW231539   0.035   1.072  16.631 -1.3338 -1.1035  0.9504
 6635SOL     OW31540   4.557   1.014   5.600 -0.2192 -0.2775 -0.3338
 6635SOL    HW131541   4.470   0.984   5.574  0.0976  0.3136 -2.0373
 6635SOL    HW231542   4.568   0.961   5.679  2.1653 -1.4834 -1.4892
 6636SOL     OW31543   2.617   1.896  16.434 -0.2905  0.0274 -0.1168
 6636SOL    HW131544   2.651   1.985  16.424 -1.0841  0.1831 -1.3997
 6636SOL    HW231545   2.537   1.918  16.386 -0.4988 -0.2535  0.1067
 6637SOL     OW31546   0.796   0.979   9.922  0.7359  0.3873 -0.6696
 6637SOL    HW131547   0.875   1.029   9.942 -0.8797  1.5118  2.9830
 6637SOL    HW231548   0.843   0.919   9.864 -2.7159 -1.5356 -1.5236
 6638SOL     OW31549   4.054   3.725  15.432  0.5109  0.2409  0.1374
 6638SOL    HW131550   3.991   3.674  15.380 -0.0503  2.4758 -1.3674
 6638SOL    HW231551   4.082   3.789  15.368 -0.0124 -1.6012 -1.9411
 6639SOL     OW31552   2.352   2.815   2.776  0.3118  0.3757 -0.1965
 6639SOL    HW131553   2.297   2.740   2.799 -1.9047  1.7486 -1.0175
 6639SOL    HW231554   2.437   2.770   2.780  1.2473  2.1396 -0.5408
 6640SOL     OW31555   0.916   3.459   8.910 -0.1577  0.7848 -0.4401
 6640SOL    HW131556   0.846   3.515   8.875 -0.4809  0.5669 -0.1414
 6640SOL    HW231557   0.902   3.490   8.999  2.4347  1.6661 -0.3365
 6641SOL     OW31558   1.951   3.753   3.270 -0.1068 -0.5250  0.6639
 6641SOL    HW131559   1.874   3.805   3.247  0.5319 -0.6400 -1.6726
 6641SOL    HW231560   1.971   3.807   3.347  0.2634 -0.1754  0.3206
 6642SOL     OW31561   3.731   1.904   7.968  0.3735  0.0134 -0.2525
 6642SOL    HW131562   3.656   1.888   8.027  0.5435 -0.0352 -0.0490
 6642SOL    HW231563   3.785   1.828   7.990  0.7560  0.9374  2.0423
 6643SOL     OW31564   2.215   3.990   9.615 -0.1954  0.0959 -0.4308
 6643SOL    HW131565   2.199   3.989   9.709  4.3014 -3.5109  0.2617
 6643SOL    HW231566   2.161   4.065   9.589  0.3439  1.3333  2.0573
 6644SOL     OW31567   3.179   2.234  11.900 -0.0960  0.3507 -0.1355
 6644SOL    HW131568   3.269   2.210  11.881 -0.2106  0.9634 -1.4852
 6644SOL    HW231569   3.189   2.328  11.913  0.1717  0.6259 -2.2128
 6645SOL     OW31570   2.139   1.812   3.456 -0.0495  0.1697 -0.4652
 6645SOL    HW131571   2.051   1.783   3.432 -0.0141  0.4567 -0.9428
 6645SOL    HW231572   2.188   1.731   3.441 -0.4788 -0.1066 -0.3923
 6646SOL     OW31573   2.087   2.607  17.600  0.0355  0.0755 -0.1231
 6646SOL    HW131574   2.161   2.659  17.569 -1.2648  1.3959 -1.0610
 6646SOL    HW231575   2.121   2.525  17.634 -3.0702 -0.5685  1.3773
 6647SOL     OW31576   0.998   1.497   3.014 -0.1165 -0.1413 -0.8280
 6647SOL    HW131577   0.909   1.465   2.996  0.4015 -3.1716  2.0149
 6647SOL    HW231578   0.987   1.589   2.990  0.0694  0.1696  0.3261
 6648SOL     OW31579   2.753   1.181   2.121  0.1168  0.1999 -0.4686
 6648SOL    HW131580   2.842   1.211   2.102  0.5538 -0.3915  0.6485
 6648SOL    HW231581   2.753   1.196   2.216 -0.0876  1.5257 -0.6822
 6649SOL     OW31582   2.986   0.779   9.369 -0.0049  0.1112 -0.0142
 6649SOL    HW131583   2.967   0.750   9.458  0.1275 -1.2539 -0.4243
 6649SOL    HW231584   3.080   0.794   9.365  0.1069  0.0180  2.5740
 6650SOL     OW31585   4.142   0.131   3.131  0.1155  0.0433  0.3014
 6650SOL    HW131586   4.049   0.143   3.116  0.3253  1.7946  0.4547
 6650SOL    HW231587   4.172   0.182   3.056  1.7313 -1.6756 -0.2229
 6651SOL     OW31588   4.348   3.369  17.119 -0.0766  0.1548 -0.2101
 6651SOL    HW131589   4.394   3.410  17.192 -0.6263  0.0930  0.1701
 6651SOL    HW231590   4.422   3.354  17.060  0.4133  0.2010  0.3946
 6652SOL     OW31591   0.142   1.157   5.250 -0.5462 -0.4366 -0.5649
 6652SOL    HW131592   0.183   1.239   5.223 -0.3857 -0.4991 -0.5100
 6652SOL    HW231593   0.080   1.186   5.318  1.1190 -1.6563  1.4981
 6653SOL     OW31594   2.347   2.047   2.358 -0.1995 -0.0094 -0.1979
 6653SOL    HW131595   2.346   2.097   2.276 -0.4469 -0.1917 -0.3067
 6653SOL    HW231596   2.435   2.067   2.388 -0.1829  0.9605 -0.8903
 6654SOL     OW31597   2.971   1.577   7.201 -0.2379 -0.4056  0.2894
 6654SOL    HW131598   3.055   1.533   7.214 -0.7822 -1.7904 -0.9041
 6654SOL    HW231599   2.969   1.635   7.277  0.5866 -0.2666  0.2117
 6655SOL     OW31600   1.092   2.538   6.597  0.4122 -0.0524 -0.0458
 6655SOL    HW131601   1.169   2.498   6.556  0.1571 -0.0413 -0.5455
 6655SOL    HW231602   1.047   2.574   6.521 -0.7243  1.0993  1.1756
 6656SOL     OW31603   1.424   0.635  14.042  1.0299 -0.2836  0.4893
 6656SOL    HW131604   1.396   0.571  14.108 -1.2321 -0.7614 -0.9257
 6656SOL    HW231605   1.367   0.619  13.967  1.0253 -1.0021  0.6427
 6657SOL     OW31606   0.040   2.150   4.474 -0.3454  0.0941  0.0975
 6657SOL    HW131607   4.719   2.129   4.398 -0.6375 -0.6647  0.5199
 6657SOL    HW231608   4.709   2.198   4.526  1.1350  1.6428  0.4889
 6658SOL     OW31609   2.032   3.764  13.002  0.6707  0.2775 -0.1415
 6658SOL    HW131610   2.115   3.757  13.050  0.1218  0.2676  0.7902
 6658SOL    HW231611   2.009   3.671  12.999 -0.6976  0.5822  1.1622
 6659SOL     OW31612   3.793   2.080   4.217  0.3456 -0.7119 -0.2921
 6659SOL    HW131613   3.767   2.080   4.125  1.7663  2.8210 -0.7035
 6659SOL    HW231614   3.757   2.159   4.258  2.0994 -1.0257  1.9026
 6660SOL     OW31615   3.430   3.165   7.254  0.1781  0.0162  0.0235
 6660SOL    HW131616   3.416   3.177   7.348 -2.3273 -0.6442 -0.2492
 6660SOL    HW231617   3.383   3.083   7.239 -0.0068  0.4337 -1.7148
 6661SOL     OW31618   2.380   1.116  15.976 -0.4865 -0.6871 -0.0390
 6661SOL    HW131619   2.292   1.124  15.940 -0.2150 -3.3678 -1.3343
 6661SOL    HW231620   2.420   1.189  15.930 -0.5739  0.5579  1.9010
 6662SOL     OW31621   4.696   3.864   5.272 -0.1943  0.3624  0.0503
 6662SOL    HW131622   4.655   3.871   5.186  2.0246 -2.8071 -1.2755
 6662SOL    HW231623   0.041   3.811   5.259  0.2589  0.6320  1.6550
 6663SOL     OW31624   3.022   0.058   9.958 -0.1440 -0.4471 -0.0327
 6663SOL    HW131625   2.957   0.089  10.022  0.7001 -0.2843  0.7354
 6663SOL    HW231626   3.100   0.041  10.011 -0.6810  0.8180  1.1659
 6664SOL     OW31627   2.402   3.985   4.490 -0.3570  0.0281 -0.2400
 6664SOL    HW131628   2.402   4.081   4.496  0.2302  0.0202 -0.2033
 6664SOL    HW231629   2.492   3.966   4.465  0.5496  2.5512  1.1394
 6665SOL     OW31630   2.463   4.139   2.314 -0.0975 -0.0270  0.1208
 6665SOL    HW131631   2.415   4.222   2.311  0.5265  0.3287  0.0282
 6665SOL    HW231632   2.555   4.154   2.295 -0.3933  1.7172  0.0477
 6666SOL     OW31633   4.182   4.334   9.090  0.2520 -0.1046  0.0468
 6666SOL    HW131634   4.201   4.393   9.163  0.0317  0.0464 -0.0190
 6666SOL    HW231635   4.204   4.256   9.141 -2.7316 -2.2685 -2.0103
 6667SOL     OW31636   3.991   2.324  12.016 -0.2020 -0.2689 -0.6230
 6667SOL    HW131637   3.919   2.328  12.079 -0.9309  0.4564 -1.5041
 6667SOL    HW231638   4.066   2.350  12.069 -0.6097  0.6056 -0.4809
 6668SOL     OW31639   1.171   3.413  11.660 -0.1276 -0.2998  0.1066
 6668SOL    HW131640   1.176   3.504  11.631  0.7498 -0.7685 -1.2207
 6668SOL    HW231641   1.083   3.397  11.694 -0.8124  1.3614 -0.9080
 6669SOL     OW31642   4.019   1.073   4.035  0.1881 -0.1924  0.6872
 6669SOL    HW131643   4.083   1.071   3.964  1.0793 -2.1516  1.5312
 6669SOL    HW231644   3.934   1.050   3.996 -0.1726  0.3784  1.1415
 6670SOL     OW31645   3.402   2.911   2.629  0.3795 -0.1229 -0.3834
 6670SOL    HW131646   3.337   2.957   2.575 -1.4730 -0.7407  1.3129
 6670SOL    HW231647   3.345   2.849   2.674 -2.0119  2.3390  0.0362
 6671SOL     OW31648   3.564   0.251  16.327 -0.0227  0.9103  0.1251
 6671SOL    HW131649   3.485   0.201  16.307  1.0356 -0.4170 -0.7861
 6671SOL    HW231650   3.551   0.320  16.262 -1.2387  0.0120 -0.5838
 6672SOL     OW31651   0.936   4.187   9.707 -0.2517 -0.4492 -0.4073
 6672SOL    HW131652   0.993   4.264   9.696 -2.7987  1.7005  1.3286
 6672SOL    HW231653   0.948   4.173   9.801 -1.2224  0.3477 -0.1560
 6673SOL     OW31654   3.072   2.348   8.002  0.1304 -0.5085 -0.4491
 6673SOL    HW131655   3.146   2.322   7.948  0.6988  0.0570  0.0527
 6673SOL    HW231656   3.015   2.373   7.929 -1.2867 -0.1748  0.7713
 6674SOL     OW31657   2.528   0.827   1.915  0.1101  0.1716  0.1986
 6674SOL    HW131658   2.622   0.817   1.932  0.5499  3.8946 -0.1997
 6674SOL    HW231659   2.515   0.915   1.949 -1.1546 -0.4523  1.3412
 6675SOL     OW31660   0.945   1.871   6.109  0.2214 -0.0768  0.0820
 6675SOL    HW131661   0.928   1.778   6.123  2.3134 -0.5474 -0.4450
 6675SOL    HW231662   0.879   1.918   6.159  0.6868  0.8694 -0.1970
 6676SOL     OW31663   1.420   2.545   3.646  0.0961  0.0439 -0.1923
 6676SOL    HW131664   1.466   2.608   3.591 -1.2767  1.2275  0.0415
 6676SOL    HW231665   1.475   2.554   3.724 -2.7615  0.2512  1.7723
 6677SOL     OW31666   2.410   1.353   3.365 -0.2255  0.5886 -0.0073
 6677SOL    HW131667   2.383   1.303   3.289 -1.2988 -2.1195  2.1638
 6677SOL    HW231668   2.388   1.288   3.432  1.4717  0.6098  0.5703
 6678SOL     OW31669   3.044   0.853   5.683 -0.3012 -0.1032 -0.0043
 6678SOL    HW131670   2.980   0.850   5.612  0.0464  3.1755 -0.4443
 6678SOL    HW231671   3.119   0.894   5.640 -0.5613  1.7128  1.2855
 6679SOL     OW31672   0.030   2.762   1.109 -1.2644  0.5827  0.6343
 6679SOL    HW131673   4.678   2.725   1.131 -2.3379  2.9028  0.3520
 6679SOL    HW231674   4.729   2.851   1.105 -1.3789  0.4712 -0.7612
 6680SOL     OW31675   3.736   1.528   5.471  0.2504  0.5505 -0.2501
 6680SOL    HW131676   3.779   1.489   5.395  0.6158  2.5546 -1.0515
 6680SOL    HW231677   3.803   1.572   5.523 -1.8210  0.9967  2.0524
 6681SOL     OW31678   4.718   1.892   5.721  0.7981 -0.1585 -0.2445
 6681SOL    HW131679   4.667   1.880   5.801 -0.0383 -1.2378 -0.9354
 6681SOL    HW231680   4.644   1.924   5.669 -1.6586 -2.7177  1.6492
 6682SOL     OW31681   4.476   4.355   8.064 -0.0665  0.7940 -0.2254
 6682SOL    HW131682   4.552   4.303   8.088 -0.1435  0.5640 -0.4806
 6682SOL    HW231683   4.402   4.310   8.106 -1.0438 -0.1722 -2.9532
 6683SOL     OW31684   1.784   2.034  13.634 -0.2979  0.1831  0.2804
 6683SOL    HW131685   1.853   2.087  13.676  1.3273 -2.4880  0.9687
 6683SOL    HW231686   1.827   1.959  13.593  0.7838  0.0724  1.5938
 6684SOL     OW31687   3.326   4.215  11.171 -0.2143 -0.5168  0.6985
 6684SOL    HW131688   3.412   4.239  11.206 -1.0823  0.0351  2.4618
 6684SOL    HW231689   3.275   4.289  11.203 -1.5471  0.2312 -3.2824
 6685SOL     OW31690   0.536   3.348   7.116 -0.1648  0.2898 -0.1271
 6685SOL    HW131691   0.623   3.388   7.110 -0.2014  0.7065  2.1220
 6685SOL    HW231692   0.471   3.417   7.133  0.4948  0.6483  0.8868
 6686SOL     OW31693   2.570   4.372   9.128  1.0419 -0.2174  0.5203
 6686SOL    HW131694   2.499   4.309   9.121  2.7309 -2.1176  0.6363
 6686SOL    HW231695   2.580   4.407   9.039 -0.5122  0.5900  0.6579
 6687SOL     OW31696   0.155   1.340   0.129  0.4815 -0.5280  0.0375
 6687SOL    HW131697   0.191   1.408   0.186  0.5156  0.5768 -1.3001
 6687SOL    HW231698   0.201   1.259   0.149 -0.4919 -0.4921  2.4309
 6688SOL     OW31699   2.966   3.325  10.429 -0.0270 -0.1441  0.6381
 6688SOL    HW131700   2.939   3.279  10.508  1.8203 -0.9221  0.8141
 6688SOL    HW231701   3.016   3.254  10.389  1.2603  0.4988  1.1151
 6689SOL     OW31702   3.357   2.933  12.448  0.3184  0.1897 -0.2940
 6689SOL    HW131703   3.372   3.026  12.430 -2.3889  0.9232  1.2228
 6689SOL    HW231704   3.403   2.912  12.529  0.6029 -1.9947 -1.0158
 6690SOL     OW31705   3.155   2.196   9.192  0.1070 -0.5371 -0.3136
 6690SOL    HW131706   3.231   2.147   9.224 -0.0204 -0.0961  0.6650
 6690SOL    HW231707   3.184   2.215   9.103 -1.6199  0.0605 -0.7394
 6691SOL     OW31708   1.900   3.078  10.684  0.5102  0.1116  0.3191
 6691SOL    HW131709   1.897   3.050  10.593  2.2535 -2.1824  0.9696
 6691SOL    HW231710   1.934   3.167  10.671 -0.1599  0.5339  1.3904
 6692SOL     OW31711   0.187   1.500   7.029  0.4391 -0.3440 -0.2294
 6692SOL    HW131712   0.104   1.512   6.981  1.0349  0.9601 -0.9335
 6692SOL    HW231713   0.197   1.405   7.036 -0.5853 -0.6403 -2.6865
 6693SOL     OW31714   3.188   0.801   0.627  0.1766 -0.0874  0.2032
 6693SOL    HW131715   3.214   0.783   0.717 -0.2062  0.2215  0.3722
 6693SOL    HW231716   3.200   0.716   0.585 -0.9673  1.5326 -3.4523
 6694SOL     OW31717   0.925   3.896   8.457 -0.1148  0.5625  0.2836
 6694SOL    HW131718   0.888   3.984   8.462  2.6999  1.5806  3.0404
 6694SOL    HW231719   0.874   3.840   8.398 -0.2603  0.6386  0.3373
 6695SOL     OW31720   4.606   1.821   7.964  0.2897 -0.6953 -0.1498
 6695SOL    HW131721   4.637   1.887   7.902  0.1580  0.7820  1.3625
 6695SOL    HW231722   4.619   1.868   8.046  1.2844 -1.1927 -0.0146
 6696SOL     OW31723   0.877   4.688   2.501  0.2295  0.3874 -0.5831
 6696SOL    HW131724   0.891   4.696   2.595 -3.6973  0.4090  0.0027
 6696SOL    HW231725   0.967   4.709   2.476  0.1255  0.1573 -1.1711
 6697SOL     OW31726   2.653   1.443   4.056 -0.3300  0.5564  0.8890
 6697SOL    HW131727   2.641   1.427   4.150 -0.9929 -0.2567  0.6744
 6697SOL    HW231728   2.560   1.442   4.033 -0.2479 -0.1791  0.5734
 6698SOL     OW31729   2.933   0.708   6.400 -0.4571  0.1747 -0.0388
 6698SOL    HW131730   2.940   0.688   6.306  1.7768 -1.0174  0.3759
 6698SOL    HW231731   2.983   0.789   6.412 -1.1081  0.7457 -1.1700
 6699SOL     OW31732   2.905   1.620  17.584  0.2502  0.4088  0.0283
 6699SOL    HW131733   2.912   1.543  17.528  0.3137 -0.3800  1.1184
 6699SOL    HW231734   2.985   1.616  17.637 -0.5389 -0.1382  1.1750
 6700SOL     OW31735   1.050   2.613  11.727 -0.2898  0.4208  0.7422
 6700SOL    HW131736   1.028   2.701  11.755 -0.4900  1.7402 -3.5846
 6700SOL    HW231737   1.090   2.586  11.810 -2.3254 -1.2255  1.2057
 6701SOL     OW31738   4.663   2.131  10.533  0.3800 -0.2307 -0.1093
 6701SOL    HW131739   4.607   2.202  10.566  0.7636 -0.1053  0.2803
 6701SOL    HW231740   4.714   2.122  10.614  1.1697 -3.5513 -0.9781
 6702SOL     OW31741   1.265   2.920   0.501 -0.1787  0.1037 -0.1294
 6702SOL    HW131742   1.277   3.014   0.509  2.3966 -0.1207 -1.1403
 6702SOL    HW231743   1.352   2.880   0.494 -0.7911 -1.4872  1.1888
 6703SOL     OW31744   3.611   0.938  11.509  0.6989  0.4852  0.4235
 6703SOL    HW131745   3.567   0.955  11.593  1.6440  3.0628  0.4065
 6703SOL    HW231746   3.630   1.024  11.470  0.5991 -0.4581 -1.7073
 6704SOL     OW31747   4.279   1.839   1.413  0.5306 -0.4424 -0.3716
 6704SOL    HW131748   4.359   1.890   1.418  0.4141 -0.1592 -1.2759
 6704SOL    HW231749   4.261   1.821   1.505  0.6769 -0.1757 -0.2932
 6705SOL     OW31750   2.467   3.493   3.539 -0.1971  0.1380  0.3591
 6705SOL    HW131751   2.547   3.542   3.561  0.4906 -1.2929  1.0011
 6705SOL    HW231752   2.465   3.497   3.444 -1.3174 -0.5281  0.3697
 6706SOL     OW31753   1.823   2.539  14.033  0.2082 -0.5860  0.2592
 6706SOL    HW131754   1.892   2.565  14.094  0.3353  0.4794 -0.3490
 6706SOL    HW231755   1.855   2.459  13.991 -1.8768 -1.5515  0.4806
 6707SOL     OW31756   4.461   4.383   5.425 -0.1174 -0.2495 -0.4001
 6707SOL    HW131757   4.508   4.434   5.360  1.0792  1.0862  1.5348
 6707SOL    HW231758   4.372   4.383   5.390 -0.7803 -0.0844  1.2638
 6708SOL     OW31759   0.914   3.199  12.520  0.1996  0.2430 -0.0374
 6708SOL    HW131760   0.891   3.282  12.478  2.5328  0.6795 -0.4376
 6708SOL    HW231761   0.847   3.145  12.477  1.2984 -2.2466  1.3673
 6709SOL     OW31762   2.800   4.159  10.029 -0.8172  0.5437  0.1344
 6709SOL    HW131763   2.709   4.187  10.037 -0.7092  0.9266  0.0062
 6709SOL    HW231764   2.793   4.089   9.964 -1.0506  2.1770 -1.6145
 6710SOL     OW31765   3.665   4.385   5.487  0.1137  0.3448  0.7021
 6710SOL    HW131766   3.711   4.433   5.418 -0.3208  0.0033  0.1747
 6710SOL    HW231767   3.677   4.291   5.470 -1.0992  0.4899 -0.9381
 6711SOL     OW31768   1.130   2.602   5.133 -0.2699  0.3717 -0.2024
 6711SOL    HW131769   1.136   2.514   5.169 -0.6365  0.2758 -0.3801
 6711SOL    HW231770   1.224   2.600   5.116  0.0399  0.8476  1.4367
 6712SOL     OW31771   2.415   0.220   1.726  0.5128  0.3510 -0.1752
 6712SOL    HW131772   2.387   0.301   1.769  1.4083  0.0818  0.9241
 6712SOL    HW231773   2.389   0.237   1.636  1.6433 -0.5895 -0.6775
 6713SOL     OW31774   2.424   3.300   1.517 -0.6448 -0.3969  0.1262
 6713SOL    HW131775   2.414   3.228   1.454 -0.4623  0.9048 -1.3763
 6713SOL    HW231776   2.472   3.364   1.465  0.3067 -1.4482 -0.2954
 6714SOL     OW31777   2.271   3.319   7.044  0.1450  0.2091 -0.2146
 6714SOL    HW131778   2.259   3.410   7.014 -0.7817  0.6313  1.4476
 6714SOL    HW231779   2.365   3.321   7.061  0.0371  0.6326  0.3238
 6715SOL     OW31780   2.596   1.568   7.201 -0.0221 -0.6682  0.5519
 6715SOL    HW131781   2.603   1.530   7.288  2.7055  1.6042  1.2995
 6715SOL    HW231782   2.537   1.504   7.160 -0.4015 -0.4627  0.7806
 6716SOL     OW31783   3.135   3.919   2.589  0.1198  0.6191  0.2305
 6716SOL    HW131784   3.140   3.826   2.565  0.5547  0.1894  1.9897
 6716SOL    HW231785   3.109   3.965   2.509 -2.6602  0.7620  1.2267
 6717SOL     OW31786   1.064   2.456   3.409  0.1344 -0.3946  0.0676
 6717SOL    HW131787   1.071   2.436   3.502  0.2995  0.3468  0.2172
 6717SOL    HW231788   0.988   2.514   3.409  0.3706 -0.0895 -3.2034
 6718SOL     OW31789   4.105   2.586   5.028 -0.2065  0.0577  0.0761
 6718SOL    HW131790   4.009   2.580   5.026 -0.3485  2.4756 -1.1830
 6718SOL    HW231791   4.114   2.619   4.938  2.0006  0.7738  0.5856
 6719SOL     OW31792   1.485   0.942  11.331  0.0854 -0.1860  0.7496
 6719SOL    HW131793   1.478   0.878  11.260  0.0558  0.8595 -0.2061
 6719SOL    HW231794   1.495   1.021  11.277  0.4471 -2.2319 -2.1753
 6720SOL     OW31795   4.020   2.201   2.476 -0.1393  0.0026  0.2664
 6720SOL    HW131796   3.970   2.277   2.446  1.4871  0.0016 -2.4768
 6720SOL    HW231797   4.078   2.190   2.401  0.1570 -1.2315  0.6839
 6721SOL     OW31798   4.492   0.977   1.703  0.1036  0.1345 -0.1165
 6721SOL    HW131799   4.510   0.961   1.611  1.4567 -0.6604  0.2943
 6721SOL    HW231800   4.431   1.050   1.690  1.1642  0.6646 -2.0926
 6722SOL     OW31801   4.345   2.348   4.956 -0.2649 -0.1857  0.1477
 6722SOL    HW131802   4.274   2.347   5.020 -1.4699  1.2269 -1.1651
 6722SOL    HW231803   4.346   2.442   4.938 -0.8224 -0.4962 -1.4530
 6723SOL     OW31804   4.284   4.261   2.422 -0.4302 -0.2947 -0.1016
 6723SOL    HW131805   4.356   4.220   2.375 -1.7706 -1.3668 -1.2326
 6723SOL    HW231806   4.245   4.327   2.364 -0.4884 -1.8386 -1.7834
 6724SOL     OW31807   4.282   0.512   6.988 -0.6444 -0.2836  0.1323
 6724SOL    HW131808   4.195   0.546   6.966 -0.4764  0.5064  0.6582
 6724SOL    HW231809   4.314   0.480   6.904 -0.1922  2.1910 -0.6508
 6725SOL     OW31810   4.692   3.021   6.159  0.0278  0.4094  0.6776
 6725SOL    HW131811   4.621   3.052   6.101 -0.9968 -0.7295  1.3241
 6725SOL    HW231812   4.686   2.927   6.144 -0.9217  0.7426 -1.1087
 6726SOL     OW31813   0.614   0.270   4.149 -0.0641 -0.3347  0.0993
 6726SOL    HW131814   0.613   0.209   4.222  0.5237 -0.9377 -0.3843
 6726SOL    HW231815   0.573   0.222   4.077  1.5320 -0.9951 -0.3689
 6727SOL     OW31816   0.846   0.019   0.794 -0.6162  0.0493  0.1839
 6727SOL    HW131817   0.783   4.682   0.811 -0.8340 -0.0021 -0.8328
 6727SOL    HW231818   0.794   0.088   0.754  0.4462  1.1877  0.7587
 6728SOL     OW31819   3.049   1.475   5.130  0.8100  0.3200  0.4272
 6728SOL    HW131820   3.111   1.519   5.188 -0.8415  2.4016  0.6097
 6728SOL    HW231821   3.014   1.402   5.182  0.0998  0.1753 -0.2594
 6729SOL     OW31822   3.984   1.346   2.219 -0.3724 -0.1248  0.6248
 6729SOL    HW131823   3.984   1.253   2.245  0.1378  0.1613  1.6572
 6729SOL    HW231824   4.002   1.402   2.295  0.1625  2.8238 -1.7009
 6730SOL     OW31825   0.165   4.477   7.097  0.9115 -0.9565  0.2677
 6730SOL    HW131826   0.156   4.430   7.180 -2.2075 -1.6300 -0.4599
 6730SOL    HW231827   0.123   4.562   7.114  2.9904 -0.3416  2.2960
 6731SOL     OW31828   0.777   3.431   2.394 -0.5489 -0.3011 -0.3097
 6731SOL    HW131829   0.797   3.465   2.481  0.5391 -2.2232  0.1992
 6731SOL    HW231830   0.847   3.366   2.382  2.2587  2.6792  0.0023
 6732SOL     OW31831   0.436   1.784   0.077 -1.1859  0.2293  0.2647
 6732SOL    HW131832   0.526   1.816   0.071 -1.7174  1.3843 -1.5245
 6732SOL    HW231833   0.422   1.776   0.171 -0.2030 -0.6693  0.3301
 6733SOL     OW31834   1.035   0.639   6.246  0.4016 -0.5175 -0.2917
 6733SOL    HW131835   0.969   0.629   6.178  0.6096  2.8125 -0.9834
 6733SOL    HW231836   0.973   0.634   6.319 -0.5612  1.6521 -0.9742
 6734SOL     OW31837   2.534   0.187   3.041 -0.0239  0.0269 -0.5861
 6734SOL    HW131838   2.613   0.182   2.986  0.5132  2.6697 -0.0498
 6734SOL    HW231839   2.546   0.110   3.097 -0.4299  1.3563  1.3473
 6735SOL     OW31840   1.220   4.654   9.128  0.0627 -0.0848  0.6035
 6735SOL    HW131841   1.291   4.707   9.090 -2.2344  0.6890 -2.6141
 6735SOL    HW231842   1.188   4.717   9.193  0.0337 -0.2249  0.7260
 6736SOL     OW31843   0.970   4.494   3.732  0.2395  0.0651  0.6017
 6736SOL    HW131844   1.038   4.429   3.714  0.2478  0.7324 -1.7419
 6736SOL    HW231845   0.906   4.426   3.753  1.2614 -0.5098  1.8305
 6737SOL     OW31846   1.270   2.639   5.761  1.0690  0.0273  0.4620
 6737SOL    HW131847   1.315   2.614   5.842 -1.6481 -3.2871  0.9662
 6737SOL    HW231848   1.183   2.608   5.785  0.5657 -0.4988 -2.0458
 6738SOL     OW31849   1.883   3.858   5.879 -0.0116 -0.5958 -0.5466
 6738SOL    HW131850   1.899   3.832   5.788 -0.5772 -1.2093 -0.4701
 6738SOL    HW231851   1.850   3.774   5.910 -0.1583  0.5585  2.4510
 6739SOL     OW31852   0.979   0.848   4.945  0.0304 -0.8266  0.3470
 6739SOL    HW131853   0.931   0.828   4.865 -1.9225 -1.2806  1.6502
 6739SOL    HW231854   0.917   0.841   5.017  0.1600 -1.4779  0.3970
 6740SOL     OW31855   2.150   0.460  10.941 -0.1526 -0.3841 -0.2289
 6740SOL    HW131856   2.088   0.469  10.869  1.1273 -0.2030 -1.3060
 6740SOL    HW231857   2.220   0.524  10.925 -0.4731  0.0669  0.1783
 6741SOL     OW31858   1.570   0.939   2.587  0.5457  0.2671  0.0535
 6741SOL    HW131859   1.514   0.862   2.581 -3.0571  2.9139 -0.1382
 6741SOL    HW231860   1.649   0.886   2.594  2.0184  2.3571 -0.7446
 6742SOL     OW31861   1.417   1.153  17.345  0.2792 -0.1751  0.0469
 6742SOL    HW131862   1.513   1.146  17.340  0.1494 -0.3492 -2.1070
 6742SOL    HW231863   1.399   1.193  17.260 -3.7158 -1.9057  0.0870
 6743SOL     OW31864   3.034   2.565   5.993  0.1348  0.3494  0.4008
 6743SOL    HW131865   2.970   2.631   5.968  0.5788  0.5257 -0.2520
 6743SOL    HW231866   3.074   2.542   5.909  0.3888  0.1974  0.5630
 6744SOL     OW31867   0.552   1.730   8.076 -0.1255  0.4067  0.3299
 6744SOL    HW131868   0.495   1.789   8.028 -0.1125 -0.3440 -0.6150
 6744SOL    HW231869   0.568   1.787   8.151 -0.6875  0.7909  0.1615
 6745SOL     OW31870   0.997   1.082   1.787  0.4968 -0.4469 -0.3938
 6745SOL    HW131871   0.923   1.143   1.782 -0.7359 -1.7435  2.2126
 6745SOL    HW231872   1.076   1.135   1.799  0.6367 -0.2228 -2.1916
 6746SOL     OW31873   4.637   3.698   8.296  0.2336 -0.2394  0.7062
 6746SOL    HW131874   4.660   3.777   8.345 -1.2165 -0.8872  2.4192
 6746SOL    HW231875   4.542   3.694   8.287  0.1372  3.5851 -0.3131
 6747SOL     OW31876   4.105   1.426   1.000  0.5721 -0.0182 -0.3176
 6747SOL    HW131877   4.130   1.458   1.087 -0.6366  1.2054 -0.4221
 6747SOL    HW231878   4.172   1.470   0.948 -0.2026  2.3167  0.6736
 6748SOL     OW31879   3.898   4.603  10.461  0.0991 -0.1892 -0.6352
 6748SOL    HW131880   3.935   4.663  10.396  0.0682  0.8212  0.2808
 6748SOL    HW231881   3.907   4.650  10.544 -0.0847 -0.3969 -0.4998
 6749SOL     OW31882   2.762   3.480  10.756 -0.8032 -0.4549 -0.1907
 6749SOL    HW131883   2.824   3.553  10.758  0.2481 -1.3771  0.9621
 6749SOL    HW231884   2.744   3.476  10.850 -1.4278  1.0340 -0.2494
 6750SOL     OW31885   0.598   2.116   1.311  0.0075  0.0468 -0.2787
 6750SOL    HW131886   0.620   2.023   1.308  0.0392 -0.0701  3.8648
 6750SOL    HW231887   0.662   2.147   1.375 -0.6655 -0.1949  0.5143
 6751SOL     OW31888   0.071   3.174  11.854  0.1011  0.2001 -0.3269
 6751SOL    HW131889   0.045   3.093  11.898  0.2895  1.1741  1.5850
 6751SOL    HW231890   0.064   3.243  11.921  2.2403 -0.3333  0.4389
 6752SOL     OW31891   0.390   0.609   8.368  0.2063  0.7526  0.0217
 6752SOL    HW131892   0.337   0.689   8.370  2.0625  1.9892 -0.5879
 6752SOL    HW231893   0.475   0.651   8.358  0.3704  0.3289 -0.3385
 6753SOL     OW31894   1.569   4.350  13.990 -0.5543 -0.0467 -0.9993
 6753SOL    HW131895   1.540   4.264  14.020  0.2020  0.5312  1.4515
 6753SOL    HW231896   1.499   4.398  14.034  1.5021  3.0584 -1.0802
 6754SOL     OW31897   2.215   2.758  16.830 -0.3665 -0.2306  0.1532
 6754SOL    HW131898   2.159   2.775  16.755  1.3506  0.2890 -1.0266
 6754SOL    HW231899   2.168   2.806  16.898  0.0359 -0.7714  0.8237
 6755SOL     OW31900   4.480   0.596  15.017 -0.0178 -0.4318  0.0049
 6755SOL    HW131901   4.430   0.548  15.084  0.3150  2.8647  2.6323
 6755SOL    HW231902   4.546   0.527  15.009  1.1904  0.7182  0.0995
 6756SOL     OW31903   3.243   2.318   8.650  0.6319 -0.2582  0.1545
 6756SOL    HW131904   3.206   2.395   8.694  0.7289  0.5108 -1.1329
 6756SOL    HW231905   3.172   2.285   8.595  1.2299  3.1475 -2.6517
 6757SOL     OW31906   3.317   1.649   8.914  0.3904  0.0903 -0.1903
 6757SOL    HW131907   3.386   1.663   8.849  2.0645 -0.6976  1.3966
 6757SOL    HW231908   3.358   1.691   8.990  0.4013 -0.8324  0.3134
 6758SOL     OW31909   2.332   3.326   5.110  0.0501 -0.7501  0.0007
 6758SOL    HW131910   2.351   3.245   5.062  0.3773 -0.9178  0.4054
 6758SOL    HW231911   2.319   3.389   5.039 -2.4357 -0.0725  1.0951
 6759SOL     OW31912   4.183   1.518   9.051  0.3934  0.0754 -0.1278
 6759SOL    HW131913   4.261   1.470   9.079  0.7539  0.1274 -1.0370
 6759SOL    HW231914   4.189   1.596   9.105 -0.9783  0.0063  0.1319
 6760SOL     OW31915   1.192   0.730   7.993  0.6664 -0.7392 -0.2353
 6760SOL    HW131916   1.225   0.696   7.910  0.3617 -1.0172 -0.2436
 6760SOL    HW231917   1.277   0.754   8.030  0.7948 -0.7362 -0.5322
 6761SOL     OW31918   0.944   0.142   6.298 -0.5040  0.1197  0.3804
 6761SOL    HW131919   0.984   0.225   6.272  0.8657 -0.4355  0.7418
 6761SOL    HW231920   1.021   0.099   6.336  0.5187  0.7863 -0.9497
 6762SOL     OW31921   4.410   0.840   9.059 -0.0062  0.5108  0.1004
 6762SOL    HW131922   4.431   0.754   9.095  2.0316  0.7848 -0.4552
 6762SOL    HW231923   4.413   0.830   8.964  0.4096  0.0212  0.1670
 6763SOL     OW31924   3.252   3.880   1.587  0.7081 -0.3875 -0.9833
 6763SOL    HW131925   3.165   3.867   1.548 -0.9661 -2.0112  3.2594
 6763SOL    HW231926   3.310   3.821   1.538 -2.0176 -0.2479 -4.3975
 6764SOL     OW31927   4.397   2.158   3.273  0.1157 -0.3111  0.0056
 6764SOL    HW131928   4.433   2.098   3.208 -0.3707  1.8763 -2.2793
 6764SOL    HW231929   4.456   2.150   3.348  0.7484  1.3853 -0.2957
 6765SOL     OW31930   3.009   4.527   7.762 -0.4011 -0.0041 -0.2968
 6765SOL    HW131931   3.066   4.604   7.769 -0.7716 -0.0742  3.1822
 6765SOL    HW231932   3.051   4.463   7.819 -2.4847 -1.0158  0.1016
 6766SOL     OW31933   1.599   2.154   7.536  0.1287 -0.0075  0.1158
 6766SOL    HW131934   1.522   2.115   7.494  0.8677 -0.4122 -0.8592
 6766SOL    HW231935   1.668   2.101   7.496  0.4764  1.7068 -1.5949
 6767SOL     OW31936   0.258   1.595  12.161  0.6413 -0.1505  0.3241
 6767SOL    HW131937   0.174   1.601  12.206  0.4698 -1.1887  0.1480
 6767SOL    HW231938   0.307   1.662  12.208  3.8478 -1.3297 -1.3931
 6768SOL     OW31939   0.590   4.659   4.348  0.0260 -0.7240 -0.1260
 6768SOL    HW131940   0.634   4.733   4.390 -0.4207 -1.0260  0.8667
 6768SOL    HW231941   0.663   4.597   4.359 -1.1933 -1.8176  1.8396
 6769SOL     OW31942   2.020   1.833   5.106 -0.0080 -0.1959  0.5151
 6769SOL    HW131943   2.095   1.775   5.117  2.6719  2.7742 -2.2755
 6769SOL    HW231944   1.960   1.796   5.171  0.9085  1.8607  2.5257
 6770SOL     OW31945   1.620   3.197   5.895  0.3082  0.4065 -0.4836
 6770SOL    HW131946   1.524   3.193   5.885  0.4700 -2.0685 -0.9971
 6770SOL    HW231947   1.639   3.114   5.852 -0.5386  0.4877 -1.0346
 6771SOL     OW31948   0.813   2.531   8.474 -0.5226  0.0977  0.3770
 6771SOL    HW131949   0.850   2.561   8.391 -0.1960 -0.3230  0.3684
 6771SOL    HW231950   0.824   2.436   8.470  1.7811  0.3273  0.8520
 6772SOL     OW31951   0.384   2.031   6.202 -0.4655  0.1630 -0.5891
 6772SOL    HW131952   0.454   2.059   6.144 -0.8174  0.6615 -0.7768
 6772SOL    HW231953   0.307   2.064   6.155  0.1983  1.0440 -1.0399
 6773SOL     OW31954   0.530   0.959   2.523 -0.1667 -0.2342 -0.3436
 6773SOL    HW131955   0.451   1.010   2.540 -0.8082 -1.1812 -0.5232
 6773SOL    HW231956   0.491   0.888   2.472  0.3588 -1.0012  0.3400
 6774SOL     OW31957   4.174   1.306   8.856 -0.4416  0.0567 -0.3895
 6774SOL    HW131958   4.220   1.229   8.890 -2.0966 -0.7757 -0.0187
 6774SOL    HW231959   4.193   1.372   8.923 -1.0799 -0.9514  0.8011
 6775SOL     OW31960   0.786   0.891   6.254 -0.0936  0.2084 -0.6910
 6775SOL    HW131961   0.718   0.836   6.213  0.0946  0.6651 -1.5976
 6775SOL    HW231962   0.746   0.977   6.248  0.2151  0.3494 -0.7167
 6776SOL     OW31963   2.796   2.399   7.448  0.1623 -0.0671  0.5428
 6776SOL    HW131964   2.762   2.454   7.518 -2.8191 -0.3959 -0.6452
 6776SOL    HW231965   2.887   2.429   7.441  1.1674 -3.6306 -1.8301
 6777SOL     OW31966   0.071   3.719   8.874  0.5518  0.1058  0.1502
 6777SOL    HW131967   0.016   3.649   8.909  1.5872 -0.5054  0.5614
 6777SOL    HW231968   0.045   3.728   8.782  0.8959 -1.8239 -0.1305
 6778SOL     OW31969   0.821   2.250   1.391  0.2697 -0.1776  0.8755
 6778SOL    HW131970   0.837   2.231   1.483  2.9714  1.3519  0.7111
 6778SOL    HW231971   0.894   2.204   1.350  1.8672  0.6588  2.7878
 6779SOL     OW31972   3.441   4.144   9.189  0.2986 -0.4633 -0.3021
 6779SOL    HW131973   3.447   4.188   9.273  0.2262 -0.3646 -0.3479
 6779SOL    HW231974   3.467   4.213   9.129 -0.6867 -0.0296 -0.2287
 6780SOL     OW31975   3.471   0.235   6.347  0.1361 -0.0513 -0.4291
 6780SOL    HW131976   3.549   0.281   6.315  1.9891  0.3875  4.7212
 6780SOL    HW231977   3.428   0.299   6.404 -1.0176 -1.7099  0.5489
 6781SOL     OW31978   1.584   3.205   8.853  0.1402 -0.3400 -0.0822
 6781SOL    HW131979   1.508   3.162   8.891 -0.9366  0.1736 -1.6282
 6781SOL    HW231980   1.636   3.208   8.933 -0.2635  2.7801  0.0657
 6782SOL     OW31981   2.454   4.161   7.770  0.1708 -0.0057 -0.0574
 6782SOL    HW131982   2.440   4.088   7.831  1.7022  0.7389  1.1898
 6782SOL    HW231983   2.388   4.226   7.795 -0.5704 -1.5409  2.0411
 6783SOL     OW31984   4.384   0.561   8.462 -0.5270  0.7064 -0.8806
 6783SOL    HW131985   4.321   0.624   8.498 -1.8393 -1.0210 -0.0968
 6783SOL    HW231986   4.325   0.520   8.398  0.0116  0.1912 -1.0388
 6784SOL     OW31987   4.431   1.248  10.854 -0.4796  0.0754  0.1004
 6784SOL    HW131988   4.430   1.153  10.871 -0.5928 -0.8747 -5.1733
 6784SOL    HW231989   4.448   1.289  10.938 -0.9726 -3.1253  1.7523
 6785SOL     OW31990   0.032   1.482   1.424 -0.3085  0.0508 -0.5448
 6785SOL    HW131991   0.080   1.544   1.480  2.2150 -0.0080 -2.6503
 6785SOL    HW231992   4.711   1.539   1.370  0.3486 -0.2085 -1.4805
 6786SOL     OW31993   3.704   4.106   1.930  0.6323 -0.2915 -0.1914
 6786SOL    HW131994   3.678   4.071   1.844  0.8319 -0.3568 -0.2260
 6786SOL    HW231995   3.669   4.194   1.922 -0.6882 -0.8086 -0.0647
 6787SOL     OW31996   1.815   0.739   3.394 -0.1253 -0.3678  0.1542
 6787SOL    HW131997   1.855   0.775   3.473 -2.1317  2.6560 -0.1981
 6787SOL    HW231998   1.822   0.645   3.408  0.4857 -0.7632 -2.7740
 6788SOL     OW31999   3.315   1.060   5.910  0.0873  0.1067 -0.2508
 6788SOL    HW132000   3.367   1.055   5.991  0.8656 -2.3879 -0.8867
 6788SOL    HW232001   3.286   0.968   5.911 -3.5362  1.2607 -0.0246
 6789SOL     OW32002   3.211   2.237   3.918 -0.2731 -0.7097 -0.2760
 6789SOL    HW132003   3.143   2.220   3.853 -1.0537 -2.9019  1.1054
 6789SOL    HW232004   3.290   2.251   3.865 -0.9576  3.1819 -0.2309
 6790SOL     OW32005   2.908   1.550   6.369  0.0058  0.6454  1.1295
 6790SOL    HW132006   2.953   1.613   6.424  0.4272  1.6552 -0.3663
 6790SOL    HW232007   2.825   1.538   6.414 -0.9631  0.1581 -0.7893
 6791SOL     OW32008   1.383   3.381  12.856  0.0971  0.3224  0.0734
 6791SOL    HW132009   1.355   3.323  12.927 -1.9820  0.8333 -0.3276
 6791SOL    HW232010   1.473   3.355  12.835  0.5224  1.8408  0.0210
 6792SOL     OW32011   4.121   1.560   7.145  0.0767 -0.2333  0.3581
 6792SOL    HW132012   4.197   1.504   7.128 -1.1622 -1.5620 -0.8640
 6792SOL    HW232013   4.094   1.534   7.233 -0.1300 -1.8905 -0.1960
 6793SOL     OW32014   3.340   0.925   4.393  0.4373 -0.6235  0.2773
 6793SOL    HW132015   3.405   0.856   4.401  2.3618  1.0306 -1.0751
 6793SOL    HW232016   3.260   0.879   4.418 -1.7873  3.1128  0.1254
 6794SOL     OW32017   4.431   4.640   6.655 -0.8032  0.4396  0.2583
 6794SOL    HW132018   4.487   4.674   6.585  0.0259 -1.0729  0.1932
 6794SOL    HW232019   4.433   4.549   6.624 -2.0644  0.3831  0.3339
 6795SOL     OW32020   3.920   2.169   0.916 -0.0913  0.1564 -0.0908
 6795SOL    HW132021   3.841   2.135   0.957 -1.2393 -0.2858 -2.6758
 6795SOL    HW232022   3.982   2.097   0.929 -2.2960 -1.6713  0.2506
 6796SOL     OW32023   3.601   4.001   4.199  0.3576 -0.2211 -0.0340
 6796SOL    HW132024   3.623   3.918   4.242 -0.8011  0.8025  2.5203
 6796SOL    HW232025   3.506   4.000   4.207  0.3086 -0.5075 -0.6394
 6797SOL     OW32026   1.180   2.562  11.953 -0.1824  0.2917 -0.8154
 6797SOL    HW132027   1.247   2.584  12.018 -0.3710  0.2934 -0.6218
 6797SOL    HW232028   1.154   2.477  11.987 -0.5872  1.1572  1.0493
 6798SOL     OW32029   4.115   3.600  13.197 -0.4549  0.5380  0.0094
 6798SOL    HW132030   4.162   3.518  13.178  0.8232  1.1422  0.5220
 6798SOL    HW232031   4.028   3.575  13.168 -0.2006 -0.6307  0.2247
 6799SOL     OW32032   2.450   1.222   7.737 -0.6346 -0.1174  0.3084
 6799SOL    HW132033   2.367   1.241   7.693 -0.4723 -1.0023 -0.3717
 6799SOL    HW232034   2.475   1.307   7.774  0.4918 -0.6186  0.6967
 6800SOL     OW32035   0.518   3.409   3.889  0.0514  0.4056  0.3842
 6800SOL    HW132036   0.492   3.364   3.809 -2.4136 -0.7985  1.8738
 6800SOL    HW232037   0.434   3.448   3.912 -0.1044 -1.1318  2.4216
 6801SOL     OW32038   0.722   2.162   1.065 -0.3198  0.6814 -0.7158
 6801SOL    HW132039   0.658   2.173   0.995 -0.3412  2.2044 -0.4467
 6801SOL    HW232040   0.677   2.179   1.148  0.4895 -2.8843  0.4569
 6802SOL     OW32041   4.556   1.252  14.900 -0.8735  0.1934 -0.7099
 6802SOL    HW132042   4.461   1.244  14.899 -0.9015  0.4022  0.6129
 6802SOL    HW232043   4.586   1.176  14.850 -0.7372  0.6473 -1.3277
 6803SOL     OW32044   3.175   1.012   7.252  0.5688 -1.0678  0.4480
 6803SOL    HW132045   3.098   0.982   7.202  0.2960 -1.0397  0.8485
 6803SOL    HW232046   3.175   0.949   7.325  2.6802  0.4012  1.7233
 6804SOL     OW32047   3.455   3.765  11.476 -0.3429 -0.4754  1.0163
 6804SOL    HW132048   3.441   3.841  11.419  0.3417 -0.1693  1.2620
 6804SOL    HW232049   3.507   3.794  11.550  0.6356  4.2168 -1.5252
 6805SOL     OW32050   0.332   4.066   0.134 -0.2172  0.2620 -0.3687
 6805SOL    HW132051   0.373   4.031   0.055  1.3216 -0.8563  0.9148
 6805SOL    HW232052   0.410   4.101   0.177  0.7950 -1.7886 -0.5432
 6806SOL     OW32053   1.256   1.796   5.727 -0.0158  0.1008 -0.4925
 6806SOL    HW132054   1.202   1.833   5.658 -0.6367 -0.4898 -0.3251
 6806SOL    HW232055   1.333   1.766   5.679  1.5235  1.4176  1.1277
 6807SOL     OW32056   3.315   0.855   2.118 -0.5023 -0.1296  0.4237
 6807SOL    HW132057   3.306   0.948   2.098  1.9562 -0.1183 -0.5719
 6807SOL    HW232058   3.386   0.854   2.182  0.5699 -1.5560 -0.7848
 6808SOL     OW32059   3.975   3.511   3.135  0.3580  0.1892  0.5223
 6808SOL    HW132060   3.890   3.481   3.167 -0.1195 -0.5306 -1.3704
 6808SOL    HW232061   3.967   3.468   3.049  2.6832 -0.2197  0.5057
 6809SOL     OW32062   3.958   2.302   2.022  0.0090 -0.0829 -0.0161
 6809SOL    HW132063   3.870   2.266   2.010  1.0088 -2.2084 -0.9398
 6809SOL    HW232064   3.955   2.392   1.989  0.4850 -0.1189 -0.1572
 6810SOL     OW32065   0.734   2.697   1.991  0.8300  0.6302 -0.2853
 6810SOL    HW132066   0.826   2.714   1.971  0.1027  3.3632 -1.2655
 6810SOL    HW232067   0.710   2.749   2.067  0.8485  2.1683 -1.3212
 6811SOL     OW32068   0.704   2.426   6.031 -0.2604 -0.4925 -0.0449
 6811SOL    HW132069   0.610   2.414   6.044  0.2063 -2.8502  1.2212
 6811SOL    HW232070   0.710   2.507   5.980  0.9685 -1.2685 -1.1254
 6812SOL     OW32071   3.362   1.557   5.336 -0.1254  0.1321  0.2358
 6812SOL    HW132072   3.403   1.489   5.283 -1.5924  1.2068 -2.2971
 6812SOL    HW232073   3.415   1.562   5.415 -0.1227 -1.1882  0.3158
 6813SOL     OW32074   1.286   3.951   3.736  0.3134  0.0976 -0.4750
 6813SOL    HW132075   1.240   3.925   3.816  1.2368  0.6715  0.2362
 6813SOL    HW232076   1.375   3.951   3.770 -0.2787 -1.1937  1.0862
 6814SOL     OW32077   3.552   3.689   9.640 -0.4811 -0.0354 -0.3178
 6814SOL    HW132078   3.584   3.722   9.724 -0.8436  1.8224 -0.9145
 6814SOL    HW232079   3.575   3.764   9.585  0.7827 -1.1877 -1.3428
 6815SOL     OW32080   4.086   1.241   3.005  0.0501  0.2659  0.4663
 6815SOL    HW132081   4.140   1.180   3.055  0.1110  0.7652  1.0112
 6815SOL    HW232082   4.041   1.182   2.944  0.0652  0.2508  0.4698
 6816SOL     OW32083   4.159   0.293  16.409 -0.3706  0.0664  0.2831
 6816SOL    HW132084   4.110   0.279  16.328  2.9543 -0.1458 -1.7059
 6816SOL    HW232085   4.104   0.251  16.475 -0.8818  1.0027  0.4505
 6817SOL     OW32086   2.736   0.034   8.023  0.2031  0.3573  0.4578
 6817SOL    HW132087   2.721   0.102   8.089 -2.3790  0.3240 -0.0891
 6817SOL    HW232088   2.749   0.083   7.942  0.2454  2.9380  2.0233
 6818SOL     OW32089   1.121   3.816  13.845 -0.4714  0.0180  0.1412
 6818SOL    HW132090   1.047   3.756  13.839  0.5978 -1.3396  0.3147
 6818SOL    HW232091   1.131   3.800  13.939 -0.4241  0.7758  0.2632
 6819SOL     OW32092   0.499   2.447   4.350  0.0492  0.2775 -0.2780
 6819SOL    HW132093   0.403   2.443   4.351 -0.0015  0.5792 -4.0521
 6819SOL    HW232094   0.521   2.393   4.273 -0.9552  0.8615 -0.9781
 6820SOL     OW32095   3.147   3.982   5.541  0.3302  0.2097  0.9363
 6820SOL    HW132096   3.063   4.028   5.550  1.4079  2.9696 -2.7724
 6820SOL    HW232097   3.174   3.993   5.632  0.2919 -0.7604  1.0630
 6821SOL     OW32098   4.124   0.446   6.357 -0.0500 -0.0014 -0.2842
 6821SOL    HW132099   4.193   0.391   6.319  2.0695  0.3275  3.0924
 6821SOL    HW232100   4.100   0.494   6.278 -0.5640  0.3406  0.0860
 6822SOL     OW32101   4.105   0.074   7.181 -0.0624  0.5791 -0.4656
 6822SOL    HW132102   4.031   0.019   7.208  0.6849 -1.7622 -3.1305
 6822SOL    HW232103   4.136   0.019   7.109 -1.6809 -0.2644 -0.5181
 6823SOL     OW32104   2.999   1.198   8.847 -1.1646 -0.1247  0.0458
 6823SOL    HW132105   3.033   1.199   8.937  0.4009  0.4987 -0.5484
 6823SOL    HW232106   2.976   1.288   8.824  0.5212  0.5294  0.8888
 6824SOL     OW32107   3.777   0.292   5.646 -0.0238 -0.6440  0.0179
 6824SOL    HW132108   3.814   0.321   5.562 -1.7990  0.9378 -0.2134
 6824SOL    HW232109   3.777   0.200   5.617  3.5143 -0.6354 -0.0384
 6825SOL     OW32110   1.259   3.535   4.365 -0.7547  0.2266  0.2940
 6825SOL    HW132111   1.173   3.492   4.365 -0.7585  0.2414 -0.9584
 6825SOL    HW232112   1.316   3.458   4.371  0.7737  1.4544  1.7151
 6826SOL     OW32113   3.179   0.258   8.356  0.2083 -0.2724  0.4124
 6826SOL    HW132114   3.097   0.271   8.309  1.4932  0.9349 -1.4762
 6826SOL    HW232115   3.147   0.198   8.424 -0.2329  0.3906  0.7856
 6827SOL     OW32116   0.539   3.778   8.176 -0.1508  0.1948 -0.5917
 6827SOL    HW132117   0.492   3.855   8.144  1.9570  1.6314 -0.2086
 6827SOL    HW232118   0.622   3.804   8.217 -0.4717  1.0675 -0.4938
 6828SOL     OW32119   0.109   1.939   6.504  0.1424 -0.3747  0.3899
 6828SOL    HW132120   0.091   1.987   6.423  0.9955 -2.2329 -0.8927
 6828SOL    HW232121   0.024   1.899   6.526  0.4889 -1.4022 -0.1429
 6829SOL     OW32122   3.207   2.982  16.825  0.4030  0.1537  0.1748
 6829SOL    HW132123   3.220   2.950  16.735 -2.7195 -0.5345 -0.0532
 6829SOL    HW232124   3.289   2.960  16.869  1.5943 -1.1228 -2.6348
 6830SOL     OW32125   0.135   3.483   6.789  0.0176 -0.0133  0.3987
 6830SOL    HW132126   0.094   3.397   6.791  0.3012 -0.1329  1.0805
 6830SOL    HW232127   0.144   3.502   6.883  0.3037 -0.4522  0.4615
 6831SOL     OW32128   3.431   3.123   7.508 -0.4581 -0.1138  0.0343
 6831SOL    HW132129   3.439   3.080   7.594 -0.7359  0.8887  0.5597
 6831SOL    HW232130   3.524   3.145   7.501 -0.6128  0.2074 -1.0395
 6832SOL     OW32131   2.833   1.005  12.795 -0.5544 -0.1259 -0.6484
 6832SOL    HW132132   2.927   0.985  12.785 -0.0880  1.6823  0.1907
 6832SOL    HW232133   2.811   0.941  12.862 -2.2458  1.9932  0.8004
 6833SOL     OW32134   0.984   2.402  15.474  0.5040  0.0143  0.2259
 6833SOL    HW132135   0.991   2.310  15.447  2.0350 -0.1592  1.2654
 6833SOL    HW232136   1.073   2.434  15.462  0.8168 -1.4151 -1.2478
 6834SOL     OW32137   4.157   1.462   6.447  0.8175 -0.3140 -0.1060
 6834SOL    HW132138   4.153   1.393   6.381  1.5324 -2.5550  2.2076
 6834SOL    HW232139   4.120   1.533   6.394 -1.2881 -1.2799  0.0642
 6835SOL     OW32140   4.480   4.330   5.064  0.0494  0.4299  0.0439
 6835SOL    HW132141   4.419   4.282   5.119  2.8338 -0.5404  2.3109
 6835SOL    HW232142   4.564   4.328   5.111 -1.3361  0.0127  2.4854
 6836SOL     OW32143   2.308   0.390   7.102 -0.2261  0.3429  0.1747
 6836SOL    HW132144   2.342   0.309   7.140 -0.4445  0.4961  0.7017
 6836SOL    HW232145   2.249   0.405   7.176 -0.0581 -0.9960  0.5758
 6837SOL     OW32146   1.313   0.520   5.042 -0.4199  0.2315 -0.1048
 6837SOL    HW132147   1.348   0.545   4.956  0.9403 -0.7116  0.1558
 6837SOL    HW232148   1.266   0.602   5.053 -0.5322  0.3209 -1.2772
 6838SOL     OW32149   4.458   1.990   5.604  0.4053 -0.2238  0.0836
 6838SOL    HW132150   4.452   2.007   5.510 -2.7745 -0.6844  0.2131
 6838SOL    HW232151   4.367   1.984   5.634  0.1148  0.4654 -0.6853
 6839SOL     OW32152   0.762   0.390   9.003 -0.2091 -0.3441  0.8361
 6839SOL    HW132153   0.853   0.418   8.996 -0.2174 -0.6972 -0.8664
 6839SOL    HW232154   0.774   0.295   8.999 -1.0076 -0.4900  1.8995
 6840SOL     OW32155   0.198   2.639   3.210  0.0466  0.1131 -0.4095
 6840SOL    HW132156   0.254   2.660   3.135 -0.3615  0.9397 -0.4856
 6840SOL    HW232157   0.252   2.580   3.262 -0.8193  0.7073  1.1883
 6841SOL     OW32158   3.369   4.140   2.052 -0.2948  0.4912 -0.1773
 6841SOL    HW132159   3.410   4.200   2.114 -1.1536 -0.2807  1.1333
 6841SOL    HW232160   3.429   4.146   1.978  0.3713  2.2205  0.4893
 6842SOL     OW32161   0.644   1.456   8.091 -0.2996  0.6532  0.2761
 6842SOL    HW132162   0.653   1.462   8.186  0.7267  2.6238  0.0589
 6842SOL    HW232163   0.580   1.526   8.083 -2.2895 -0.8308  3.2865
 6843SOL     OW32164   1.702   1.226   1.960 -0.0969  0.2054 -0.4537
 6843SOL    HW132165   1.698   1.132   1.978  1.8997  0.1835 -0.1245
 6843SOL    HW232166   1.795   1.246   1.974  0.0004 -0.6060  0.0527
 6844SOL     OW32167   4.511   3.675   6.137 -0.2442  0.1120  0.4192
 6844SOL    HW132168   4.546   3.604   6.083 -2.8780 -0.9747  0.1463
 6844SOL    HW232169   4.546   3.750   6.087 -1.9737  2.6196  2.9912
 6845SOL     OW32170   1.826   2.051   8.939 -0.6401  0.2908 -0.7322
 6845SOL    HW132171   1.888   1.980   8.924  0.9789  1.1971  1.7422
 6845SOL    HW232172   1.740   2.010   8.954 -0.9290  1.4151  0.6453
 6846SOL     OW32173   4.013   3.316   2.589  0.1758 -0.1191 -0.2901
 6846SOL    HW132174   4.044   3.238   2.542 -1.8186 -0.8983 -0.3222
 6846SOL    HW232175   4.034   3.382   2.524 -0.2900 -1.7079 -2.0679
 6847SOL     OW32176   2.197   1.252  12.969 -0.2418 -0.6916 -0.1672
 6847SOL    HW132177   2.266   1.239  13.034 -0.7201 -0.6242  0.3603
 6847SOL    HW232178   2.199   1.165  12.929 -0.1902 -1.4724  1.5157
 6848SOL     OW32179   3.099   3.413   2.761  0.4684 -0.3038 -0.2091
 6848SOL    HW132180   3.133   3.447   2.678  1.7697  0.9525  0.8510
 6848SOL    HW232181   3.100   3.493   2.813 -2.1433 -0.3258 -0.0867
 6849SOL     OW32182   3.122   3.688   7.377  0.4657 -0.5164  0.6700
 6849SOL    HW132183   3.129   3.770   7.329 -0.1139 -0.3867  0.8112
 6849SOL    HW232184   3.038   3.705   7.420 -0.5674 -3.3975 -0.2340
 6850SOL     OW32185   3.130   0.777   4.497  0.3557  0.9659 -0.5065
 6850SOL    HW132186   3.088   0.692   4.511  1.6349 -0.2193 -3.7514
 6850SOL    HW232187   3.057   0.839   4.499 -0.9289 -0.4752 -2.0435
 6851SOL     OW32188   1.750   2.879   3.996  0.2841  0.1151  0.2077
 6851SOL    HW132189   1.764   2.848   3.907 -0.2106 -0.2241  0.2494
 6851SOL    HW232190   1.815   2.839   4.053  0.1550 -0.0086  0.2669
 6852SOL     OW32191   0.689   1.040   7.287 -0.0725 -0.5221  0.3108
 6852SOL    HW132192   0.640   0.958   7.282  1.4662 -1.5362  2.0628
 6852SOL    HW232193   0.623   1.103   7.315 -1.3097 -1.5171 -0.3689
 6853SOL     OW32194   3.038   2.704  13.403  0.6992  0.6319 -0.2112
 6853SOL    HW132195   2.978   2.759  13.354 -1.1892 -0.4302  0.9077
 6853SOL    HW232196   3.002   2.722  13.490  0.5937  0.3738 -0.2011
 6854SOL     OW32197   1.124   2.742   4.561 -0.6181 -0.1299 -0.8024
 6854SOL    HW132198   1.104   2.671   4.622  1.3494  0.4678  0.5454
 6854SOL    HW232199   1.166   2.699   4.486  0.1320 -0.1997 -0.3438
 6855SOL     OW32200   2.367   2.049   3.249 -0.2094  0.2387 -0.4077
 6855SOL    HW132201   2.383   2.120   3.188  0.1785  1.1852  0.8022
 6855SOL    HW232202   2.298   1.995   3.210 -1.7254  2.2990 -0.5847
 6856SOL     OW32203   1.396   2.464   2.239  0.1449 -0.1987  0.3271
 6856SOL    HW132204   1.414   2.389   2.296  1.0643  0.3355  0.7488
 6856SOL    HW232205   1.366   2.528   2.304 -2.5655  0.3085 -1.4656
 6857SOL     OW32206   4.615   1.593   8.404 -0.3150 -0.0437  0.6761
 6857SOL    HW132207   4.648   1.542   8.330 -1.9372  0.7228 -0.5658
 6857SOL    HW232208   4.698   1.625   8.440 -0.8206  1.3719  0.6063
 6858SOL     OW32209   0.601   1.905  13.093  0.1883 -0.0364 -0.2126
 6858SOL    HW132210   0.625   1.987  13.136 -0.3255 -0.8830  1.7227
 6858SOL    HW232211   0.513   1.921  13.059 -0.9033 -0.2109  2.4595
 6859SOL     OW32212   2.619   1.637   9.204  0.7159 -0.1199 -0.3243
 6859SOL    HW132213   2.698   1.689   9.218 -1.9115  3.4429  1.1362
 6859SOL    HW232214   2.650   1.546   9.212 -1.6896 -0.8181  1.1938
 6860SOL     OW32215   4.259   1.243  15.379 -0.1552  0.1439 -0.4019
 6860SOL    HW132216   4.220   1.181  15.317  1.4443  0.6232 -1.8726
 6860SOL    HW232217   4.307   1.299  15.318 -1.4140  1.9408  0.2629
 6861SOL     OW32218   0.289   1.740  15.587  0.6129 -0.4228 -0.1002
 6861SOL    HW132219   0.381   1.714  15.576  0.6292 -1.6812  2.9764
 6861SOL    HW232220   0.283   1.814  15.527 -2.8414  1.2375  2.3288
 6862SOL     OW32221   4.505   2.822  16.038 -0.1443 -0.0634  0.0485
 6862SOL    HW132222   4.438   2.889  16.054  0.2812  0.1737  0.8321
 6862SOL    HW232223   4.474   2.754  16.098 -0.1018  0.8973  1.1782
 6863SOL     OW32224   2.434   0.962   3.759 -0.4814  0.1428 -0.2085
 6863SOL    HW132225   2.392   0.912   3.828 -0.6845  0.6089  0.0052
 6863SOL    HW232226   2.365   0.957   3.693  1.2451 -0.1575 -1.9733
 6864SOL     OW32227   3.359   3.665   4.384  0.5629 -0.6638  0.0623
 6864SOL    HW132228   3.333   3.631   4.299  2.5766  1.2169 -1.3259
 6864SOL    HW232229   3.448   3.699   4.374 -0.1138  1.0898 -0.0819
 6865SOL     OW32230   3.272   1.820   6.441  0.0418 -0.1584  0.2960
 6865SOL    HW132231   3.257   1.850   6.352 -0.7281 -1.8684 -0.1448
 6865SOL    HW232232   3.367   1.834   6.445 -0.3361  1.9423  1.6946
 6866SOL     OW32233   0.522   1.476  14.446 -0.7007  0.7598 -0.3470
 6866SOL    HW132234   0.536   1.571  14.450  0.9459  0.5513 -1.1730
 6866SOL    HW232235   0.443   1.466  14.394 -1.6650 -1.1657  1.5006
 6867SOL     OW32236   2.236   4.192   8.168 -0.1698  0.4759 -0.5441
 6867SOL    HW132237   2.210   4.191   8.076  0.1590 -2.8847 -0.6084
 6867SOL    HW232238   2.270   4.280   8.183 -0.8707  0.6895 -0.1644
 6868SOL     OW32239   4.262   3.398  13.115 -0.8145 -0.3654 -0.2452
 6868SOL    HW132240   4.345   3.386  13.162 -1.7341 -1.3873  1.1054
 6868SOL    HW232241   4.244   3.310  13.081 -1.6726 -0.8313  1.4582
 6869SOL     OW32242   0.032   3.700   4.251 -0.2036  0.1768 -0.3607
 6869SOL    HW132243   0.099   3.764   4.227  0.0080  1.1799  2.9500
 6869SOL    HW232244   0.072   3.672   4.333 -1.1224 -2.5123 -0.8372
 6870SOL     OW32245   1.766   4.629   2.175 -0.7544  0.4204 -0.9470
 6870SOL    HW132246   1.715   4.617   2.095 -1.0835  0.7510 -0.7863
 6870SOL    HW232247   1.854   4.631   2.135 -0.8130 -0.9870 -1.1505
 6871SOL     OW32248   2.523   2.738   8.429  0.0878  0.1030 -0.0554
 6871SOL    HW132249   2.498   2.804   8.493  0.4922 -0.4183  0.6434
 6871SOL    HW232250   2.488   2.773   8.347  2.6531  0.4618 -0.9988
 6872SOL     OW32251   0.617   2.114   8.573 -0.2443  0.4393 -0.3836
 6872SOL    HW132252   0.604   2.029   8.614  1.8917  1.3025  2.0507
 6872SOL    HW232253   0.613   2.179   8.643 -3.5013  0.0353 -0.1811
 6873SOL     OW32254   4.599   4.551   2.916 -1.0042 -0.1247 -0.4276
 6873SOL    HW132255   4.643   4.608   2.978  1.0558 -1.3295 -0.7969
 6873SOL    HW232256   4.613   4.469   2.964 -1.6958 -0.8371 -1.4340
 6874SOL     OW32257   0.108   2.699  10.805  0.2431 -0.1780  0.1066
 6874SOL    HW132258   0.194   2.673  10.837  0.1246 -0.6138  0.0668
 6874SOL    HW232259   0.131   2.737  10.719  0.5526  1.0192  0.7157
 6875SOL     OW32260   1.400   3.202   4.613  0.0895 -0.4797 -0.1229
 6875SOL    HW132261   1.400   3.110   4.588  0.8824 -0.8084  1.0561
 6875SOL    HW232262   1.416   3.254   4.534  0.2593  3.7035  2.6715
 6876SOL     OW32263   2.197   4.631  13.761 -0.2737 -1.1193 -0.1509
 6876SOL    HW132264   2.141   4.641  13.837 -0.2699 -0.1528 -0.2718
 6876SOL    HW232265   2.153   4.683  13.694 -0.3015 -2.2538 -1.0098
 6877SOL     OW32266   3.086   3.146   9.075 -0.1669  0.2229  0.0516
 6877SOL    HW132267   3.128   3.071   9.117  0.0723 -0.2626 -1.0423
 6877SOL    HW232268   2.994   3.121   9.071  0.3316 -1.9576  2.2357
 6878SOL     OW32269   2.213   1.706  10.578 -0.1147  0.7857 -0.5144
 6878SOL    HW132270   2.298   1.664  10.564  0.1375 -0.1017  3.6647
 6878SOL    HW232271   2.172   1.692  10.493  0.1241  0.6748 -0.6111
 6879SOL     OW32272   1.386   2.421   3.061  0.1661 -0.6280 -0.2926
 6879SOL    HW132273   1.363   2.453   3.148 -0.2922 -1.4275 -0.1160
 6879SOL    HW232274   1.382   2.325   3.067 -1.4618 -0.5151  0.3636
 6880SOL     OW32275   1.455   0.067   7.180 -0.1639  0.3277  0.4283
 6880SOL    HW132276   1.475   4.714   7.213 -0.1969 -0.1157 -0.6991
 6880SOL    HW232277   1.472   0.054   7.086 -1.3827 -1.2215  0.4287
 6881SOL     OW32278   2.851   2.137   5.884 -0.1050 -0.0852 -0.3337
 6881SOL    HW132279   2.828   2.230   5.888 -0.7180 -0.2764  0.8914
 6881SOL    HW232280   2.946   2.139   5.893 -0.2816  1.0378  1.2989
 6882SOL     OW32281   0.176   2.640  14.558  0.1030 -0.3945  0.3007
 6882SOL    HW132282   0.202   2.550  14.574  0.6114 -0.3148 -0.0790
 6882SOL    HW232283   0.107   2.622  14.495  0.8224  0.4806 -0.7377
 6883SOL     OW32284   4.297   3.127   5.290  0.1012 -0.0902 -0.3314
 6883SOL    HW132285   4.281   3.132   5.384 -0.6880  2.6231 -0.6134
 6883SOL    HW232286   4.354   3.050   5.296  0.9776  0.5661 -0.3302
 6884SOL     OW32287   3.082   0.502   5.551 -0.0814  0.4934  0.0448
 6884SOL    HW132288   3.156   0.474   5.605 -0.1970 -1.1610 -0.6694
 6884SOL    HW232289   3.018   0.525   5.618 -0.7718 -1.2851 -0.0080
 6885SOL     OW32290   3.518   3.326  12.148 -0.4136 -0.1429  0.3631
 6885SOL    HW132291   3.487   3.283  12.069 -1.0858  1.4297 -0.2300
 6885SOL    HW232292   3.576   3.395  12.115  0.6062 -0.3300  1.7483
 6886SOL     OW32293   1.450   1.023   2.236 -0.0406  0.1972 -0.2875
 6886SOL    HW132294   1.359   1.038   2.264 -0.3074  0.0194 -1.0622
 6886SOL    HW232295   1.484   0.972   2.309 -1.2676 -1.1430 -0.6547
 6887SOL     OW32296   2.397   4.480   2.125  0.5827 -0.0558 -0.6950
 6887SOL    HW132297   2.469   4.467   2.186 -0.6915  1.1388  1.0673
 6887SOL    HW232298   2.403   4.394   2.083  2.6686 -0.9032  1.3287
 6888SOL     OW32299   2.265   2.198  16.808  0.5472  0.3158 -0.1954
 6888SOL    HW132300   2.325   2.270  16.827  1.4309 -0.4744  0.0527
 6888SOL    HW232301   2.256   2.209  16.713 -0.4451 -0.4710 -0.1941
 6889SOL     OW32302   2.820   2.109   5.606 -0.0793  0.1031 -0.1142
 6889SOL    HW132303   2.744   2.168   5.603 -0.3583 -0.2019  0.9324
 6889SOL    HW232304   2.823   2.092   5.700 -0.7677 -1.8969 -0.4585
 6890SOL     OW32305   4.099   4.339   5.567 -0.0328  0.4472  0.2457
 6890SOL    HW132306   4.137   4.260   5.529  1.2677  1.3129 -0.2647
 6890SOL    HW232307   4.164   4.382   5.623  2.0597 -1.0831 -0.9785
 6891SOL     OW32308   3.176   3.930  14.520 -0.2800  0.2363 -0.3146
 6891SOL    HW132309   3.221   3.984  14.455  1.6526 -1.4923 -0.3997
 6891SOL    HW232310   3.200   3.841  14.494 -2.0465  0.2289 -1.9698
 6892SOL     OW32311   1.937   2.633   6.863 -0.2120  0.5945  0.2149
 6892SOL    HW132312   1.990   2.683   6.926  0.6695 -1.3804  1.0425
 6892SOL    HW232313   1.900   2.700   6.806  0.4872  0.2094 -0.6845
 6893SOL     OW32314   3.468   4.087   7.708 -0.1302 -0.0667  0.1454
 6893SOL    HW132315   3.388   4.113   7.755  0.9156  1.2978  1.1549
 6893SOL    HW232316   3.504   4.166   7.669  0.1552  0.7867  2.1052
 6894SOL     OW32317   3.300   3.984   4.206 -0.2018  0.3602 -0.0044
 6894SOL    HW132318   3.236   3.914   4.199 -0.4550  0.4858  1.1454
 6894SOL    HW232319   3.248   4.049   4.159  1.7207  1.7376 -0.2733
 6895SOL     OW32320   0.951   0.182   5.172  0.0669 -0.0790 -0.4127
 6895SOL    HW132321   0.893   0.210   5.102 -0.5451 -0.4022 -0.0324
 6895SOL    HW232322   1.038   0.190   5.133  0.7599 -0.0030  1.1445
 6896SOL     OW32323   1.831   2.468   1.925  0.0591  0.8005 -0.2281
 6896SOL    HW132324   1.776   2.462   1.847  0.4246 -1.8069 -0.2903
 6896SOL    HW232325   1.901   2.519   1.886  0.8437 -1.5344 -1.8737
 6897SOL     OW32326   0.557   2.528  11.221 -0.6253  0.3758 -0.0488
 6897SOL    HW132327   0.512   2.586  11.160 -1.1586  0.0953  0.0776
 6897SOL    HW232328   0.625   2.585  11.258  0.0770 -0.5637  0.0961
 6898SOL     OW32329   3.965   0.880   0.083 -0.1909  0.1730  0.1000
 6898SOL    HW132330   3.877   0.917   0.073 -0.1344  0.0005 -1.0148
 6898SOL    HW232331   3.970   0.816   0.013 -1.4080  0.9895 -0.7371
 6899SOL     OW32332   3.729   2.892   6.162 -0.0400 -0.4114  0.5861
 6899SOL    HW132333   3.804   2.840   6.130 -0.6033 -0.5354 -0.5354
 6899SOL    HW232334   3.711   2.953   6.091 -0.7744 -2.5080 -1.0327
 6900SOL     OW32335   4.521   0.493   8.692  0.5708  0.0309 -0.3116
 6900SOL    HW132336   4.458   0.483   8.621  0.5755 -1.0528 -0.1622
 6900SOL    HW232337   4.504   0.581   8.725  1.6537 -0.1235  0.6692
 6901SOL     OW32338   0.242   4.439  17.060  0.4528 -0.3398  0.4215
 6901SOL    HW132339   0.237   4.459  17.153  0.6038  0.2817  0.2972
 6901SOL    HW232340   0.179   4.368  17.052  2.2884 -2.0213  0.9468
 6902SOL     OW32341   0.418   3.348   5.174  0.3273 -0.3026  0.7170
 6902SOL    HW132342   0.339   3.314   5.133  1.3540 -2.7211  0.7113
 6902SOL    HW232343   0.476   3.344   5.098 -1.7271  0.6902 -0.8888
 6903SOL     OW32344   3.703   2.316  17.514 -0.2151  0.5211  0.0920
 6903SOL    HW132345   3.685   2.318  17.420 -0.3823  1.2431  0.1420
 6903SOL    HW232346   3.636   2.377  17.545  0.1005  1.1524 -0.4796
 6904SOL     OW32347   1.754   4.258   6.432 -0.3084 -0.0028 -0.3176
 6904SOL    HW132348   1.708   4.334   6.469  0.8267  0.5151  0.0517
 6904SOL    HW232349   1.754   4.213   6.517  1.4887 -1.8995 -1.3413
 6905SOL     OW32350   2.189   1.500   0.203 -0.2033 -0.4621  0.4642
 6905SOL    HW132351   2.193   1.569   0.270 -0.5047  1.2536 -1.2630
 6905SOL    HW232352   2.206   1.416   0.246  0.0358 -0.3499  0.5931
 6906SOL     OW32353   1.759   3.287   8.660 -0.2626  0.5329  0.2145
 6906SOL    HW132354   1.721   3.337   8.588 -1.7834 -0.1801  0.5221
 6906SOL    HW232355   1.684   3.256   8.710  0.1541 -2.1102 -0.8019
 6907SOL     OW32356   0.860   0.426   6.980 -0.0391 -0.5379 -0.3395
 6907SOL    HW132357   0.921   0.354   6.995  0.9593  0.4730  0.4732
 6907SOL    HW232358   0.776   0.382   6.967 -0.1345 -0.5696  0.3869
 6908SOL     OW32359   3.358   1.239   8.485  0.3322  0.4172 -0.7517
 6908SOL    HW132360   3.391   1.328   8.499  0.6486  0.2648 -0.5251
 6908SOL    HW232361   3.312   1.220   8.567  1.8763  3.2900  0.8146
 6909SOL     OW32362   3.446   0.761  16.501 -0.0391 -0.0649 -0.6059
 6909SOL    HW132363   3.394   0.819  16.557  0.5325 -0.0429 -0.0960
 6909SOL    HW232364   3.405   0.676  16.519 -0.9150  0.6841  0.9438
 6910SOL     OW32365   3.122   2.696   1.261 -0.6210 -0.3294  0.5496
 6910SOL    HW132366   3.119   2.698   1.165  2.6064  1.2467  0.4835
 6910SOL    HW232367   3.206   2.741   1.274 -0.3097 -1.5607  2.7333
 6911SOL     OW32368   4.249   2.492   2.989 -0.6076  0.3288 -0.3200
 6911SOL    HW132369   4.275   2.530   2.905  0.3349 -1.4600 -0.8413
 6911SOL    HW232370   4.215   2.569   3.034 -1.9825 -1.9362  2.4697
 6912SOL     OW32371   1.424   3.781   4.620 -0.0376  0.0526 -0.0593
 6912SOL    HW132372   1.378   3.809   4.541 -0.2493 -3.6068 -1.2440
 6912SOL    HW232373   1.478   3.712   4.581 -1.6629 -0.4508 -1.4312
 6913SOL     OW32374   0.904   1.282   6.841  0.3527 -0.0254  0.2935
 6913SOL    HW132375   0.847   1.277   6.917  0.8874 -1.6855  0.5845
 6913SOL    HW232376   0.852   1.218   6.792  0.7283 -1.2156  1.4697
 6914SOL     OW32377   1.517   3.539   3.000  0.6425 -0.1540 -0.1635
 6914SOL    HW132378   1.590   3.538   2.939  1.8674 -2.1635  1.3226
 6914SOL    HW232379   1.470   3.617   2.971 -0.3057 -0.9010 -0.6640
 6915SOL     OW32380   1.857   4.095   6.655  0.6600  0.2064  0.6910
 6915SOL    HW132381   1.854   4.189   6.670  2.0529  0.0017  2.1556
 6915SOL    HW232382   1.931   4.089   6.594  1.6003  1.0481  1.7580
 6916SOL     OW32383   3.525   4.062  17.121  0.8263  0.6135  0.2092
 6916SOL    HW132384   3.555   4.153  17.126  2.3750  0.1107  0.1262
 6916SOL    HW232385   3.542   4.032  17.210  0.0239 -4.2639 -1.2755
 6917SOL     OW32386   2.802   0.474   5.367  0.2334  0.0986  0.3777
 6917SOL    HW132387   2.795   0.471   5.463 -0.5155  1.5218  0.3676
 6917SOL    HW232388   2.893   0.446   5.353 -0.1644  0.0856 -2.1179
 6918SOL     OW32389   0.541   0.822   7.256 -0.1044 -0.3409 -0.2220
 6918SOL    HW132390   0.522   0.766   7.331 -2.3430 -0.0785 -0.5934
 6918SOL    HW232391   0.461   0.839   7.206  1.9927  2.1220 -2.7942
 6919SOL     OW32392   4.175   4.263   7.832  0.6690  0.9581 -0.0391
 6919SOL    HW132393   4.089   4.304   7.840 -0.7242 -1.9744  0.1701
 6919SOL    HW232394   4.225   4.332   7.876 -0.9600  2.2839 -0.2870
 6920SOL     OW32395   1.134   2.682   0.556  0.1327 -0.1309 -0.0256
 6920SOL    HW132396   1.109   2.702   0.646 -2.3432 -0.8784 -0.5627
 6920SOL    HW232397   1.159   2.768   0.523  0.2986 -0.5086 -0.8783
 6921SOL     OW32398   2.464   4.630   5.977  0.1971  0.3747  0.0733
 6921SOL    HW132399   2.455   4.550   6.029  0.3844  1.3987  1.7061
 6921SOL    HW232400   2.555   4.660   5.987  0.1786  0.3314  0.3691
 6922SOL     OW32401   2.245   3.002   9.077 -0.2922 -0.2996  0.6068
 6922SOL    HW132402   2.252   3.096   9.095  1.8751 -0.7710  2.1867
 6922SOL    HW232403   2.180   3.011   9.007  1.0656  0.9978 -0.5065
 6923SOL     OW32404   3.606   1.165   3.927  0.4467 -0.1795  0.1204
 6923SOL    HW132405   3.662   1.178   4.005 -1.2319  0.0560  1.2786
 6923SOL    HW232406   3.668   1.186   3.857 -1.0249 -2.9449 -1.9895
 6924SOL     OW32407   1.264   3.910   7.736 -0.1060  0.0945  0.2281
 6924SOL    HW132408   1.282   3.923   7.643 -1.4945 -1.7607 -0.3120
 6924SOL    HW232409   1.168   3.901   7.737  0.0763 -2.1578 -2.1084
 6925SOL     OW32410   3.944   1.749   1.958 -0.5242  0.0384  0.6864
 6925SOL    HW132411   3.974   1.817   1.898 -1.6696  0.1978  0.2865
 6925SOL    HW232412   3.865   1.712   1.918  0.6337  0.2017 -1.7240
 6926SOL     OW32413   0.867   2.836   4.540 -0.1256  0.0187  0.0358
 6926SOL    HW132414   0.849   2.805   4.451 -1.5154 -0.0936  0.3501
 6926SOL    HW232415   0.962   2.828   4.549 -0.0041 -1.1487 -2.4549
 6927SOL     OW32416   3.806   1.789  16.834 -0.1741  0.0322  0.1932
 6927SOL    HW132417   3.901   1.772  16.834 -0.2776 -0.5440  3.2339
 6927SOL    HW232418   3.805   1.813  16.741  1.4463  1.6947  0.6075
 6928SOL     OW32419   3.776   2.497   6.756 -0.1301  0.4535 -0.3255
 6928SOL    HW132420   3.865   2.472   6.784 -0.7252  1.0333  2.0989
 6928SOL    HW232421   3.713   2.467   6.821  1.1671  0.0111  0.7294
 6929SOL     OW32422   0.492   1.177   7.442 -0.3814 -0.6279 -0.2480
 6929SOL    HW132423   0.475   1.269   7.424 -1.5981 -0.9773 -0.8541
 6929SOL    HW232424   0.492   1.174   7.537  0.9046  0.4330 -0.2145
 6930SOL     OW32425   1.588   0.369  13.589  0.3476 -0.1898 -0.4349
 6930SOL    HW132426   1.526   0.371  13.516  0.2313 -0.7771 -0.3557
 6930SOL    HW232427   1.579   0.457  13.626  2.1281  0.5106 -1.6812
 6931SOL     OW32428   0.428   1.204   8.347  1.0734  0.0717  0.7528
 6931SOL    HW132429   0.363   1.257   8.301  1.8709  0.3998 -0.0017
 6931SOL    HW232430   0.385   1.119   8.353 -0.5675  0.7757 -1.0884
 6932SOL     OW32431   1.031   1.665   3.455  0.5226 -1.0238 -0.7230
 6932SOL    HW132432   1.091   1.696   3.387  1.3170  2.1829  1.4456
 6932SOL    HW232433   0.956   1.720   3.432 -0.0349 -0.9044  1.3922
 6933SOL     OW32434   1.300   1.513  10.892 -0.7017 -0.0995  0.5597
 6933SOL    HW132435   1.283   1.553  10.977 -0.8289  0.4391  0.2833
 6933SOL    HW232436   1.395   1.515  10.879 -0.7906 -2.7096 -0.4626
 6934SOL     OW32437   0.849   2.124   4.928  0.1611  0.7779  0.0436
 6934SOL    HW132438   0.776   2.118   4.866  0.9039 -0.3771 -0.7293
 6934SOL    HW232439   0.919   2.094   4.870 -1.0385  1.6398 -1.8864
 6935SOL     OW32440   1.812   0.921  10.484 -0.3904  0.4459  0.0661
 6935SOL    HW132441   1.785   0.832  10.463  0.7694 -0.1055  0.9141
 6935SOL    HW232442   1.893   0.895  10.527 -1.3457 -0.9654  0.9686
 6936SOL     OW32443   4.443   1.244   5.908  0.1034 -0.0051 -0.4752
 6936SOL    HW132444   4.459   1.308   5.977  0.3384 -1.0956  0.4624
 6936SOL    HW232445   4.517   1.251   5.848 -0.2755  1.5616 -0.7751
 6937SOL     OW32446   4.207   4.396   2.083  0.0691 -0.2555 -0.0040
 6937SOL    HW132447   4.215   4.357   1.996 -1.0692 -0.5588  0.0311
 6937SOL    HW232448   4.149   4.335   2.127 -0.8041  1.3245  1.0408
 6938SOL     OW32449   1.427   1.848   9.264  0.6523 -0.4430  0.4342
 6938SOL    HW132450   1.434   1.930   9.215 -0.4414  0.5552  1.9494
 6938SOL    HW232451   1.377   1.863   9.345  2.2005  3.1171  0.7264
 6939SOL     OW32452   1.544   2.774   1.747 -0.2033  0.0840 -0.3892
 6939SOL    HW132453   1.606   2.703   1.763  0.5400  0.4371 -1.7144
 6939SOL    HW232454   1.488   2.757   1.823  2.0294  0.4347  1.3395
 6940SOL     OW32455   0.407   2.949   1.969  0.7686  0.2823  0.3044
 6940SOL    HW132456   0.490   2.992   1.987  0.5965  0.8719 -0.2991
 6940SOL    HW232457   0.434   2.861   1.940 -1.6289 -0.5609  0.6414
 6941SOL     OW32458   4.143   2.987   4.848  0.3277  0.6717  0.0866
 6941SOL    HW132459   4.091   3.032   4.782 -0.1122  0.8553  0.5604
 6941SOL    HW232460   4.222   3.042   4.851  1.3234 -0.7577 -0.0374
 6942SOL     OW32461   4.615   1.254   4.285  0.0340  0.0746  0.4791
 6942SOL    HW132462   4.656   1.307   4.353 -0.3468  0.8001  0.1481
 6942SOL    HW232463   4.660   1.292   4.209 -1.4480 -1.0594 -0.9699
 6943SOL     OW32464   3.904   1.114  10.831  0.4701 -0.1894  0.8559
 6943SOL    HW132465   3.972   1.162  10.783  0.9250 -1.4565  0.2334
 6943SOL    HW232466   3.955   1.090  10.909  1.6235  1.1241  0.5181
 6944SOL     OW32467   0.804   2.402   5.634 -0.2795  0.1675  0.3383
 6944SOL    HW132468   0.764   2.471   5.687 -0.0764 -0.1740  0.9360
 6944SOL    HW232469   0.836   2.355   5.711  0.8356  0.3743  0.0082
 6945SOL     OW32470   0.651   1.926   3.551 -0.1138 -0.4443  0.0161
 6945SOL    HW132471   0.687   1.840   3.572  0.5270 -1.1268 -3.8892
 6945SOL    HW232472   0.644   1.979   3.631 -2.0084 -0.5586 -0.0798
 6946SOL     OW32473   1.575   3.688   6.406 -0.4081  0.2278 -0.1481
 6946SOL    HW132474   1.523   3.734   6.339 -0.8034 -0.0911 -0.0596
 6946SOL    HW232475   1.609   3.762   6.456 -2.2420 -0.4163  2.0453
 6947SOL     OW32476   3.408   2.352   1.988  0.3654 -1.1899 -0.1775
 6947SOL    HW132477   3.452   2.351   2.073  0.3149  1.1120 -0.1327
 6947SOL    HW232478   3.391   2.444   1.972 -2.3278 -1.4601  1.2957
 6948SOL     OW32479   2.732   2.549   3.755 -0.0304 -0.5875 -0.0341
 6948SOL    HW132480   2.678   2.478   3.720  1.9421 -1.8770 -0.3938
 6948SOL    HW232481   2.701   2.626   3.708 -1.2651 -1.0055  0.0747
 6949SOL     OW32482   1.353   1.752  13.999 -0.0516 -0.4163 -0.5650
 6949SOL    HW132483   1.386   1.721  13.915  0.2643  1.2898 -1.0775
 6949SOL    HW232484   1.275   1.798  13.970 -0.2824 -0.0902  0.5553
 6950SOL     OW32485   3.030   0.500  12.346 -0.0394  0.2332  0.0890
 6950SOL    HW132486   2.963   0.482  12.412  0.6318 -2.7876 -0.0454
 6950SOL    HW232487   3.104   0.445  12.371 -1.1389 -0.6400  1.3979
 6951SOL     OW32488   3.933   2.437  17.372 -0.2014  0.1098  0.2555
 6951SOL    HW132489   3.911   2.452  17.464  0.4714  0.1048  0.4148
 6951SOL    HW232490   3.843   2.430  17.340 -0.4540 -0.6515  1.1143
 6952SOL     OW32491   0.290   1.604   5.929 -0.4367 -0.3100 -0.4601
 6952SOL    HW132492   0.340   1.680   5.899  0.4350 -0.9063 -0.5213
 6952SOL    HW232493   0.216   1.600   5.868  0.0893  0.1255 -1.1318
 6953SOL     OW32494   1.508   4.084   3.391 -0.5547 -0.6611  1.0353
 6953SOL    HW132495   1.423   4.040   3.394  0.4391 -2.5295  1.2556
 6953SOL    HW232496   1.465   4.169   3.379  0.3591 -0.3124  0.2937
 6954SOL     OW32497   3.403   4.062  13.007  0.3883  0.8140 -0.4099
 6954SOL    HW132498   3.458   3.991  13.038 -1.1732 -0.4727 -0.5930
 6954SOL    HW232499   3.438   4.081  12.920 -0.8099 -0.2582 -1.1167
 6955SOL     OW32500   2.866   2.001   2.629  0.0658  0.1411  0.2218
 6955SOL    HW132501   2.872   1.934   2.698  1.9349  2.0255  1.8902
 6955SOL    HW232502   2.947   1.990   2.580  0.2732  1.3680  0.3019
 6956SOL     OW32503   3.924   4.656   7.781 -0.5782 -0.8182 -0.0139
 6956SOL    HW132504   3.896   0.012   7.801 -1.8114 -1.2046 -0.0034
 6956SOL    HW232505   3.937   4.662   7.686 -0.8935  0.0542 -0.0052
 6957SOL     OW32506   2.068   1.984  11.873  0.1547  0.4037 -0.0014
 6957SOL    HW132507   1.991   1.949  11.828  0.6233  0.6550 -0.9869
 6957SOL    HW232508   2.122   1.906  11.883 -0.2903  0.3589  2.0080
 6958SOL     OW32509   3.938   1.435   8.928  0.0012 -0.0498 -0.3578
 6958SOL    HW132510   3.983   1.358   8.894 -0.8265 -0.1210 -1.3201
 6958SOL    HW232511   4.007   1.483   8.974 -1.6505  0.5405  1.5046
 6959SOL     OW32512   3.902   1.098   7.332  0.5070 -0.3224  1.0121
 6959SOL    HW132513   3.884   1.011   7.368  0.4936 -1.3796 -1.5631
 6959SOL    HW232514   3.887   1.156   7.407  2.2073  0.8745  0.4345
 6960SOL     OW32515   3.814   1.657   5.787 -0.1054 -0.5253  0.5901
 6960SOL    HW132516   3.864   1.736   5.808 -1.8770  1.3202 -2.2073
 6960SOL    HW232517   3.877   1.612   5.731 -1.0136  0.2670 -1.0522
 6961SOL     OW32518   4.557   3.303   3.799 -0.5628  0.0544 -0.0796
 6961SOL    HW132519   4.652   3.299   3.802 -0.5105  1.5138  0.3741
 6961SOL    HW232520   4.545   3.263   3.713 -0.3945  2.5795 -1.3054
 6962SOL     OW32521   1.339   0.268   8.814  0.0806 -0.9718 -0.2636
 6962SOL    HW132522   1.295   0.265   8.729  1.1761  1.0361 -0.8865
 6962SOL    HW232523   1.333   0.360   8.840 -2.7536 -0.7494 -1.7885
 6963SOL     OW32524   0.561   0.577  17.259  0.2272 -0.2643  0.3601
 6963SOL    HW132525   0.540   0.668  17.280 -1.2465 -1.1832  2.8762
 6963SOL    HW232526   0.566   0.525  17.340  3.7528  0.8749  0.8964
 6964SOL     OW32527   2.556   3.436  10.549 -0.4898  0.2338 -0.1087
 6964SOL    HW132528   2.542   3.372  10.619 -2.9976  1.5250  0.5514
 6964SOL    HW232529   2.590   3.505  10.605 -2.5028  0.4007  0.8866
 6965SOL     OW32530   3.043   0.927   0.912 -0.4730  0.8961  0.5522
 6965SOL    HW132531   3.129   0.888   0.930 -1.8546 -1.5823  1.6673
 6965SOL    HW232532   2.983   0.855   0.893  2.3879 -0.5300 -3.0905
 6966SOL     OW32533   2.010   0.261  15.350 -0.0439 -0.0525 -0.1097
 6966SOL    HW132534   2.011   0.311  15.268 -1.1437 -0.8132 -0.5813
 6966SOL    HW232535   2.031   0.337  15.404 -1.6621 -1.3405  2.2832
 6967SOL     OW32536   0.972   0.486   3.495 -0.0528 -0.5203 -0.2862
 6967SOL    HW132537   0.947   0.440   3.575  1.7005 -0.8125  0.0941
 6967SOL    HW232538   1.037   0.424   3.464  1.4978  0.5027  0.8867
 6968SOL     OW32539   1.827   0.547   4.465 -0.0770 -0.1147 -0.8865
 6968SOL    HW132540   1.769   0.518   4.395 -2.9802  0.6028  1.2082
 6968SOL    HW232541   1.810   0.476   4.527  1.5831 -0.3600 -0.7080
 6969SOL     OW32542   3.838   0.465   0.129 -0.1664 -0.4866 -0.2018
 6969SOL    HW132543   3.758   0.483   0.079 -0.2446  0.0094  0.1034
 6969SOL    HW232544   3.854   0.548   0.173 -1.9732 -0.8065  1.0815
 6970SOL     OW32545   4.630   1.497  14.421 -0.7665  0.1218 -0.9682
 6970SOL    HW132546   4.623   1.481  14.515  2.3790 -2.7847 -1.2167
 6970SOL    HW232547   4.694   1.567  14.430 -0.2629 -0.3850 -0.6215
 6971SOL     OW32548   4.187   0.676   1.949  0.4038  0.6232  1.1308
 6971SOL    HW132549   4.216   0.698   2.037  0.2354  0.6036  1.1899
 6971SOL    HW232550   4.266   0.698   1.898  1.1293 -0.8482  1.6035
 6972SOL     OW32551   4.428   0.992   4.649  0.1260  0.5012  0.4879
 6972SOL    HW132552   4.436   1.059   4.581  1.9185  1.9443  2.1166
 6972SOL    HW232553   4.465   1.034   4.727 -0.6627 -0.6893  1.4957
 6973SOL     OW32554   4.556   1.476   8.862 -0.4620  0.0314  0.5200
 6973SOL    HW132555   4.582   1.489   8.771  0.4510 -1.2296  0.6005
 6973SOL    HW232556   4.562   1.381   8.872  0.5800  0.0366 -0.0797
 6974SOL     OW32557   4.196   4.273   3.858  0.1520 -0.0926  0.0321
 6974SOL    HW132558   4.159   4.196   3.900  0.2390 -0.4345 -0.5284
 6974SOL    HW232559   4.174   4.352   3.907 -0.1535  0.2871 -0.7262
 6975SOL     OW32560   0.384   3.572   8.612 -0.6697 -0.6826 -0.4582
 6975SOL    HW132561   0.420   3.540   8.530 -2.0602  0.3627 -1.4827
 6975SOL    HW232562   0.427   3.656   8.627  2.9524 -2.8769  1.3451
 6976SOL     OW32563   4.466   3.691   7.524 -0.3547  0.3331  0.2390
 6976SOL    HW132564   4.523   3.666   7.597  2.2493  2.5118 -1.0541
 6976SOL    HW232565   4.407   3.617   7.509  0.2768 -0.1013 -0.1018
 6977SOL     OW32566   3.862   0.452   5.185 -0.4623 -0.0136  0.3404
 6977SOL    HW132567   3.869   0.371   5.134 -0.3693  1.5788 -2.2039
 6977SOL    HW232568   3.952   0.484   5.194 -0.2490 -0.5099 -0.0063
 6978SOL     OW32569   4.005   1.374   7.937  0.2090 -0.5518 -0.2765
 6978SOL    HW132570   4.043   1.363   8.024 -0.1517  2.0313  0.2302
 6978SOL    HW232571   3.914   1.385   7.965  0.4472 -0.3294  0.4203
 6979SOL     OW32572   2.436   1.713   6.670  0.1699  0.2546  0.2452
 6979SOL    HW132573   2.494   1.707   6.746  2.6639  0.4828 -1.6616
 6979SOL    HW232574   2.449   1.799   6.631 -0.3642  0.0154 -0.4605
 6980SOL     OW32575   1.187   0.859   8.934 -0.0623  0.0541  0.2231
 6980SOL    HW132576   1.280   0.870   8.917  0.0745 -0.2501  0.7779
 6980SOL    HW232577   1.163   0.823   8.849  0.1930  1.3320 -0.3870
 6981SOL     OW32578   0.686   0.904   8.949  0.3469 -0.6596 -0.4966
 6981SOL    HW132579   0.655   0.818   8.918  1.4902 -1.5734  0.9128
 6981SOL    HW232580   0.612   0.930   9.004  0.7377 -1.7264  0.5229
 6982SOL     OW32581   3.703   2.970  17.137  0.1639 -0.3307 -0.1065
 6982SOL    HW132582   3.665   2.895  17.092  1.8895 -1.5529  0.4350
 6982SOL    HW232583   3.636   3.038  17.140 -0.9540 -1.4784  1.1069
 6983SOL     OW32584   1.450   3.909   3.965 -0.5598 -0.3828 -0.4817
 6983SOL    HW132585   1.396   3.927   4.042  1.2525 -3.1752  1.4523
 6983SOL    HW232586   1.495   3.992   3.953  0.3036 -0.4563  2.1533
 6984SOL     OW32587   1.124   2.820   8.945  0.1696 -0.0095  0.5546
 6984SOL    HW132588   1.127   2.864   9.030  1.5633  0.0154  0.4949
 6984SOL    HW232589   1.124   2.894   8.884  1.4747  0.7416  1.4787
 6985SOL     OW32590   2.980   4.675   2.822 -0.6840 -0.1842 -0.0343
 6985SOL    HW132591   2.966   4.724   2.903  0.3165 -2.9289  1.8186
 6985SOL    HW232592   3.056   4.620   2.841  0.0412  1.0381  0.5997
 6986SOL     OW32593   4.305   0.331   0.239  0.7675  0.0946 -0.0309
 6986SOL    HW132594   4.310   0.356   0.331  0.1402 -1.2471  0.3683
 6986SOL    HW232595   4.218   0.294   0.228  0.7044 -0.5429  2.8379
 6987SOL     OW32596   1.453   2.049  16.125  0.0590 -0.3867  0.4236
 6987SOL    HW132597   1.543   2.038  16.094  0.5218 -0.5962  1.8843
 6987SOL    HW232598   1.451   2.142  16.146 -4.1518 -0.3937  0.2163
 6988SOL     OW32599   0.804   1.438   6.563 -0.2931 -0.1341  0.0406
 6988SOL    HW132600   0.859   1.362   6.583  1.6230  1.1989 -0.1404
 6988SOL    HW232601   0.762   1.407   6.482 -1.4938 -1.8205  1.3208
 6989SOL     OW32602   0.693   1.230   7.052 -0.5616 -0.1309  0.0790
 6989SOL    HW132603   0.757   1.209   7.120  0.7449  2.6973 -0.2723
 6989SOL    HW232604   0.642   1.149   7.052 -2.3417  1.0034 -1.1100
 6990SOL     OW32605   3.658   2.081   9.083  0.4908 -0.2970  0.0856
 6990SOL    HW132606   3.682   2.155   9.027  0.3053  0.8094  1.4892
 6990SOL    HW232607   3.683   2.002   9.035  0.6158 -0.7822  0.9544
 6991SOL     OW32608   0.717   0.874   8.080 -0.5045 -0.0652 -0.0494
 6991SOL    HW132609   0.753   0.848   8.165 -2.4600  2.5191  1.6031
 6991SOL    HW232610   0.782   0.837   8.021 -0.1163  0.0426  0.3102
 6992SOL     OW32611   2.263   3.421  16.615  0.5267  0.2188 -0.1047
 6992SOL    HW132612   2.261   3.338  16.662 -0.9804  0.4303  0.1984
 6992SOL    HW232613   2.174   3.457  16.619  0.8098  0.9342 -0.2314
 6993SOL     OW32614   3.471   2.010   5.551 -0.5707  0.0408 -0.0272
 6993SOL    HW132615   3.437   2.002   5.462 -1.9084 -1.0037  0.5635
 6993SOL    HW232616   3.542   1.946   5.564 -0.4136  0.0240 -1.0144
 6994SOL     OW32617   4.199   1.982   5.650 -0.6343  0.1294 -0.0823
 6994SOL    HW132618   4.151   1.922   5.594 -0.3197 -1.2932  1.1804
 6994SOL    HW232619   4.164   2.062   5.612 -0.9957  0.4010  0.8119
 6995SOL     OW32620   4.232   2.668   5.256 -0.1095 -0.7374  0.0775
 6995SOL    HW132621   4.171   2.641   5.325  0.3820  0.7704  1.1198
 6995SOL    HW232622   4.177   2.646   5.181 -0.8239  0.1619  0.3357
 6996SOL     OW32623   2.285   0.431   1.862  0.3461  0.2116 -0.2898
 6996SOL    HW132624   2.331   0.513   1.844 -2.7179  1.6861 -1.3759
 6996SOL    HW232625   2.274   0.446   1.956 -3.9357  3.2488 -1.2705
 6997SOL     OW32626   1.732   0.111  17.488 -0.0665  0.0923  0.2650
 6997SOL    HW132627   1.786   0.075  17.417 -0.7680 -1.5977  0.5793
 6997SOL    HW232628   1.797   0.111  17.559 -0.2449  3.0264  0.3998
 6998SOL     OW32629   4.708   1.497   6.858 -0.0643  0.1096  0.5633
 6998SOL    HW132630   4.726   1.520   6.767 -2.0896 -0.4970  0.0072
 6998SOL    HW232631   4.644   1.565   6.879  2.3493  2.4037  0.4699
 6999SOL     OW32632   1.592   4.060  13.594  0.8239  0.1819 -0.1456
 6999SOL    HW132633   1.504   4.056  13.557 -0.4709 -0.7590  3.0907
 6999SOL    HW232634   1.629   4.108  13.519  0.6640 -1.7683 -1.4602
 7000SOL     OW32635   0.802   4.664   7.432 -0.2741 -0.2269 -0.0673
 7000SOL    HW132636   0.787   4.628   7.520 -4.7528  1.5190 -0.1267
 7000SOL    HW232637   0.811   0.023   7.455  0.6004 -0.9805  2.6730
 7001SOL     OW32638   2.122   2.929  12.085  0.2374 -0.4821  0.3367
 7001SOL    HW132639   2.061   2.862  12.114 -1.4831 -0.6229 -3.5104
 7001SOL    HW232640   2.194   2.895  12.137  0.8996 -0.6533 -0.6785
 7002SOL     OW32641   3.243   2.861   4.460 -0.2154 -0.0764 -0.2181
 7002SOL    HW132642   3.238   2.832   4.369 -2.1087 -0.6090  0.0550
 7002SOL    HW232643   3.171   2.924   4.463 -0.4430 -0.3726  0.6051
 7003SOL     OW32644   4.209   0.586   3.296  0.1946 -0.4177 -0.4656
 7003SOL    HW132645   4.219   0.518   3.363 -1.0526  0.3781  0.5174
 7003SOL    HW232646   4.229   0.534   3.218  1.9978  0.4889 -0.6123
 7004SOL     OW32647   4.470   2.324   9.421  0.1993 -0.3076 -0.3428
 7004SOL    HW132648   4.545   2.322   9.481 -0.1400 -1.4697  0.0470
 7004SOL    HW232649   4.424   2.405   9.443  0.1755 -1.0035  2.1878
 7005SOL     OW32650   0.851   0.615   6.448 -0.2594  0.3788  0.4374
 7005SOL    HW132651   0.835   0.522   6.462 -3.7523  0.8579 -0.1771
 7005SOL    HW232652   0.760   0.645   6.449 -0.1448  0.6752  2.4860
 7006SOL     OW32653   2.716   1.507   3.083  0.4126  0.1254  0.4558
 7006SOL    HW132654   2.631   1.550   3.074  0.5288  0.6449  1.9028
 7006SOL    HW232655   2.714   1.507   3.178  0.2623  1.7339  0.4563
 7007SOL     OW32656   1.109   2.939   8.332 -0.2982  0.2474  0.0708
 7007SOL    HW132657   1.131   3.031   8.342 -1.0061  0.6275 -2.0535
 7007SOL    HW232658   1.151   2.917   8.249  1.3568  1.4169  0.6134
 7008SOL     OW32659   2.663   0.167  16.451 -0.4086 -0.0931  0.3006
 7008SOL    HW132660   2.656   0.196  16.542  1.7767  0.4511  0.2992
 7008SOL    HW232661   2.611   0.087  16.443 -0.2100  0.1134 -3.0286
 7009SOL     OW32662   4.249   2.317   3.470  0.0397  0.5791 -0.0849
 7009SOL    HW132663   4.194   2.247   3.505  3.3135 -2.2408 -0.6640
 7009SOL    HW232664   4.322   2.277   3.424  1.3238  0.8286  1.7274
 7010SOL     OW32665   0.078   1.042   2.108  0.2673  0.6334 -0.1668
 7010SOL    HW132666   0.106   1.089   2.029  0.2051  1.7953  0.5050
 7010SOL    HW232667   0.070   0.952   2.078  1.3125  0.4320  0.1412
 7011SOL     OW32668   1.114   1.529   7.613 -0.1806 -0.0089  0.0473
 7011SOL    HW132669   1.076   1.537   7.701  1.5137 -0.7182  0.8293
 7011SOL    HW232670   1.179   1.460   7.622  0.5079  0.5187 -0.8984
 7012SOL     OW32671   2.094   0.780  12.701  0.1785  0.4831 -0.2888
 7012SOL    HW132672   2.058   0.855  12.655  1.0798  1.5808  0.7753
 7012SOL    HW232673   2.131   0.823  12.779  1.5978 -1.9230  0.3608
 7013SOL     OW32674   0.096   2.627   3.638 -0.1218 -0.6149  0.2204
 7013SOL    HW132675   0.068   2.682   3.565 -0.3803  0.8777  1.4335
 7013SOL    HW232676   0.081   2.686   3.712  0.7260 -0.6229  0.4105
 7014SOL     OW32677   3.921   4.546   9.061  0.1000  0.1447 -0.1199
 7014SOL    HW132678   3.949   4.636   9.042 -1.2765  1.4801  4.1190
 7014SOL    HW232679   3.996   4.498   9.025  0.8636  0.7363  0.6633
 7015SOL     OW32680   0.186   1.266  10.473  0.6457 -0.4760 -0.2507
 7015SOL    HW132681   0.210   1.357  10.457 -0.4140 -0.7103 -3.1676
 7015SOL    HW232682   0.200   1.223  10.388  0.1904  0.1964 -0.6713
 7016SOL     OW32683   3.738   4.389   5.010  0.3514 -0.2095  0.2221
 7016SOL    HW132684   3.745   4.483   5.024 -1.9815 -0.0873  0.6525
 7016SOL    HW232685   3.707   4.390   4.920 -0.3730 -0.0735  0.4719
 7017SOL     OW32686   0.965   3.294   9.282 -0.4615 -0.3583  0.4194
 7017SOL    HW132687   0.961   3.323   9.374  0.5990 -1.0174  0.6792
 7017SOL    HW232688   1.058   3.282   9.260 -0.0427 -0.2975  2.1560
 7018SOL     OW32689   4.223   3.143  12.997  0.8978  0.2467 -0.5950
 7018SOL    HW132690   4.301   3.089  12.981  2.3932  1.9545  0.9759
 7018SOL    HW232691   4.152   3.107  12.943  0.2280 -0.6457  0.8669
 7019SOL     OW32692   1.785   2.062   8.061 -0.1451 -0.0070 -0.0438
 7019SOL    HW132693   1.770   1.971   8.036  1.4775  0.5760 -3.2350
 7019SOL    HW232694   1.751   2.046   8.149 -1.4703  2.0214 -0.1870
 7020SOL     OW32695   0.692   0.272   6.331 -0.4752 -0.4988  0.1390
 7020SOL    HW132696   0.642   0.194   6.307 -1.5756 -0.1797  1.4149
 7020SOL    HW232697   0.779   0.233   6.322 -1.4499 -3.0689  2.0020
 7021SOL     OW32698   1.486   0.945   4.285 -0.0484 -0.3144 -0.0833
 7021SOL    HW132699   1.531   0.861   4.277  0.0102 -0.2772 -0.1540
 7021SOL    HW232700   1.397   0.923   4.311 -0.1211  0.3400  0.2275
 7022SOL     OW32701   1.193   4.006  16.030  0.0588 -0.0466 -0.2479
 7022SOL    HW132702   1.273   4.028  16.077 -0.2274  1.8163 -0.6147
 7022SOL    HW232703   1.168   4.096  16.008 -0.7769 -0.8104 -2.3950
 7023SOL     OW32704   0.430   1.024   5.102  0.1047  0.0325 -0.6275
 7023SOL    HW132705   0.446   0.930   5.092  2.3863  0.3683 -0.2311
 7023SOL    HW232706   0.355   1.031   5.043  0.4404  1.3342 -0.8857
 7024SOL     OW32707   1.196   1.444   8.058 -0.0739 -0.0851  0.3002
 7024SOL    HW132708   1.274   1.453   8.113  1.8213 -0.0275 -2.4274
 7024SOL    HW232709   1.230   1.497   7.986  0.6053  0.9613  1.3863
 7025SOL     OW32710   2.091   1.381   4.664  0.6234 -0.1738  0.1591
 7025SOL    HW132711   2.169   1.436   4.656 -0.2638  1.1522  0.6718
 7025SOL    HW232712   2.121   1.301   4.620 -0.4291 -1.8670  2.5300
 7026SOL     OW32713   3.036   4.116  16.693 -0.5682  0.3911  0.1946
 7026SOL    HW132714   3.112   4.154  16.649 -1.2928  1.5431 -0.0641
 7026SOL    HW232715   2.967   4.147  16.634 -0.0725 -3.8307 -2.6805
 7027SOL     OW32716   0.672   3.182   7.456 -0.0608  0.2101 -0.6581
 7027SOL    HW132717   0.681   3.263   7.406  0.1464  0.1301 -0.7522
 7027SOL    HW232718   0.630   3.203   7.539 -0.3842  1.7919 -1.2208
 7028SOL     OW32719   1.259   1.645  15.346  0.1273 -0.4807 -0.1919
 7028SOL    HW132720   1.235   1.571  15.402 -0.9505  0.1282  0.1510
 7028SOL    HW232721   1.179   1.650  15.295  0.5297 -0.7589 -0.8530
 7029SOL     OW32722   3.509   2.788  10.732  0.5875 -0.4812  0.5592
 7029SOL    HW132723   3.563   2.863  10.757 -2.2883  2.1927 -1.2796
 7029SOL    HW232724   3.567   2.716  10.759 -0.9679 -1.7442  0.5403
 7030SOL     OW32725   0.523   1.786  12.092  0.1689 -0.0083 -0.2875
 7030SOL    HW132726   0.494   1.735  12.016 -1.8609 -1.0689  1.2107
 7030SOL    HW232727   0.527   1.719  12.161  1.5006  0.1489 -0.2139
 7031SOL     OW32728   1.418   0.837   6.791 -0.0538  0.0847 -0.3336
 7031SOL    HW132729   1.405   0.926   6.758 -0.7814  0.5798  1.2674
 7031SOL    HW232730   1.451   0.863   6.877 -0.1811  0.8578 -0.5162
 7032SOL     OW32731   1.207   0.333  13.035  0.8109 -0.3289 -0.4016
 7032SOL    HW132732   1.254   0.357  12.955  1.7048 -1.4887 -0.2235
 7032SOL    HW232733   1.180   0.420  13.065  1.7027 -0.4374  0.7144
 7033SOL     OW32734   3.007   0.585   8.185  0.0358 -0.2079 -0.2051
 7033SOL    HW132735   2.942   0.524   8.150 -0.8670  0.4266  0.3642
 7033SOL    HW232736   2.948   0.660   8.193 -0.5083 -0.6788  0.2540
 7034SOL     OW32737   0.236   4.547  15.594  0.3476 -0.2329  0.1650
 7034SOL    HW132738   0.188   4.466  15.613  0.1071  0.2138  1.4565
 7034SOL    HW232739   0.162   4.604  15.574  1.3684  1.0062 -0.0906
 7035SOL     OW32740   2.618   0.540  11.890  0.1613 -0.4227  0.1798
 7035SOL    HW132741   2.642   0.618  11.841 -2.3486  1.2496  1.6333
 7035SOL    HW232742   2.705   0.516  11.921  0.1282  2.3576  2.3935
 7036SOL     OW32743   0.066   3.646   3.413  0.0715  0.6073  0.1379
 7036SOL    HW132744   0.080   3.641   3.507 -0.5059 -0.4279  0.1760
 7036SOL    HW232745   4.718   3.599   3.393  0.4416 -0.6583  1.5448
 7037SOL     OW32746   1.087   4.692   7.637  0.5202 -0.3473  0.3927
 7037SOL    HW132747   1.149   4.620   7.644 -1.2818 -1.9010  0.5229
 7037SOL    HW232748   1.122   0.018   7.572 -1.6865  1.5110  0.8838
 7038SOL     OW32749   0.470   2.773   2.207 -0.2913 -0.0970  0.1473
 7038SOL    HW132750   0.476   2.715   2.283  1.3479 -2.5095 -1.7991
 7038SOL    HW232751   0.564   2.792   2.207 -0.5774  1.3130  0.9478
 7039SOL     OW32752   0.294   2.805  15.556 -0.1448  0.2269  0.5884
 7039SOL    HW132753   0.263   2.792  15.646 -0.8553  1.8403  0.5846
 7039SOL    HW232754   0.218   2.783  15.503  0.2559 -0.6958  0.4053
 7040SOL     OW32755   2.361   3.219   5.456  0.2621  0.4432 -0.5683
 7040SOL    HW132756   2.342   3.292   5.515 -0.8422 -0.6356  0.4004
 7040SOL    HW232757   2.407   3.160   5.516 -0.5505  0.5923  0.1903
 7041SOL     OW32758   2.757   3.971   6.579 -0.4307 -0.9042 -0.3377
 7041SOL    HW132759   2.803   3.984   6.662  1.7005  0.3152 -1.6872
 7041SOL    HW232760   2.678   3.919   6.594 -1.8749  1.4678  0.2071
 7042SOL     OW32761   0.674   2.195   5.228 -0.4425 -0.0760  0.3069
 7042SOL    HW132762   0.748   2.204   5.286  0.1880 -2.1002 -0.1856
 7042SOL    HW232763   0.699   2.262   5.164 -0.8630 -0.4199 -0.2196
 7043SOL     OW32764   4.617   3.788   0.768 -0.2129  0.5629 -0.0921
 7043SOL    HW132765   4.615   3.786   0.672 -0.5489  0.1863 -0.0758
 7043SOL    HW232766   4.550   3.857   0.778 -0.3875  0.3876 -0.0416
 7044SOL     OW32767   1.176   0.017   3.476  0.0229 -0.0514  0.1705
 7044SOL    HW132768   1.114   4.685   3.445 -1.4503  1.2214  0.3961
 7044SOL    HW232769   1.247   0.022   3.412 -0.2329  0.9006 -0.0424
 7045SOL     OW32770   0.758   0.544   7.624 -0.2031 -0.1694 -0.0226
 7045SOL    HW132771   0.824   0.612   7.638  0.7678 -0.6838 -2.1705
 7045SOL    HW232772   0.812   0.475   7.586  0.8624  0.7530 -0.1814
 7046SOL     OW32773   0.645   1.389   8.379  0.2778 -0.0968  0.1129
 7046SOL    HW132774   0.698   1.333   8.436 -1.0934 -0.1306  1.3285
 7046SOL    HW232775   0.573   1.333   8.352 -0.2892 -0.0466  1.5318
 7047SOL     OW32776   3.013   3.196   9.677  0.3725  0.2881 -0.4499
 7047SOL    HW132777   2.994   3.166   9.766 -0.1054  1.0577 -0.2913
 7047SOL    HW232778   2.977   3.128   9.620  3.1636 -2.7440  1.4016
 7048SOL     OW32779   2.107   0.047   4.090  0.3253  0.1940  0.0129
 7048SOL    HW132780   2.020   0.044   4.051  0.1258 -1.7674  0.6612
 7048SOL    HW232781   2.106   0.130   4.138 -2.4404 -0.4538  1.0599
 7049SOL     OW32782   3.229   0.867  16.657  0.4330 -0.0391 -0.2682
 7049SOL    HW132783   3.138   0.875  16.626  0.1862  0.1912  0.5310
 7049SOL    HW232784   3.231   0.934  16.725 -0.8198  0.5597 -0.8233
 7050SOL     OW32785   3.211   1.644   2.682 -0.2376  0.6026  0.4417
 7050SOL    HW132786   3.184   1.736   2.687  2.0164  1.1072  3.6537
 7050SOL    HW232787   3.242   1.628   2.771  1.8713  0.2872 -0.3645
 7051SOL     OW32788   3.140   0.620  15.656 -0.2510 -0.2310  0.1804
 7051SOL    HW132789   3.149   0.526  15.666  1.9436  0.0573  0.8712
 7051SOL    HW232790   3.051   0.617  15.619  1.4155  0.7461 -3.9664
 7052SOL     OW32791   3.382   0.217   9.076  0.3254 -0.0136 -0.5376
 7052SOL    HW132792   3.470   0.227   9.112  0.0193 -0.1248  0.2344
 7052SOL    HW232793   3.395   0.133   9.031 -0.3349 -0.0046 -0.7540
 7053SOL     OW32794   3.759   4.121   9.719 -0.3356 -0.3454 -0.4992
 7053SOL    HW132795   3.739   4.050   9.657 -0.4692 -1.7524  1.1650
 7053SOL    HW232796   3.855   4.118   9.721 -0.4151 -3.0624 -0.4803
 7054SOL     OW32797   4.462   2.025   3.017 -0.0125 -0.0867  0.4882
 7054SOL    HW132798   4.404   2.097   2.989  0.4678  0.0022 -0.2748
 7054SOL    HW232799   4.454   1.958   2.949  3.6587  0.0989 -0.1215
 7055SOL     OW32800   0.166   1.404  10.032  0.3206  0.2041  0.0718
 7055SOL    HW132801   0.220   1.328  10.056  0.5224  0.4218  0.3021
 7055SOL    HW232802   0.094   1.382  10.091  0.6118 -1.2845 -0.1141
 7056SOL     OW32803   2.271   0.541   6.886 -0.3299 -0.0830  0.2199
 7056SOL    HW132804   2.277   0.497   6.971  1.0154  2.1822  1.2886
 7056SOL    HW232805   2.282   0.461   6.835  0.0663  1.1190 -1.5697
 7057SOL     OW32806   2.104   3.136   2.580  0.4753 -0.4222 -0.2012
 7057SOL    HW132807   2.115   3.220   2.537 -0.8450  0.1298  0.5309
 7057SOL    HW232808   2.012   3.147   2.605  0.0466 -0.5544 -1.7254
 7058SOL     OW32809   3.297   2.243   7.086 -0.1121  0.0169 -0.2473
 7058SOL    HW132810   3.333   2.219   7.000 -1.8737 -0.2098 -0.9273
 7058SOL    HW232811   3.236   2.176   7.117  1.8925 -1.4884  0.4055
 7059SOL     OW32812   4.686   0.583   1.881 -0.2172  0.0825 -0.0060
 7059SOL    HW132813   4.655   0.493   1.892  0.8779 -0.0209  2.2008
 7059SOL    HW232814   0.004   0.581   1.800  0.8713 -3.3424  0.7656
 7060SOL     OW32815   0.118   0.826  14.515 -0.2245 -0.2482  0.0260
 7060SOL    HW132816   0.168   0.895  14.558  0.9059 -0.9910 -0.1031
 7060SOL    HW232817   0.040   0.879  14.502 -1.1696 -1.5118  0.5331
 7061SOL     OW32818   0.314   0.192   8.534  0.5808  0.3302 -0.1919
 7061SOL    HW132819   0.271   0.204   8.450 -0.7430  1.6260  0.6677
 7061SOL    HW232820   0.294   0.100   8.547 -0.3695  0.7271  1.1562
 7062SOL     OW32821   3.174   2.857  10.778 -0.2797  1.1324  0.7755
 7062SOL    HW132822   3.256   2.847  10.825  0.1007 -1.5423 -0.4450
 7062SOL    HW232823   3.137   2.774  10.809  2.5111  0.0973  1.2517
 7063SOL     OW32824   1.310   2.374  15.005  0.5027  0.6983 -0.2676
 7063SOL    HW132825   1.279   2.363  15.095  1.0284 -1.1329 -0.3135
 7063SOL    HW232826   1.320   2.469  15.004 -2.2628  0.9908 -0.0446
 7064SOL     OW32827   2.762   2.611  16.195 -0.1734 -0.4538  0.0451
 7064SOL    HW132828   2.700   2.550  16.154  0.4103  0.7479 -2.6009
 7064SOL    HW232829   2.736   2.694  16.156 -0.7889  0.1100  1.6346
 7065SOL     OW32830   2.745   3.503  10.333  0.1299  0.2999 -0.1212
 7065SOL    HW132831   2.658   3.489  10.371  1.3748 -2.6611  1.6018
 7065SOL    HW232832   2.796   3.451  10.396 -2.5060  0.6315  2.2865
 7066SOL     OW32833   1.421   3.987  10.122 -0.4923 -0.3835  0.2701
 7066SOL    HW132834   1.366   3.917  10.158 -0.6293  0.2247  1.2377
 7066SOL    HW232835   1.504   3.947  10.099 -0.8952 -0.9414 -0.2321
 7067SOL     OW32836   1.748   0.848  12.703  0.0677  0.2874  0.1798
 7067SOL    HW132837   1.798   0.773  12.735  0.1392  0.0110 -0.5697
 7067SOL    HW232838   1.693   0.805  12.637 -0.9056  0.5652  0.8132
 7068SOL     OW32839   2.778   1.111   0.529 -0.0283 -0.3445 -0.1918
 7068SOL    HW132840   2.718   1.146   0.595  1.4228  0.4169  0.7198
 7068SOL    HW232841   2.729   1.037   0.494  0.5627 -0.4424 -0.8027
 7069SOL     OW32842   0.079   1.430  16.606 -0.0366  0.3672  0.0911
 7069SOL    HW132843   0.082   1.526  16.609 -1.8937  0.3922  1.3742
 7069SOL    HW232844   0.107   1.418  16.516 -1.4101 -0.0869 -0.2772
 7070SOL     OW32845   1.361   4.532  12.861 -0.2884  0.2032  0.0534
 7070SOL    HW132846   1.380   4.473  12.788 -0.0459  0.0660  0.2264
 7070SOL    HW232847   1.380   4.618  12.825 -1.4656  1.2175  1.8388
 7071SOL     OW32848   2.798   0.480   8.832 -0.1484 -0.9486  0.1773
 7071SOL    HW132849   2.799   0.562   8.882 -3.0235 -1.0670  0.4550
 7071SOL    HW232850   2.737   0.436   8.892 -0.1489 -0.7659  0.3098
 7072SOL     OW32851   4.204   2.304  15.286 -0.5463 -0.4421  0.0556
 7072SOL    HW132852   4.240   2.240  15.348  0.8207  0.6419  0.4040
 7072SOL    HW232853   4.227   2.263  15.203 -0.8643  0.2268 -0.3557
 7073SOL     OW32854   1.584   0.339   9.610  0.1361 -0.3156  0.7434
 7073SOL    HW132855   1.650   0.371   9.671 -1.8355  0.2291  2.5791
 7073SOL    HW232856   1.647   0.290   9.558  0.3546  0.3778  0.3573
 7074SOL     OW32857   2.616   2.541   6.632  0.1731 -0.2090 -0.3765
 7074SOL    HW132858   2.611   2.478   6.561  1.0871 -2.8253  1.8782
 7074SOL    HW232859   2.595   2.625   6.592  0.7821 -0.0108 -0.2710
 7075SOL     OW32860   2.471   2.398   7.751 -0.3156 -0.1419 -0.0597
 7075SOL    HW132861   2.505   2.310   7.770  0.0834  0.2384  0.9460
 7075SOL    HW232862   2.381   2.393   7.782 -0.2363 -0.1994  0.1631
 7076SOL     OW32863   0.646   1.674  16.524  0.5520  0.0692  0.1463
 7076SOL    HW132864   0.712   1.621  16.479 -1.4408 -0.2959 -2.3562
 7076SOL    HW232865   0.644   1.757  16.476 -0.4332  0.6760  1.2249
 7077SOL     OW32866   1.652   1.676   7.288 -0.2920 -0.2844  0.5478
 7077SOL    HW132867   1.662   1.650   7.380 -0.0251 -1.2052  0.2613
 7077SOL    HW232868   1.557   1.687   7.283  0.0438  0.7140 -3.6163
 7078SOL     OW32869   1.560   3.966  15.201  0.2806 -0.5875  0.0422
 7078SOL    HW132870   1.485   3.987  15.256 -0.7011  0.3346 -1.6442
 7078SOL    HW232871   1.607   3.912  15.265 -2.1227 -2.2730  0.3702
 7079SOL     OW32872   1.718   1.785   2.769 -0.3906 -0.4784  0.4216
 7079SOL    HW132873   1.729   1.787   2.864  0.1759  0.6526  0.3335
 7079SOL    HW232874   1.721   1.694   2.738  0.1709 -0.1152 -0.5949
 7080SOL     OW32875   3.668   4.030   6.816  0.3075  0.0708  0.0309
 7080SOL    HW132876   3.720   3.967   6.765 -0.7219 -1.0074  0.3403
 7080SOL    HW232877   3.653   3.981   6.897 -1.3714 -1.2960 -1.1113
 7081SOL     OW32878   2.872   0.630   3.412 -0.2413  0.4230  0.3608
 7081SOL    HW132879   2.902   0.578   3.487 -2.2507  1.8522  2.1559
 7081SOL    HW232880   2.864   0.712   3.461  0.9080 -0.2438  1.6760
 7082SOL     OW32881   1.209   0.238   5.065 -0.2430 -1.0449  0.4591
 7082SOL    HW132882   1.254   0.217   4.983 -0.0067 -1.2174  0.6321
 7082SOL    HW232883   1.244   0.325   5.085 -1.5697 -0.8322  1.9005
 7083SOL     OW32884   0.923   2.156  12.081 -0.9099  0.4744 -0.0181
 7083SOL    HW132885   0.967   2.073  12.099 -1.3225 -0.0271 -1.3104
 7083SOL    HW232886   0.834   2.140  12.112 -0.1262 -1.2424  1.3152
 7084SOL     OW32887   1.611   3.999   2.549 -0.3711  0.2796 -0.6853
 7084SOL    HW132888   1.616   4.050   2.630 -0.6584  0.7415 -0.9601
 7084SOL    HW232889   1.551   4.059   2.506  0.9141  1.2056 -1.1564
 7085SOL     OW32890   2.466   2.760   2.021 -0.4847  0.3405  0.2925
 7085SOL    HW132891   2.479   2.851   1.993  0.1490  0.1307 -0.0837
 7085SOL    HW232892   2.483   2.763   2.116 -0.0169  0.0977  0.2145
 7086SOL     OW32893   3.184   2.571   7.747 -0.0508  0.0653 -0.2009
 7086SOL    HW132894   3.103   2.524   7.728 -0.0409  0.3702 -0.9861
 7086SOL    HW232895   3.239   2.500   7.779 -0.3674  0.9541  2.3585
 7087SOL     OW32896   3.782   0.769   8.883 -0.1259  0.8473 -0.5960
 7087SOL    HW132897   3.729   0.774   8.802 -0.3549  1.2335 -0.4244
 7087SOL    HW232898   3.753   0.837   8.943 -0.0098 -1.0996  1.6288
 7088SOL     OW32899   2.219   0.354   5.379  0.2889  0.2457  0.1324
 7088SOL    HW132900   2.140   0.325   5.424  0.1620 -0.8935 -0.8309
 7088SOL    HW232901   2.285   0.285   5.385 -0.3171 -0.5924 -3.2486
 7089SOL     OW32902   3.496   3.337  10.720 -0.0831 -0.0733 -0.4555
 7089SOL    HW132903   3.410   3.344  10.679  0.1717  0.6823 -0.8597
 7089SOL    HW232904   3.546   3.416  10.699  0.1541  0.3097  1.5901
 7090SOL     OW32905   4.079   1.229  16.575  0.3619  0.3512  0.2605
 7090SOL    HW132906   4.101   1.299  16.514 -1.6795  0.8588  0.0932
 7090SOL    HW232907   4.109   1.151  16.528  0.2196  0.2975  0.2590
 7091SOL     OW32908   3.221   1.199  12.027  0.8260  0.6312  0.0892
 7091SOL    HW132909   3.131   1.227  12.008 -0.5253 -1.8155  2.8329
 7091SOL    HW232910   3.218   1.105  12.043 -2.2856  0.5396 -0.9451
 7092SOL     OW32911   0.005   2.969   8.152 -0.3458 -0.4816  0.2787
 7092SOL    HW132912   0.007   2.993   8.059 -1.1203  0.1404  0.4252
 7092SOL    HW232913   4.645   2.971   8.171  0.2016  0.8689  2.7687
 7093SOL     OW32914   1.988   0.097   6.317  0.0478  0.0934  0.2935
 7093SOL    HW132915   2.041   0.132   6.245 -2.0368 -0.4228 -1.4787
 7093SOL    HW232916   1.917   0.063   6.264  0.0031 -2.0271  1.7159
 7094SOL     OW32917   4.732   0.216   9.950  0.1303 -0.1713  0.0989
 7094SOL    HW132918   0.005   0.241   9.858  2.1454 -0.6789  0.1018
 7094SOL    HW232919   0.072   0.272   9.976  0.1547 -0.3915  0.5038
 7095SOL     OW32920   1.225   1.321  16.469 -0.0757 -0.1300 -0.4079
 7095SOL    HW132921   1.169   1.339  16.545  0.4090 -2.6384  0.5101
 7095SOL    HW232922   1.188   1.383  16.406 -1.0323 -0.1471  0.1325
 7096SOL     OW32923   0.892   2.337   7.074  0.6790 -0.2842 -0.2896
 7096SOL    HW132924   0.964   2.336   7.137 -1.0441  0.5044  1.7005
 7096SOL    HW232925   0.943   2.366   6.999 -1.2855  0.5413 -1.2997
 7097SOL     OW32926   1.671   2.670   6.153  0.2587 -0.2863 -0.0776
 7097SOL    HW132927   1.641   2.683   6.243 -0.1719  0.0037 -0.2639
 7097SOL    HW232928   1.728   2.593   6.158  0.8699  0.2122  0.5498
 7098SOL     OW32929   1.349   1.627   5.309 -0.2991 -0.3228 -0.1289
 7098SOL    HW132930   1.279   1.562   5.300 -1.4771  0.7266  1.4523
 7098SOL    HW232931   1.429   1.576   5.297  0.6711  0.9354  0.9711
 7099SOL     OW32932   0.628   1.513   4.258  0.5780  0.0856  0.2579
 7099SOL    HW132933   0.657   1.602   4.275 -0.5640  0.8807 -1.9167
 7099SOL    HW232934   0.699   1.450   4.267  0.0541 -0.1674  2.4341
 7100SOL     OW32935   4.098   3.536   8.945  0.2822 -0.4887 -0.1079
 7100SOL    HW132936   4.009   3.554   8.914 -0.3329  0.8918  2.4254
 7100SOL    HW232937   4.110   3.596   9.018 -0.3618  0.5726 -0.8770
 7101SOL     OW32938   0.109   1.607   5.752  0.1797 -0.1125  0.0579
 7101SOL    HW132939   0.030   1.661   5.761  0.1616 -0.4976  2.0707
 7101SOL    HW232940   0.124   1.620   5.658  1.1015  0.5544  0.2977
 7102SOL     OW32941   3.784   1.595  12.029  0.3103 -0.2436 -0.6121
 7102SOL    HW132942   3.722   1.662  12.003  1.0739  1.3477  1.7035
 7102SOL    HW232943   3.728   1.517  12.031  0.6509 -0.4443  1.6042
 7103SOL     OW32944   2.278   2.318  12.370 -0.3766  0.0633  0.7820
 7103SOL    HW132945   2.312   2.230  12.357 -0.2846  0.4006 -1.2721
 7103SOL    HW232946   2.335   2.373  12.317 -0.3444 -1.5784 -0.8645
 7104SOL     OW32947   2.973   3.625  10.842 -0.2453 -0.0197 -0.2128
 7104SOL    HW132948   2.976   3.649  10.935  1.7292  0.5613 -0.4232
 7104SOL    HW232949   3.024   3.694  10.799  1.6889 -1.6441 -0.5234
 7105SOL     OW32950   4.248   0.328   3.475 -0.8557  0.2110 -0.1600
 7105SOL    HW132951   4.224   0.254   3.532  0.6984 -0.5917 -0.5300
 7105SOL    HW232952   4.301   0.274   3.416 -0.8281 -0.0598  0.1067
 7106SOL     OW32953   4.170   1.284  10.114  1.3786  0.3119  0.0554
 7106SOL    HW132954   4.265   1.292  10.105  1.2838  0.1479 -1.1444
 7106SOL    HW232955   4.146   1.335  10.191 -0.4817 -0.2699 -0.1271
 7107SOL     OW32956   1.942   4.545  10.734  0.2124 -0.3088 -0.4072
 7107SOL    HW132957   1.969   4.457  10.705 -1.2579 -0.7154 -0.5416
 7107SOL    HW232958   1.847   4.537  10.727 -0.0510  0.9880  1.7950
 7108SOL     OW32959   3.422   3.427   6.630  0.1137 -0.0642 -0.3536
 7108SOL    HW132960   3.429   3.469   6.715  2.6603  2.1446 -1.6708
 7108SOL    HW232961   3.496   3.468   6.585  0.5731  0.2743  0.7065
 7109SOL     OW32962   1.725   0.837   7.690  0.0138 -0.0010 -0.0223
 7109SOL    HW132963   1.679   0.755   7.669 -1.1741  0.7270 -0.2573
 7109SOL    HW232964   1.793   0.842   7.623 -0.4445  2.9231 -0.2488
 7110SOL     OW32965   1.374   1.714  16.919 -0.0949 -0.1490  0.0737
 7110SOL    HW132966   1.333   1.713  16.833  0.2779  1.2313 -0.1238
 7110SOL    HW232967   1.385   1.807  16.938  0.2171 -0.5133  1.7025
 7111SOL     OW32968   3.954   1.328  15.806 -0.2994 -0.6456 -0.4322
 7111SOL    HW132969   3.911   1.404  15.768 -0.0147 -0.0345  0.4628
 7111SOL    HW232970   3.980   1.290  15.723  1.4989  2.6003 -1.3483
 7112SOL     OW32971   4.060   0.796   1.531  0.4053 -0.5630 -0.3107
 7112SOL    HW132972   3.973   0.758   1.527  0.6144 -0.6415 -3.8063
 7112SOL    HW232973   4.052   0.840   1.616  0.2645  1.1253 -1.1868
 7113SOL     OW32974   2.008   1.325  12.229 -0.7298 -0.7270 -0.0205
 7113SOL    HW132975   1.926   1.355  12.270  1.4142  2.8891  1.6973
 7113SOL    HW232976   2.061   1.329  12.309 -0.4213 -0.0842 -0.2576
 7114SOL     OW32977   0.731   4.260   6.588 -0.2320  0.4634 -0.2003
 7114SOL    HW132978   0.795   4.299   6.648  0.5342  0.1667 -0.8179
 7114SOL    HW232979   0.761   4.283   6.500  0.0436 -0.1579 -0.2672
 7115SOL     OW32980   2.009   1.492   2.907 -0.1183  0.0745 -0.0227
 7115SOL    HW132981   1.992   1.416   2.851  0.6520  0.1507 -0.3632
 7115SOL    HW232982   2.023   1.551   2.833  1.8902  0.5185  0.7119
 7116SOL     OW32983   0.508   0.562  12.688 -0.3028 -0.0141  0.1600
 7116SOL    HW132984   0.479   0.513  12.611 -2.6296  0.9824  0.3810
 7116SOL    HW232985   0.551   0.493  12.737  0.7144 -0.8237 -1.8518
 7117SOL     OW32986   4.229   0.525   7.973  0.4117 -0.0903 -0.4445
 7117SOL    HW132987   4.236   0.618   7.951  0.6993  0.3853  1.5960
 7117SOL    HW232988   4.242   0.487   7.886 -1.8042  1.8644 -1.6119
 7118SOL     OW32989   3.039   4.514  14.669  0.8567 -0.1804  0.9036
 7118SOL    HW132990   2.965   4.575  14.667  0.2089 -0.9973  0.2077
 7118SOL    HW232991   2.997   4.433  14.641  0.1314  0.2295  0.8011
 7119SOL     OW32992   4.177   0.792   2.524 -0.0145 -0.2230  0.3341
 7119SOL    HW132993   4.198   0.762   2.612  1.0042  1.3352  0.6225
 7119SOL    HW232994   4.263   0.817   2.491 -0.3131  0.6805  0.2174
 7120SOL     OW32995   0.876   1.116   8.062 -0.2196  0.2285  0.1221
 7120SOL    HW132996   0.818   1.048   8.093 -0.8187  0.3916 -0.6383
 7120SOL    HW232997   0.827   1.157   7.990  1.4575 -0.1605 -1.2439
 7121SOL     OW32998   2.129   0.783   7.776  0.0221 -0.0594 -0.7688
 7121SOL    HW132999   2.049   0.752   7.818 -0.8179  1.3080 -1.3607
 7121SOL    HW233000   2.185   0.707   7.796 -1.1545 -1.5003 -2.9333
 7122SOL     OW33001   0.752   4.466   3.039 -0.4841  1.0005  0.0962
 7122SOL    HW133002   0.762   4.539   3.100 -0.5557  0.2257  1.0376
 7122SOL    HW233003   0.674   4.422   3.074 -0.3445  1.0158  0.4272
 7123SOL     OW33004   0.446   3.443  10.538 -0.1023  0.3312 -0.3659
 7123SOL    HW133005   0.476   3.533  10.535 -0.0679  0.3034 -0.8378
 7123SOL    HW233006   0.478   3.413  10.453  2.1848  0.5143  0.4307
 7124SOL     OW33007   4.182   3.805  10.943 -0.0804 -0.2801  0.0399
 7124SOL    HW133008   4.175   3.714  10.912 -0.7949 -0.4483  0.6945
 7124SOL    HW233009   4.124   3.798  11.018 -1.9801 -0.8833 -1.4771
 7125SOL     OW33010   4.580   0.739  16.372  0.2229 -0.5093  0.7093
 7125SOL    HW133011   4.580   0.680  16.447  0.5564 -1.1139  0.2281
 7125SOL    HW233012   4.570   0.674  16.304  3.5849 -0.7184  0.4005
 7126SOL     OW33013   0.804   0.413   1.823 -0.3009  0.4193 -0.5021
 7126SOL    HW133014   0.817   0.426   1.729  0.8071  0.8465 -0.2922
 7126SOL    HW233015   0.866   0.477   1.858  0.0646  0.1123 -0.5855
 7127SOL     OW33016   4.694   4.347  14.677  0.4052 -0.5538  0.2331
 7127SOL    HW133017   4.632   4.316  14.743 -0.5886  1.4365  0.2344
 7127SOL    HW233018   4.688   4.273  14.617  0.2742  0.1457 -0.6144
 7128SOL     OW33019   0.376   4.564  16.711 -0.3900  0.1292  0.2665
 7128SOL    HW133020   0.313   4.610  16.767  0.5030  1.2016  0.3828
 7128SOL    HW233021   0.415   4.636  16.663  0.2365 -0.0531  0.5066
 7129SOL     OW33022   2.430   2.822   0.297 -0.5020  0.1285  0.2674
 7129SOL    HW133023   2.460   2.907   0.329  0.1499  0.4161 -1.1182
 7129SOL    HW233024   2.343   2.849   0.267  0.1128  0.9853 -0.7279
 7130SOL     OW33025   3.090   1.014  10.344 -0.5794  0.2921  0.3465
 7130SOL    HW133026   3.174   1.040  10.381 -0.1440 -1.7188  0.7757
 7130SOL    HW233027   3.037   1.075  10.395 -0.3959 -0.6670  1.6986
 7131SOL     OW33028   4.053   3.741   1.820  0.5870  0.3387  0.4150
 7131SOL    HW133029   4.024   3.817   1.769  0.3325 -1.0981 -1.6139
 7131SOL    HW233030   4.062   3.675   1.751 -1.1735  1.8079 -1.2116
 7132SOL     OW33031   4.316   2.613   4.503 -0.2848 -0.3864 -0.7185
 7132SOL    HW133032   4.221   2.622   4.505 -0.1474  1.0612 -0.7319
 7132SOL    HW233033   4.328   2.523   4.532 -0.7900 -0.0345  0.5699
 7133SOL     OW33034   2.990   0.788   9.649 -0.4472  0.1009 -0.0795
 7133SOL    HW133035   3.017   0.818   9.736 -2.6736  1.3251  0.1617
 7133SOL    HW233036   3.019   0.696   9.657 -1.9177 -0.2759  0.7757
 7134SOL     OW33037   2.837   1.447  10.778  0.8886 -0.0549 -0.1634
 7134SOL    HW133038   2.925   1.484  10.777  0.4983  0.8992  0.8301
 7134SOL    HW233039   2.861   1.360  10.809  0.5251  0.4608  1.5752
 7135SOL     OW33040   1.326   2.068   5.847  0.5022 -0.2447 -0.3305
 7135SOL    HW133041   1.253   2.129   5.838 -0.3821 -1.1337  0.7743
 7135SOL    HW233042   1.287   1.981   5.857 -0.8048 -0.2426 -5.6614
 7136SOL     OW33043   4.064   0.334   7.205  0.3419  0.4063 -0.2755
 7136SOL    HW133044   4.034   0.348   7.115  1.6811 -1.9438 -1.0857
 7136SOL    HW233045   4.067   0.239   7.201  1.1334  0.4450 -0.5159
 7137SOL     OW33046   1.292   0.073  14.977  0.2106  0.3535 -0.3753
 7137SOL    HW133047   1.369   0.097  15.030 -0.1093 -0.9624  0.6830
 7137SOL    HW233048   1.227   0.127  15.022 -0.9935 -1.6303  0.2261
 7138SOL     OW33049   3.452   4.145   1.546 -0.4715 -0.0198  0.0454
 7138SOL    HW133050   3.529   4.190   1.513 -1.2056  2.2283  1.3557
 7138SOL    HW233051   3.382   4.207   1.526 -0.6529 -0.3585 -0.3754
 7139SOL     OW33052   3.239   3.960   8.973  0.4498 -0.3424  0.8718
 7139SOL    HW133053   3.145   3.970   8.958  0.4766 -1.5440 -0.0954
 7139SOL    HW233054   3.267   3.991   8.887  0.0609 -0.0173  0.8617
 7140SOL     OW33055   0.802   2.157   6.870 -0.4844  0.0808  0.0640
 7140SOL    HW133056   0.804   2.201   6.955  1.3606 -2.5871  1.3785
 7140SOL    HW233057   0.869   2.206   6.822  1.0815 -1.8456  0.2973
 7141SOL     OW33058   0.196   2.411   2.119  0.1821  0.2931  0.4834
 7141SOL    HW133059   0.286   2.399   2.148  0.0095  1.7929  1.6672
 7141SOL    HW233060   0.205   2.502   2.091 -2.3263  0.1838 -0.7248
 7142SOL     OW33061   3.939   1.770   2.446 -0.5009  0.1711 -0.2833
 7142SOL    HW133062   4.002   1.770   2.518 -2.6822 -1.4899  1.6009
 7142SOL    HW233063   3.975   1.704   2.387  0.2113  0.5591 -0.2774
 7143SOL     OW33064   1.423   3.279   6.121  0.5672  0.0358  0.1577
 7143SOL    HW133065   1.446   3.191   6.150  0.0873 -0.6991 -1.6411
 7143SOL    HW233066   1.485   3.337   6.165 -2.1313  1.9863  1.3580
 7144SOL     OW33067   3.233   0.039   6.584 -0.9888  0.3140  0.8766
 7144SOL    HW133068   3.197   0.128   6.588 -1.4168  0.0494  2.7707
 7144SOL    HW233069   3.322   0.064   6.608 -0.4638 -1.9323  1.2946
 7145SOL     OW33070   3.758   3.639   6.247 -0.1891  0.4397  0.0327
 7145SOL    HW133071   3.686   3.666   6.303  0.2941  3.0520 -0.5927
 7145SOL    HW233072   3.730   3.559   6.202  3.4908 -1.0406  0.3369
 7146SOL     OW33073   4.209   3.704   6.123 -0.4581  0.4430 -0.3779
 7146SOL    HW133074   4.292   3.735   6.088  0.9300  0.2596  2.8031
 7146SOL    HW233075   4.194   3.635   6.059 -1.4358  1.4105 -1.2021
 7147SOL     OW33076   2.346   1.455   4.766 -1.1708 -0.3851 -0.1423
 7147SOL    HW133077   2.408   1.522   4.798 -2.0426  0.6694 -0.6696
 7147SOL    HW233078   2.395   1.374   4.780  1.0596  1.0234  0.1733
 7148SOL     OW33079   3.696   2.545   8.793  0.0973  0.0314 -0.1365
 7148SOL    HW133080   3.670   2.620   8.846 -0.2676 -0.0325 -0.2281
 7148SOL    HW233081   3.668   2.560   8.703 -0.3289 -1.4398 -0.2467
 7149SOL     OW33082   2.063   4.500   5.828 -0.0698  0.1427 -0.0089
 7149SOL    HW133083   2.000   4.441   5.787 -0.1498  0.1503  0.1027
 7149SOL    HW233084   2.137   4.444   5.850 -2.0793 -2.0178  1.2552
 7150SOL     OW33085   0.937   2.702   5.382 -0.1704 -0.2963 -0.4194
 7150SOL    HW133086   0.866   2.656   5.337 -0.1772  0.2562 -0.9700
 7150SOL    HW233087   0.984   2.621   5.406  0.6325  0.6854  1.3489
 7151SOL     OW33088   0.088   3.441  15.437 -0.5068 -0.6137 -0.0501
 7151SOL    HW133089   0.077   3.420  15.529 -0.3218  0.2950  0.1818
 7151SOL    HW233090   0.181   3.459  15.425 -0.5430 -0.6391 -0.3932
 7152SOL     OW33091   4.344   0.439   5.644 -0.1938 -0.1094  0.2307
 7152SOL    HW133092   4.379   0.357   5.608 -2.7330 -0.5565 -1.2163
 7152SOL    HW233093   4.253   0.412   5.654 -0.2122 -0.2131 -0.1901
 7153SOL     OW33094   3.314   0.188   8.789 -0.1655 -0.1619 -0.0979
 7153SOL    HW133095   3.220   0.181   8.774 -0.6080  3.5566  0.9302
 7153SOL    HW233096   3.343   0.097   8.778  2.5371  0.9772 -2.3691
 7154SOL     OW33097   2.081   3.349   8.059 -0.3530  0.1253 -0.3031
 7154SOL    HW133098   2.138   3.414   8.018 -0.8232  0.7609  0.0501
 7154SOL    HW233099   2.091   3.269   8.007  2.7311  0.2505  0.0554
 7155SOL     OW33100   3.139   2.586   8.688 -0.3824  0.0313  0.7256
 7155SOL    HW133101   3.064   2.608   8.633 -0.3890 -0.5308  0.5098
 7155SOL    HW233102   3.188   2.668   8.696 -1.2210  0.6344 -0.2862
 7156SOL     OW33103   2.259   3.071   4.653 -0.4516 -0.4162 -0.3138
 7156SOL    HW133104   2.285   3.056   4.744 -2.8447 -1.4780  0.1844
 7156SOL    HW233105   2.237   3.165   4.655 -0.9141 -0.4809 -2.3818
 7157SOL     OW33106   0.401   4.527   1.892 -0.4963 -0.1713  0.6913
 7157SOL    HW133107   0.316   4.571   1.878 -0.0744  0.2445 -0.5568
 7157SOL    HW233108   0.402   4.529   1.987 -0.5212  0.1747  0.6840
 7158SOL     OW33109   1.624   2.097  11.998  0.2842  0.2069 -0.4997
 7158SOL    HW133110   1.548   2.099  11.940  0.3852  0.6868 -0.6122
 7158SOL    HW233111   1.599   2.055  12.080  1.0560  0.3956 -0.1720
 7159SOL     OW33112   3.737   1.422  12.774 -0.5766 -0.7567  0.4352
 7159SOL    HW133113   3.651   1.395  12.741 -0.1365 -1.6508  0.0051
 7159SOL    HW233114   3.804   1.396  12.710 -0.1856  1.3474  0.0051
 7160SOL     OW33115   2.347   2.363   6.442  0.9578 -0.5451  0.3798
 7160SOL    HW133116   2.345   2.342   6.349 -0.8635  1.8504 -0.1235
 7160SOL    HW233117   2.437   2.342   6.466  1.2286 -0.2659 -0.4185
 7161SOL     OW33118   2.372   1.529   2.821  0.5921 -1.0652  0.2754
 7161SOL    HW133119   2.398   1.514   2.730  1.2630 -3.5502  0.8768
 7161SOL    HW233120   2.372   1.436   2.844  1.8567 -0.6538  1.8359
 7162SOL     OW33121   3.030   3.934  15.749  0.2104 -0.1836  0.6734
 7162SOL    HW133122   3.019   3.868  15.818  2.6679  0.3738  1.6025
 7162SOL    HW233123   3.043   3.874  15.676 -1.1531 -0.6920  0.8416
 7163SOL     OW33124   0.804   4.356   8.155 -0.0616 -0.2907  0.1557
 7163SOL    HW133125   0.723   4.399   8.129 -0.3085 -0.1975  1.1074
 7163SOL    HW233126   0.858   4.378   8.079  1.7935  1.1648  1.8928
 7164SOL     OW33127   2.437   1.713   2.525 -0.1877  0.2327 -0.0483
 7164SOL    HW133128   2.439   1.792   2.580  1.6084 -0.6694  1.1517
 7164SOL    HW233129   2.517   1.672   2.557 -1.0598  0.4959  2.4726
 7165SOL     OW33130   2.422   0.629   2.199 -0.2915 -0.7637  0.4466
 7165SOL    HW133131   2.464   0.667   2.276 -1.3806  1.7469 -0.2035
 7165SOL    HW233132   2.491   0.571   2.167 -0.1952  0.2030 -1.1032
 7166SOL     OW33133   2.729   0.840   0.404 -0.3062 -0.1245  0.6500
 7166SOL    HW133134   2.746   0.794   0.487 -0.5555 -1.3177  0.0467
 7166SOL    HW233135   2.804   0.812   0.352 -0.0971  0.7124  0.5027
 7167SOL     OW33136   1.193   3.752   2.907 -0.0861  0.2746  0.3681
 7167SOL    HW133137   1.276   3.796   2.890  0.4752 -0.9554 -0.0161
 7167SOL    HW233138   1.154   3.761   2.820 -0.7907  0.6110  0.7136
 7168SOL     OW33139   0.088   2.189   3.599 -0.0905  0.2688 -0.5161
 7168SOL    HW133140   0.075   2.267   3.545  0.4128  0.2385 -0.6819
 7168SOL    HW233141   0.125   2.222   3.681 -0.3872  0.8520 -0.6207
 7169SOL     OW33142   1.483   2.008   5.621 -0.3114  0.2536 -0.4273
 7169SOL    HW133143   1.436   2.023   5.703 -0.5984 -1.0104 -0.3597
 7169SOL    HW233144   1.487   1.912   5.619  0.1496  0.2724 -0.3606
 7170SOL     OW33145   4.584   0.290   6.026 -0.8326  0.0286 -0.2232
 7170SOL    HW133146   4.604   0.196   6.025  0.0363  0.2298 -1.3285
 7170SOL    HW233147   4.490   0.284   6.044 -0.9880  2.7217 -0.2118
 7171SOL     OW33148   0.295   1.971   5.357  0.0938  0.1692 -0.4397
 7171SOL    HW133149   0.213   2.018   5.369 -0.6900 -1.9370  2.5272
 7171SOL    HW233150   0.298   1.942   5.448 -0.5588  0.2680 -0.3894
 7172SOL     OW33151   3.281   3.142   9.596 -0.1308  0.3089 -0.7462
 7172SOL    HW133152   3.280   3.222   9.544  0.2048 -0.1699 -1.5099
 7172SOL    HW233153   3.199   3.152   9.642 -0.8055 -0.2841 -1.8105
 7173SOL     OW33154   3.398   4.324   5.635  0.4122  0.2358 -0.4704
 7173SOL    HW133155   3.490   4.346   5.619  0.4931  0.2526  0.0037
 7173SOL    HW233156   3.373   4.292   5.549 -1.2809  1.3497 -0.3936
 7174SOL     OW33157   1.922   0.298   3.956  0.5071  0.5634 -0.2657
 7174SOL    HW133158   1.842   0.319   3.909 -0.5501 -0.4784  1.0595
 7174SOL    HW233159   1.979   0.278   3.882  0.8842 -2.3375  0.8057
 7175SOL     OW33160   4.686   0.950   5.369  0.0457 -0.7527 -0.7031
 7175SOL    HW133161   0.033   0.996   5.345  1.5346 -2.6215  0.8114
 7175SOL    HW233162   4.679   0.998   5.451  0.0002  0.5595 -1.4635
 7176SOL     OW33163   0.585   4.690  13.942  0.3084  0.0861 -0.3326
 7176SOL    HW133164   0.522   0.017  13.979 -1.5001 -2.2212  0.3775
 7176SOL    HW233165   0.628   0.004  13.871 -0.6263  2.0058  0.4105
 7177SOL     OW33166   1.752   1.117  12.429  0.1785  0.2600 -0.7396
 7177SOL    HW133167   1.670   1.074  12.453 -0.3730  2.3973  1.1702
 7177SOL    HW233168   1.764   1.161  12.514  2.8585  2.3483 -2.2104
 7178SOL     OW33169   1.158   1.212  17.037 -0.7182 -0.0225  0.3896
 7178SOL    HW133170   1.220   1.193  16.966 -2.0278 -0.0146 -0.7538
 7178SOL    HW233171   1.082   1.244  16.989 -0.7026 -0.6350 -0.0474
 7179SOL     OW33172   0.032   2.719   0.836  0.2956  0.2058 -0.1567
 7179SOL    HW133173   0.017   2.712   0.930 -0.2195 -2.2482 -0.4058
 7179SOL    HW233174   0.089   2.649   0.801  0.2186  1.0711 -2.0198
 7180SOL     OW33175   2.705   4.379   4.855 -0.1677  0.3726  0.0583
 7180SOL    HW133176   2.645   4.409   4.787  0.2445 -0.9080 -0.8828
 7180SOL    HW233177   2.788   4.423   4.836  0.1163 -0.0429  0.3184
 7181SOL     OW33178   1.689   0.524   9.069  0.3204 -0.1585 -0.4915
 7181SOL    HW133179   1.776   0.551   9.040  0.7210 -1.9742 -1.0204
 7181SOL    HW233180   1.691   0.570   9.153  0.5348 -1.8262  0.4351
 7182SOL     OW33181   3.900   1.042   4.482  0.2447 -0.5700  0.2535
 7182SOL    HW133182   3.973   1.061   4.541  1.4500 -0.9475 -1.0978
 7182SOL    HW233183   3.923   1.097   4.407 -1.2528  1.0015  0.9756
 7183SOL     OW33184   3.869   0.258   9.511 -0.2814  0.0308 -0.5949
 7183SOL    HW133185   3.828   0.171   9.508  0.7915 -0.5275  0.8492
 7183SOL    HW233186   3.877   0.268   9.606  1.3652  0.6094 -0.7988
 7184SOL     OW33187   1.898   1.725   3.376  0.8553  0.4044  0.2547
 7184SOL    HW133188   1.826   1.786   3.361 -0.9570 -1.8869 -0.3042
 7184SOL    HW233189   1.905   1.679   3.292 -2.4547  0.9331 -0.2873
 7185SOL     OW33190   0.072   2.074   2.554 -0.0151 -0.3265 -0.0186
 7185SOL    HW133191   0.156   2.097   2.514 -0.7063  1.1198 -0.6468
 7185SOL    HW233192   0.025   2.028   2.484  1.1643 -1.4769 -0.0453
 7186SOL     OW33193   2.735   3.879   5.237  0.3354 -0.1633  0.1471
 7186SOL    HW133194   2.717   3.806   5.178 -1.3467 -0.4287  0.9865
 7186SOL    HW233195   2.823   3.858   5.269 -0.1260 -2.0557  0.1512
 7187SOL     OW33196   2.543   3.527   0.011  0.1718  0.2198  0.3634
 7187SOL    HW133197   2.454   3.558   0.028  0.6912  1.9245 -0.0002
 7187SOL    HW233198   2.587   3.607   0.039 -0.1472  1.1459 -1.8325
 7188SOL     OW33199   2.808   1.590   2.827  0.4074 -0.3049 -1.0060
 7188SOL    HW133200   2.811   1.555   2.916  1.7083  0.0009 -0.9176
 7188SOL    HW233201   2.815   1.511   2.774 -1.7160 -1.1182 -0.0564
 7189SOL     OW33202   1.833   1.534  16.526 -0.0680  0.4116  0.4248
 7189SOL    HW133203   1.922   1.499  16.531  1.1472  2.9564 -2.9759
 7189SOL    HW233204   1.788   1.458  16.562 -1.1553  1.2417  0.8171
 7190SOL     OW33205   3.109   0.880   2.869  0.2236 -0.0958 -0.1042
 7190SOL    HW133206   3.145   0.838   2.947  0.6774  0.2415 -0.1336
 7190SOL    HW233207   3.038   0.928   2.910  0.4558  0.3986 -0.2752
 7191SOL     OW33208   0.605   2.982   8.599  0.3017 -0.2715  0.1612
 7191SOL    HW133209   0.619   2.932   8.680 -4.2481 -1.5968  0.1560
 7191SOL    HW233210   0.680   2.954   8.547 -0.6803 -2.1166 -0.2475
 7192SOL     OW33211   0.426   1.592   9.847 -0.3503 -0.2766 -0.1382
 7192SOL    HW133212   0.354   1.605   9.909  0.4301  0.2930  0.6471
 7192SOL    HW233213   0.385   1.596   9.761 -1.5502  0.8660  0.4839
 7193SOL     OW33214   0.128   0.342   7.083  0.3415  0.5956 -0.0720
 7193SOL    HW133215   0.041   0.382   7.076  0.1049  0.0072 -0.5461
 7193SOL    HW233216   0.144   0.337   7.177  0.8873  0.7410 -0.1586
 7194SOL     OW33217   2.260   1.109   8.523 -0.2133 -0.3996 -0.5485
 7194SOL    HW133218   2.183   1.087   8.471 -0.7113  0.8947 -0.3521
 7194SOL    HW233219   2.236   1.189   8.570 -0.9036 -0.5638 -0.6135
 7195SOL     OW33220   4.642   2.777   8.572  0.3286 -0.4312 -0.4286
 7195SOL    HW133221   4.579   2.840   8.607  0.6459 -1.3712  1.8045
 7195SOL    HW233222   4.725   2.806   8.609  0.1145  2.5277 -2.2559
 7196SOL     OW33223   1.275   1.808   2.617  0.5434 -0.3026  0.0533
 7196SOL    HW133224   1.194   1.762   2.598 -0.0814  0.8803 -0.1863
 7196SOL    HW233225   1.330   1.796   2.539 -0.2196 -1.3286 -0.3303
 7197SOL     OW33226   2.136   2.376   2.019  0.1591  0.5366 -0.2335
 7197SOL    HW133227   2.164   2.428   2.094 -0.8408  1.5853 -0.5845
 7197SOL    HW233228   2.167   2.288   2.041  1.6559  1.0140 -0.4099
 7198SOL     OW33229   1.667   3.655  16.911  0.2119 -0.4257 -0.3318
 7198SOL    HW133230   1.639   3.635  16.822  0.8561 -0.0961 -0.6088
 7198SOL    HW233231   1.759   3.669  16.889  0.4032 -0.4135  0.4916
 7199SOL     OW33232   2.501   2.336   2.958  0.7569 -0.0377  0.3405
 7199SOL    HW133233   2.472   2.246   2.944  0.5215 -0.1604  1.6246
 7199SOL    HW233234   2.529   2.360   2.869 -0.0511  1.2820  0.4570
 7200SOL     OW33235   2.181   1.596   6.724 -0.1806  0.1278  0.3689
 7200SOL    HW133236   2.263   1.644   6.718  0.1698 -0.6091 -0.7168
 7200SOL    HW233237   2.188   1.534   6.652 -2.5131 -0.1840  0.4125
 7201SOL     OW33238   4.506   3.913   8.123 -0.5707 -0.1738  0.8747
 7201SOL    HW133239   4.580   3.876   8.076  0.4696  1.3866  1.2717
 7201SOL    HW233240   4.550   3.953   8.198  3.5801  0.0154 -1.6781
 7202SOL     OW33241   3.486   2.783  10.470 -0.0025 -0.1351  0.0202
 7202SOL    HW133242   3.559   2.845  10.473 -1.1404  1.2273 -0.6236
 7202SOL    HW233243   3.484   2.759  10.563 -1.7729 -1.9215 -0.4881
 7203SOL     OW33244   0.871   4.559  13.218 -0.6017  0.0235 -0.0519
 7203SOL    HW133245   0.827   4.590  13.139 -1.0473  0.2078  0.2689
 7203SOL    HW233246   0.790   4.536  13.264 -0.7180  1.3961  0.4311
 7204SOL     OW33247   2.647   3.294   5.185  0.0446  0.0145  0.2107
 7204SOL    HW133248   2.606   3.268   5.103 -0.4554  3.0423 -0.4950
 7204SOL    HW233249   2.667   3.213   5.233  2.5008  0.4149 -0.1052
 7205SOL     OW33250   2.186   1.953   1.798 -0.2177 -0.4818 -0.6653
 7205SOL    HW133251   2.236   1.873   1.782  0.1626 -0.7671  1.8141
 7205SOL    HW233252   2.244   2.016   1.755 -2.3960  2.8398  1.2114
 7206SOL     OW33253   3.783   4.587   5.350  0.1954  0.4839  0.2651
 7206SOL    HW133254   3.755   4.670   5.312  1.6402 -0.2790 -2.5197
 7206SOL    HW233255   3.878   4.600   5.358  0.0309  0.8469  1.6793
 7207SOL     OW33256   2.466   3.751   5.415 -0.4009 -0.4285 -0.2594
 7207SOL    HW133257   2.442   3.792   5.332 -1.6380 -0.8435 -0.1018
 7207SOL    HW233258   2.491   3.665   5.380  0.3043 -0.4422  0.2901
 7208SOL     OW33259   2.095   2.433   6.479  0.8030  0.4220 -0.0435
 7208SOL    HW133260   2.067   2.357   6.427  1.7979 -0.0185  0.0553
 7208SOL    HW233261   2.186   2.410   6.497  0.2119 -2.3039 -0.5036
 7209SOL     OW33262   4.233   3.345   8.556 -0.1143  0.6147  0.0539
 7209SOL    HW133263   4.312   3.356   8.503  0.4568 -1.2866  0.4948
 7209SOL    HW233264   4.247   3.412   8.622  0.2464 -0.0235  0.6265
 7210SOL     OW33265   2.983   0.731  12.677  0.3461 -0.8109  0.3341
 7210SOL    HW133266   3.076   0.744  12.691 -0.2551  1.8520  1.8429
 7210SOL    HW233267   2.943   0.743  12.763 -0.2791 -0.3524 -0.0182
 7211SOL     OW33268   2.878   3.625  12.398 -0.6785  0.1690 -0.0676
 7211SOL    HW133269   2.868   3.699  12.458  0.9204 -0.1441  0.5987
 7211SOL    HW233270   2.882   3.661  12.310  0.5567  4.1707  1.6331
 7212SOL     OW33271   3.405   0.441   8.808 -0.6001  0.7876 -0.3440
 7212SOL    HW133272   3.371   0.352   8.823  1.7079 -0.2514 -1.3384
 7212SOL    HW233273   3.334   0.493   8.844 -2.3950  0.4469 -3.2992
 7213SOL     OW33274   4.418   0.135   7.871  0.6400  0.6898 -0.2805
 7213SOL    HW133275   4.379   0.064   7.820 -2.2078  2.0687  0.0007
 7213SOL    HW233276   4.431   0.097   7.959  0.9548 -1.4348 -1.2401
 7214SOL     OW33277   3.557   3.832  16.340 -0.5046  0.0671  0.0682
 7214SOL    HW133278   3.493   3.855  16.408 -0.8488  1.8500 -0.8756
 7214SOL    HW233279   3.612   3.779  16.399 -0.3234  1.8065  1.4506
 7215SOL     OW33280   4.660   4.495   3.596 -0.4498  0.9569  0.0142
 7215SOL    HW133281   4.615   4.541   3.525 -3.1841 -0.8308  0.5865
 7215SOL    HW233282   4.583   4.460   3.641 -0.0457 -0.4820 -0.3846
 7216SOL     OW33283   2.345   1.827   7.087  0.1091  0.2643 -0.1921
 7216SOL    HW133284   2.371   1.848   7.177  0.1826 -2.1572  0.3492
 7216SOL    HW233285   2.281   1.893   7.062 -0.8928 -0.8294 -0.5454
 7217SOL     OW33286   2.249   0.844  12.963 -0.0537 -0.2359 -0.6479
 7217SOL    HW133287   2.295   0.871  13.042 -0.2696 -3.7682  0.6772
 7217SOL    HW233288   2.296   0.893  12.896  0.4193  0.2714  0.0498
 7218SOL     OW33289   3.662   4.065  13.420  0.2754 -0.6495  0.2838
 7218SOL    HW133290   3.658   4.153  13.383 -1.0080 -1.5267 -1.6833
 7218SOL    HW233291   3.609   4.028  13.349 -0.2307  1.5779 -0.4876
 7219SOL     OW33292   4.400   0.269   2.959  0.9807 -0.1672  0.2323
 7219SOL    HW133293   4.398   0.327   2.883  4.4148  0.3822  0.5900
 7219SOL    HW233294   4.480   0.220   2.939  0.7158 -1.3997  2.2047
 7220SOL     OW33295   2.272   3.921   1.706  0.0892 -0.1906 -0.0626
 7220SOL    HW133296   2.186   3.880   1.693  0.5339 -1.7115  1.7331
 7220SOL    HW233297   2.278   3.922   1.802 -0.1189 -3.0848 -0.0152
 7221SOL     OW33298   2.134   1.133   3.415  0.1550 -0.0610  0.4244
 7221SOL    HW133299   2.040   1.138   3.401 -0.5403 -0.2348  4.9038
 7221SOL    HW233300   2.142   1.166   3.505 -1.0802  0.4528  0.3454
 7222SOL     OW33301   1.316   3.935   7.483 -0.4059 -0.1527  0.2424
 7222SOL    HW133302   1.301   4.012   7.428 -0.4634 -0.0927  0.3428
 7222SOL    HW233303   1.340   3.872   7.415  1.9951 -0.1432  1.0596
 7223SOL     OW33304   2.917   0.453  10.736 -0.1033  0.1235 -0.0943
 7223SOL    HW133305   2.865   0.451  10.816 -1.1419 -2.1969 -0.8496
 7223SOL    HW233306   2.849   0.472  10.671  0.1961 -0.3823 -0.5579
 7224SOL     OW33307   1.254   1.478   4.211  0.3695  0.2809 -0.2752
 7224SOL    HW133308   1.238   1.506   4.121  2.1813  0.3088 -0.5917
 7224SOL    HW233309   1.346   1.453   4.203  0.4647  0.7720 -0.7498
 7225SOL     OW33310   3.304   0.771  10.102  0.0070 -0.1805  0.7595
 7225SOL    HW133311   3.305   0.678  10.081  1.9350  0.1000 -0.4289
 7225SOL    HW233312   3.391   0.790  10.137  0.3642  1.2184 -0.8936
 7226SOL     OW33313   2.389   0.616   4.992 -0.1652  0.0184 -0.2525
 7226SOL    HW133314   2.301   0.626   4.956 -0.7081 -2.2355  0.4013
 7226SOL    HW233315   2.385   0.527   5.028 -1.6345 -0.4485 -1.5798
 7227SOL     OW33316   1.202   0.092  13.150 -0.5120 -0.4946  0.6804
 7227SOL    HW133317   1.226   0.176  13.111 -0.6850 -0.0721  1.4886
 7227SOL    HW233318   1.286   0.057  13.179  0.6194  2.7554  1.3239
 7228SOL     OW33319   4.425   1.580   5.259  0.0480  0.4288 -0.0140
 7228SOL    HW133320   4.486   1.520   5.217 -1.6181 -1.7749  0.7122
 7228SOL    HW233321   4.477   1.612   5.332  0.5721  1.3893 -0.7965
 7229SOL     OW33322   2.606   4.667  13.617 -0.6257 -0.2999  0.4156
 7229SOL    HW133323   2.568   0.012  13.655  0.5625  0.0563  0.8715
 7229SOL    HW233324   2.559   4.598  13.664 -0.1510 -0.1800  1.0649
 7230SOL     OW33325   1.588   3.135  14.513  0.0974  0.1468 -0.0646
 7230SOL    HW133326   1.628   3.057  14.550 -0.3448 -0.0530 -0.0091
 7230SOL    HW233327   1.658   3.193  14.481  0.8929  0.2460  1.9111
 7231SOL     OW33328   0.115   1.151   9.004  1.3307  0.5005 -0.0027
 7231SOL    HW133329   0.140   1.228   8.953  4.0384 -0.2495  0.1898
 7231SOL    HW233330   0.179   1.156   9.076  1.9066  2.1102 -0.6259
 7232SOL     OW33331   2.943   1.397  13.113 -1.0048 -0.5834 -0.0489
 7232SOL    HW133332   3.010   1.346  13.067  0.5193  0.1831  1.3340
 7232SOL    HW233333   2.903   1.429  13.032 -1.5380 -1.3149 -0.0752
 7233SOL     OW33334   0.294   3.622  17.206  0.6283  0.1457 -0.1621
 7233SOL    HW133335   0.282   3.636  17.112 -2.1306 -3.8104 -0.4181
 7233SOL    HW233336   0.223   3.562  17.230 -0.0907  1.6681  1.5492
 7234SOL     OW33337   4.579   1.727   8.949 -0.1656  0.4871  0.0128
 7234SOL    HW133338   4.674   1.739   8.957  0.2483 -1.8124 -1.2387
 7234SOL    HW233339   4.572   1.639   8.911  0.0128  0.2475  0.5417
 7235SOL     OW33340   3.218   0.844   6.179 -0.0187  0.1549 -0.4794
 7235SOL    HW133341   3.252   0.887   6.258 -1.9141  2.4003 -0.8877
 7235SOL    HW233342   3.133   0.883   6.159 -0.1539  0.3739  0.5043
 7236SOL     OW33343   3.193   0.325  10.482  0.2122  0.1285 -0.2209
 7236SOL    HW133344   3.206   0.385  10.555 -1.0060 -0.3357  0.3683
 7236SOL    HW233345   3.108   0.357  10.453  0.7207 -0.0674 -1.9911
 7237SOL     OW33346   0.587   1.932  13.492  0.4821  0.4212 -0.5782
 7237SOL    HW133347   0.658   1.870  13.508  1.2765  1.4247 -0.2843
 7237SOL    HW233348   0.629   2.016  13.510  0.8955 -0.4555  2.5039
 7238SOL     OW33349   0.255   1.962   9.730  0.8311  0.0062  0.6665
 7238SOL    HW133350   0.335   1.934   9.774  1.1382 -1.0756 -0.5675
 7238SOL    HW233351   0.232   2.043   9.774 -1.9811 -0.4032 -0.0141
 7239SOL     OW33352   4.407   3.112  11.439  0.6300  0.0097  0.0471
 7239SOL    HW133353   4.346   3.153  11.378 -0.4343 -0.5079  0.7714
 7239SOL    HW233354   4.447   3.186  11.484 -0.3247 -0.1895  1.2096
 7240SOL     OW33355   0.114   0.667   8.977  0.3421  0.3134  0.4264
 7240SOL    HW133356   0.042   0.618   9.016  2.0532 -2.4911  0.0057
 7240SOL    HW233357   0.074   0.748   8.945  1.5708  0.3578 -1.0171
 7241SOL     OW33358   0.973   3.496   4.408  0.1463  0.1038  0.6328
 7241SOL    HW133359   0.884   3.513   4.438  0.9479  1.1956  2.3856
 7241SOL    HW233360   0.962   3.512   4.314 -1.6752  0.2506  0.8751
 7242SOL     OW33361   2.817   3.743   9.521  0.8881  0.5207  0.0088
 7242SOL    HW133362   2.789   3.833   9.537 -1.7243  0.2552 -2.9989
 7242SOL    HW233363   2.890   3.730   9.582  0.4618 -0.3654  0.3284
 7243SOL     OW33364   3.893   2.050   4.824 -0.1856  0.6590 -0.8799
 7243SOL    HW133365   3.916   2.127   4.876 -1.7625  0.1643  0.5811
 7243SOL    HW233366   3.801   2.072   4.809 -0.4942  0.4223  0.6758
 7244SOL     OW33367   2.562   3.232   7.007  0.4225  0.4522 -0.4437
 7244SOL    HW133368   2.586   3.282   6.929 -0.0099 -0.8903 -1.4162
 7244SOL    HW233369   2.561   3.143   6.973  0.4530  1.0744 -2.0819
 7245SOL     OW33370   0.012   2.909   3.669 -0.1457 -0.4556  0.4873
 7245SOL    HW133371   0.103   2.934   3.689  1.0393 -3.5005 -0.9900
 7245SOL    HW233372   4.716   2.911   3.759  0.0149 -0.6309  0.5442
 7246SOL     OW33373   3.892   2.322   4.581  0.2026  0.0159  0.0913
 7246SOL    HW133374   3.966   2.290   4.633  1.9717  0.3522 -2.2123
 7246SOL    HW233375   3.843   2.357   4.655 -1.4239  1.4456 -1.6964
 7247SOL     OW33376   4.480   3.290  16.871  0.1199 -0.1949 -0.7785
 7247SOL    HW133377   4.418   3.249  16.811 -0.0467 -0.0592 -0.6971
 7247SOL    HW233378   4.557   3.247  16.833 -0.0635  0.0922 -1.4777
 7248SOL     OW33379   3.740   2.432   4.871  0.0800  0.0119  0.0113
 7248SOL    HW133380   3.767   2.447   4.961 -0.4917  0.4462  0.1072
 7248SOL    HW233381   3.693   2.350   4.883  2.6998 -1.4600  0.3685
 7249SOL     OW33382   4.713   1.217  16.709  0.2775  0.1306  0.1042
 7249SOL    HW133383   4.644   1.274  16.742 -0.8946 -0.9681 -0.4693
 7249SOL    HW233384   0.020   1.292  16.666  1.1864 -1.5239 -1.9412
 7250SOL     OW33385   2.936   3.534  17.276 -0.2121 -0.5942 -0.2463
 7250SOL    HW133386   2.974   3.455  17.313 -0.8721 -0.0718  1.5714
 7250SOL    HW233387   3.008   3.560  17.218  0.7820 -1.1450  0.7460
 7251SOL     OW33388   0.635   4.209  17.686  0.3362 -0.0163  0.1048
 7251SOL    HW133389   0.551   4.176  17.653  0.6418  1.5574 -2.2542
 7251SOL    HW233390   0.643   4.160   0.033 -1.9613  2.2145  1.6644
 7252SOL     OW33391   4.555   3.923   4.629 -0.0815 -0.2129  0.4204
 7252SOL    HW133392   4.523   3.975   4.703  1.9302  1.9493 -0.2400
 7252SOL    HW233393   4.630   3.974   4.598  1.6410 -1.7532  2.0169
 7253SOL     OW33394   3.071   3.090   1.291 -0.0155  0.4322 -0.1660
 7253SOL    HW133395   3.037   3.179   1.286  0.7637  0.7706  0.4919
 7253SOL    HW233396   3.150   3.093   1.236 -1.3997  0.2736 -2.1595
 7254SOL     OW33397   0.689   3.497   7.765 -0.7647  0.0102 -0.2408
 7254SOL    HW133398   0.684   3.534   7.853  0.2134 -1.8971  0.6178
 7254SOL    HW233399   0.719   3.567   7.707  1.8006 -1.8558 -1.1823
 7255SOL     OW33400   0.709   0.696   4.373 -0.2156 -0.1406 -0.2157
 7255SOL    HW133401   0.712   0.624   4.309 -0.2346 -0.9531  0.7062
 7255SOL    HW233402   0.629   0.745   4.352 -0.0078 -0.2983 -1.4039
 7256SOL     OW33403   0.294   1.393   5.246 -0.2593 -0.2500 -0.4674
 7256SOL    HW133404   0.292   1.477   5.201 -1.6755  0.1194  0.2790
 7256SOL    HW233405   0.365   1.352   5.197 -0.9496 -2.5081  0.4207
 7257SOL     OW33406   4.091   3.769   5.156  0.3832 -0.5493  0.0563
 7257SOL    HW133407   4.046   3.686   5.171 -0.3794 -0.1017  0.2293
 7257SOL    HW233408   4.053   3.799   5.073 -1.5372  0.5462  1.3282
 7258SOL     OW33409   3.985   1.860   1.409  0.6042 -0.4907 -0.5244
 7258SOL    HW133410   3.946   1.773   1.412  3.0331 -1.4168  4.0112
 7258SOL    HW233411   4.072   1.824   1.393  0.2224 -0.7401 -2.0201
 7259SOL     OW33412   1.006   1.384   9.056  0.3036 -0.6061  0.1596
 7259SOL    HW133413   1.089   1.433   9.062 -0.0499 -0.1922  1.5795
 7259SOL    HW233414   0.993   1.358   9.147 -0.2191 -1.3542 -0.1343
 7260SOL     OW33415   2.744   1.853   5.569  0.0436 -0.2147  0.0100
 7260SOL    HW133416   2.772   1.944   5.560 -0.9878 -0.0402 -1.3817
 7260SOL    HW233417   2.832   1.815   5.567 -0.1379 -0.7290  1.3335
 7261SOL     OW33418   2.785   1.122   4.036  0.3052  0.0928 -0.8556
 7261SOL    HW133419   2.832   1.193   4.080  2.4043 -1.2694 -0.9484
 7261SOL    HW233420   2.834   1.044   4.062  2.2399  1.0920 -1.4992
 7262SOL     OW33421   1.235   2.951   9.173  0.2976 -0.5474  0.0437
 7262SOL    HW133422   1.164   2.964   9.236  0.5475 -1.5183  0.5291
 7262SOL    HW233423   1.304   2.922   9.233  0.3258 -0.6741 -0.0486
 7263SOL     OW33424   4.662   3.716   7.277 -0.2476 -0.0820 -0.0510
 7263SOL    HW133425   4.605   3.698   7.352 -3.3000  1.6024 -1.9299
 7263SOL    HW233426   4.615   3.693   7.197  1.1474 -1.4617 -0.4707
 7264SOL     OW33427   3.260   2.196  14.676  0.4067  0.0245  0.5837
 7264SOL    HW133428   3.275   2.287  14.701 -2.0397  0.3090  0.9969
 7264SOL    HW233429   3.279   2.147  14.756 -0.5262  0.3278  0.9869
 7265SOL     OW33430   2.621   3.436   6.114 -0.0678 -0.0067 -0.6140
 7265SOL    HW133431   2.592   3.519   6.077  0.8941  1.1496  1.2614
 7265SOL    HW233432   2.563   3.438   6.190 -0.6281  0.1815 -1.0449
 7266SOL     OW33433   4.385   1.535   7.925 -0.0208 -0.1818 -0.4251
 7266SOL    HW133434   4.326   1.574   7.860  0.0153  0.0059 -0.3450
 7266SOL    HW233435   4.330   1.479   7.979  0.1148 -0.7657 -0.8991
 7267SOL     OW33436   2.505   2.850   1.595  0.5724  0.0450 -0.7313
 7267SOL    HW133437   2.435   2.818   1.538  2.5321 -4.0413 -0.8331
 7267SOL    HW233438   2.539   2.917   1.534  0.0721  0.1317 -0.9110
 7268SOL     OW33439   3.380   2.305   5.933 -0.0811  0.1445 -0.0055
 7268SOL    HW133440   3.432   2.261   5.865  0.9509 -0.6132  1.2773
 7268SOL    HW233441   3.384   2.241   6.004 -1.0594 -0.7438 -0.7395
 7269SOL     OW33442   3.493   3.729   6.291 -0.1587  0.1259 -0.6963
 7269SOL    HW133443   3.453   3.643   6.277  1.0747 -0.9387  2.4810
 7269SOL    HW233444   3.484   3.731   6.386  1.6120  1.3366 -0.5649
 7270SOL     OW33445   2.961   3.632   7.644  0.2529  0.2869  0.7224
 7270SOL    HW133446   2.927   3.545   7.667  0.3633  0.0111 -0.1334
 7270SOL    HW233447   2.910   3.699   7.689 -2.0678 -1.2407  0.3859
 7271SOL     OW33448   0.087   0.664  10.160 -0.0354  0.0419 -0.4245
 7271SOL    HW133449   0.051   0.737  10.210  2.3181  1.8181 -1.2908
 7271SOL    HW233450   0.177   0.646  10.188 -0.0376  1.5971  0.5716
 7272SOL     OW33451   1.597   2.046   4.530  0.0331 -0.0637  0.3234
 7272SOL    HW133452   1.534   2.004   4.471  0.9867  1.1710 -1.5678
 7272SOL    HW233453   1.533   2.111   4.558  0.1485 -0.0397  0.5310
 7273SOL     OW33454   2.919   2.842  12.898 -0.2383 -0.7148 -0.6906
 7273SOL    HW133455   2.906   2.937  12.903 -1.1580 -0.8698 -0.1645
 7273SOL    HW233456   2.947   2.831  12.807  0.9574 -1.0003 -0.2872
 7274SOL     OW33457   3.037   1.343   4.661  0.1439 -0.2005 -0.0882
 7274SOL    HW133458   3.027   1.413   4.725 -0.2063  0.5359 -0.9574
 7274SOL    HW233459   2.943   1.327   4.652  0.7701 -2.7290 -2.4361
 7275SOL     OW33460   1.836   3.748  10.669  0.2298  0.2087  0.6726
 7275SOL    HW133461   1.807   3.747  10.760 -2.4538  2.2777 -0.1222
 7275SOL    HW233462   1.857   3.657  10.651 -1.3361  0.0417 -0.3755
 7276SOL     OW33463   0.003   1.504   7.350 -0.2218 -0.2736 -0.1296
 7276SOL    HW133464   4.725   1.594   7.319  0.2978 -0.4918 -0.9608
 7276SOL    HW233465   4.714   1.530   7.440  0.4827 -1.2288  0.3220
 7277SOL     OW33466   3.444   0.762   9.012  0.5591  0.0259 -0.0656
 7277SOL    HW133467   3.479   0.834   9.065 -1.6954  1.1052 -0.0434
 7277SOL    HW233468   3.433   0.694   9.079  1.3625  1.4462  1.5195
 7278SOL     OW33469   4.641   1.460  14.693  0.1907  0.8810 -0.2346
 7278SOL    HW133470   4.661   1.520  14.765  1.0030  1.0635 -0.6117
 7278SOL    HW233471   4.701   1.388  14.714 -2.4480 -1.6354 -1.2306
 7279SOL     OW33472   0.437   2.194  14.723  0.2278 -0.4074 -0.8129
 7279SOL    HW133473   0.405   2.173  14.811 -0.8455  0.6456 -0.9617
 7279SOL    HW233474   0.503   2.127  14.704  1.9198  1.0986 -0.2688
 7280SOL     OW33475   2.156   2.594  12.316 -0.4320  0.5503 -0.7164
 7280SOL    HW133476   2.177   2.521  12.375 -1.9140  0.9795  0.3560
 7280SOL    HW233477   2.224   2.655  12.344  0.8142 -1.4069  0.5589
 7281SOL     OW33478   3.717   1.296   0.237 -1.1021 -0.6792 -0.2533
 7281SOL    HW133479   3.775   1.257   0.302  0.0076 -1.6357 -1.8080
 7281SOL    HW233480   3.662   1.225   0.205 -1.4837 -1.3206  1.8624
 7282SOL     OW33481   4.042   1.140   1.133 -0.3150  0.1622 -0.0523
 7282SOL    HW133482   4.109   1.198   1.169  1.5373  0.0557 -3.3163
 7282SOL    HW233483   4.083   1.053   1.135  0.4085  0.5210  0.6936
 7283SOL     OW33484   1.459   2.308   0.005 -0.1970  0.2056  0.3154
 7283SOL    HW133485   1.472   2.220   0.042  1.6639 -0.1888 -1.3041
 7283SOL    HW233486   1.369   2.313  17.707 -0.8339  1.6516  2.2477
 7284SOL     OW33487   1.550   4.521   2.749  0.0631  0.5777  0.2682
 7284SOL    HW133488   1.645   4.532   2.755  0.2666  0.0773 -2.0995
 7284SOL    HW233489   1.541   4.479   2.664 -1.5937  0.6129  0.4237
 7285SOL     OW33490   4.223   1.934   5.047  0.7579  0.7837  0.7093
 7285SOL    HW133491   4.302   1.904   5.091  1.5711  2.3890  0.3265
 7285SOL    HW233492   4.160   1.940   5.119  0.1792  3.8105 -0.0690
 7286SOL     OW33493   0.873   0.849  14.011 -0.3303  0.2006 -0.0164
 7286SOL    HW133494   0.942   0.790  14.040 -0.7207  0.1111  0.7283
 7286SOL    HW233495   0.800   0.789  13.992 -0.8919  0.3761  1.6439
 7287SOL     OW33496   1.964   1.251   1.937  0.1367  0.6017  0.1226
 7287SOL    HW133497   2.016   1.176   1.907  0.4945  0.7588  0.3419
 7287SOL    HW233498   2.027   1.285   2.001  0.9245  0.6325 -0.6596
 7288SOL     OW33499   3.730   0.313   8.448  0.0653 -0.4595  0.1890
 7288SOL    HW133500   3.772   0.397   8.469 -0.4318 -0.3796  0.8642
 7288SOL    HW233501   3.638   0.338   8.451 -0.0790 -1.1077  1.1871
 7289SOL     OW33502   1.467   1.997  14.077 -0.3008  0.5118  0.5531
 7289SOL    HW133503   1.542   1.974  14.131  2.2617  2.8792 -1.9913
 7289SOL    HW233504   1.424   1.911  14.077  2.2135 -0.7645 -1.3907
 7290SOL     OW33505   3.244   3.696  13.081 -0.0598 -0.2532  0.5347
 7290SOL    HW133506   3.267   3.712  13.173  0.0607 -0.2879  0.5103
 7290SOL    HW233507   3.330   3.666  13.051  0.0186 -0.0697  0.5750
 7291SOL     OW33508   0.710   2.753   5.696  0.1277  0.2729 -0.8565
 7291SOL    HW133509   0.640   2.815   5.712 -1.3291 -1.6146  0.0832
 7291SOL    HW233510   0.689   2.706   5.615 -1.5334 -1.0304  0.3317
 7292SOL     OW33511   3.085   0.227  14.464 -0.6532 -0.3045  0.3647
 7292SOL    HW133512   3.136   0.264  14.537  0.5025 -1.4808  0.1540
 7292SOL    HW233513   3.035   0.303  14.435 -1.8828 -0.0318  3.2202
 7293SOL     OW33514   4.603   3.882   5.930 -0.2226 -0.6426  0.0347
 7293SOL    HW133515   4.518   3.856   5.896  0.0099 -1.4079  0.0484
 7293SOL    HW233516   4.655   3.886   5.850 -0.3563 -2.1896 -0.1331
 7294SOL     OW33517   4.364   2.035   0.777  0.1692 -0.4584  0.2259
 7294SOL    HW133518   4.392   2.035   0.869 -0.5116  2.0507  0.4290
 7294SOL    HW233519   4.311   1.955   0.775 -0.5056 -0.0175  0.3379
 7295SOL     OW33520   1.618   3.651  14.986  0.6459 -0.1437  0.2208
 7295SOL    HW133521   1.525   3.650  15.008  0.9543  0.4389  1.5270
 7295SOL    HW233522   1.634   3.742  14.964 -0.8122  0.2367  0.7388
 7296SOL     OW33523   0.408   2.527   1.347  0.5032 -0.3231  0.4263
 7296SOL    HW133524   0.457   2.510   1.266 -1.3902 -2.6609 -0.2132
 7296SOL    HW233525   0.332   2.573   1.311  0.5265  0.8641  1.9044
 7297SOL     OW33526   1.579   1.804   9.993  0.7131  0.1631 -0.3447
 7297SOL    HW133527   1.599   1.718  10.031 -1.3841 -0.2835 -0.2902
 7297SOL    HW233528   1.668   1.830   9.970  1.0596 -1.5308 -0.8875
 7298SOL     OW33529   0.647   4.349  16.111  0.3083 -0.5675  0.0632
 7298SOL    HW133530   0.738   4.356  16.083  0.1275 -0.2789 -0.4570
 7298SOL    HW233531   0.653   4.421  16.173  0.8511  0.1570 -0.8281
 7299SOL     OW33532   3.386   3.695   3.955 -0.1418  0.9352 -0.2064
 7299SOL    HW133533   3.479   3.678   3.973 -0.0063  2.6558  0.7324
 7299SOL    HW233534   3.346   3.627   4.009 -0.6627  1.6320  0.2775
 7300SOL     OW33535   1.714   3.519   5.195  1.0152  0.0122  0.3602
 7300SOL    HW133536   1.658   3.463   5.249 -0.2930 -0.0548 -1.0448
 7300SOL    HW233537   1.656   3.537   5.121  2.0699 -1.6826 -0.8787
 7301SOL     OW33538   3.492   1.669   2.442 -0.4021  0.9563  0.2815
 7301SOL    HW133539   3.556   1.740   2.437  0.0726  0.5023 -0.0115
 7301SOL    HW233540   3.490   1.652   2.536 -1.5561  0.1366  0.1125
 7302SOL     OW33541   0.247   2.995   7.861 -0.0275  0.5159 -0.6062
 7302SOL    HW133542   0.177   3.051   7.894 -0.7156 -1.4742  1.3373
 7302SOL    HW233543   0.194   2.930   7.815 -1.7948  2.3269 -1.1352
 7303SOL     OW33544   0.686   4.716   6.601 -1.0536  0.0017  0.3466
 7303SOL    HW133545   0.668   4.692   6.692 -0.6760 -2.2181 -0.1590
 7303SOL    HW233546   0.645   0.068   6.599  1.6109  1.2878  0.9192
 7304SOL     OW33547   3.414   3.150   4.465  0.5224 -0.0321 -0.2694
 7304SOL    HW133548   3.321   3.172   4.467 -0.0251 -2.3351  0.8290
 7304SOL    HW233549   3.458   3.197   4.536  0.7621  0.2803 -0.6303
 7305SOL     OW33550   0.669   4.214  11.140  0.3933 -0.1740  0.2782
 7305SOL    HW133551   0.575   4.197  11.132  0.4729 -0.0901 -0.8368
 7305SOL    HW233552   0.687   4.187  11.230  1.4942 -2.6586 -0.6737
 7306SOL     OW33553   1.446   3.391   7.823  0.4583 -0.2608 -0.3754
 7306SOL    HW133554   1.371   3.333   7.811  0.5672 -0.3677 -0.5395
 7306SOL    HW233555   1.484   3.365   7.906  2.1310  1.0979 -0.7003
 7307SOL     OW33556   2.939   0.303   2.412  0.1104  0.2206  0.0103
 7307SOL    HW133557   3.008   0.354   2.454 -1.7011  0.4458  2.6697
 7307SOL    HW233558   2.932   0.224   2.465  3.2814 -0.3128 -0.3887
 7308SOL     OW33559   1.978   4.663   9.789  0.3843  0.0852 -0.3993
 7308SOL    HW133560   1.893   4.621   9.798 -0.8961  3.0626  1.2678
 7308SOL    HW233561   2.021   4.635   9.870  0.3648 -0.5717 -0.6168
 7309SOL     OW33562   3.519   0.145   5.550  0.7895  0.2321  0.5159
 7309SOL    HW133563   3.474   0.082   5.607 -1.3098  1.5677  0.3139
 7309SOL    HW233564   3.607   0.105   5.549  0.0550 -1.3999  0.8880
 7310SOL     OW33565   1.619   0.929   5.376  0.5523  0.1192  0.3049
 7310SOL    HW133566   1.595   0.957   5.464  1.4655  0.1111  0.5500
 7310SOL    HW233567   1.547   0.875   5.344  0.2869 -0.6288  2.1678
 7311SOL     OW33568   0.501   0.624   7.487 -0.8074 -0.1730  0.1992
 7311SOL    HW133569   0.502   0.699   7.548 -0.2637 -2.0182  2.4741
 7311SOL    HW233570   0.581   0.577   7.509 -0.1396  1.1761  0.6995
 7312SOL     OW33571   3.605   2.074  15.736 -0.0973  0.8138 -0.1339
 7312SOL    HW133572   3.690   2.097  15.698 -0.0853  0.0592 -0.5575
 7312SOL    HW233573   3.587   1.994  15.687  1.3826 -0.5873  1.6034
 7313SOL     OW33574   1.071   4.017  17.604 -0.6648 -0.0438 -0.3405
 7313SOL    HW133575   0.979   3.998  17.619 -0.4169 -1.6447 -0.8840
 7313SOL    HW233576   1.113   3.949  17.656 -2.1333 -1.5517 -1.1535
 7314SOL     OW33577   3.331   1.800   5.082  0.0810 -0.3813 -0.5932
 7314SOL    HW133578   3.257   1.798   5.021 -1.8861 -1.3159  1.8182
 7314SOL    HW233579   3.389   1.728   5.059  0.2320 -0.4109 -0.1162
 7315SOL     OW33580   0.649   1.571  17.332  0.2479 -0.5068 -0.1625
 7315SOL    HW133581   0.666   1.601  17.421 -0.0101 -1.0816  0.0844
 7315SOL    HW233582   0.706   1.626  17.278 -1.6888  3.7050  2.0795
 7316SOL     OW33583   1.488   4.232   9.815  0.6812 -0.7976 -0.5838
 7316SOL    HW133584   1.529   4.148   9.796 -1.2045 -2.2345  1.7915
 7316SOL    HW233585   1.501   4.278   9.732 -1.2623  0.6131 -0.1026
 7317SOL     OW33586   3.776   2.350   0.431  0.1687  0.5944 -0.1001
 7317SOL    HW133587   3.720   2.406   0.376 -1.1186 -2.0708 -1.5115
 7317SOL    HW233588   3.795   2.280   0.369 -3.5811  0.9480 -1.6492
 7318SOL     OW33589   3.225   1.592   0.644  0.1296  0.1309 -0.6064
 7318SOL    HW133590   3.271   1.548   0.716 -1.7748 -1.5861 -0.4605
 7318SOL    HW233591   3.245   1.524   0.580 -0.2667  0.2097 -0.8137
 7319SOL     OW33592   1.227   1.717  11.075  0.7249  0.1297  0.2217
 7319SOL    HW133593   1.186   1.709  11.161 -1.4814  0.2257 -0.8245
 7319SOL    HW233594   1.231   1.812  11.065  3.0697  0.0545  0.5425
 7320SOL     OW33595   3.925   0.475  14.244 -0.3383  0.4636  0.0417
 7320SOL    HW133596   3.953   0.393  14.204  1.7716  0.0645  2.3535
 7320SOL    HW233597   3.998   0.521  14.284 -2.2246  0.1155  3.9455
 7321SOL     OW33598   4.680   2.530   8.460  0.2733 -0.0863  0.0590
 7321SOL    HW133599   4.671   2.623   8.481 -1.4906 -0.3182  0.3274
 7321SOL    HW233600   4.641   2.519   8.373 -0.8465  1.9484  0.2897
 7322SOL     OW33601   4.125   2.381  11.248  0.3820 -0.3047 -0.1895
 7322SOL    HW133602   4.041   2.426  11.246 -0.3843 -1.6800  1.6192
 7322SOL    HW233603   4.150   2.406  11.337 -3.6598 -1.3675  1.2106
 7323SOL     OW33604   3.962   0.194   8.494 -0.1340 -0.5376 -0.1129
 7323SOL    HW133605   3.890   0.247   8.457 -1.0516 -0.4608  1.7998
 7323SOL    HW233606   3.978   0.125   8.430 -0.5484 -0.3642 -0.4098
 7324SOL     OW33607   0.586   4.128   9.558 -0.3503 -0.4936  0.2695
 7324SOL    HW133608   0.552   4.087   9.478  2.9717 -0.5190 -1.1030
 7324SOL    HW233609   0.532   4.206   9.548  0.8695  0.0354 -1.9014
 7325SOL     OW33610   2.614   1.044   8.399 -0.0689 -0.2287 -0.2260
 7325SOL    HW133611   2.549   0.975   8.413  0.5018 -0.3971  1.5287
 7325SOL    HW233612   2.661   1.038   8.482  0.7593 -0.3473 -0.7137
 7326SOL     OW33613   0.778   3.795   2.419 -0.8110  0.7703  0.4798
 7326SOL    HW133614   0.731   3.728   2.468  0.4551  1.0059  2.0295
 7326SOL    HW233615   0.845   3.738   2.380 -0.1918 -0.5474  3.4771
 7327SOL     OW33616   0.589   0.760  10.580 -0.1502  0.1698 -0.4375
 7327SOL    HW133617   0.646   0.720  10.647 -0.4183 -0.3000 -0.4950
 7327SOL    HW233618   0.551   0.681  10.543 -0.9361  0.7372 -0.8361
 7328SOL     OW33619   0.452   2.475   6.390 -1.1829 -0.1753  0.0666
 7328SOL    HW133620   0.528   2.418   6.402 -0.5418  1.0720  1.9604
 7328SOL    HW233621   0.448   2.521   6.474  0.2679 -0.1256  0.1027
 7329SOL     OW33622   4.264   0.131   6.511  0.5771  0.1288 -0.5879
 7329SOL    HW133623   4.333   0.146   6.447 -1.2376 -0.4783 -2.7050
 7329SOL    HW233624   4.302   0.171   6.589  1.3606 -1.0762 -0.3496
 7330SOL     OW33625   3.646   0.205   3.702 -0.0576  0.7636  0.3852
 7330SOL    HW133626   3.576   0.250   3.749  0.7169 -0.9116  3.0696
 7330SOL    HW233627   3.687   0.165   3.778  1.4989 -1.0103 -1.3904
 7331SOL     OW33628   3.874   1.893   2.757  0.5251 -0.2354 -0.0343
 7331SOL    HW133629   3.871   1.798   2.744  1.1857 -0.2115 -0.3462
 7331SOL    HW233630   3.818   1.921   2.685 -1.1782 -2.5996  0.3546
 7332SOL     OW33631   3.442   2.391  16.883  0.2512 -0.2095 -0.1297
 7332SOL    HW133632   3.384   2.437  16.823 -1.8184 -1.8445  0.6281
 7332SOL    HW233633   3.509   2.353  16.825  1.1239 -0.1860  0.8523
 7333SOL     OW33634   0.069   4.677   4.429  0.6922 -0.0181 -0.0233
 7333SOL    HW133635   0.037   4.588   4.436 -1.1127  0.6008 -0.5147
 7333SOL    HW233636   0.061   4.703   4.521 -0.5178  3.3565 -1.0798
 7334SOL     OW33637   1.215   2.042   8.475 -0.1841  0.2486 -0.0916
 7334SOL    HW133638   1.163   2.025   8.553  0.8168  2.8400  1.1118
 7334SOL    HW233639   1.149   2.017   8.410 -3.8554  1.1833  3.2895
 7335SOL     OW33640   3.847   1.875   1.647  0.1527 -0.3694  0.0949
 7335SOL    HW133641   3.877   1.898   1.559  1.2055 -1.1282  0.2499
 7335SOL    HW233642   3.902   1.937   1.695  0.4787  0.2616 -1.1072
 7336SOL     OW33643   2.549   3.864   2.215 -0.2012 -0.0262 -0.1119
 7336SOL    HW133644   2.605   3.796   2.254  0.6335 -0.2508 -1.7152
 7336SOL    HW233645   2.560   3.937   2.276  1.7260 -1.7918  1.6645
 7337SOL     OW33646   4.000   0.262   4.581  0.2390 -0.7178  0.0742
 7337SOL    HW133647   3.970   0.350   4.603 -3.8256 -2.3669  1.2034
 7337SOL    HW233648   3.994   0.212   4.663  0.6489  0.4779  0.8282
 7338SOL     OW33649   1.673   3.102   2.803  0.0718 -0.8502 -0.5441
 7338SOL    HW133650   1.678   3.035   2.736  1.8964  0.1252 -1.3655
 7338SOL    HW233651   1.584   3.093   2.839  0.0951 -1.8511 -0.7599
 7339SOL     OW33652   1.934   1.062  12.160  0.5949  0.0460 -0.2425
 7339SOL    HW133653   2.012   1.009  12.173 -0.0440 -1.1273 -1.2006
 7339SOL    HW233654   1.962   1.148  12.193 -0.3703  0.6355 -0.9347
 7340SOL     OW33655   4.387   0.339   7.455 -0.4619 -0.3879 -0.1389
 7340SOL    HW133656   4.344   0.377   7.377 -0.1254 -0.6370 -0.4435
 7340SOL    HW233657   4.366   0.246   7.451 -0.9021 -0.2902 -0.1479
 7341SOL     OW33658   0.946   3.248  16.506  0.0027 -0.5700  0.4096
 7341SOL    HW133659   1.023   3.200  16.475  0.9755  0.2351  1.5576
 7341SOL    HW233660   0.870   3.198  16.478 -1.2606  1.1411  0.7461
 7342SOL     OW33661   2.968   2.453   8.254  0.7121  0.4682  0.4977
 7342SOL    HW133662   2.880   2.469   8.219  0.4932  0.9098  1.2647
 7342SOL    HW233663   3.017   2.417   8.179 -1.4463  1.2595 -1.3041
 7343SOL     OW33664   2.522   1.491   7.798  0.7182 -0.2155  0.4249
 7343SOL    HW133665   2.615   1.493   7.775  0.8729 -0.2241  1.0523
 7343SOL    HW233666   2.528   1.541   7.879 -0.4170 -0.8900  0.9338
 7344SOL     OW33667   1.553   1.343   5.577 -0.4902  0.0164 -0.5719
 7344SOL    HW133668   1.502   1.278   5.527 -1.9887  1.2283 -0.6207
 7344SOL    HW233669   1.545   1.289   5.657  0.2891 -1.0832 -1.2455
 7345SOL     OW33670   4.309   3.788   4.300 -0.2688 -0.2602  0.2691
 7345SOL    HW133671   4.325   3.832   4.217  1.8661 -2.0160 -0.2562
 7345SOL    HW233672   4.370   3.715   4.286 -0.8143 -0.4810 -0.9358
 7346SOL     OW33673   2.157   3.394   2.507  0.4683 -0.5483  0.5004
 7346SOL    HW133674   2.147   3.443   2.426  2.0470 -1.9871 -0.5446
 7346SOL    HW233675   2.126   3.457   2.572 -0.4581  0.9463 -1.4050
 7347SOL     OW33676   4.584   1.690  16.492  0.5077  0.4950  0.0785
 7347SOL    HW133677   4.568   1.646  16.575 -1.9042 -1.2171 -1.2677
 7347SOL    HW233678   4.498   1.707  16.452 -0.2786 -0.6500  1.2993
 7348SOL     OW33679   4.540   3.384   8.371 -0.1723 -0.0273 -0.0910
 7348SOL    HW133680   4.631   3.411   8.358 -0.5054  1.8591  1.3330
 7348SOL    HW233681   4.493   3.428   8.300 -0.6553  0.4960  0.5475
 7349SOL     OW33682   3.448   4.087   3.660 -0.1499 -0.3495 -0.7842
 7349SOL    HW133683   3.429   4.178   3.636  0.3841 -0.3099 -1.0545
 7349SOL    HW233684   3.531   4.082   3.612 -0.5605  0.2506 -1.5506
 7350SOL     OW33685   3.872   1.495   3.263  0.1785 -0.4251 -0.6858
 7350SOL    HW133686   3.880   1.531   3.175  0.2144  1.2729  0.0146
 7350SOL    HW233687   3.911   1.407   3.263 -1.6460 -1.2548  1.1247
 7351SOL     OW33688   3.541   3.255   8.188 -0.4613  0.2320  0.7179
 7351SOL    HW133689   3.513   3.338   8.150 -2.5396 -0.3343  1.0592
 7351SOL    HW233690   3.467   3.233   8.244  0.7034  1.6242  2.7681
 7352SOL     OW33691   4.192   1.254   9.466  0.1127  0.0212 -0.1645
 7352SOL    HW133692   4.233   1.172   9.437  2.4126  1.6425 -1.4520
 7352SOL    HW233693   4.249   1.277   9.539  0.7351 -0.3807 -0.5202
 7353SOL     OW33694   0.008   1.280  10.217 -0.5099  0.0981 -0.5520
 7353SOL    HW133695   4.703   1.193  10.220  0.7208 -0.4416 -0.4112
 7353SOL    HW233696   4.686   1.316  10.286  1.2692  0.8548  0.5092
 7354SOL     OW33697   4.345   2.573   9.503  0.3691  0.1475  0.5047
 7354SOL    HW133698   4.340   2.522   9.584  0.1755 -0.2786  0.2274
 7354SOL    HW233699   4.274   2.634   9.521 -0.7117 -1.3337  1.2723
 7355SOL     OW33700   0.078   4.156   4.972 -0.1246  0.0525 -0.1275
 7355SOL    HW133701   0.056   4.063   4.974 -0.8757  0.2067 -1.2451
 7355SOL    HW233702   0.054   4.185   5.060  0.3719 -0.0041  0.0237
 7356SOL     OW33703   3.359   4.362   6.487 -0.1804  0.0128  0.1346
 7356SOL    HW133704   3.329   4.374   6.577 -1.8509  0.6702 -0.5185
 7356SOL    HW233705   3.318   4.435   6.440  1.7262  0.4629 -0.8170
 7357SOL     OW33706   0.575   2.308  17.255  0.4856  0.1355  0.1258
 7357SOL    HW133707   0.599   2.369  17.185  2.9529 -0.7468  0.2114
 7357SOL    HW233708   0.655   2.266  17.286 -1.3641 -1.6228  2.5134
 7358SOL     OW33709   3.965   1.225   3.253  0.7925  0.5045  0.4248
 7358SOL    HW133710   3.917   1.157   3.204 -0.8957  1.8653  0.2013
 7358SOL    HW233711   4.024   1.251   3.182 -1.1555 -0.4721 -1.5435
 7359SOL     OW33712   4.162   3.912   2.507  0.3544  0.3086 -0.2408
 7359SOL    HW133713   4.211   3.859   2.444 -0.2015 -0.4875  0.0010
 7359SOL    HW233714   4.198   3.887   2.592  0.8102 -1.2640 -0.9026
 7360SOL     OW33715   2.470   3.255  12.381  0.4233 -0.2289 -0.4805
 7360SOL    HW133716   2.514   3.172  12.364 -1.2952 -1.5232  1.5299
 7360SOL    HW233717   2.467   3.289  12.291  1.3471  1.8464  0.2828
 7361SOL     OW33718   4.259   3.105   0.294 -0.7473  0.0599 -0.0283
 7361SOL    HW133719   4.220   3.029   0.250 -4.3423  1.3608  0.8523
 7361SOL    HW233720   4.238   3.086   0.386  0.4210 -1.3620 -0.0656
 7362SOL     OW33721   2.228   0.675   6.010  0.0088  0.3649 -0.5839
 7362SOL    HW133722   2.288   0.738   5.971  0.2131  1.6698  1.8311
 7362SOL    HW233723   2.148   0.728   6.018 -0.3269 -0.2584  0.2788
 7363SOL     OW33724   3.251   1.723   9.200  0.6524  0.6206 -0.2158
 7363SOL    HW133725   3.344   1.704   9.193  0.2378 -1.9490  1.3961
 7363SOL    HW233726   3.252   1.817   9.178 -0.2386  0.9079  0.9853
 7364SOL     OW33727   1.132   2.525   8.339  0.0695 -0.5419 -0.2626
 7364SOL    HW133728   1.159   2.590   8.274  0.3829  2.1652  2.5397
 7364SOL    HW233729   1.086   2.459   8.288  0.2529 -1.1233  0.3235
 7365SOL     OW33730   3.375   0.088  16.992 -0.4072 -0.5509 -0.1464
 7365SOL    HW133731   3.450   0.140  16.963 -0.1817  0.3971  2.1656
 7365SOL    HW233732   3.365   0.122  17.081  1.6058 -2.8842  0.9714
 7366SOL     OW33733   1.446   2.215   7.063 -0.1646  0.5843 -0.6204
 7366SOL    HW133734   1.366   2.248   7.023 -0.4780  1.0142  0.3675
 7366SOL    HW233735   1.449   2.234   7.157  1.2234 -0.8909 -0.3555
 7367SOL     OW33736   0.851   1.714   6.572 -0.2501  0.0536 -0.2261
 7367SOL    HW133737   0.818   1.625   6.562 -3.3492  1.0603  0.9190
 7367SOL    HW233738   0.927   1.723   6.515 -1.1250  0.7558 -1.2731
 7368SOL     OW33739   1.100   4.091   3.980  0.5054  0.2793 -0.2565
 7368SOL    HW133740   1.169   4.079   4.046 -0.8790 -0.7792  0.9920
 7368SOL    HW233741   1.046   4.167   4.001  1.4423  1.4364 -1.9855
 7369SOL     OW33742   0.486   4.309   6.838  0.0051  0.1848 -1.1024
 7369SOL    HW133743   0.531   4.271   6.763 -0.0026  0.5493 -1.2896
 7369SOL    HW233744   0.488   4.238   6.903  0.2992  1.3398  0.1349
 7370SOL     OW33745   3.169   3.883   7.768 -0.1251 -0.0176 -0.5436
 7370SOL    HW133746   3.174   3.934   7.687  2.2700 -0.0432 -0.4205
 7370SOL    HW233747   3.180   3.798   7.725 -0.8096 -0.5031  0.2315
 7371SOL     OW33748   0.377   2.587   2.998 -0.3443  0.4752 -0.1947
 7371SOL    HW133749   0.376   2.607   2.904 -0.1553  2.4157  0.2127
 7371SOL    HW233750   0.339   2.499   3.006 -1.7461  1.2544  1.7450
 7372SOL     OW33751   1.175   2.312   7.158  0.9359  0.2407 -0.1094
 7372SOL    HW133752   1.193   2.393   7.111  0.6122  0.3548 -0.0362
 7372SOL    HW233753   1.232   2.320   7.234 -0.2732  1.3443  0.6639
 7373SOL     OW33754   2.285   1.449   8.883 -0.1164 -0.2233 -0.4064
 7373SOL    HW133755   2.328   1.424   8.802 -1.0768 -1.7712 -0.4433
 7373SOL    HW233756   2.225   1.521   8.866  0.1670 -0.3509 -1.9275
 7374SOL     OW33757   3.300   1.452   1.242 -0.0153  0.0894 -0.1727
 7374SOL    HW133758   3.320   1.424   1.331  1.2760  1.1918 -0.1124
 7374SOL    HW233759   3.350   1.390   1.190 -1.4356  0.9284 -2.5685
 7375SOL     OW33760   0.705   0.725   1.935 -0.2709  0.2592  0.1695
 7375SOL    HW133761   0.786   0.761   1.898 -1.0727  2.0491  0.1494
 7375SOL    HW233762   0.674   0.660   1.872 -1.1202 -0.6133  1.5125
 7376SOL     OW33763   3.419   2.975  14.670  0.4435  0.4230 -0.0022
 7376SOL    HW133764   3.467   2.908  14.719 -1.7365 -0.6087  0.7327
 7376SOL    HW233765   3.470   2.973  14.588  0.5243  1.6409  0.0317
 7377SOL     OW33766   2.766   4.244   1.764 -0.3771 -0.1868  0.3628
 7377SOL    HW133767   2.775   4.262   1.857  0.0270  0.2160  0.2504
 7377SOL    HW233768   2.854   4.265   1.733 -1.7037  2.4349 -1.5820
 7378SOL     OW33769   2.163   2.077   7.083  0.3666  0.2110 -0.3749
 7378SOL    HW133770   2.192   2.160   7.045 -3.5354  1.9116  0.3507
 7378SOL    HW233771   2.108   2.041   7.013 -2.4385 -1.9346  2.9640
 7379SOL     OW33772   3.186   0.363   3.943  0.0417 -0.1624  0.2595
 7379SOL    HW133773   3.175   0.349   4.037  2.1289  1.8025  0.8074
 7379SOL    HW233774   3.164   0.454   3.924  5.1496  1.3250  1.5118
 7380SOL     OW33775   2.850   3.251   1.861  0.1240  0.1524 -0.0983
 7380SOL    HW133776   2.782   3.290   1.807 -2.0886 -0.7775  2.0005
 7380SOL    HW233777   2.870   3.164   1.824  1.3008 -0.3647  1.7606
 7381SOL     OW33778   1.103   3.210   2.956 -0.3427  0.1293 -0.0187
 7381SOL    HW133779   1.193   3.231   2.932  0.3338 -1.0995  1.4334
 7381SOL    HW233780   1.116   3.116   2.967  1.5051  0.3084 -0.6478
 7382SOL     OW33781   0.288   4.681  16.422 -0.4122 -0.0362 -0.2622
 7382SOL    HW133782   0.245   4.633  16.493 -2.2353 -2.0111 -2.7014
 7382SOL    HW233783   0.371   4.706  16.462 -0.7034  0.3763  0.0785
 7383SOL     OW33784   3.104   0.278   7.104 -0.1963 -0.4285  0.3733
 7383SOL    HW133785   3.177   0.325   7.063  1.1655 -1.0786  2.0019
 7383SOL    HW233786   3.075   0.352   7.158 -1.6071  1.2563 -2.6737
 7384SOL     OW33787   1.816   2.807   7.090  0.3246  0.3159 -0.3104
 7384SOL    HW133788   1.805   2.902   7.078  2.4337  0.8251  1.6491
 7384SOL    HW233789   1.762   2.772   7.020 -0.2662  2.3102 -0.8642
 7385SOL     OW33790   4.021   0.214  14.092 -0.8140  0.1460  0.1032
 7385SOL    HW133791   4.086   0.233  14.023 -0.0447  1.5561  1.2177
 7385SOL    HW233792   4.018   0.119  14.086  1.0294  0.1556 -1.0049
 7386SOL     OW33793   0.644   3.214   3.651  0.1444 -0.1329  0.1746
 7386SOL    HW133794   0.721   3.228   3.595  1.0963 -1.3385  1.1767
 7386SOL    HW233795   0.605   3.300   3.637 -0.7267 -0.5884 -0.1846
 7387SOL     OW33796   3.057   3.298   6.369 -0.5105 -0.5715  0.1329
 7387SOL    HW133797   3.058   3.381   6.416 -0.1765 -0.5348  0.0628
 7387SOL    HW233798   2.991   3.313   6.301  1.4787  0.3036 -1.6054
 7388SOL     OW33799   4.171   1.318   7.338  0.8888 -0.6072  0.0011
 7388SOL    HW133800   4.237   1.324   7.269 -0.4163 -0.5506 -1.2559
 7388SOL    HW233801   4.124   1.237   7.320 -0.6162  0.4030 -0.5956
 7389SOL     OW33802   1.538   3.737   5.280 -0.0065  0.2977  0.0860
 7389SOL    HW133803   1.556   3.711   5.190  3.6541 -0.8170  1.1387
 7389SOL    HW233804   1.621   3.726   5.326  0.7550  0.2344 -1.3232
 7390SOL     OW33805   0.113   1.936  14.240 -0.3613  0.2136  0.3991
 7390SOL    HW133806   0.110   1.949  14.145 -1.1133 -3.0963 -0.0122
 7390SOL    HW233807   0.145   2.024  14.263 -0.7026 -0.2138  2.4990
 7391SOL     OW33808   4.572   1.417   8.591 -0.7322  0.2898 -0.2348
 7391SOL    HW133809   4.478   1.431   8.584 -0.4824  0.2683 -3.9293
 7391SOL    HW233810   4.612   1.483   8.534  0.5123 -0.0402  0.2374
 7392SOL     OW33811   3.763   1.024   1.791 -0.1183 -0.1664  0.0657
 7392SOL    HW133812   3.756   1.119   1.776 -0.1344 -0.1570  0.1305
 7392SOL    HW233813   3.857   1.013   1.805 -0.1991  0.3773  1.0901
 7393SOL     OW33814   0.183   0.003   1.843 -0.0203  0.5235  0.4112
 7393SOL    HW133815   0.215   0.068   1.780  0.6421 -0.6578 -0.4604
 7393SOL    HW233816   0.161   0.057   1.919 -1.1470  1.6763 -0.7375
 7394SOL     OW33817   0.128   1.849  13.026 -0.6302  0.5638  0.2631
 7394SOL    HW133818   0.126   1.795  13.105  1.2414 -0.5638 -0.4769
 7394SOL    HW233819   0.039   1.831  12.996 -0.6244 -1.3487  1.4026
 7395SOL     OW33820   4.128   1.461  16.437  0.4251 -0.0902  0.4717
 7395SOL    HW133821   4.186   1.454  16.361 -1.3594 -1.4178 -0.7807
 7395SOL    HW233822   4.110   1.554  16.447 -1.6622 -0.0984 -3.1968
 7396SOL     OW33823   4.364   1.497  14.630  0.3888  0.4187 -0.3488
 7396SOL    HW133824   4.455   1.495  14.658  0.5131  0.3589 -0.7518
 7396SOL    HW233825   4.362   1.436  14.556  2.1557 -0.0507  0.0068
 7397SOL     OW33826   2.558   1.073   9.075 -0.4669 -0.6566  0.0380
 7397SOL    HW133827   2.573   1.155   9.026  0.6335 -0.6436  0.3919
 7397SOL    HW233828   2.646   1.054   9.106  0.0542 -0.0064 -1.0096
 7398SOL     OW33829   2.047   1.793   5.492  0.1010  0.2074  0.2232
 7398SOL    HW133830   2.131   1.747   5.491 -0.6050 -1.0633 -0.2742
 7398SOL    HW233831   1.986   1.726   5.522  0.0407 -0.7389 -1.9970
 7399SOL     OW33832   1.999   0.945  12.480 -0.0027  0.2394  0.2754
 7399SOL    HW133833   1.942   1.011  12.440  0.8088  0.1894 -0.9923
 7399SOL    HW233834   2.058   0.920  12.408 -0.1966  0.1411  0.1505
 7400SOL     OW33835   2.878   2.406   5.804 -0.1360  0.4392  0.2131
 7400SOL    HW133836   2.933   2.413   5.726  1.0846  0.0337  1.0244
 7400SOL    HW233837   2.944   2.421   5.872 -0.5033 -1.6770  1.0583
 7401SOL     OW33838   0.690   0.483   5.491  0.1899  0.2086  0.1472
 7401SOL    HW133839   0.770   0.537   5.489  0.4879 -0.1936  1.1722
 7401SOL    HW233840   0.619   0.543   5.514  1.2634  3.0839 -3.9607
 7402SOL     OW33841   2.533   3.993   1.929  0.5752  0.7567 -0.8568
 7402SOL    HW133842   2.549   3.914   1.878  2.1744 -0.0092  0.8153
 7402SOL    HW233843   2.523   3.964   2.020 -1.3300  2.6434 -0.4653
 7403SOL     OW33844   3.063   0.548   7.483 -0.5107  1.0406 -0.0651
 7403SOL    HW133845   2.996   0.479   7.484  0.7354 -0.1321  2.3720
 7403SOL    HW233846   3.123   0.523   7.553  0.6848  2.0732 -0.7295
 7404SOL     OW33847   4.717   0.884   4.732  0.4243  0.0021 -0.1944
 7404SOL    HW133848   4.685   0.794   4.724 -2.4667  1.1653 -1.5909
 7404SOL    HW233849   4.682   0.902   4.819  0.7282  1.6582 -0.4245
 7405SOL     OW33850   2.168   0.063   1.478  0.2995 -0.0431 -0.2121
 7405SOL    HW133851   2.109   0.123   1.525 -0.1496  0.6531 -1.6446
 7405SOL    HW233852   2.244   0.119   1.462  0.1907  0.4001  0.7902
 7406SOL     OW33853   2.514   3.471   5.332  0.0690  0.2671 -0.5513
 7406SOL    HW133854   2.565   3.396   5.300  1.5314  0.1779  2.0269
 7406SOL    HW233855   2.440   3.457   5.273  0.2279  0.8682 -0.8969
 7407SOL     OW33856   3.236   4.646   2.564  0.2900 -0.0198  0.6565
 7407SOL    HW133857   3.321   4.687   2.546  0.6974 -1.4957 -0.7258
 7407SOL    HW233858   3.261   4.555   2.552  0.0529  0.1565 -1.1007
 7408SOL     OW33859   2.726   4.221   1.131  0.2173 -0.4210 -0.8822
 7408SOL    HW133860   2.656   4.164   1.164  1.9491 -2.4750 -0.8059
 7408SOL    HW233861   2.715   4.289   1.197  0.5457  0.2787 -1.5539
 7409SOL     OW33862   2.398   2.030  12.107 -0.4787  0.4142 -0.5973
 7409SOL    HW133863   2.302   2.031  12.101 -0.3725 -4.2505 -3.0835
 7409SOL    HW233864   2.397   2.043  12.201  0.3696  0.6002 -0.6187
 7410SOL     OW33865   0.166   2.413  14.915  0.1634 -0.6319  1.0695
 7410SOL    HW133866   0.261   2.404  14.908  0.1473  0.4320 -0.3765
 7410SOL    HW233867   0.134   2.323  14.905  1.2796 -0.9279  0.0973
 7411SOL     OW33868   3.780   3.406   9.649  0.2648 -0.0449  0.7745
 7411SOL    HW133869   3.720   3.370   9.715  1.3572 -0.2956  1.6459
 7411SOL    HW233870   3.715   3.407   9.579 -0.4245 -0.2902  1.4032
 7412SOL     OW33871   3.580   4.180   8.270  0.0788  0.0479  0.2797
 7412SOL    HW133872   3.491   4.175   8.305  0.7851  1.3457  2.2830
 7412SOL    HW233873   3.628   4.239   8.329 -1.8350  1.7637  0.1295
 7413SOL     OW33874   2.264   1.608   6.278  0.4238 -0.6213 -0.1200
 7413SOL    HW133875   2.347   1.644   6.308  1.5430 -2.5924 -0.7960
 7413SOL    HW233876   2.233   1.560   6.355 -0.9608 -1.5224 -1.2468
 7414SOL     OW33877   2.200   4.509   7.221  0.0845 -0.0521 -0.3689
 7414SOL    HW133878   2.265   4.547   7.162  0.0311 -2.2000 -1.8227
 7414SOL    HW233879   2.168   4.592   7.256 -0.5572  0.5138 -2.3082
 7415SOL     OW33880   2.609   0.442   2.102 -0.1653  0.0670  0.1333
 7415SOL    HW133881   2.566   0.357   2.093 -1.1437  0.6192 -0.3781
 7415SOL    HW233882   2.653   0.440   2.187  0.3782 -1.3691 -0.1899
 7416SOL     OW33883   2.992   1.742   3.088  0.0897  0.0698 -0.1228
 7416SOL    HW133884   2.942   1.701   3.159  0.9788 -1.4656 -0.3748
 7416SOL    HW233885   3.082   1.712   3.104 -1.1260 -2.2949  2.2584
 7417SOL     OW33886   1.646   1.687   8.321  0.2045  0.5300  0.1177
 7417SOL    HW133887   1.690   1.709   8.403 -0.8734 -0.9032  1.0881
 7417SOL    HW233888   1.573   1.749   8.327  1.0048  1.4441  0.2709
 7418SOL     OW33889   1.710   0.840   6.497  0.0615  0.3760  0.1594
 7418SOL    HW133890   1.756   0.821   6.416  1.2459  1.8620  0.4840
 7418SOL    HW233891   1.638   0.891   6.459 -1.9787  0.2527  3.8097
 7419SOL     OW33892   0.852   3.790   1.465 -0.4933  0.2477 -0.1315
 7419SOL    HW133893   0.761   3.765   1.450 -0.9085  1.1341  0.9312
 7419SOL    HW233894   0.908   3.712   1.456  0.3829  0.6559  1.9847
 7420SOL     OW33895   3.280   1.007   2.721  0.2539  0.3341 -0.5723
 7420SOL    HW133896   3.363   0.964   2.738 -0.3279 -0.0611  1.1985
 7420SOL    HW233897   3.219   0.940   2.753  2.3602 -1.0892  0.4248
 7421SOL     OW33898   2.022   2.512  14.271  0.2425  0.3892  0.2426
 7421SOL    HW133899   2.051   2.426  14.241  1.0601 -0.0529  2.2728
 7421SOL    HW233900   2.105   2.560  14.265 -0.6548  1.7786 -0.8633
 7422SOL     OW33901   0.863   4.553  14.652 -0.0644  0.4257 -0.0263
 7422SOL    HW133902   0.782   4.560  14.600 -0.0003 -1.5109 -0.4021
 7422SOL    HW233903   0.824   4.574  14.737 -0.4824 -2.1847  0.4388
 7423SOL     OW33904   3.296   3.668  11.252  0.1064 -1.0500 -0.5550
 7423SOL    HW133905   3.299   3.573  11.246  0.0828 -1.2155  2.1521
 7423SOL    HW233906   3.337   3.692  11.335  0.8528  0.0003 -1.2217
 7424SOL     OW33907   3.662   1.865   2.399 -0.0836  0.0042  0.4294
 7424SOL    HW133908   3.651   1.939   2.460 -1.7366 -0.1558  0.3136
 7424SOL    HW233909   3.753   1.838   2.411  0.3295 -0.2099 -3.2098
 7425SOL     OW33910   0.879   4.381   6.410  0.4590  0.5489 -0.3076
 7425SOL    HW133911   0.829   4.463   6.403 -0.7403 -0.0612  1.3159
 7425SOL    HW233912   0.879   4.350   6.319 -2.8086 -0.4282  0.0403
 7426SOL     OW33913   1.799   2.440   1.190 -0.3673 -0.3612  0.4106
 7426SOL    HW133914   1.881   2.434   1.141  0.6553  2.8423  1.7387
 7426SOL    HW233915   1.739   2.455   1.116  0.4647  0.4445 -0.0925
 7427SOL     OW33916   1.201   0.597  14.945  0.6410 -0.1649 -0.0496
 7427SOL    HW133917   1.194   0.560  15.034  2.6069 -0.8665 -0.1979
 7427SOL    HW233918   1.270   0.663  14.954 -0.2545  0.5736  1.4458
 7428SOL     OW33919   1.868   0.555  14.931 -0.2861  0.0998 -0.2045
 7428SOL    HW133920   1.806   0.617  14.969 -0.4793 -0.2328  0.0185
 7428SOL    HW233921   1.925   0.531  15.004  0.0226 -0.3398 -0.5868
 7429SOL     OW33922   3.529   4.402   4.498  0.0321 -0.0792  0.2138
 7429SOL    HW133923   3.567   4.332   4.445 -0.6249 -1.8422  2.0500
 7429SOL    HW233924   3.576   4.465   4.443  1.9876 -3.6587 -2.2375
 7430SOL     OW33925   3.138   3.063   1.560  0.0189 -0.3253 -0.1355
 7430SOL    HW133926   3.123   3.054   1.466 -0.4064 -0.7080 -0.0325
 7430SOL    HW233927   3.102   2.979   1.587 -0.4083  0.2136  0.9952
 7431SOL     OW33928   0.380   2.563   0.250 -0.1610  0.1589 -0.2969
 7431SOL    HW133929   0.336   2.523   0.325  1.2766 -0.3702  0.2481
 7431SOL    HW233930   0.364   2.658   0.256 -0.9043  0.0551 -0.5253
 7432SOL     OW33931   4.143   1.218   1.439 -0.1627 -0.0275 -0.6385
 7432SOL    HW133932   4.210   1.219   1.508 -0.9869  0.4161  0.1666
 7432SOL    HW233933   4.173   1.139   1.395  0.2990  1.1891 -2.4863
 7433SOL     OW33934   3.776   4.166   7.542  0.0004  0.5351  0.0436
 7433SOL    HW133935   3.869   4.186   7.557 -0.3282  2.2740 -0.2156
 7433SOL    HW233936   3.769   4.161   7.447  0.5260  2.4056 -0.1010
 7434SOL     OW33937   1.926   3.003   2.800  0.3423  0.3389 -0.3640
 7434SOL    HW133938   1.910   2.920   2.756 -0.7160  0.7810 -0.8241
 7434SOL    HW233939   1.841   3.028   2.837  0.2332  1.1973 -1.2058
 7435SOL     OW33940   3.583   2.768   2.477  0.2666 -0.6139 -0.0381
 7435SOL    HW133941   3.543   2.776   2.390  0.6262 -0.2936 -0.1752
 7435SOL    HW233942   3.528   2.816   2.538  0.1748 -0.9559  0.1459
 7436SOL     OW33943   3.808   4.488   9.285 -0.2877  0.3838 -0.0913
 7436SOL    HW133944   3.738   4.439   9.243  1.4552 -2.7610  0.5832
 7436SOL    HW233945   3.856   4.524   9.211 -0.1205  0.0754 -0.1351
 7437SOL     OW33946   3.743   0.817   4.532 -0.3915 -0.3553  0.5043
 7437SOL    HW133947   3.722   0.834   4.624 -1.6865 -2.3874  0.5964
 7437SOL    HW233948   3.799   0.887   4.500 -1.3132 -0.3838 -1.1964
 7438SOL     OW33949   1.538   1.021   7.726 -0.4194  0.1935  0.3062
 7438SOL    HW133950   1.607   0.955   7.734  0.4863  1.0328 -0.5758
 7438SOL    HW233951   1.542   1.045   7.633  0.1738  0.9087  0.5153
 7439SOL     OW33952   3.463   4.633   4.750 -0.0756  0.6325 -0.0789
 7439SOL    HW133953   3.522   4.686   4.696  2.8038 -2.7075 -0.1894
 7439SOL    HW233954   3.379   4.642   4.704  0.5480  1.0763 -1.1263
 7440SOL     OW33955   0.258   0.490   4.997  0.1882 -0.4503  0.1800
 7440SOL    HW133956   0.272   0.521   4.907  1.1571 -0.5747  0.2895
 7440SOL    HW233957   0.313   0.412   4.992 -0.5422 -0.8907 -0.9227
 7441SOL     OW33958   1.524   2.774  12.345  0.0635  0.2104  0.0119
 7441SOL    HW133959   1.576   2.712  12.398 -0.0109  0.6655  0.6183
 7441SOL    HW233960   1.592   2.828  12.306  0.7595 -1.0023 -0.4463
 7442SOL     OW33961   2.422   4.081   2.643 -0.0655 -0.3449  0.1209
 7442SOL    HW133962   2.336   4.045   2.622  0.6043 -0.7977 -1.7913
 7442SOL    HW233963   2.461   4.093   2.557  5.2136 -0.6065  2.5049
 7443SOL     OW33964   0.545   2.162   6.776  0.0836  0.2120 -0.5490
 7443SOL    HW133965   0.635   2.153   6.807 -0.0255  1.9792  0.2744
 7443SOL    HW233966   0.555   2.110   6.696  1.8367 -1.1061  0.5079
 7444SOL     OW33967   0.366   1.841  14.301  0.0091 -0.0768 -0.1240
 7444SOL    HW133968   0.379   1.750  14.275 -0.5312 -0.1831 -0.0221
 7444SOL    HW233969   0.279   1.854  14.264  0.2235  0.7362 -0.3469
 7445SOL     OW33970   0.128   3.850   5.010  0.0742 -0.3063  0.6601
 7445SOL    HW133971   0.113   3.757   4.994 -2.1940  0.7520 -3.2842
 7445SOL    HW233972   0.221   3.858   5.030  0.1894  0.4622 -0.2193
 7446SOL     OW33973   4.216   1.919   6.444 -0.5270 -0.3067  0.3904
 7446SOL    HW133974   4.284   1.936   6.378 -2.4410 -0.6120 -1.6270
 7446SOL    HW233975   4.145   1.977   6.417 -0.4521  0.0144  0.8826
 7447SOL     OW33976   3.853   1.125  11.762 -0.0612 -0.0390  1.0157
 7447SOL    HW133977   3.768   1.082  11.770  0.0026  0.1413  2.5445
 7447SOL    HW233978   3.835   1.217  11.747 -0.1354 -0.5213 -1.9221
 7448SOL     OW33979   1.939   3.347  11.905 -0.3003  0.0369 -0.0262
 7448SOL    HW133980   1.861   3.326  11.853 -0.3639  1.8571 -0.6415
 7448SOL    HW233981   1.966   3.429  11.864 -0.7512  0.8541  1.3051
 7449SOL     OW33982   4.175   0.143  12.271 -0.3643  0.0158  0.4481
 7449SOL    HW133983   4.088   0.183  12.270 -0.1167  0.4619 -2.2873
 7449SOL    HW233984   4.216   0.218  12.313  1.1083 -0.7275  0.3381
 7450SOL     OW33985   1.352   1.168   6.013  0.3836  0.2919 -0.5368
 7450SOL    HW133986   1.292   1.178   5.939 -0.0180 -0.7379 -0.3408
 7450SOL    HW233987   1.416   1.235   5.990  0.5058  0.3485 -0.0248
 7451SOL     OW33988   1.131   1.893  13.890  0.3718  0.2572  0.3523
 7451SOL    HW133989   1.207   1.948  13.871  0.1058  0.2017 -0.8777
 7451SOL    HW233990   1.089   1.884  13.805 -1.3105  4.5391  0.7534
 7452SOL     OW33991   0.863   2.216   8.484 -0.2590 -0.2985 -0.2520
 7452SOL    HW133992   0.782   2.178   8.517  0.8939  0.0652  2.9164
 7452SOL    HW233993   0.837   2.198   8.393  0.1529  0.6503 -0.5596
 7453SOL     OW33994   2.720   4.110   7.879  0.2261  0.6711 -0.0536
 7453SOL    HW133995   2.755   4.091   7.966 -0.6038 -0.9976 -0.0804
 7453SOL    HW233996   2.650   4.175   7.889  1.5180  2.4922 -2.8906
 7454SOL     OW33997   2.072   4.239   1.859 -0.7701  0.4796 -0.6762
 7454SOL    HW133998   2.083   4.198   1.945  0.0446  1.1105 -0.4838
 7454SOL    HW233999   2.051   4.163   1.805  1.8417  0.3073 -1.4343
 7455SOL     OW34000   0.924   0.675   7.130  0.2168  0.0620 -0.1073
 7455SOL    HW134001   0.919   0.592   7.083  1.2420 -0.0772  0.0367
 7455SOL    HW234002   1.016   0.695   7.114  0.9399 -0.7904  2.9738
 7456SOL     OW34003   2.160   2.303  12.601  0.2252 -0.2200 -0.3672
 7456SOL    HW134004   2.182   2.332  12.513 -0.1728 -1.7503 -0.9708
 7456SOL    HW234005   2.237   2.257  12.633  1.4726  1.9889 -0.1997
 7457SOL     OW34006   3.504   0.248  14.370  0.6079 -0.1540  0.4223
 7457SOL    HW134007   3.533   0.315  14.308  0.3152  0.7947  1.3228
 7457SOL    HW234008   3.421   0.217  14.334  0.8558 -0.4890  0.1399
 7458SOL     OW34009   1.383   4.087  11.576 -0.4602 -0.9111  0.3307
 7458SOL    HW134010   1.413   4.152  11.639  0.1434  0.6586 -1.5747
 7458SOL    HW234011   1.289   4.088  11.594 -0.1322 -0.8501  1.9807
 7459SOL     OW34012   1.103   0.564   2.988  0.4275 -0.3681 -0.3432
 7459SOL    HW134013   1.175   0.532   3.043 -0.1672  0.2107  0.7818
 7459SOL    HW234014   1.066   0.631   3.046  0.9848 -1.7276  1.6100
 7460SOL     OW34015   0.596   4.520   8.103 -0.0381  0.2906  0.5329
 7460SOL    HW134016   0.533   4.501   8.173 -0.3225 -1.2719 -0.1583
 7460SOL    HW234017   0.540   4.545   8.029  0.1163 -1.5387 -0.1970
 7461SOL     OW34018   0.874   1.639  17.190  0.2017  0.0798 -0.4518
 7461SOL    HW134019   0.920   1.679  17.116 -0.4059  0.2015 -0.7581
 7461SOL    HW234020   0.909   1.550  17.179 -0.9741 -0.4399  0.0103
 7462SOL     OW34021   3.213   0.300  10.881  0.1737  0.5626 -0.1888
 7462SOL    HW134022   3.214   0.354  10.802 -1.4366 -1.6489 -1.7401
 7462SOL    HW234023   3.305   0.287  10.906  0.2047  2.4858  0.6756
 7463SOL     OW34024   1.592   1.419   5.224  1.0753 -0.5882 -0.0218
 7463SOL    HW134025   1.612   1.329   5.251  1.2800 -0.7232 -0.6050
 7463SOL    HW234026   1.587   1.415   5.128  0.8355 -0.8426 -0.0000
 7464SOL     OW34027   3.344   4.180   4.915  0.2028 -0.1227 -0.2488
 7464SOL    HW134028   3.376   4.100   4.873  1.2241 -0.4893  1.2350
 7464SOL    HW234029   3.425   4.231   4.911  0.3241 -0.2893  0.0145
 7465SOL     OW34030   0.029   2.713   6.404 -0.3571  0.1789  0.2731
 7465SOL    HW134031   0.120   2.728   6.429 -0.4051 -0.5964  0.9363
 7465SOL    HW234032   0.041   2.715   6.309  0.7838 -1.6004  0.3670
 7466SOL     OW34033   1.858   1.372  13.974  0.5774 -0.3637  0.6133
 7466SOL    HW134034   1.850   1.278  13.988 -0.1154 -0.5892 -1.2130
 7466SOL    HW234035   1.925   1.398  14.036 -0.2821  0.7196  1.0874
 7467SOL     OW34036   3.421   2.496   4.742  0.0976 -0.0994 -0.7130
 7467SOL    HW134037   3.413   2.467   4.651 -1.0362 -1.7343 -0.1021
 7467SOL    HW234038   3.373   2.578   4.732  1.6537  1.1162  1.7696
 7468SOL     OW34039   3.242   3.286   6.159 -0.2995 -0.0668  0.0984
 7468SOL    HW134040   3.195   3.369   6.160 -2.8079 -1.4604  0.0370
 7468SOL    HW234041   3.180   3.237   6.214  0.1883 -1.1236 -0.3014
 7469SOL     OW34042   2.736   0.647  11.162  0.1429 -0.5622  0.5098
 7469SOL    HW134043   2.785   0.663  11.243  0.8243 -3.7561  0.7348
 7469SOL    HW234044   2.676   0.721  11.168 -0.7516 -1.3255  0.9431
 7470SOL     OW34045   2.089   0.529   9.057  0.2210 -0.4230 -0.2943
 7470SOL    HW134046   2.106   0.526   9.151  2.9419 -2.6551 -0.8423
 7470SOL    HW234047   2.088   0.624   9.040  0.3463 -0.2185  0.8870
 7471SOL     OW34048   2.750   3.518   2.176  0.4126 -0.5983  0.1690
 7471SOL    HW134049   2.819   3.584   2.188 -0.0868  0.2624 -1.6145
 7471SOL    HW234050   2.676   3.550   2.228  0.9374 -1.2425  1.3089
 7472SOL     OW34051   0.756   0.642  15.818 -0.0806 -0.2518 -0.5001
 7472SOL    HW134052   0.697   0.661  15.745  1.7702  0.2430 -1.8413
 7472SOL    HW234053   0.692   0.637  15.889 -0.5944  0.7873 -0.9013
 7473SOL     OW34054   0.645   0.372   5.243  0.0741  0.4851  0.0674
 7473SOL    HW134055   0.569   0.420   5.275  1.1657  2.7141 -0.7078
 7473SOL    HW234056   0.711   0.420   5.295  0.7808  1.0105 -1.3206
 7474SOL     OW34057   1.874   0.820   7.482 -0.4819 -0.4527  0.5211
 7474SOL    HW134058   1.837   0.752   7.427 -1.1953 -0.7785  1.4031
 7474SOL    HW234059   1.968   0.810   7.473 -0.4960  0.2731 -0.4319
 7475SOL     OW34060   2.551   0.496   2.816 -0.3898 -0.9733 -0.3055
 7475SOL    HW134061   2.507   0.467   2.736 -0.0395 -3.3700  0.3680
 7475SOL    HW234062   2.641   0.468   2.805  0.1864  1.1908 -1.0392
 7476SOL     OW34063   2.607   1.271   2.617  0.1425 -0.1888 -0.3080
 7476SOL    HW134064   2.552   1.348   2.603  0.3326  0.1811  0.9051
 7476SOL    HW234065   2.552   1.217   2.674 -0.3470  0.9378  0.2805
 7477SOL     OW34066   3.068   2.512   8.943  0.2778  0.2548  0.1687
 7477SOL    HW134067   3.096   2.548   8.860  1.0306  0.2582  0.4225
 7477SOL    HW234068   3.097   2.421   8.932 -1.2093 -0.2029  0.0914
 7478SOL     OW34069   3.923   4.520   6.843 -0.1239  0.0939 -0.4104
 7478SOL    HW134070   3.969   4.517   6.759 -1.5089 -1.6814 -1.0920
 7478SOL    HW234071   3.893   4.430   6.847 -0.3420  0.1609 -0.5248
 7479SOL     OW34072   0.876   2.372   4.169  0.0004 -0.1064  0.2476
 7479SOL    HW134073   0.893   2.339   4.081 -1.4325 -0.4256  0.0865
 7479SOL    HW234074   0.792   2.330   4.189 -1.5080  2.7813 -0.0266
 7480SOL     OW34075   0.551   2.453   9.408  0.0325  0.4112 -0.0302
 7480SOL    HW134076   0.634   2.484   9.370  0.4419 -0.5862  0.0570
 7480SOL    HW234077   0.496   2.520   9.367  0.4977 -0.7967 -2.6207
 7481SOL     OW34078   0.621   2.939   6.796  0.2591  0.3339  0.7106
 7481SOL    HW134079   0.589   2.954   6.707  1.8818 -1.1440 -0.1274
 7481SOL    HW234080   0.554   2.983   6.849  1.0906  3.4881 -0.8626
 7482SOL     OW34081   3.150   3.013  14.787  0.2413  0.2796 -0.1374
 7482SOL    HW134082   3.097   2.997  14.710  0.0432  1.7212 -0.3067
 7482SOL    HW234083   3.236   2.989  14.752 -0.0438  0.4491 -0.9522
 7483SOL     OW34084   3.255   0.898   3.156 -0.5602 -0.4336  0.0752
 7483SOL    HW134085   3.254   0.970   3.220 -0.0812 -0.4130  0.0611
 7483SOL    HW234086   3.201   0.831   3.198  1.2833 -2.1204 -0.2693
 7484SOL     OW34087   2.590   1.568   6.484  0.3760 -0.0804 -0.2694
 7484SOL    HW134088   2.559   1.613   6.562  0.3761  1.7920 -1.3535
 7484SOL    HW234089   2.546   1.624   6.420  1.6440  0.6009 -0.5399
 7485SOL     OW34090   3.786   1.856   3.782 -0.2363 -0.6338 -0.0615
 7485SOL    HW134091   3.875   1.822   3.789 -0.1008  0.3037  2.7271
 7485SOL    HW234092   3.742   1.787   3.831  1.2696 -2.1596 -0.8904
 7486SOL     OW34093   3.269   4.429   9.517 -0.7048 -0.0550  0.1137
 7486SOL    HW134094   3.216   4.383   9.583  0.1618  1.3516  1.7804
 7486SOL    HW234095   3.274   4.512   9.565  1.2790 -1.5420  2.4575
 7487SOL     OW34096   2.937   0.660   0.823 -0.0264 -0.0879  0.7023
 7487SOL    HW134097   3.002   0.615   0.769  0.6207  0.8522  0.7030
 7487SOL    HW234098   2.861   0.602   0.813  1.1034 -1.5003  0.2637
 7488SOL     OW34099   0.616   3.422  10.048  0.1305 -0.3959 -0.0525
 7488SOL    HW134100   0.528   3.422  10.010  0.6233 -0.5078 -1.1986
 7488SOL    HW234101   0.675   3.412   9.973  1.3838 -0.1534  0.8874
 7489SOL     OW34102   3.848   0.697   7.705 -0.2565 -0.1523 -0.5352
 7489SOL    HW134103   3.823   0.624   7.649  0.6491 -0.6139 -0.3474
 7489SOL    HW234104   3.787   0.694   7.779  2.5990  1.2954  1.8764
 7490SOL     OW34105   0.732   2.277   9.006 -0.2098  0.1010  0.1356
 7490SOL    HW134106   0.786   2.340   8.958  0.4766 -0.1176  0.6282
 7490SOL    HW234107   0.761   2.197   8.963  0.3209 -1.0779  2.7289
 7491SOL     OW34108   3.975   1.760   8.812  0.1899 -0.0418 -0.3579
 7491SOL    HW134109   4.024   1.809   8.746 -1.6935  0.7611 -1.1588
 7491SOL    HW234110   4.046   1.711   8.852  0.8227  0.9187 -0.2954
 7492SOL     OW34111   2.837   2.533   9.970  0.2531 -0.1089  0.1400
 7492SOL    HW134112   2.881   2.520  10.054 -0.6877  1.7281  0.9114
 7492SOL    HW234113   2.772   2.598   9.997  2.0326  2.3291 -1.4700
 7493SOL     OW34114   2.282   1.592   3.450  0.2137  0.4110 -0.2408
 7493SOL    HW134115   2.366   1.631   3.476 -0.0864 -0.6457  2.3102
 7493SOL    HW234116   2.319   1.518   3.401 -0.5556  0.1489 -0.4194
 7494SOL     OW34117   0.589   2.068   7.959  0.2356  0.0097  0.2107
 7494SOL    HW134118   0.535   1.995   7.929  2.2330 -0.7344 -1.5605
 7494SOL    HW234119   0.668   2.046   7.910 -0.1068  0.4853 -0.5610
 7495SOL     OW34120   3.744   2.398   7.289  0.3555 -0.8920 -0.1015
 7495SOL    HW134121   3.747   2.362   7.201 -0.1576 -0.3050 -0.3593
 7495SOL    HW234122   3.649   2.389   7.302 -0.0137  0.2966 -2.0560
 7496SOL     OW34123   3.877   4.725   9.664 -0.1474 -0.0023  0.4697
 7496SOL    HW134124   3.970   4.710   9.647  0.1877  2.3651  0.1611
 7496SOL    HW234125   3.843   4.648   9.709 -0.5338 -0.7986 -1.1710
 7497SOL     OW34126   3.356   2.749   4.683  0.5492  0.4488  0.4311
 7497SOL    HW134127   3.344   2.780   4.594  1.4681  0.5244  0.3317
 7497SOL    HW234128   3.273   2.783   4.716 -0.5689 -2.2265  0.3470
 7498SOL     OW34129   3.764   1.916   0.677 -0.0411 -0.0997  0.4612
 7498SOL    HW134130   3.704   1.907   0.602 -0.1301 -0.7897  0.6184
 7498SOL    HW234131   3.844   1.878   0.641 -0.3876 -1.0929  0.7460
 7499SOL     OW34132   2.834   4.710   8.735 -0.0335  0.6911 -0.5575
 7499SOL    HW134133   2.777   0.044   8.700 -2.2962 -1.5061 -1.1631
 7499SOL    HW234134   2.804   4.710   8.826  0.1394 -0.7239 -0.4976
 7500SOL     OW34135   2.190   2.068   2.574  0.3044  0.0221 -0.2473
 7500SOL    HW134136   2.146   2.140   2.529  0.2348  0.7040  0.9270
 7500SOL    HW234137   2.240   2.033   2.500  0.5791 -0.8813  0.3611
 7501SOL     OW34138   2.677   0.823   5.730 -0.1298 -0.3073  0.4338
 7501SOL    HW134139   2.707   0.914   5.734 -1.8267  0.2366  0.5054
 7501SOL    HW234140   2.625   0.825   5.650  0.6198 -1.7484 -0.0799
 7502SOL     OW34141   2.012   2.427  11.815  0.6762 -0.1521  0.1579
 7502SOL    HW134142   2.065   2.453  11.890 -0.4830 -0.6794  1.1568
 7502SOL    HW234143   1.954   2.370  11.866  1.0655 -0.5234  0.1869
 7503SOL     OW34144   0.756   0.951   4.135  0.3017  0.3042  0.1269
 7503SOL    HW134145   0.733   0.990   4.219 -0.3979  0.5967 -0.2007
 7503SOL    HW234146   0.764   0.861   4.167  3.0496  0.5375  0.1473
 7504SOL     OW34147   0.949   4.234  11.431 -0.0743  0.1530  0.6335
 7504SOL    HW134148   0.936   4.286  11.510 -0.9973 -0.9947  1.2423
 7504SOL    HW234149   0.931   4.302  11.366 -1.4098 -0.3748  0.4392
 7505SOL     OW34150   2.243   2.499   8.230 -0.5936  0.5757  0.5492
 7505SOL    HW134151   2.212   2.553   8.303  1.7152  1.6078  0.7841
 7505SOL    HW234152   2.159   2.464   8.201  1.6059 -2.2446 -2.4123
 7506SOL     OW34153   0.757   4.695   3.204 -0.4659  0.5222 -0.0988
 7506SOL    HW134154   0.713   4.688   3.289 -2.7194  1.4332 -1.1727
 7506SOL    HW234155   0.692   0.014   3.157 -0.7717  0.4462  0.2349
 7507SOL     OW34156   0.936   4.322   8.991  0.1126  0.5728  0.0906
 7507SOL    HW134157   0.941   4.229   8.969 -0.2766  0.6977 -0.5136
 7507SOL    HW234158   0.908   4.300   9.080  0.2878  1.0678  0.2692
 7508SOL     OW34159   4.182   2.730   4.789 -0.5752  0.0910  0.1954
 7508SOL    HW134160   4.165   2.818   4.824  1.4001 -0.2308  1.9549
 7508SOL    HW234161   4.156   2.740   4.697 -1.1662 -3.7398 -0.0329
 7509SOL     OW34162   3.054   3.957  12.452 -0.0222 -0.0647  0.1051
 7509SOL    HW134163   3.145   3.929  12.451  0.8282  2.7146 -0.8282
 7509SOL    HW234164   3.035   4.007  12.531  1.0617  0.3352  0.1069
 7510SOL     OW34165   3.796   2.794   6.819 -0.1659  1.0252  0.3342
 7510SOL    HW134166   3.704   2.805   6.793 -0.0514 -0.1110 -0.5925
 7510SOL    HW234167   3.811   2.703   6.793  1.2576  0.1120  4.3510
 7511SOL     OW34168   3.268   0.625   6.006 -0.1732  0.0574 -0.2132
 7511SOL    HW134169   3.246   0.695   6.067 -1.3405 -1.0088  0.5984
 7511SOL    HW234170   3.277   0.544   6.057 -1.3404  0.0623  0.0098
 7512SOL     OW34171   2.867   1.485   5.401  0.2285  0.0797  0.2824
 7512SOL    HW134172   2.803   1.483   5.473 -1.5723 -0.2825 -1.3420
 7512SOL    HW234173   2.905   1.398   5.401 -0.5360 -0.2511 -0.2962
 7513SOL     OW34174   3.917   3.787   3.896 -0.2749 -0.5312 -0.1463
 7513SOL    HW134175   3.968   3.866   3.914 -0.3666 -0.3852 -0.5338
 7513SOL    HW234176   3.874   3.804   3.813  2.8732 -1.8760 -2.0547
 7514SOL     OW34177   2.557   3.852   0.352  0.1236 -0.1320 -0.0823
 7514SOL    HW134178   2.610   3.842   0.430 -0.5329 -0.5506  0.3128
 7514SOL    HW234179   2.471   3.853   0.394 -0.9524 -2.1930 -2.2304
 7515SOL     OW34180   3.843   3.928   7.730 -0.0487  0.1662  0.3548
 7515SOL    HW134181   3.915   3.929   7.667  0.1243 -0.1762  0.5490
 7515SOL    HW234182   3.891   3.955   7.808 -0.8053 -0.1185  0.9144
 7516SOL     OW34183   1.076   0.458  16.579 -0.8190 -0.7491  0.2823
 7516SOL    HW134184   1.120   0.432  16.498 -1.0926 -0.7994  0.1487
 7516SOL    HW234185   1.155   0.485  16.626  0.5626 -1.9985 -1.3318
 7517SOL     OW34186   0.218   1.709  10.003  0.0136  0.0518 -0.0629
 7517SOL    HW134187   0.169   1.785   9.970 -1.4668 -0.6739  0.4743
 7517SOL    HW234188   0.224   1.736  10.094  2.4872 -1.3188  0.1795
 7518SOL     OW34189   0.932   1.556  15.999 -0.3448  0.3926 -0.4907
 7518SOL    HW134190   0.945   1.513  16.084 -0.6179  1.0650 -0.1088
 7518SOL    HW234191   0.902   1.646  16.011  0.6439  0.4885  1.1785
 7519SOL     OW34192   1.985   1.899   6.689  0.2789  0.0983 -0.1296
 7519SOL    HW134193   1.952   1.910   6.778 -1.6994  1.0668 -0.9788
 7519SOL    HW234194   1.966   1.806   6.676 -1.0292  0.3092  0.2639
 7520SOL     OW34195   2.012   4.165   5.377 -0.1136 -0.1760 -0.9402
 7520SOL    HW134196   1.991   4.186   5.286 -0.8871  0.6388 -0.5724
 7520SOL    HW234197   2.073   4.092   5.365  0.8077  0.7002 -1.5170
 7521SOL     OW34198   0.769   2.152  15.654  0.5480 -0.2282  0.6929
 7521SOL    HW134199   0.850   2.114  15.620  0.2842 -0.2299  0.0684
 7521SOL    HW234200   0.705   2.110  15.596 -0.8234 -0.0645  2.0846
 7522SOL     OW34201   0.771   1.318  14.846 -0.0101  0.5273 -0.4046
 7522SOL    HW134202   0.693   1.369  14.826 -0.1766  0.2167 -0.5431
 7522SOL    HW234203   0.724   1.235  14.850  2.0953 -0.6985 -1.2942
 7523SOL     OW34204   4.158   3.405   6.337 -0.0472 -0.2835  0.2605
 7523SOL    HW134205   4.142   3.354   6.258 -0.5827  0.5326 -0.1516
 7523SOL    HW234206   4.252   3.424   6.327 -0.3434  1.7172  1.2713
 7524SOL     OW34207   3.659   0.246   7.029  0.1939  0.3285  0.6882
 7524SOL    HW134208   3.653   0.225   7.122 -1.2175  1.8555  0.9361
 7524SOL    HW234209   3.673   0.160   6.989  2.7835  1.3228 -0.5406
 7525SOL     OW34210   1.376   2.651   4.079  0.1227 -0.1317 -0.5089
 7525SOL    HW134211   1.315   2.579   4.092  0.4167 -0.6712 -2.2181
 7525SOL    HW234212   1.437   2.613   4.016  1.4546 -0.9535  1.2790
 7526SOL     OW34213   3.993   0.277   3.678  0.5630  0.1451 -0.5753
 7526SOL    HW134214   3.972   0.206   3.618  1.7550  0.5912 -1.5356
 7526SOL    HW234215   4.022   0.339   3.610 -0.0230  0.5202 -0.4798
 7527SOL     OW34216   4.487   4.523   1.538 -0.4841  0.4200 -0.6776
 7527SOL    HW134217   4.545   4.568   1.477 -0.8813  0.6331 -0.9055
 7527SOL    HW234218   4.404   4.571   1.529 -0.7079 -0.3307 -2.7397
 7528SOL     OW34219   0.695   1.452  14.204  0.1779 -0.4203 -0.2068
 7528SOL    HW134220   0.661   1.425  14.289  1.2377 -0.5960  0.1683
 7528SOL    HW234221   0.784   1.416  14.211 -1.3754 -3.8577  1.4525
 7529SOL     OW34222   3.561   1.882  11.440 -0.0332  0.6653 -0.0588
 7529SOL    HW134223   3.635   1.900  11.498  0.4156  1.1147 -0.7786
 7529SOL    HW234224   3.495   1.941  11.476  0.5553  0.6830  0.9940
 7530SOL     OW34225   3.093   0.298  17.025  0.0716  0.0803  0.0969
 7530SOL    HW134226   3.079   0.235  17.095 -4.6113 -0.4660 -1.3093
 7530SOL    HW234227   3.155   0.358  17.066  0.5943 -0.0713 -0.4766
 7531SOL     OW34228   2.385   0.388  13.253  0.5732  0.7285  0.1849
 7531SOL    HW134229   2.326   0.316  13.232  1.2785  0.2848 -0.3017
 7531SOL    HW234230   2.342   0.456  13.201  0.4797  0.6189  0.1190
 7532SOL     OW34231   0.061   3.594   2.088 -0.5514 -0.4481 -0.5847
 7532SOL    HW134232   0.002   3.620   2.017  0.3293 -1.0194 -1.5325
 7532SOL    HW234233   0.026   3.510   2.116  2.1207 -1.1380  0.6457
 7533SOL     OW34234   1.067   1.432  11.443  0.0791 -0.7897 -0.1764
 7533SOL    HW134235   1.088   1.338  11.442  0.4001 -0.7035 -1.6218
 7533SOL    HW234236   0.973   1.422  11.427 -0.5467 -0.6034  3.4163
 7534SOL     OW34237   4.692   4.333   7.589 -0.5168 -0.4866  0.4665
 7534SOL    HW134238   4.672   4.240   7.593  1.1949 -0.6531  4.6141
 7534SOL    HW234239   4.729   4.341   7.676  2.2740 -0.7944 -0.6838
 7535SOL     OW34240   2.920   2.690   8.560 -0.7746  0.2552 -0.3923
 7535SOL    HW134241   2.885   2.767   8.604 -1.2122  0.4423 -1.0747
 7535SOL    HW234242   2.896   2.728   8.476  0.7579  0.7005 -0.6369
 7536SOL     OW34243   0.078   0.570   4.090  0.0921 -0.0122  0.1002
 7536SOL    HW134244   0.022   0.648   4.092  0.8582  0.5087  1.0199
 7536SOL    HW234245   0.009   0.509   4.117  0.0492 -0.3891 -0.8473
 7537SOL     OW34246   1.202   2.077   7.606 -0.4377 -0.6021  0.3295
 7537SOL    HW134247   1.246   2.087   7.522  0.6984  2.4383  1.2625
 7537SOL    HW234248   1.145   2.001   7.596  0.8312 -1.7792  1.8864
 7538SOL     OW34249   4.251   2.764   1.501 -0.0625  0.1473 -0.0706
 7538SOL    HW134250   4.235   2.831   1.435  2.6791 -0.9420 -1.8684
 7538SOL    HW234251   4.159   2.764   1.528  0.3845 -0.8221  1.4493
 7539SOL     OW34252   3.978   4.172   4.648 -0.1368  0.0527 -0.2225
 7539SOL    HW134253   3.975   4.243   4.713  2.6382 -0.5126  0.5194
 7539SOL    HW234254   4.012   4.214   4.569 -2.7283  0.7004 -1.0027
 7540SOL     OW34255   2.747   4.187   6.150  0.4205  0.3144  0.4434
 7540SOL    HW134256   2.740   4.180   6.246  0.2268 -1.4265  0.3073
 7540SOL    HW234257   2.679   4.127   6.118 -1.1245  2.2772  0.0661
 7541SOL     OW34258   1.868   1.217   6.775 -0.5079  0.0804  0.0530
 7541SOL    HW134259   1.820   1.259   6.846 -0.4644 -0.4363  0.3890
 7541SOL    HW234260   1.958   1.219   6.806 -0.1766  2.7027 -1.1069
 7542SOL     OW34261   3.375   1.959  14.382 -0.1880 -0.5478  0.3861
 7542SOL    HW134262   3.381   2.035  14.440  0.3195 -0.5714  0.3681
 7542SOL    HW234263   3.283   1.935  14.392 -0.1395 -1.0469 -0.3748
 7543SOL     OW34264   3.729   0.507   9.478  0.2476 -0.4797  0.5698
 7543SOL    HW134265   3.727   0.529   9.385  1.1223  1.2886  0.9536
 7543SOL    HW234266   3.779   0.426   9.482  0.0666 -0.5446  1.6869
 7544SOL     OW34267   0.016   3.068   4.415 -0.1149  0.9087  0.0446
 7544SOL    HW134268   4.728   3.162   4.419  1.2013  1.1563  1.5517
 7544SOL    HW234269   0.109   3.067   4.440 -0.5078  2.3758  1.5529
 7545SOL     OW34270   1.171   0.764   4.644  0.7303  0.0043  0.3231
 7545SOL    HW134271   1.237   0.706   4.606  0.8547  0.3778 -0.0306
 7545SOL    HW234272   1.223   0.843   4.627  1.4824 -0.3866  0.8536
 7546SOL     OW34273   0.655   3.531   8.063  0.1837 -0.1526  0.0095
 7546SOL    HW134274   0.610   3.614   8.074 -2.7716 -1.4004 -2.4534
 7546SOL    HW234275   0.661   3.521   8.158 -0.9024 -2.7706 -0.2010
 7547SOL     OW34276   0.740   1.374   2.896  0.8402 -0.3569  0.3446
 7547SOL    HW134277   0.703   1.290   2.927  0.0543 -0.3679 -0.6195
 7547SOL    HW234278   0.760   1.349   2.806  0.5350 -1.4136  0.5583
 7548SOL     OW34279   1.715   3.220  12.244 -0.0609 -0.6810 -0.0468
 7548SOL    HW134280   1.669   3.300  12.219  0.9892 -0.1487 -0.3005
 7548SOL    HW234281   1.786   3.210  12.181 -1.7468 -1.3416 -1.8282
 7549SOL     OW34282   0.693   3.026   4.601 -0.0476 -0.3049  0.7324
 7549SOL    HW134283   0.756   2.956   4.582  0.4104  0.7359 -1.6084
 7549SOL    HW234284   0.616   2.984   4.564 -0.9004  1.9749 -0.0331
 7550SOL     OW34285   3.500   2.554  11.085  0.0131 -1.0503  0.6083
 7550SOL    HW134286   3.573   2.598  11.042 -1.3381  1.3454  0.7357
 7550SOL    HW234287   3.468   2.515  11.003  0.7419  0.3933 -0.3604
 7551SOL     OW34288   0.698   4.553   0.888 -0.4700  0.0687 -0.0504
 7551SOL    HW134289   0.615   4.598   0.900 -0.8442 -0.4490 -0.7331
 7551SOL    HW234290   0.728   4.547   0.979 -0.2613  0.8194 -0.0760
 7552SOL     OW34291   1.966   3.075   2.225  0.0793 -0.2794  0.3849
 7552SOL    HW134292   1.897   3.087   2.161 -1.3241 -1.7436  1.6325
 7552SOL    HW234293   1.999   2.987   2.203  2.5240  1.0010 -1.0150
 7553SOL     OW34294   0.501   0.097   3.811  0.1324  0.3071  0.2281
 7553SOL    HW134295   0.527   0.061   3.896 -1.4732  0.9577  0.9930
 7553SOL    HW234296   0.591   0.112   3.780  0.0719  0.1566 -0.0229
 7554SOL     OW34297   4.421   3.548   4.779  0.0561  0.1132 -0.6382
 7554SOL    HW134298   4.329   3.540   4.755 -0.3899  1.5486  0.5851
 7554SOL    HW234299   4.424   3.627   4.833  0.9479  0.2851 -0.9199
 7555SOL     OW34300   0.378   1.045  14.816  0.1905 -0.1420  0.1388
 7555SOL    HW134301   0.463   1.039  14.860  0.6415 -2.2049 -1.0124
 7555SOL    HW234302   0.387   0.986  14.741  1.3968 -0.9089  0.8866
 7556SOL     OW34303   2.612   4.298   2.686  0.1541 -0.0296 -0.1993
 7556SOL    HW134304   2.545   4.231   2.700 -0.9395  1.2728  0.8045
 7556SOL    HW234305   2.553   4.364   2.650  0.8926  1.3405  1.1206
 7557SOL     OW34306   1.785   3.307   2.489 -0.4273  0.2225 -0.3331
 7557SOL    HW134307   1.790   3.265   2.403 -2.8681 -0.0689 -0.3332
 7557SOL    HW234308   1.723   3.251   2.536  0.8197  0.6449  1.7959
 7558SOL     OW34309   3.710   2.437   7.656 -0.3332  0.1036 -0.4776
 7558SOL    HW134310   3.705   2.415   7.749  0.5743 -1.5408 -0.8172
 7558SOL    HW234311   3.661   2.360   7.626 -1.2530 -0.9571  3.6839
 7559SOL     OW34312   2.779   0.359   7.252 -0.2175 -0.0522  0.5063
 7559SOL    HW134313   2.801   0.330   7.340  4.1604 -0.5592 -0.7352
 7559SOL    HW234314   2.726   0.437   7.268  0.1609 -0.1559  2.1929
 7560SOL     OW34315   3.550   4.308  11.273 -0.0325  0.1528  0.6107
 7560SOL    HW134316   3.642   4.285  11.264 -0.4855 -1.2122 -0.4850
 7560SOL    HW234317   3.558   4.364  11.350 -0.0989 -1.1478  1.5531
 7561SOL     OW34318   0.025   1.612  12.297 -0.2016  0.0834 -0.2755
 7561SOL    HW134319   4.676   1.604  12.251  1.3294 -1.7988 -2.7296
 7561SOL    HW234320   0.027   1.704  12.323  0.6455 -0.9864  3.4451
 7562SOL     OW34321   2.801   0.601   1.084  0.0699 -0.2322  0.4238
 7562SOL    HW134322   2.897   0.603   1.074  0.1512  1.4422  1.6188
 7562SOL    HW234323   2.790   0.674   1.144 -1.8394 -0.0735 -0.1392
 7563SOL     OW34324   3.197   1.981   3.310 -0.1267 -0.4472 -0.0490
 7563SOL    HW134325   3.206   1.887   3.295  0.0226 -0.3253 -0.6886
 7563SOL    HW234326   3.191   2.010   3.219  1.4182  0.4802  0.1551
 7564SOL     OW34327   1.527   4.022   5.304 -0.4914  0.2902  0.1248
 7564SOL    HW134328   1.473   4.011   5.382 -1.0191  1.2752 -0.1022
 7564SOL    HW234329   1.592   3.953   5.315 -0.8676  0.2461  2.0340
 7565SOL     OW34330   1.476   3.430   3.692 -0.3398  0.2674  0.1165
 7565SOL    HW134331   1.404   3.428   3.755 -0.0087  1.5512  0.5252
 7565SOL    HW234332   1.468   3.351   3.638 -0.2822 -0.6861  1.5064
 7566SOL     OW34333   3.677   1.434   7.503 -0.5105 -0.3098 -0.5192
 7566SOL    HW134334   3.598   1.487   7.507  0.3702  0.9202  0.3812
 7566SOL    HW234335   3.720   1.458   7.585 -0.6567  2.4672 -1.2813
 7567SOL     OW34336   4.484   2.123  13.505  0.8651 -0.1726  0.2292
 7567SOL    HW134337   4.519   2.100  13.590 -0.2022  0.5552  0.8663
 7567SOL    HW234338   4.513   2.213  13.489  1.1702 -0.1314  1.0453
 7568SOL     OW34339   1.247   4.508   2.662  0.3611 -0.4738  0.0407
 7568SOL    HW134340   1.188   4.437   2.638  1.0502 -1.7231  2.0162
 7568SOL    HW234341   1.297   4.524   2.582 -0.8326 -2.9885 -1.1708
 7569SOL     OW34342   3.312   1.317   5.163 -0.6571 -0.5913 -0.0933
 7569SOL    HW134343   3.288   1.308   5.070 -3.1898  1.5144  0.3526
 7569SOL    HW234344   3.228   1.317   5.210  0.1016 -0.3762  1.2446
 7570SOL     OW34345   3.674   0.095   5.217 -0.1670 -0.2825  0.2405
 7570SOL    HW134346   3.758   0.120   5.179  0.3663 -0.4366  1.3274
 7570SOL    HW234347   3.611   0.156   5.176  0.2270  0.9459  1.4519
 7571SOL     OW34348   2.086   0.263   3.693 -0.3706  0.5753  0.7752
 7571SOL    HW134349   2.086   0.178   3.649  1.6251  0.8855  0.1872
 7571SOL    HW234350   2.166   0.299   3.655 -1.4284  0.1219 -1.9004
 7572SOL     OW34351   1.284   2.031  13.376  0.0577 -0.6968 -0.2792
 7572SOL    HW134352   1.239   1.954  13.342 -1.1403 -0.0427 -0.1800
 7572SOL    HW234353   1.368   1.992  13.399  0.5421 -0.5468 -1.7851
 7573SOL     OW34354   0.663   2.019  14.748  0.5594  0.0281  0.3802
 7573SOL    HW134355   0.708   2.036  14.665  2.0883 -1.0025  1.0056
 7573SOL    HW234356   0.648   1.925  14.743  1.2057 -0.0673  0.2325
 7574SOL     OW34357   1.291   2.591   4.795  0.9158 -0.3837  0.3530
 7574SOL    HW134358   1.344   2.645   4.737  0.2925 -1.8202 -1.5497
 7574SOL    HW234359   1.339   2.621   4.872  1.4139  1.1162 -0.5365
 7575SOL     OW34360   1.834   0.627   5.457 -0.4661  0.9632 -0.2196
 7575SOL    HW134361   1.923   0.647   5.485 -0.5376 -1.7526  2.0382
 7575SOL    HW234362   1.783   0.628   5.538  2.0791  0.4871  1.3713
 7576SOL     OW34363   2.298   3.572   8.694  0.6543 -0.1650 -0.1029
 7576SOL    HW134364   2.209   3.550   8.723  1.1178 -3.1516 -0.9175
 7576SOL    HW234365   2.353   3.539   8.766  1.6835 -0.3938 -0.9955
 7577SOL     OW34366   3.338   0.907   7.050 -0.4601 -0.5597  0.5284
 7577SOL    HW134367   3.280   0.938   7.119 -0.1975  1.1663 -0.0286
 7577SOL    HW234368   3.411   0.875   7.103 -0.7491  0.1418  1.3477
 7578SOL     OW34369   3.473   0.230   5.125 -0.2312 -0.1470  0.0348
 7578SOL    HW134370   3.382   0.214   5.099 -0.1597 -0.5760  0.0454
 7578SOL    HW234371   3.465   0.231   5.220 -0.2831 -0.2037  0.0311
 7579SOL     OW34372   4.091   1.756  16.477  0.5663 -0.3095 -0.4420
 7579SOL    HW134373   4.013   1.810  16.465 -0.1432 -1.5826 -1.6381
 7579SOL    HW234374   4.091   1.762  16.573  1.4067 -0.2549 -0.4446
 7580SOL     OW34375   1.527   0.742  11.148 -0.0338  0.5516  0.2972
 7580SOL    HW134376   1.580   0.723  11.225  0.5619  2.0896  0.2653
 7580SOL    HW234377   1.496   0.654  11.129  2.4757 -0.4143  0.6988
 7581SOL     OW34378   3.940   0.102   1.898  0.3623 -0.4625 -0.0381
 7581SOL    HW134379   3.970   0.025   1.947 -0.7558  0.9283  2.8578
 7581SOL    HW234380   3.991   0.170   1.942 -1.1784  0.7744 -0.1455
 7582SOL     OW34381   1.686   1.635  13.112 -0.0031 -0.0112  0.3418
 7582SOL    HW134382   1.723   1.672  13.032 -0.2006  1.5896  0.9974
 7582SOL    HW234383   1.673   1.709  13.171 -0.1196  0.9758 -0.9287
 7583SOL     OW34384   4.074   0.313  17.558 -0.2440 -0.4006 -0.2611
 7583SOL    HW134385   4.145   0.376  17.548 -0.0329 -0.8213 -1.4432
 7583SOL    HW234386   4.014   0.325  17.484  0.5208  2.0709 -0.4954
 7584SOL     OW34387   2.006   2.314   2.702  0.0115 -0.3137  0.2242
 7584SOL    HW134388   2.083   2.360   2.669 -0.9395  0.5969 -0.7361
 7584SOL    HW234389   1.953   2.380   2.748  1.6921  0.1724  1.4857
 7585SOL     OW34390   0.613   4.522  11.870 -0.2250  0.8974 -0.2990
 7585SOL    HW134391   0.616   4.617  11.853  0.8592  0.2488 -3.6958
 7585SOL    HW234392   0.525   4.505  11.835 -0.9809  0.0964  1.9975
 7586SOL     OW34393   1.748   1.145   5.274  0.4380 -0.2810 -0.0536
 7586SOL    HW134394   1.827   1.157   5.327  1.8885 -1.7783 -1.8704
 7586SOL    HW234395   1.714   1.066   5.315 -0.3133  0.0355 -0.0788
 7587SOL     OW34396   0.728   4.077  11.392  0.0195 -0.1789  0.7080
 7587SOL    HW134397   0.799   4.127  11.432  0.3825 -0.6807  0.6908
 7587SOL    HW234398   0.665   4.062  11.463 -3.0397  2.2363 -1.4965
 7588SOL     OW34399   4.023   3.378   4.145 -0.3597  0.0419 -0.5368
 7588SOL    HW134400   4.107   3.333   4.153  0.1344  0.8107 -1.4393
 7588SOL    HW234401   4.047   3.459   4.100  0.6471 -1.0195 -1.9193
 7589SOL     OW34402   1.410   3.992   6.571 -0.0032 -0.4269  0.1843
 7589SOL    HW134403   1.427   4.061   6.508  1.5069 -0.2700  0.7773
 7589SOL    HW234404   1.327   4.024   6.608  0.0036  1.6797 -1.6335
 7590SOL     OW34405   1.096   0.691  14.039  0.0723  0.8337 -0.0373
 7590SOL    HW134406   1.152   0.632  14.090 -0.3389  0.9687  0.5712
 7590SOL    HW234407   1.121   0.672  13.948  0.4167  0.5268  0.1212
 7591SOL     OW34408   3.418   2.921   7.700  0.1664 -0.5551 -0.0640
 7591SOL    HW134409   3.464   2.838   7.697  0.1135 -0.4974 -2.0931
 7591SOL    HW234410   3.424   2.947   7.792  1.3747 -0.2104 -0.2518
 7592SOL     OW34411   3.733   2.657   0.816  0.4069  0.3032  0.7934
 7592SOL    HW134412   3.645   2.675   0.783 -0.1248 -3.3282  0.2676
 7592SOL    HW234413   3.750   2.567   0.790  1.3919  0.7185 -0.0321
 7593SOL     OW34414   4.499   1.227  13.422 -0.2297  0.1222 -0.1237
 7593SOL    HW134415   4.587   1.208  13.389 -0.1619  1.2751 -0.6377
 7593SOL    HW234416   4.479   1.145  13.466  0.2619 -0.0535 -0.2274
 7594SOL     OW34417   3.855   3.405   7.055 -0.3759  0.0929  0.6783
 7594SOL    HW134418   3.791   3.357   7.107 -0.9318  1.5303  1.3174
 7594SOL    HW234419   3.790   3.444   6.997 -1.5169 -1.5382  0.8589
 7595SOL     OW34420   1.740   3.324  14.385 -0.0038 -0.2631 -0.2661
 7595SOL    HW134421   1.836   3.324  14.383 -0.0002 -1.0968 -0.0531
 7595SOL    HW234422   1.723   3.417  14.399  2.0510  0.0010  0.4729
 7596SOL     OW34423   0.405   2.441  14.413  0.0504 -0.3823 -0.3798
 7596SOL    HW134424   0.393   2.487  14.330  0.6033  1.3082  0.4736
 7596SOL    HW234425   0.406   2.349  14.386 -1.7728 -1.5121  3.4645
 7597SOL     OW34426   0.805   0.993   0.759  0.3389 -0.8156  0.1325
 7597SOL    HW134427   0.791   0.911   0.712 -0.9217  0.4765 -1.7682
 7597SOL    HW234428   0.760   1.050   0.697 -2.0631 -1.6383  1.0758
 7598SOL     OW34429   0.516   3.442   3.553 -0.2071  0.1757  0.2344
 7598SOL    HW134430   0.464   3.455   3.474  0.0235 -0.1090  0.0328
 7598SOL    HW234431   0.583   3.510   3.549  0.1485 -0.2096 -0.3408
 7599SOL     OW34432   4.116   4.488   3.506 -0.4529 -0.0378  0.7495
 7599SOL    HW134433   4.100   4.525   3.419 -1.1904 -0.7264  0.5909
 7599SOL    HW234434   4.045   4.424   3.495 -0.9904  0.7039 -0.1378
 7600SOL     OW34435   0.875   3.242  16.781  0.4327 -0.4772  0.6241
 7600SOL    HW134436   0.947   3.304  16.790 -0.2402  0.2624  0.9135
 7600SOL    HW234437   0.859   3.261  16.689 -1.5947 -0.1967  1.0292
 7601SOL     OW34438   0.188   2.187   9.360  0.2848  0.0913  0.1044
 7601SOL    HW134439   0.106   2.230   9.384 -0.5893 -1.3490 -0.2667
 7601SOL    HW234440   0.206   2.227   9.274  0.2897  0.4979  0.2939
 7602SOL     OW34441   0.318   2.183   7.667 -0.2871  0.1230  0.3929
 7602SOL    HW134442   0.409   2.171   7.640  0.4096  2.7539  1.6473
 7602SOL    HW234443   0.328   2.203   7.760 -0.6856 -1.5443  0.8023
 7603SOL     OW34444   2.518   1.595   5.329 -0.0061  0.5824  0.2047
 7603SOL    HW134445   2.583   1.607   5.260  0.4756 -0.3343  0.4852
 7603SOL    HW234446   2.532   1.500   5.336 -0.2083  0.6501  1.4991
 7604SOL     OW34447   4.625   4.076   5.406  0.3884  0.2592  0.3180
 7604SOL    HW134448   4.540   4.044   5.377 -0.6979  2.3380  1.1763
 7604SOL    HW234449   4.680   4.022   5.350  0.5135  3.8688 -3.0820
 7605SOL     OW34450   0.665   2.674  16.236 -0.3176  0.3610 -0.7991
 7605SOL    HW134451   0.640   2.611  16.168 -3.3832  0.2376  0.4417
 7605SOL    HW234452   0.643   2.757  16.194 -0.2916  0.0967 -1.3366
 7606SOL     OW34453   1.714   1.076  12.971  0.1510 -0.2621  0.3309
 7606SOL    HW134454   1.782   1.116  12.917 -2.8315  1.8837 -1.8102
 7606SOL    HW234455   1.767   1.047  13.046  0.6295 -0.5595 -0.1174
 7607SOL     OW34456   2.105   1.487   3.635 -0.7435  0.3633  0.2509
 7607SOL    HW134457   2.146   1.543   3.701  1.0436 -0.5733 -0.0560
 7607SOL    HW234458   2.146   1.521   3.555 -2.8113  1.9120 -0.1340
 7608SOL     OW34459   1.655   1.956   2.418 -0.1897  0.3020 -0.1072
 7608SOL    HW134460   1.723   1.907   2.372 -1.5332 -0.3976 -1.3567
 7608SOL    HW234461   1.701   2.032   2.453  0.4768  0.0638 -0.4703
 7609SOL     OW34462   0.277   4.122   1.829  0.0655 -0.0876 -0.0943
 7609SOL    HW134463   0.223   4.193   1.864 -0.7494 -0.7254 -0.0568
 7609SOL    HW234464   0.342   4.162   1.771  0.4295 -0.1523  0.2677
 7610SOL     OW34465   1.996   4.074   6.902 -0.1549 -0.2615 -0.6751
 7610SOL    HW134466   2.015   4.133   6.830  1.0337  0.2845  0.0750
 7610SOL    HW234467   2.023   4.138   6.968  0.4544  0.0423 -1.2172
 7611SOL     OW34468   3.212   1.937   9.038  0.2452 -0.3194  0.3982
 7611SOL    HW134469   3.295   1.929   8.991  0.6231 -1.9176  1.3161
 7611SOL    HW234470   3.152   1.967   8.970 -0.2452  0.1288  1.0239
 7612SOL     OW34471   1.454   1.110   1.754 -0.3240 -0.0978 -0.2372
 7612SOL    HW134472   1.544   1.081   1.747 -0.7158 -0.5294 -3.2070
 7612SOL    HW234473   1.453   1.149   1.842  3.1496 -1.3655  0.3622
 7613SOL     OW34474   4.274   4.224   3.532  0.2712  0.2589 -0.7041
 7613SOL    HW134475   4.187   4.263   3.536  0.4906  0.4436  2.5709
 7613SOL    HW234476   4.302   4.255   3.446  2.0298 -2.3157 -1.0646
 7614SOL     OW34477   4.666   1.364   3.562  0.2686  0.4954  0.6627
 7614SOL    HW134478   4.717   1.438   3.531  0.7848 -0.1239  0.0254
 7614SOL    HW234479   4.706   1.296   3.507 -0.1368  0.2424  0.6791
 7615SOL     OW34480   0.928   3.585   4.141 -0.0891  0.1633  0.0194
 7615SOL    HW134481   0.865   3.657   4.144  1.4269  1.5227 -0.6740
 7615SOL    HW234482   0.883   3.519   4.089  1.2534 -0.6073 -0.1659
 7616SOL     OW34483   4.726   4.143  17.437  0.2211  0.3961 -0.1973
 7616SOL    HW134484   4.711   4.236  17.420  1.3893  0.8820  1.4502
 7616SOL    HW234485   4.672   4.096  17.374  1.1910  2.4064 -2.5060
 7617SOL     OW34486   2.051   1.845   4.569  0.3920  0.0096 -0.4474
 7617SOL    HW134487   1.991   1.777   4.600  0.5967  0.1549  0.2686
 7617SOL    HW234488   2.141   1.817   4.586  0.3761  0.0511 -0.2914
 7618SOL     OW34489   2.538   1.323   5.350 -0.2113 -0.2218 -0.1974
 7618SOL    HW134490   2.596   1.252   5.321  0.0165 -0.6641  1.3468
 7618SOL    HW234491   2.459   1.273   5.367 -0.4799 -0.2286 -1.4419
 7619SOL     OW34492   2.770   2.047   8.675 -0.1625 -0.5611 -0.2273
 7619SOL    HW134493   2.699   2.107   8.653  0.5926  0.4306  0.0024
 7619SOL    HW234494   2.743   2.030   8.765 -0.8870  0.5561 -0.2359
 7620SOL     OW34495   3.695   1.154   3.498 -0.6893 -0.3736  0.3849
 7620SOL    HW134496   3.650   1.102   3.432  0.0947 -0.3339 -0.1805
 7620SOL    HW234497   3.747   1.085   3.541 -0.7400  0.6112  2.0336
 7621SOL     OW34498   1.214   4.578   5.537  0.5248 -0.4180 -0.6065
 7621SOL    HW134499   1.234   4.495   5.494 -1.1108 -0.6384 -0.9620
 7621SOL    HW234500   1.118   4.570   5.537  0.5785 -0.9770  2.5873
 7622SOL     OW34501   2.595   4.545   4.337 -0.1089  0.0132  0.2863
 7622SOL    HW134502   2.506   4.566   4.366 -0.1542 -1.2943  1.1225
 7622SOL    HW234503   2.596   4.450   4.350  1.2356  0.0453  0.3367
 7623SOL     OW34504   3.551   1.747   1.387 -0.0674 -0.2136 -0.0111
 7623SOL    HW134505   3.520   1.737   1.297  1.4921 -2.5967 -0.2919
 7623SOL    HW234506   3.630   1.800   1.373  1.2540 -2.1500  0.1105
 7624SOL     OW34507   0.765   0.961   8.550  0.1082 -0.6455 -0.6811
 7624SOL    HW134508   0.771   0.994   8.640  0.9498 -0.8949 -0.6459
 7624SOL    HW234509   0.796   1.040   8.507 -1.5574  0.2470 -0.2761
 7625SOL     OW34510   0.172   1.684  16.602 -0.3587 -0.0785  0.3503
 7625SOL    HW134511   0.213   1.708  16.519 -0.5439  2.6698  1.0519
 7625SOL    HW234512   0.252   1.658  16.647 -0.1483  0.5753  0.3531
 7626SOL     OW34513   4.213   0.099   7.498 -0.2576  0.0852 -0.3921
 7626SOL    HW134514   4.229   0.036   7.568  2.2698  0.1753 -0.8627
 7626SOL    HW234515   4.217   0.051   7.416  0.0034  0.6407 -0.7048
 7627SOL     OW34516   3.597   2.615   0.567  0.2159  0.1107  0.1642
 7627SOL    HW134517   3.521   2.580   0.613 -0.1830  1.5088  0.5820
 7627SOL    HW234518   3.628   2.538   0.519  1.1806 -0.1746  1.2476
 7628SOL     OW34519   1.714   2.921  12.245  0.6742  0.2418  0.1105
 7628SOL    HW134520   1.802   2.883  12.244  0.2782 -0.6976  0.2129
 7628SOL    HW234521   1.736   3.011  12.224  0.4064  0.1910 -0.3875
 7629SOL     OW34522   1.898   1.351  12.877 -0.0809  0.1567 -0.0257
 7629SOL    HW134523   1.923   1.439  12.851  0.9734 -0.4474 -1.0484
 7629SOL    HW234524   1.974   1.298  12.901  0.2937  0.5015 -0.4640
 7630SOL     OW34525   1.303   3.030  13.442 -0.6264 -0.8638  0.5371
 7630SOL    HW134526   1.214   3.012  13.470 -0.9164 -3.1227 -1.7756
 7630SOL    HW234527   1.331   3.056  13.529  0.7052 -2.3931  0.5844
 7631SOL     OW34528   4.550   4.622   5.283 -0.8272 -0.0210 -0.4606
 7631SOL    HW134529   4.570   4.634   5.190  1.4643  2.0443  0.3365
 7631SOL    HW234530   4.636   4.609   5.322 -0.3316 -0.1286 -1.5764
 7632SOL     OW34531   4.581   4.297   6.096 -0.1682  0.2552  0.5386
 7632SOL    HW134532   4.623   4.251   6.024 -0.1216  0.0430  0.7040
 7632SOL    HW234533   4.505   4.246   6.125  1.4712 -1.3927  1.8691
 7633SOL     OW34534   2.471   2.531   7.494 -0.2852 -0.3386 -0.7565
 7633SOL    HW134535   2.507   2.487   7.570  1.4317  1.8597 -0.3194
 7633SOL    HW234536   2.550   2.580   7.473 -0.7111  0.0018 -1.5994
 7634SOL     OW34537   2.254   2.310   6.927  0.1958  0.3557  0.3205
 7634SOL    HW134538   2.344   2.319   6.959  0.0053  1.7869  0.4445
 7634SOL    HW234539   2.259   2.377   6.860 -3.4448  0.7890  0.5051
 7635SOL     OW34540   3.605   2.772  13.383  0.0155 -0.3698  0.3381
 7635SOL    HW134541   3.564   2.812  13.460  1.8738  3.5249 -0.6876
 7635SOL    HW234542   3.526   2.739  13.341  0.0918  1.8409 -1.5176
 7636SOL     OW34543   1.214   3.085   2.331  0.0477  0.1473  0.4921
 7636SOL    HW134544   1.284   3.145   2.358 -0.5024  0.8850  0.2550
 7636SOL    HW234545   1.253   3.053   2.250  1.3459  0.3841  1.0106
 7637SOL     OW34546   4.673   2.937   3.959 -0.2284  0.6869  0.5046
 7637SOL    HW134547   4.638   2.849   3.973  1.9498 -0.3331 -0.4970
 7637SOL    HW234548   4.718   2.964   4.039  2.4255  1.8381 -1.3700
 7638SOL     OW34549   1.459   4.586   9.722  0.0605 -0.2106 -0.4004
 7638SOL    HW134550   1.384   4.575   9.663 -0.0073 -3.1896  0.2699
 7638SOL    HW234551   1.424   4.663   9.767 -1.4702 -0.6715 -0.8194
 7639SOL     OW34552   1.439   2.712   5.279 -0.4231  0.8458 -0.1123
 7639SOL    HW134553   1.521   2.756   5.297 -1.0870  1.4602  1.3593
 7639SOL    HW234554   1.390   2.714   5.361  1.7375  1.3077  1.1499
 7640SOL     OW34555   1.946   2.730  12.909 -0.3804  0.5008  0.0206
 7640SOL    HW134556   1.912   2.729  12.819  0.6452  1.1925 -0.3667
 7640SOL    HW234557   2.032   2.766  12.889 -0.4338  0.5248 -0.1703
 7641SOL     OW34558   1.376   0.437   2.749  0.2098  0.0283  0.3804
 7641SOL    HW134559   1.367   0.444   2.844 -0.1844  1.9273  0.2154
 7641SOL    HW234560   1.453   0.492   2.733 -0.2496  0.3277 -0.8298
 7642SOL     OW34561   0.790   0.295   6.603 -0.1270  0.4712  0.2725
 7642SOL    HW134562   0.730   0.295   6.528  0.8545  0.6214 -0.5112
 7642SOL    HW234563   0.746   0.359   6.660 -0.2626 -0.3653  1.0996
 7643SOL     OW34564   0.296   1.963  17.417  0.4920  0.2235  0.2374
 7643SOL    HW134565   0.222   1.936  17.471 -0.6767  3.4082  0.2059
 7643SOL    HW234566   0.294   1.900  17.345 -0.6742  1.0651 -0.4542
 7644SOL     OW34567   1.032   1.386   8.788  0.1244  0.5593  0.0103
 7644SOL    HW134568   1.125   1.372   8.771  0.6138  0.1771  2.9652
 7644SOL    HW234569   1.024   1.351   8.877 -1.2171  0.9883  0.0672
 7645SOL     OW34570   1.896   0.630   6.009 -0.0292 -0.0233 -0.3161
 7645SOL    HW134571   1.857   0.550   6.044  0.8508 -0.6458 -0.7749
 7645SOL    HW234572   1.922   0.678   6.088 -1.2313 -0.2998  0.2560
 7646SOL     OW34573   2.134   1.242   4.275  0.3810 -0.5767  0.3585
 7646SOL    HW134574   2.103   1.332   4.280  1.2880 -0.1044 -2.6180
 7646SOL    HW234575   2.052   1.198   4.252  0.0087  0.7455 -0.8087
 7647SOL     OW34576   0.706   0.556   2.140  0.0738 -0.0498  0.3345
 7647SOL    HW134577   0.706   0.618   2.066  0.0924 -1.8637 -1.1927
 7647SOL    HW234578   0.660   0.485   2.094 -1.1077 -0.7939  2.6645
 7648SOL     OW34579   0.435   4.084   5.828 -0.0083 -0.9264 -0.5215
 7648SOL    HW134580   0.476   4.067   5.914 -2.1281 -3.2949 -0.0013
 7648SOL    HW234581   0.484   4.155   5.786  0.0465 -0.3368  0.5305
 7649SOL     OW34582   1.450   0.303  11.705  0.7691  0.2975  0.0613
 7649SOL    HW134583   1.503   0.344  11.637  1.8488 -1.0058  0.1156
 7649SOL    HW234584   1.507   0.229  11.724 -1.1662 -2.0539 -3.3850
 7650SOL     OW34585   2.124   2.423  11.581  0.2728  0.1108  0.3795
 7650SOL    HW134586   2.064   2.349  11.580 -0.2173  0.5386 -1.1354
 7650SOL    HW234587   2.107   2.441  11.673 -0.1425 -0.4036  0.3973
 7651SOL     OW34588   0.583   1.257  11.521  0.5024  0.1751  0.6902
 7651SOL    HW134589   0.551   1.170  11.497 -0.4216  0.0824  2.2573
 7651SOL    HW234590   0.504   1.305  11.545 -3.1988 -4.2178 -2.5793
 7652SOL     OW34591   1.748   3.888   5.440 -0.3133 -0.0655 -0.0835
 7652SOL    HW134592   1.803   3.831   5.494 -1.3393 -1.5802 -0.6513
 7652SOL    HW234593   1.813   3.936   5.389 -1.1217  0.1492 -0.9108
 7653SOL     OW34594   0.908   3.147   3.522  0.0803  0.2052  0.6348
 7653SOL    HW134595   0.972   3.207   3.558 -1.1909  1.7221  0.3500
 7653SOL    HW234596   0.939   3.063   3.556  0.0819  0.5477  1.4573
 7654SOL     OW34597   4.062   4.610   8.805 -0.0373  0.1333 -0.1439
 7654SOL    HW134598   3.979   4.612   8.758  0.2092 -0.2255 -0.5898
 7654SOL    HW234599   4.063   4.695   8.850 -0.6546  0.4296 -0.6934
 7655SOL     OW34600   1.401   3.162  13.686 -0.0722 -0.2742 -0.1590
 7655SOL    HW134601   1.484   3.209  13.680  0.5907 -1.4133 -0.0079
 7655SOL    HW234602   1.388   3.161  13.781  1.6353  0.1954  0.0723
 7656SOL     OW34603   3.661   0.828   6.705  0.2171 -0.2423  0.5141
 7656SOL    HW134604   3.631   0.865   6.788 -0.8245  1.1188 -0.4674
 7656SOL    HW234605   3.745   0.873   6.698  0.8333 -1.7769 -1.7901
 7657SOL     OW34606   1.425   4.396   6.815 -0.4909 -0.1633  0.3594
 7657SOL    HW134607   1.406   4.388   6.721  1.1463  1.0175 -0.0628
 7657SOL    HW234608   1.347   4.350   6.845 -0.8193  0.4211  0.4033
 7658SOL     OW34609   0.975   4.673   6.552 -0.7562 -0.2189  0.7929
 7658SOL    HW134610   0.887   4.707   6.541 -0.6224 -0.4607 -1.0298
 7658SOL    HW234611   1.007   4.729   6.623 -2.7390  1.5719  0.2794
 7659SOL     OW34612   3.399   3.960   6.229 -0.0168 -0.2272 -0.0360
 7659SOL    HW134613   3.310   3.953   6.195 -0.2267  0.4473  0.3789
 7659SOL    HW234614   3.440   3.873   6.229  0.6272  0.0835 -1.7682
 7660SOL     OW34615   4.624   3.313   7.677  0.4405 -0.7528  0.0275
 7660SOL    HW134616   4.593   3.394   7.716 -0.3766  0.0404 -2.2856
 7660SOL    HW234617   4.660   3.283   7.761  1.2441 -4.7525 -1.7528
 7661SOL     OW34618   0.466   0.174  11.304  0.2223 -0.0904  0.0904
 7661SOL    HW134619   0.508   0.214  11.227 -1.1056  1.4772  0.1928
 7661SOL    HW234620   0.392   0.126  11.268  0.6378 -0.1242 -0.7282
 7662SOL     OW34621   1.837   1.159   8.514  0.0060  0.4646  0.6063
 7662SOL    HW134622   1.876   1.240   8.482 -0.3048  0.2063 -0.4568
 7662SOL    HW234623   1.823   1.120   8.427 -0.5154  0.1081  0.8497
 7663SOL     OW34624   1.086   2.054   4.762 -0.0620 -0.5052 -0.8936
 7663SOL    HW134625   1.144   1.998   4.711  0.6842 -0.7064  0.1952
 7663SOL    HW234626   1.134   2.136   4.764  1.2850 -1.3149 -0.5559
 7664SOL     OW34627   4.009   1.619   6.266 -0.3234  0.2035  0.5287
 7664SOL    HW134628   3.941   1.559   6.237 -0.0867  0.2096 -0.0388
 7664SOL    HW234629   3.959   1.688   6.309 -0.0145  0.1645  0.9555
 7665SOL     OW34630   4.311   0.712   7.768 -0.0726 -0.4124 -0.1219
 7665SOL    HW134631   4.331   0.675   7.682 -0.9217  2.6946 -1.6591
 7665SOL    HW234632   4.388   0.767   7.785  0.2106 -1.1283  0.8614
 7666SOL     OW34633   0.668   3.259   1.813 -0.5390  0.0942 -0.8455
 7666SOL    HW134634   0.727   3.296   1.879  1.6406 -0.8076 -2.2854
 7666SOL    HW234635   0.666   3.164   1.830 -1.1870  0.0829 -0.9923
 7667SOL     OW34636   3.216   1.195   6.210 -0.3362 -0.1358 -0.2703
 7667SOL    HW134637   3.168   1.155   6.282  1.9303 -0.2073  1.2042
 7667SOL    HW234638   3.308   1.182   6.234  0.2075  0.7411 -1.8604
 7668SOL     OW34639   2.938   0.764   2.679  0.4836 -0.5991  0.1137
 7668SOL    HW134640   2.889   0.846   2.670  1.4515  0.2648  2.7317
 7668SOL    HW234641   2.991   0.785   2.756 -0.7924  1.8744  0.3243
 7669SOL     OW34642   1.159   4.712   3.751 -0.1076  0.4555  0.6270
 7669SOL    HW134643   1.104   4.634   3.748  1.0486 -0.2666 -2.4360
 7669SOL    HW234644   1.170   4.726   3.657 -1.3259 -1.4879  0.1859
 7670SOL     OW34645   3.414   1.708   8.038  0.1245 -0.4837  0.3853
 7670SOL    HW134646   3.321   1.729   8.049  0.0902 -0.7445  0.5993
 7670SOL    HW234647   3.412   1.613   8.054 -1.2419 -0.4766  0.2574
 7671SOL     OW34648   3.093   4.158   2.900 -0.0786 -0.6788  0.6483
 7671SOL    HW134649   3.029   4.089   2.883 -0.4666 -0.5712  1.7136
 7671SOL    HW234650   3.162   4.110   2.946 -0.8403 -0.5193  1.9444
 7672SOL     OW34651   3.876   0.930   8.167 -0.1163  0.7151  0.7434
 7672SOL    HW134652   3.794   0.966   8.133  0.5606  1.0959 -0.4775
 7672SOL    HW234653   3.945   0.983   8.126 -0.4902 -1.2345 -2.4521
 7673SOL     OW34654   3.767   4.159   9.983  0.4502 -0.4303 -0.4075
 7673SOL    HW134655   3.714   4.237  10.001  1.2817 -1.2070  5.4424
 7673SOL    HW234656   3.754   4.145   9.889 -0.3898 -1.0948 -0.2046
 7674SOL     OW34657   0.069   4.462   8.780  0.0475  0.3254 -0.1175
 7674SOL    HW134658   0.082   4.425   8.867 -1.3072  0.6379  0.2144
 7674SOL    HW234659   0.054   4.555   8.791 -0.5590  0.2551 -0.3713
 7675SOL     OW34660   1.896   3.024   4.811  0.1339 -0.2561 -0.1740
 7675SOL    HW134661   1.814   3.054   4.850  0.5991  1.7539 -0.7087
 7675SOL    HW234662   1.923   2.950   4.865 -2.0957 -0.7170  0.3167
 7676SOL     OW34663   4.657   4.311   0.202  0.0559  0.4061  0.0316
 7676SOL    HW134664   4.693   4.281   0.118 -0.3622  0.8534 -0.3159
 7676SOL    HW234665   4.696   4.398   0.195  0.6769  0.1211  0.0160
 7677SOL     OW34666   2.458   0.997  10.667  0.2657 -0.5894 -0.2315
 7677SOL    HW134667   2.497   1.032  10.587 -0.9280 -3.2414 -1.9731
 7677SOL    HW234668   2.528   0.941  10.701  1.1325 -0.6320 -2.0967
 7678SOL     OW34669   4.039   2.687   5.438  0.4020 -0.0062  0.0490
 7678SOL    HW134670   4.002   2.625   5.501 -1.3038 -0.9138 -1.8439
 7678SOL    HW234671   4.042   2.771   5.483 -1.1013  0.1162 -0.0860
 7679SOL     OW34672   0.806   3.827  14.813  0.3604  0.5128 -0.1198
 7679SOL    HW134673   0.731   3.778  14.849 -1.1819  2.1918 -1.0708
 7679SOL    HW234674   0.758   3.881  14.750  0.0841 -1.0741 -1.2824
 7680SOL     OW34675   3.695   3.703   1.170 -0.2596 -0.4269  0.3734
 7680SOL    HW134676   3.644   3.710   1.089 -0.1897 -1.9113  0.1926
 7680SOL    HW234677   3.664   3.614   1.189  0.9477 -0.5565  1.7393
 7681SOL     OW34678   3.791   1.444   8.138  0.8837 -0.5878  0.0228
 7681SOL    HW134679   3.759   1.436   8.228  0.2578  0.9558 -0.0582
 7681SOL    HW234680   3.779   1.353   8.114 -0.6407 -0.9237  2.0389
 7682SOL     OW34681   0.568   1.881   8.661  0.4452 -0.4757  0.0969
 7682SOL    HW134682   0.599   1.877   8.752 -2.4648  2.1174  1.1957
 7682SOL    HW234683   0.554   1.786   8.656  0.9699 -0.5274 -0.2688
 7683SOL     OW34684   4.263   1.238   3.917 -0.2314 -0.0390  0.0324
 7683SOL    HW134685   4.301   1.275   3.996 -1.1337 -1.7240  1.2492
 7683SOL    HW234686   4.336   1.270   3.863  1.8206  2.8076  4.4114
 7684SOL     OW34687   0.898   1.083  13.012  0.3565 -0.4738 -0.2256
 7684SOL    HW134688   0.886   1.056  12.921 -2.6940  3.6835 -1.0862
 7684SOL    HW234689   0.865   1.172  12.999  1.6460  0.2043  1.1593
 7685SOL     OW34690   4.537   2.255  12.802  0.0293 -0.1941  0.2349
 7685SOL    HW134691   4.527   2.189  12.871 -1.8591  2.4000  2.4240
 7685SOL    HW234692   4.464   2.227  12.747  0.5936 -0.6022 -0.3077
 7686SOL     OW34693   0.432   3.567  10.839 -0.3085  0.6282  0.3204
 7686SOL    HW134694   0.339   3.549  10.828  0.1938 -0.7255 -1.6823
 7686SOL    HW234695   0.431   3.645  10.895 -1.1735 -0.9789  2.5525
 7687SOL     OW34696   4.619   3.412  15.245 -0.2484  0.1028  0.2000
 7687SOL    HW134697   4.696   3.369  15.283  0.7325  2.4488  0.8222
 7687SOL    HW234698   4.659   3.478  15.188  0.6397 -0.9162 -0.3743
 7688SOL     OW34699   2.694   2.867   6.960 -0.3957  0.0539 -0.3129
 7688SOL    HW134700   2.757   2.906   6.900  0.1817  2.4040  1.7837
 7688SOL    HW234701   2.702   2.777   6.931 -1.6586 -0.4573  0.8943
 7689SOL     OW34702   3.390   1.894   4.306 -0.0920  0.0546 -0.0239
 7689SOL    HW134703   3.424   1.982   4.321 -0.7927  1.0283 -4.0013
 7689SOL    HW234704   3.413   1.877   4.214  0.0350  2.2166 -0.3802
 7690SOL     OW34705   2.299   2.679   5.693  0.2613  0.0193  0.6697
 7690SOL    HW134706   2.345   2.704   5.612 -0.7464 -1.9120 -0.4903
 7690SOL    HW234707   2.364   2.623   5.735  0.5105  0.1907  0.5190
 7691SOL     OW34708   0.186   2.783   8.223  0.6617 -0.1190  0.1488
 7691SOL    HW134709   0.115   2.846   8.212  0.9452  0.0921 -0.4428
 7691SOL    HW234710   0.258   2.839   8.251  0.5227  0.9689 -1.7218
 7692SOL     OW34711   4.010   4.555   3.259 -0.6186  0.5072  0.0319
 7692SOL    HW134712   4.047   4.552   3.171 -1.2687 -0.3526 -0.2098
 7692SOL    HW234713   3.915   4.553   3.246 -0.4756  2.3469 -1.2706
 7693SOL     OW34714   3.504   2.151   4.324  0.9142 -0.2971  0.1229
 7693SOL    HW134715   3.581   2.204   4.348 -0.6004  2.3405 -0.8022
 7693SOL    HW234716   3.486   2.195   4.241  2.2310  0.4288  0.2199
 7694SOL     OW34717   3.819   3.761   6.827 -0.0460  0.3447 -0.1675
 7694SOL    HW134718   3.793   3.670   6.838  1.5261  0.1602  2.0200
 7694SOL    HW234719   3.912   3.742   6.822 -0.6759 -2.3381 -1.5757
 7695SOL     OW34720   0.233   3.458   2.506 -0.3194 -0.3086 -0.1876
 7695SOL    HW134721   0.320   3.496   2.494 -0.2147 -0.3561  0.4322
 7695SOL    HW234722   0.230   3.403   2.428 -0.0804 -0.9877  0.2861
 7696SOL     OW34723   0.647   3.573   6.993  0.0738 -0.3653 -0.4102
 7696SOL    HW134724   0.631   3.492   6.944  0.0952 -1.1466  0.8665
 7696SOL    HW234725   0.741   3.585   6.982  0.1727  0.3679  1.1909
 7697SOL     OW34726   3.722   2.653  10.975 -0.4054  0.3788 -0.3395
 7697SOL    HW134727   3.766   2.649  10.890  0.8327  0.1442  0.3116
 7697SOL    HW234728   3.716   2.744  11.003  0.0471  0.1914  0.3695
 7698SOL     OW34729   3.011   2.465  11.523 -0.4028 -0.0414 -0.3544
 7698SOL    HW134730   3.069   2.535  11.551  0.4570 -0.0196 -2.1984
 7698SOL    HW234731   3.032   2.472  11.430  0.6328 -1.2205 -0.2150
 7699SOL     OW34732   2.515   0.876   2.669 -0.2488  0.1892 -0.6106
 7699SOL    HW134733   2.526   0.960   2.712 -0.2864 -0.3686  0.4964
 7699SOL    HW234734   2.497   0.824   2.747  0.9965 -0.8954 -1.0437
 7700SOL     OW34735   2.163   4.706   1.237 -0.1567  0.4415  0.3994
 7700SOL    HW134736   2.169   0.033   1.311 -2.4675 -1.2634  1.9752
 7700SOL    HW234737   2.110   4.640   1.282 -0.0866 -0.6888 -1.1740
 7701SOL     OW34738   3.519   1.825   3.006  0.0911  0.3614 -0.2721
 7701SOL    HW134739   3.509   1.769   3.083  0.3975  1.6935  0.7273
 7701SOL    HW234740   3.590   1.883   3.033 -0.4699  1.5567 -1.3397
 7702SOL     OW34741   0.380   1.942   7.216  0.7207  0.3154  0.0142
 7702SOL    HW134742   0.357   1.859   7.175 -0.1994 -0.0045  1.1881
 7702SOL    HW234743   0.385   2.008   7.147  0.0775 -0.5025 -0.7991
 7703SOL     OW34744   2.458   4.640   6.787 -0.5488  0.1424  0.7070
 7703SOL    HW134745   2.442   4.712   6.726  0.4636 -1.7506 -1.7938
 7703SOL    HW234746   2.542   4.599   6.766 -0.1686  0.5314  1.4657
 7704SOL     OW34747   1.830   0.408  10.813 -0.1730 -0.1873  0.3091
 7704SOL    HW134748   1.767   0.340  10.790  0.1635 -0.9317  1.5860
 7704SOL    HW234749   1.786   0.459  10.881 -0.9955  1.9567 -1.7966
 7705SOL     OW34750   0.454   0.502   3.663  0.5499 -0.1415  0.2269
 7705SOL    HW134751   0.437   0.578   3.718 -0.4558  1.3151 -2.0505
 7705SOL    HW234752   0.543   0.509   3.629 -0.3785  3.3573 -1.5257
 7706SOL     OW34753   0.025   0.348  16.723  0.2116  0.5082  0.1065
 7706SOL    HW134754   0.088   0.359  16.794  0.1598  0.1489  0.2041
 7706SOL    HW234755   4.699   0.281  16.757 -0.2337  0.7078 -0.2789
 7707SOL     OW34756   2.855   0.373   6.811 -0.1570  0.2168  0.0521
 7707SOL    HW134757   2.792   0.443   6.793 -1.5575 -1.9255 -3.5186
 7707SOL    HW234758   2.942   0.413   6.810  0.2968 -0.7784  0.2980
 7708SOL     OW34759   2.134   1.641   7.318  0.2694  0.6049 -0.5731
 7708SOL    HW134760   2.147   1.563   7.373 -3.0223  0.0599 -0.5534
 7708SOL    HW234761   2.211   1.654   7.264 -0.1112 -2.9276 -1.9481
 7709SOL     OW34762   0.597   4.115   3.772 -0.1792 -0.2908  0.2809
 7709SOL    HW134763   0.503   4.095   3.773 -0.0574 -0.9396 -0.9218
 7709SOL    HW234764   0.624   4.051   3.839  0.0938 -0.9923 -0.4974
 7710SOL     OW34765   0.661   1.373   1.129  0.4336  0.1112  0.1954
 7710SOL    HW134766   0.742   1.323   1.130  1.0226  1.0448 -1.1326
 7710SOL    HW234767   0.657   1.405   1.039 -0.8612 -0.0053  0.2066
 7711SOL     OW34768   3.653   3.489   2.467 -0.4230 -0.2964  0.0476
 7711SOL    HW134769   3.696   3.469   2.549 -0.6067 -2.1998 -0.3224
 7711SOL    HW234770   3.564   3.455   2.481 -0.6253  0.3124  0.2405
 7712SOL     OW34771   4.207   3.635   6.455 -0.4155  0.3142 -0.0531
 7712SOL    HW134772   4.299   3.609   6.459 -0.1506  0.8371 -2.3941
 7712SOL    HW234773   4.171   3.575   6.390  0.7599  1.1111 -1.4496
 7713SOL     OW34774   0.446   4.372  12.341  0.4135  0.0232  0.0530
 7713SOL    HW134775   0.485   4.447  12.385  0.2536  0.6498 -0.8690
 7713SOL    HW234776   0.526   4.338  12.299 -0.3652 -2.4659  0.5678
 7714SOL     OW34777   1.946   3.384   6.926 -0.1233  0.3730 -0.5642
 7714SOL    HW134778   2.010   3.445   6.889  0.4897 -0.1826 -0.4101
 7714SOL    HW234779   1.867   3.437   6.913  0.4086  2.0811  3.3204
 7715SOL     OW34780   1.133   3.451   8.503  0.7201  0.4671 -0.8898
 7715SOL    HW134781   1.115   3.365   8.464  1.3609  0.6430 -1.5454
 7715SOL    HW234782   1.120   3.506   8.426 -0.4734  1.6654  0.1624
 7716SOL     OW34783   2.018   1.831   8.924 -0.1651 -0.2846 -0.1146
 7716SOL    HW134784   2.025   1.738   8.904  0.4324 -0.4332  0.8076
 7716SOL    HW234785   2.057   1.836   9.011  0.4433 -1.2691 -0.3255
 7717SOL     OW34786   2.443   3.848   5.806 -0.3114  0.3440 -0.4994
 7717SOL    HW134787   2.357   3.885   5.825  0.3351  0.6334  1.8556
 7717SOL    HW234788   2.493   3.928   5.790  1.4292 -0.9205 -1.3703
 7718SOL     OW34789   1.764   3.984  16.289 -0.0370  0.2965  0.7097
 7718SOL    HW134790   1.701   3.944  16.349 -1.0996 -0.3549 -0.8394
 7718SOL    HW234791   1.839   3.986  16.349 -0.6242 -1.2659  1.4917
 7719SOL     OW34792   2.005   2.672   9.740  0.0013 -0.0143 -0.0784
 7719SOL    HW134793   1.971   2.702   9.656 -1.4484  1.3968  1.0360
 7719SOL    HW234794   2.090   2.716   9.739  0.6420 -1.2312  1.0915
 7720SOL     OW34795   1.152   3.407   8.153  0.9735  0.4073 -0.5355
 7720SOL    HW134796   1.137   3.317   8.124  1.6344 -0.0528  0.5496
 7720SOL    HW234797   1.080   3.451   8.108 -1.2014 -0.5087  2.0217
 7721SOL     OW34798   0.082   3.180  12.531 -0.5860  0.3885 -0.3831
 7721SOL    HW134799   0.008   3.129  12.564  0.0898 -0.8716 -0.7950
 7721SOL    HW234800   0.146   3.188  12.603  1.2003 -0.1606 -1.9028
 7722SOL     OW34801   0.600   2.338   2.431 -0.0785  0.1167  0.3299
 7722SOL    HW134802   0.597   2.279   2.506 -0.8700  0.4637  0.5724
 7722SOL    HW234803   0.657   2.293   2.369  0.1783  2.0993 -0.8693
 7723SOL     OW34804   1.637   1.644   7.555 -0.1848  0.0164 -0.0356
 7723SOL    HW134805   1.708   1.704   7.573 -0.6310  0.4023  0.4318
 7723SOL    HW234806   1.580   1.711   7.518 -1.2138 -0.6950  0.2285
 7724SOL     OW34807   1.552   1.993  13.492  0.6138  0.2788  0.7917
 7724SOL    HW134808   1.531   1.916  13.545 -2.5784  1.6492  1.5621
 7724SOL    HW234809   1.631   2.023  13.536  1.7585 -2.6744  0.7485
 7725SOL     OW34810   0.456   0.857   7.978 -0.3110 -0.0128  0.5032
 7725SOL    HW134811   0.439   0.934   8.032  0.2238  2.6686 -3.1174
 7725SOL    HW234812   0.540   0.829   8.012  0.0150 -3.1113 -2.8396
 7726SOL     OW34813   2.295   0.071  11.488 -0.0195 -0.1095  0.3930
 7726SOL    HW134814   2.312   0.111  11.403  1.5322  1.5259  1.4728
 7726SOL    HW234815   2.363   0.004  11.492  1.1480  1.0675  0.5245
 7727SOL     OW34816   0.058   4.197   3.174  0.4018  0.5162  0.5775
 7727SOL    HW134817   0.059   4.189   3.270 -1.7290  0.7094  0.6108
 7727SOL    HW234818   0.104   4.281   3.168  2.1981 -0.3730  2.0019
 7728SOL     OW34819   3.676   0.858  14.956 -0.0090 -0.5900 -0.3123
 7728SOL    HW134820   3.585   0.844  14.980 -0.2153  1.6879  0.2286
 7728SOL    HW234821   3.672   0.923  14.886 -0.4511  0.8861  1.0745
 7729SOL     OW34822   0.475   3.700   2.963  0.0214 -0.5266  0.7134
 7729SOL    HW134823   0.380   3.717   2.964 -0.0009 -0.4803 -2.2627
 7729SOL    HW234824   0.482   3.665   2.875 -1.1843 -0.2839  0.5171
 7730SOL     OW34825   2.975   1.617   6.833 -0.4063  0.2418  0.0816
 7730SOL    HW134826   2.881   1.635   6.824 -1.1824 -2.6637  2.4680
 7730SOL    HW234827   3.004   1.638   6.745 -3.0701 -0.1964 -0.9185
 7731SOL     OW34828   3.623   4.579   7.518 -0.5091 -0.6293 -1.0581
 7731SOL    HW134829   3.715   4.583   7.490  0.5390  1.7557  2.7491
 7731SOL    HW234830   3.603   4.672   7.530 -2.1648 -1.0364 -0.7277
 7732SOL     OW34831   1.584   2.554   3.866 -0.2415  0.1754 -0.3036
 7732SOL    HW134832   1.571   2.462   3.889  0.3552  0.3340  0.6700
 7732SOL    HW234833   1.677   2.553   3.885 -0.8364 -0.9207  2.5905
 7733SOL     OW34834   3.494   1.496   2.215 -0.1995 -0.2666 -0.2029
 7733SOL    HW134835   3.578   1.453   2.230 -0.1951 -0.6650 -1.4016
 7733SOL    HW234836   3.480   1.557   2.288  1.3549 -0.2417  0.0875
 7734SOL     OW34837   1.347   2.994   3.436 -0.0791  0.0935  0.6425
 7734SOL    HW134838   1.354   2.899   3.448  0.4984  0.0295 -0.1628
 7734SOL    HW234839   1.346   3.010   3.530 -0.8470  3.4102  0.0654
 7735SOL     OW34840   1.389   3.666  12.954 -0.4900 -0.0405 -0.4644
 7735SOL    HW134841   1.378   3.571  12.950  0.7077 -0.2006  0.1163
 7735SOL    HW234842   1.403   3.688  12.861 -2.3234  0.0541 -0.7052
 7736SOL     OW34843   1.531   1.122   1.013  0.0888 -0.3612  0.1155
 7736SOL    HW134844   1.539   1.034   0.978 -1.7271  0.7973 -3.2279
 7736SOL    HW234845   1.441   1.141   0.986 -0.0721 -1.2547  0.0412
 7737SOL     OW34846   3.520   1.244   8.228  0.6147 -0.0541 -0.0845
 7737SOL    HW134847   3.524   1.294   8.146  1.8074  1.4644  0.9060
 7737SOL    HW234848   3.445   1.279   8.275  1.3128  0.2968  0.7722
 7738SOL     OW34849   0.951   3.458  11.223  0.5143  0.1094  0.3486
 7738SOL    HW134850   0.988   3.392  11.165  2.7521 -0.5732  2.5002
 7738SOL    HW234851   1.015   3.438  11.291  1.4733  0.7945 -0.3523
 7739SOL     OW34852   4.524   3.567  17.241 -0.1035  0.4952  0.2941
 7739SOL    HW134853   4.559   3.647  17.202  0.2293  0.3369  0.2659
 7739SOL    HW234854   4.567   3.504  17.183 -0.7010  0.3431  0.0091
 7740SOL     OW34855   4.730   2.114   9.081  0.1742 -0.3305 -0.4832
 7740SOL    HW134856   0.043   2.168   9.016  0.8813  0.1867  0.4536
 7740SOL    HW234857   4.672   2.183   9.113 -2.0624 -2.3437 -0.2827
 7741SOL     OW34858   3.783   0.209   1.692 -0.5481  0.3903 -0.0723
 7741SOL    HW134859   3.832   0.189   1.772 -1.6374 -0.3438  0.4177
 7741SOL    HW234860   3.699   0.240   1.726 -1.5260 -3.4039  0.9575
 7742SOL     OW34861   2.251   4.589   6.378  0.0129 -0.0316 -0.6315
 7742SOL    HW134862   2.307   4.511   6.373 -0.3938 -0.3252 -0.6092
 7742SOL    HW234863   2.271   4.632   6.295  1.0777  0.5961 -0.0481
 7743SOL     OW34864   2.897   3.406   6.124  0.0187 -0.0741 -0.2596
 7743SOL    HW134865   2.802   3.421   6.117  0.0456 -0.7211 -2.1664
 7743SOL    HW234866   2.921   3.441   6.038 -0.4367 -1.3292 -0.9084
 7744SOL     OW34867   4.728   2.845   7.708  0.3255 -0.0196  0.0636
 7744SOL    HW134868   0.055   2.773   7.726  0.6258  0.8779  2.6825
 7744SOL    HW234869   4.650   2.798   7.680  1.0124  0.9751 -3.4982
 7745SOL     OW34870   3.581   0.355   6.752  0.2229  0.2816  0.1529
 7745SOL    HW134871   3.602   0.349   6.845 -0.5748  0.4833  0.3461
 7745SOL    HW234872   3.550   0.269   6.726 -2.9348  1.7793 -1.1065
 7746SOL     OW34873   0.672   1.072  14.838 -0.7155 -0.2946  0.0363
 7746SOL    HW134874   0.730   1.011  14.883  0.9398 -0.2007 -2.0060
 7746SOL    HW234875   0.713   1.071  14.752  0.8922 -1.9839  0.8469
 7747SOL     OW34876   3.690   0.969   1.094  0.2092 -0.5794 -0.1220
 7747SOL    HW134877   3.710   0.889   1.046  0.6862  0.6110 -1.9026
 7747SOL    HW234878   3.598   0.950   1.115  0.0597  0.4915  0.2071
 7748SOL     OW34879   4.731   0.945  17.066 -0.2079  0.5695  0.8307
 7748SOL    HW134880   0.071   0.984  17.018 -1.2061  4.3703  2.3731
 7748SOL    HW234881   4.668   0.992  17.011 -1.4101 -2.0814 -0.0618
 7749SOL     OW34882   0.679   2.382   4.803  0.0105  0.0190  0.1994
 7749SOL    HW134883   0.692   2.306   4.745  0.5361  0.6438 -0.5016
 7749SOL    HW234884   0.681   2.451   4.737 -2.0139  0.3276  0.4909
 7750SOL     OW34885   0.816   2.598   1.687  0.3129  0.5884  0.1952
 7750SOL    HW134886   0.757   2.609   1.612  1.2244  0.1746 -0.5907
 7750SOL    HW234887   0.832   2.504   1.690  0.5868  0.6263 -0.1039
 7751SOL     OW34888   0.773   3.569   2.144 -0.5861 -0.1140  0.1851
 7751SOL    HW134889   0.712   3.642   2.144 -0.1586  0.2364  0.4755
 7751SOL    HW234890   0.768   3.527   2.230  0.9766 -4.3673 -1.8095
 7752SOL     OW34891   1.775   2.171   4.357  0.3572  0.3492 -0.1512
 7752SOL    HW134892   1.720   2.140   4.429  0.5890  0.1337 -0.0661
 7752SOL    HW234893   1.747   2.262   4.365  1.5360  0.7058 -0.1560
 7753SOL     OW34894   0.455   3.195   8.526  0.6750 -0.1018 -0.0933
 7753SOL    HW134895   0.458   3.173   8.433  1.2441 -0.0026 -0.0989
 7753SOL    HW234896   0.485   3.109   8.554  0.0372 -1.0500 -2.3174
 7754SOL     OW34897   4.568   2.125   6.069 -0.5147  0.1374 -0.5501
 7754SOL    HW134898   4.529   2.179   6.001 -0.0285  0.7038 -0.3850
 7754SOL    HW234899   4.631   2.189   6.103  0.6042 -1.0807 -0.3053
 7755SOL     OW34900   0.219   2.984   1.339 -0.6293 -0.1645  0.8593
 7755SOL    HW134901   0.215   3.030   1.422 -1.6382  2.1921 -0.4953
 7755SOL    HW234902   0.132   2.947   1.325  0.0275 -1.7592  0.8790
 7756SOL     OW34903   3.763   0.873   4.788  0.1030 -0.2559  0.0186
 7756SOL    HW134904   3.756   0.958   4.744  0.2704  0.1443  0.7642
 7756SOL    HW234905   3.814   0.888   4.868  0.0246  0.3815 -0.0441
 7757SOL     OW34906   4.281   2.611   5.841 -0.2214  0.4269  0.1854
 7757SOL    HW134907   4.364   2.585   5.802  0.0533  0.4925  0.7291
 7757SOL    HW234908   4.312   2.637   5.928  0.7866  1.9262 -0.6153
 7758SOL     OW34909   3.103   3.264   1.018 -0.0000 -0.5808 -0.3899
 7758SOL    HW134910   3.113   3.333   1.084  0.1494  1.5370 -2.6079
 7758SOL    HW234911   3.114   3.319   0.940 -0.7179 -0.1690 -0.2039
 7759SOL     OW34912   4.237   4.401   5.824  0.4356 -0.3269 -0.5085
 7759SOL    HW134913   4.314   4.454   5.844  1.0074 -0.9811 -1.0122
 7759SOL    HW234914   4.187   4.402   5.906  0.7073  1.2500 -0.3528
 7760SOL     OW34915   2.365   3.647   9.866  0.4506  0.6787 -0.1826
 7760SOL    HW134916   2.352   3.622   9.958  1.7524 -1.1133 -0.4963
 7760SOL    HW234917   2.372   3.743   9.866  0.0131  0.7241  3.0637
 7761SOL     OW34918   0.489   0.192   6.588 -0.2107  0.1900  0.0402
 7761SOL    HW134919   0.512   0.279   6.621 -0.8568  0.5592 -0.4834
 7761SOL    HW234920   0.394   0.188   6.605 -0.4977  1.3441 -1.2822
 7762SOL     OW34921   4.438   1.890  10.505 -0.6494  0.2003 -0.0775
 7762SOL    HW134922   4.475   1.886  10.593 -0.7680  0.1048 -0.0307
 7762SOL    HW234923   4.404   1.979  10.508 -0.0746  0.2636  5.2361
 7763SOL     OW34924   3.648   0.169   7.285 -0.1607  0.6440  0.0275
 7763SOL    HW134925   3.556   0.191   7.296 -0.4261 -1.4413  2.0732
 7763SOL    HW234926   3.681   0.216   7.362  0.6588 -0.7281  0.5290
 7764SOL     OW34927   4.350   3.724   3.744 -0.0895  0.0572 -0.4337
 7764SOL    HW134928   4.344   3.787   3.816 -1.6601 -1.3556  0.6462
 7764SOL    HW234929   4.411   3.668   3.792  1.6908  0.3004 -2.4090
 7765SOL     OW34930   1.124   4.268  15.910 -0.3530  0.1066 -0.0114
 7765SOL    HW134931   1.058   4.255  15.841  0.0465 -1.1327 -0.1622
 7765SOL    HW234932   1.197   4.314  15.869 -0.0976  1.4125  1.8805
 7766SOL     OW34933   4.314   1.119   0.100 -0.2140  0.4096  0.5315
 7766SOL    HW134934   4.359   1.183   0.045 -1.6103  0.2333 -0.8128
 7766SOL    HW234935   4.357   1.133   0.184 -0.8010  2.1648  0.5280
 7767SOL     OW34936   2.259   4.262   5.832 -0.1093  0.2848 -0.0375
 7767SOL    HW134937   2.170   4.243   5.801  0.7102 -0.9489 -1.6617
 7767SOL    HW234938   2.313   4.272   5.753 -2.4115 -0.3601 -1.6905
 7768SOL     OW34939   4.474   4.288   1.857  0.2566 -0.1617  0.4432
 7768SOL    HW134940   4.467   4.270   1.763 -2.6548 -0.4650  0.7336
 7768SOL    HW234941   4.516   4.208   1.890  0.4348 -0.6035 -0.8647
 7769SOL     OW34942   4.418   1.808   2.550 -0.2001 -0.0831 -0.4770
 7769SOL    HW134943   4.454   1.764   2.627  1.4221  3.2309  0.6658
 7769SOL    HW234944   4.395   1.738   2.490 -0.7260 -2.6332  2.7203
 7770SOL     OW34945   3.349   2.065  11.530  0.2334  0.0517  0.8374
 7770SOL    HW134946   3.284   2.113  11.582  0.0177  0.2223  0.4126
 7770SOL    HW234947   3.386   2.145  11.493  3.7034 -1.3944  1.1736
 7771SOL     OW34948   1.187   0.648   9.858  0.2145  0.0513  0.0111
 7771SOL    HW134949   1.250   0.650   9.786 -1.5400 -0.0697 -1.5323
 7771SOL    HW234950   1.218   0.574   9.909  0.8768 -0.9794 -1.9033
 7772SOL     OW34951   2.915   1.597  11.053 -0.0654 -0.2285  0.0319
 7772SOL    HW134952   2.868   1.639  10.982 -1.0466 -0.1331  0.7340
 7772SOL    HW234953   2.984   1.660  11.073  0.1274 -0.0866 -1.0893
 7773SOL     OW34954   3.365   2.569   7.471 -0.6192  0.3824  0.1834
 7773SOL    HW134955   3.419   2.598   7.545  0.4045 -0.0408 -0.3905
 7773SOL    HW234956   3.301   2.640   7.464  0.2337  1.1996  0.6136
 7774SOL     OW34957   4.095   4.330   8.127 -0.0267  0.2046 -0.0521
 7774SOL    HW134958   4.029   4.295   8.186 -1.7960  2.0110 -0.9458
 7774SOL    HW234959   4.040   4.386   8.072 -0.9766 -2.2040 -1.5293
 7775SOL     OW34960   0.506   2.456   7.793  0.1476  0.0937 -0.0061
 7775SOL    HW134961   0.580   2.396   7.789  1.1707  1.0280  5.3185
 7775SOL    HW234962   0.431   2.401   7.816  0.8239  0.1995  2.4573
 7776SOL     OW34963   4.095   2.978  12.806  0.3860  0.2923  0.2284
 7776SOL    HW134964   4.115   2.885  12.809 -1.5078 -0.1296 -0.3221
 7776SOL    HW234965   4.091   2.991  12.711 -0.9795 -1.9167 -0.0206
 7777SOL     OW34966   2.603   3.302  17.610  0.2410  0.3765 -0.2249
 7777SOL    HW134967   2.583   3.367  17.678  1.5191  1.2497 -0.6768
 7777SOL    HW234968   2.516   3.293  17.571 -0.2072 -0.1510  0.9081
 7778SOL     OW34969   4.386   3.502   2.975 -0.2113 -0.2501 -0.5114
 7778SOL    HW134970   4.421   3.450   2.903 -1.8399 -0.0681 -1.4384
 7778SOL    HW234971   4.451   3.480   3.042  0.3166 -1.8516 -1.5683
 7779SOL     OW34972   2.865   2.857   7.877  0.5773  0.3039  0.3955
 7779SOL    HW134973   2.788   2.801   7.891  0.9432 -1.0550 -3.0003
 7779SOL    HW234974   2.819   2.939   7.897 -1.6533 -1.1115  1.0976
 7780SOL     OW34975   2.716   0.227   8.238 -0.4191  0.7815  0.4949
 7780SOL    HW134976   2.751   0.298   8.293  0.2030  0.4277  0.5573
 7780SOL    HW234977   2.625   0.256   8.231 -0.7033 -0.7603 -2.0471
 7781SOL     OW34978   2.317   3.823  13.490  0.1598  0.5270  0.7772
 7781SOL    HW134979   2.391   3.765  13.471 -0.4544 -0.4639  1.4337
 7781SOL    HW234980   2.356   3.903  13.526  0.1365  0.5117  0.8362
 7782SOL     OW34981   1.196   3.658   2.089 -0.1255  0.2759 -0.1173
 7782SOL    HW134982   1.202   3.751   2.109  3.6519 -0.1430  0.7951
 7782SOL    HW234983   1.271   3.649   2.030 -0.0889  1.8093 -0.2954
 7783SOL     OW34984   0.004   0.969   4.080 -0.2003 -0.2250  0.3408
 7783SOL    HW134985   4.724   0.976   4.174 -0.2968  0.3194  0.2850
 7783SOL    HW234986   4.699   1.049   4.043  0.8388  1.2334  2.4131
 7784SOL     OW34987   2.048   1.518   6.143  0.2459 -0.2585  0.1004
 7784SOL    HW134988   2.122   1.559   6.187 -0.2311 -0.4550  1.0781
 7784SOL    HW234989   1.987   1.522   6.217  0.9653  1.3389  0.6145
 7785SOL     OW34990   0.252   3.994  10.748 -0.2119 -0.2954 -0.0828
 7785SOL    HW134991   0.304   3.953  10.816  0.9651  0.9994 -0.1932
 7785SOL    HW234992   0.255   3.923  10.685  1.3055 -0.7723  0.5286
 7786SOL     OW34993   1.589   1.548  15.755 -0.0661  0.3910 -0.1991
 7786SOL    HW134994   1.583   1.641  15.732 -1.0381  0.1901 -0.7353
 7786SOL    HW234995   1.684   1.540  15.748  0.0279  0.1270  1.3048
 7787SOL     OW34996   0.960   1.595   2.716  0.2377  0.9179 -0.2442
 7787SOL    HW134997   0.970   1.664   2.781  1.4226  0.7158 -0.2015
 7787SOL    HW234998   1.022   1.527   2.744 -1.3253 -0.5274 -0.3292
 7788SOL     OW34999   3.354   4.273  15.547  0.2372  0.1902  0.7278
 7788SOL    HW135000   3.283   4.326  15.510  2.6455  2.4249 -0.6942
 7788SOL    HW235001   3.338   4.292  15.639  0.1794 -0.5999  0.8775
 7789SOL     OW35002   1.075   3.156   6.127  0.3164 -0.1935 -0.6754
 7789SOL    HW135003   1.136   3.085   6.105 -0.4809 -1.5270  1.3405
 7789SOL    HW235004   1.013   3.149   6.055 -0.8821 -1.1142  0.4470
 7790SOL     OW35005   0.831   0.794   8.330  0.2387  0.7869 -0.1352
 7790SOL    HW135006   0.787   0.806   8.414  0.4294  0.6435 -0.0141
 7790SOL    HW235007   0.895   0.727   8.353  1.1071  1.6671  0.0103
 7791SOL     OW35008   0.084   3.890   2.122  0.6086  0.1821 -0.1626
 7791SOL    HW135009   0.009   3.885   2.180  0.0510  1.6980 -0.7578
 7791SOL    HW235010   0.096   3.797   2.103 -1.2262  0.0892 -0.8148
 7792SOL     OW35011   0.200   1.951   6.767  0.2064  1.2487  0.1600
 7792SOL    HW135012   0.128   1.910   6.815  0.5641  1.0898  0.5620
 7792SOL    HW235013   0.170   1.934   6.678 -1.1260  0.2269  0.8033
 7793SOL     OW35014   3.577   0.020   3.520 -0.0883 -0.3266 -0.2805
 7793SOL    HW135015   3.592   0.092   3.581  1.1299  0.8760 -2.0031
 7793SOL    HW235016   3.539   0.070   3.447 -1.0398 -1.2325 -0.4134
 7794SOL     OW35017   2.350   2.373   7.320  0.1549 -0.1382 -0.1121
 7794SOL    HW135018   2.395   2.428   7.384  0.2293  0.0036 -0.2845
 7794SOL    HW235019   2.395   2.391   7.237 -1.6259 -1.3762 -1.3244
 7795SOL     OW35020   0.816   4.073   7.112 -0.4537 -0.2284 -0.8647
 7795SOL    HW135021   0.806   4.090   7.018 -1.7552  1.6924 -0.3766
 7795SOL    HW235022   0.723   4.067   7.133 -1.0291  1.4394 -2.9730
 7796SOL     OW35023   3.256   0.027  10.069 -0.4778  0.1130  0.0371
 7796SOL    HW135024   3.304   0.101  10.033  0.6691  0.3073  1.9897
 7796SOL    HW235025   3.311   4.691  10.033 -0.2853 -0.0874  0.7175
 7797SOL     OW35026   0.473   2.380   2.193 -0.2522 -0.0608  0.4402
 7797SOL    HW135027   0.518   2.353   2.273  3.5117  1.6848 -1.0394
 7797SOL    HW235028   0.548   2.415   2.143 -0.0066  1.5771  1.9676
 7798SOL     OW35029   3.884   2.082  17.495 -0.5757  0.1147 -0.6135
 7798SOL    HW135030   3.816   2.080  17.427 -0.0203  0.3018 -1.1664
 7798SOL    HW235031   3.866   2.166  17.536  0.3046 -0.7477  1.5362
 7799SOL     OW35032   0.737   0.739   2.347  0.1729 -0.0608 -0.8382
 7799SOL    HW135033   0.673   0.806   2.324 -0.6485  0.1553  2.0298
 7799SOL    HW235034   0.693   0.661   2.314 -0.6816 -0.1892  0.6088
 7800SOL     OW35035   3.367   4.460   6.911  0.6598 -0.1134 -0.6596
 7800SOL    HW135036   3.294   4.414   6.953  1.1532  0.3309  0.6903
 7800SOL    HW235037   3.444   4.424   6.955 -0.1453  0.3566  1.1303
 7801SOL     OW35038   1.052   1.872   4.149  0.2795 -0.3176 -0.3349
 7801SOL    HW135039   1.069   1.800   4.209 -0.1327  1.1279  1.5154
 7801SOL    HW235040   1.014   1.819   4.080  2.4317  1.2446 -2.7390
 7802SOL     OW35041   0.624   4.314   7.861 -0.5751 -0.0751  0.3506
 7802SOL    HW135042   0.535   4.350   7.860 -0.4346  0.2650  0.3953
 7802SOL    HW235043   0.626   4.271   7.946 -1.2145 -0.9833 -0.0794
 7803SOL     OW35044   4.586   0.218   4.502 -0.0807  0.1044  0.5844
 7803SOL    HW135045   4.506   0.257   4.468 -0.3074  0.5028  1.5897
 7803SOL    HW235046   4.623   0.301   4.534  0.4557 -0.4993  1.5346
 7804SOL     OW35047   3.103   2.780   7.971 -0.1398 -0.2826 -0.7600
 7804SOL    HW135048   3.109   2.741   7.883 -1.8773 -0.2737 -0.8809
 7804SOL    HW235049   3.020   2.826   7.960  0.5051  1.1553  0.5191
 7805SOL     OW35050   0.052   2.264   6.845 -0.3767  0.3503  0.1216
 7805SOL    HW135051   0.074   2.171   6.851 -2.3511 -0.0756  0.5721
 7805SOL    HW235052   0.013   2.280   6.930 -1.0007 -2.2134  0.2846
 7806SOL     OW35053   0.371   3.062   2.872  0.3566  0.5319 -0.0474
 7806SOL    HW135054   0.433   3.105   2.813 -0.3525  2.3957  0.5917
 7806SOL    HW235055   0.322   2.997   2.822  2.6790 -0.3434 -1.1928
 7807SOL     OW35056   0.868   2.159   9.222  0.8475  0.3053  0.0451
 7807SOL    HW135057   0.800   2.217   9.189  0.2309 -1.4417 -1.7406
 7807SOL    HW235058   0.934   2.219   9.258 -0.0142  1.7338 -0.7910
 7808SOL     OW35059   0.855   0.858   6.826 -0.1979 -0.1919 -0.0644
 7808SOL    HW135060   0.801   0.859   6.905 -0.1248  0.1913 -0.0182
 7808SOL    HW235061   0.837   0.948   6.801 -1.4192 -0.1094  1.1351
 7809SOL     OW35062   4.559   1.157   8.047 -0.4613 -0.1390 -0.2567
 7809SOL    HW135063   4.489   1.218   8.067 -0.6643  0.0737 -1.6193
 7809SOL    HW235064   4.534   1.082   8.101 -1.7755 -0.1608 -0.9066
 7810SOL     OW35065   4.688   1.600   0.617 -0.1471 -0.0821 -0.3422
 7810SOL    HW135066   4.677   1.574   0.709  0.5424  0.6146 -0.0666
 7810SOL    HW235067   4.705   1.518   0.571 -1.9510  0.3224 -1.7274
 7811SOL     OW35068   2.279   3.012   3.927  0.1633 -0.0499  0.0959
 7811SOL    HW135069   2.308   3.099   3.956  3.1583 -0.5491 -1.3429
 7811SOL    HW235070   2.232   2.993   4.008 -0.1230  2.2471  0.4630
 7812SOL     OW35071   1.532   3.299   8.066  0.4751  0.4847 -0.0348
 7812SOL    HW135072   1.625   3.289   8.086  0.3640  0.9664  0.7121
 7812SOL    HW235073   1.508   3.348   8.145  6.3475  2.5837  0.4877
 7813SOL     OW35074   1.873   0.378   6.152 -0.1035 -0.5998  0.6290
 7813SOL    HW135075   1.812   0.311   6.120 -0.8139 -0.0495  0.8225
 7813SOL    HW235076   1.950   0.326   6.130 -0.6430 -0.7582 -0.8924
 7814SOL     OW35077   2.899   4.408   6.583 -0.0150  0.2724 -0.3271
 7814SOL    HW135078   2.924   4.328   6.629  0.0189  1.4950  1.7805
 7814SOL    HW235079   2.972   4.462   6.615 -1.3365  1.2944  0.9526
 7815SOL     OW35080   0.288   3.804   6.065 -0.5676 -0.5436 -0.5960
 7815SOL    HW135081   0.287   3.734   6.131 -1.0003  1.7265  1.8312
 7815SOL    HW235082   0.320   3.754   5.990  1.5488 -1.5505  0.9868
 7816SOL     OW35083   1.073   0.331   9.227  0.4652  0.3071  0.5920
 7816SOL    HW135084   1.063   0.423   9.250  0.3700  0.3333  0.4426
 7816SOL    HW235085   1.058   0.335   9.133 -0.1443  0.8191  0.7071
 7817SOL     OW35086   2.948   1.528   5.962  0.3584  0.1360  0.6446
 7817SOL    HW135087   2.942   1.434   5.981 -0.4494  0.0194 -0.2001
 7817SOL    HW235088   3.021   1.545   6.022  1.2927 -2.7514  0.3255
 7818SOL     OW35089   1.917   2.784   4.188  0.0702  0.2625  0.1309
 7818SOL    HW135090   1.975   2.719   4.149 -1.0327  0.9477 -2.6917
 7818SOL    HW235091   1.924   2.747   4.276  1.4131  0.8203  0.2536
 7819SOL     OW35092   2.837   0.447   8.018  0.6604 -0.0519 -0.0323
 7819SOL    HW135093   2.812   0.374   7.961  1.0740 -0.2342  0.0258
 7819SOL    HW235094   2.889   0.496   7.955  1.4002  0.4606  0.9870
 7820SOL     OW35095   0.558   4.330   2.305 -1.0516 -0.2784  0.2023
 7820SOL    HW135096   0.585   4.254   2.254  0.8552  0.0657  0.7085
 7820SOL    HW235097   0.482   4.304   2.358 -0.9903 -0.6842  0.0919
 7821SOL     OW35098   4.379   2.303   6.477 -1.1884  0.6253  0.0175
 7821SOL    HW135099   4.462   2.259   6.495 -1.2019  0.5577 -0.0842
 7821SOL    HW235100   4.416   2.391   6.484 -1.1137  0.7567 -1.8664
 7822SOL     OW35101   0.706   4.536   3.503 -0.4682  0.5316 -0.0392
 7822SOL    HW135102   0.788   4.524   3.551  0.6093 -0.5818 -2.1906
 7822SOL    HW235103   0.685   4.443   3.491  0.4010  0.2172  0.9117
 7823SOL     OW35104   0.196   1.838  17.679 -0.0291  0.6055  0.5053
 7823SOL    HW135105   0.156   1.753  17.699  0.2570  0.6316  1.2004
 7823SOL    HW235106   0.286   1.830  17.711 -0.0592 -2.8099 -0.3045
 7824SOL     OW35107   2.930   2.250   3.209 -0.4081 -0.2464  0.1183
 7824SOL    HW135108   2.881   2.175   3.176 -2.0321  1.9607 -2.4672
 7824SOL    HW235109   3.016   2.228   3.173 -0.3646  2.7886 -1.6179
 7825SOL     OW35110   2.332   1.300   8.241  0.4386 -0.9467  0.0639
 7825SOL    HW135111   2.324   1.395   8.249  0.2301 -1.0642  1.1861
 7825SOL    HW235112   2.357   1.278   8.331 -0.7977  1.4475  0.9955
 7826SOL     OW35113   3.429   1.338   1.444 -0.4776 -0.6477  0.3280
 7826SOL    HW135114   3.498   1.271   1.453  0.3241 -0.1943 -2.5933
 7826SOL    HW235115   3.359   1.274   1.433  0.2387 -0.7059 -3.9084
 7827SOL     OW35116   0.704   3.097  12.383 -0.2516 -0.0205 -0.7525
 7827SOL    HW135117   0.649   3.022  12.361  1.5773 -1.5180 -0.2321
 7827SOL    HW235118   0.642   3.171  12.383  1.3326  1.3120 -1.0702
 7828SOL     OW35119   0.884   4.448   2.806 -0.0789  0.6503  0.1367
 7828SOL    HW135120   0.812   4.452   2.868 -0.4961 -0.6310 -0.2528
 7828SOL    HW235121   0.910   4.540   2.809  0.8875  0.3759  0.1214
 7829SOL     OW35122   0.177   1.413  12.400 -0.0581  0.0531  1.1377
 7829SOL    HW135123   0.151   1.439  12.488  1.0638 -0.4115  1.6096
 7829SOL    HW235124   0.122   1.477  12.356 -1.5043  0.4770  3.5832
 7830SOL     OW35125   1.167   0.316   2.358  0.0497  0.5688  0.0655
 7830SOL    HW135126   1.135   0.320   2.448 -0.3189  0.9733 -0.0820
 7830SOL    HW235127   1.178   0.409   2.339  2.0921 -0.3378 -3.1362
 7831SOL     OW35128   0.463   2.943   9.759  0.1076  0.0960  0.2480
 7831SOL    HW135129   0.425   3.020   9.717  1.0364  0.4015 -0.0447
 7831SOL    HW235130   0.387   2.894   9.790  0.2992 -1.1962 -1.3547
 7832SOL     OW35131   1.475   1.476  11.693 -0.3391 -0.4401  0.7636
 7832SOL    HW135132   1.458   1.484  11.599  0.6203 -0.3124  0.6009
 7832SOL    HW235133   1.517   1.390  11.693  0.4343 -0.0644  1.5612
 7833SOL     OW35134   2.558   4.028  11.639  0.4250 -0.4371 -0.1794
 7833SOL    HW135135   2.605   4.080  11.573  2.8606 -1.2205  0.9354
 7833SOL    HW235136   2.614   3.951  11.646 -1.3545 -1.5749  1.3947
 7834SOL     OW35137   4.699   1.890  12.358 -0.4782  0.0558  0.0473
 7834SOL    HW135138   4.689   1.985  12.368  1.0709  0.3364 -1.0930
 7834SOL    HW235139   4.611   1.867  12.329 -0.2843 -0.7722  0.1215
 7835SOL     OW35140   0.011   4.146   3.437 -0.2803 -0.0042  0.1778
 7835SOL    HW135141   4.703   4.091   3.503  0.4525  0.7328  1.2557
 7835SOL    HW235142   0.102   4.142   3.467 -0.1369 -0.4434 -0.3032
 7836SOL     OW35143   2.837   1.093   9.139  0.1307  0.1532  1.0106
 7836SOL    HW135144   2.829   1.186   9.159 -0.9743 -0.0278  1.4023
 7836SOL    HW235145   2.930   1.074   9.130  0.0099 -1.4838  3.3366
 7837SOL     OW35146   1.813   0.366   4.678 -0.3800  0.2442  0.1839
 7837SOL    HW135147   1.880   0.305   4.709 -0.8950 -0.7229 -0.5732
 7837SOL    HW235148   1.737   0.336   4.728  0.2528  0.0708  1.0371
 7838SOL     OW35149   0.566   1.426  13.004 -0.4375  0.3202 -0.0588
 7838SOL    HW135150   0.537   1.492  13.067  1.0557  1.2717 -0.3685
 7838SOL    HW235151   0.657   1.451  12.987  0.6072 -2.2102  1.8253
 7839SOL     OW35152   4.050   0.962   6.044  0.2885  0.8152  0.0378
 7839SOL    HW135153   4.059   1.026   6.113  1.6927 -1.2132  1.7474
 7839SOL    HW235154   3.991   0.897   6.081 -0.4257  1.0352 -0.7117
 7840SOL     OW35155   2.093   4.541   4.927 -0.0215 -0.3778 -0.1648
 7840SOL    HW135156   2.036   4.467   4.948  0.9805 -0.8295  1.0052
 7840SOL    HW235157   2.037   4.618   4.917 -1.0191 -1.6070 -3.7934
 7841SOL     OW35158   0.625   1.463   0.470 -0.2223 -0.0733 -0.5638
 7841SOL    HW135159   0.657   1.552   0.459 -0.2949 -0.2860 -2.5392
 7841SOL    HW235160   0.609   1.472   0.564 -2.4495 -0.7984 -0.8703
 7842SOL     OW35161   3.250   2.536   3.290 -0.3820  0.0021  0.1371
 7842SOL    HW135162   3.266   2.442   3.297  0.0296  0.1265  0.8801
 7842SOL    HW235163   3.238   2.538   3.195  1.1110  1.6061 -0.0129
 7843SOL     OW35164   0.839   0.851   5.917 -0.5262 -0.6552  0.0823
 7843SOL    HW135165   0.776   0.808   5.975  2.0960 -2.2088  1.8449
 7843SOL    HW235166   0.844   0.938   5.957  1.8997 -1.2495  1.1288
 7844SOL     OW35167   4.070   2.822   6.707  0.1344 -0.9273 -0.0518
 7844SOL    HW135168   3.978   2.824   6.733 -0.0670 -0.4978 -0.7662
 7844SOL    HW235169   4.080   2.907   6.663 -0.6905  0.2043  1.9392
 7845SOL     OW35170   1.987   3.954  16.507  0.1136 -0.4743  0.2184
 7845SOL    HW135171   2.055   3.891  16.484 -2.0067 -1.5806 -3.1523
 7845SOL    HW235172   2.018   4.028  16.456  4.7287 -1.4719  1.6295
 7846SOL     OW35173   0.878   0.339   2.244  0.3314 -0.3619 -0.1764
 7846SOL    HW135174   0.804   0.395   2.221  1.3163  1.5662  1.3424
 7846SOL    HW235175   0.893   0.367   2.334 -0.0213  1.8043 -0.7764
 7847SOL     OW35176   4.041   0.860   9.086 -0.4252 -0.6309 -0.0623
 7847SOL    HW135177   4.016   0.830   9.174  1.2747  2.0603  1.3577
 7847SOL    HW235178   3.954   0.884   9.054 -0.1874  0.0805 -0.1634
 7848SOL     OW35179   3.805   1.827   4.344 -0.4647  0.5313  0.1346
 7848SOL    HW135180   3.841   1.899   4.293 -0.5115  1.2621  1.1196
 7848SOL    HW235181   3.880   1.791   4.391 -0.7348 -3.3156 -2.4134
 7849SOL     OW35182   1.372   0.571   5.616  0.4972  0.5690  0.4512
 7849SOL    HW135183   1.279   0.546   5.619 -0.1288  2.8615 -0.1671
 7849SOL    HW235184   1.415   0.486   5.612  1.1151  1.0013 -2.2581
 7850SOL     OW35185   3.328   0.886  10.526  0.1675 -0.0189 -0.5979
 7850SOL    HW135186   3.335   0.940  10.447  1.6731 -0.8817 -1.0568
 7850SOL    HW235187   3.418   0.885  10.559 -0.1663  0.8551  0.3383
 7851SOL     OW35188   0.400   1.188   7.130  0.2437 -0.4127  0.2012
 7851SOL    HW135189   0.370   1.128   7.199 -0.7919  1.7904  1.6634
 7851SOL    HW235190   0.460   1.240   7.183  2.1524 -1.6548 -0.7626
 7852SOL     OW35191   0.751   4.523   9.579 -0.0452 -0.0186 -0.0213
 7852SOL    HW135192   0.817   4.592   9.579  0.7792 -0.8001 -0.8950
 7852SOL    HW235193   0.804   4.450   9.612 -0.9291 -0.8569 -0.4451
 7853SOL     OW35194   1.877   4.075   3.664  0.4004  0.4889 -0.0791
 7853SOL    HW135195   1.878   4.014   3.590  1.2210 -0.9858  1.1543
 7853SOL    HW235196   1.830   4.015   3.721  0.5582 -1.4793 -2.0364
 7854SOL     OW35197   1.707   0.747   7.248  0.7587 -0.3564 -0.3326
 7854SOL    HW135198   1.614   0.752   7.229  0.3341 -0.5047  1.6964
 7854SOL    HW235199   1.739   0.830   7.212  0.4835  0.2058  0.7162
 7855SOL     OW35200   2.243   3.937   6.307 -0.8555  0.1315  0.4948
 7855SOL    HW135201   2.227   4.005   6.242 -0.8900 -0.9437 -0.6038
 7855SOL    HW235202   2.244   3.867   6.242 -1.4550  1.0464 -0.5019
 7856SOL     OW35203   0.267   1.073   2.516 -0.2775  0.7615 -0.3405
 7856SOL    HW135204   0.260   1.000   2.579  1.5597  1.0871  0.2444
 7856SOL    HW235205   0.191   1.050   2.462 -0.9635  0.7448  0.6181
 7857SOL     OW35206   2.604   4.575   4.058  0.1482  0.0972  0.0394
 7857SOL    HW135207   2.621   4.573   4.153 -0.8900 -1.9704  0.1637
 7857SOL    HW235208   2.588   4.668   4.039  1.2590  0.3249  0.1796
 7858SOL     OW35209   2.758   3.032   3.590  0.4079 -0.1018  0.3953
 7858SOL    HW135210   2.729   3.123   3.600  0.8648  0.0765  0.1076
 7858SOL    HW235211   2.795   3.027   3.678 -2.1250 -1.7863  1.3557
 7859SOL     OW35212   1.390   0.091   8.506 -0.1395  0.1445  0.0959
 7859SOL    HW135213   1.419   0.001   8.492  1.8628  0.8528 -0.2980
 7859SOL    HW235214   1.295   0.082   8.516 -0.3030 -0.4009 -1.8547
 7860SOL     OW35215   3.060   3.535   5.496  0.2968 -0.0207  0.5997
 7860SOL    HW135216   3.032   3.482   5.421  0.8000  0.6893 -0.1018
 7860SOL    HW235217   3.000   3.510   5.566  1.3900 -3.0503  0.4281
 7861SOL     OW35218   0.472   4.229   1.650 -0.3278  0.0015  0.0970
 7861SOL    HW135219   0.467   4.306   1.593 -0.1584  0.1229  0.2464
 7861SOL    HW235220   0.568   4.230   1.655 -0.3365 -0.3803  0.3192
 7862SOL     OW35221   3.758   2.118  11.357 -0.1036  0.5861  0.0700
 7862SOL    HW135222   3.764   2.081  11.445  0.4547 -0.3360 -0.3632
 7862SOL    HW235223   3.849   2.122  11.328 -0.0138  2.6101  0.6057
 7863SOL     OW35224   1.379   3.954  14.178  1.0004 -0.5145  0.3684
 7863SOL    HW135225   1.293   3.963  14.220  2.3335  1.8049  2.5905
 7863SOL    HW235226   1.376   4.031  14.121  0.0118 -0.8624 -0.0476
 7864SOL     OW35227   3.663   4.327  11.721 -0.1488 -0.0157 -0.4039
 7864SOL    HW135228   3.758   4.338  11.719  0.0139 -1.3711 -0.3304
 7864SOL    HW235229   3.649   4.382  11.644  1.7249  0.4077 -0.4353
 7865SOL     OW35230   0.168   2.419  12.857  0.2016  0.4588  0.4053
 7865SOL    HW135231   0.250   2.418  12.808  0.1060  0.9343  0.2370
 7865SOL    HW235232   0.196   2.380  12.940  0.6602  0.7968  0.4106
 7866SOL     OW35233   3.605   3.603   5.692  0.4188 -0.2285  0.6639
 7866SOL    HW135234   3.564   3.640   5.770 -1.4603 -0.2259 -0.3204
 7866SOL    HW235235   3.555   3.641   5.620  3.8353  1.6585 -0.7224
 7867SOL     OW35236   4.122   1.588  11.552 -0.3599  0.4337  0.3090
 7867SOL    HW135237   4.190   1.652  11.535  0.0048 -0.3076 -1.0560
 7867SOL    HW235238   4.108   1.563  11.460 -0.0667  2.0164 -0.1603
 7868SOL     OW35239   3.028   1.685  16.116  0.1423  0.1592  0.2629
 7868SOL    HW135240   2.974   1.749  16.163 -0.4954  0.9822 -1.5652
 7868SOL    HW235241   3.046   1.734  16.036 -1.3416  1.7512  0.9117
 7869SOL     OW35242   2.149   2.907   1.516 -0.6237 -0.6790 -0.0008
 7869SOL    HW135243   2.202   2.869   1.445 -0.9306 -0.5043 -0.3241
 7869SOL    HW235244   2.117   2.827   1.558  2.5632 -0.9834  1.8230
 7870SOL     OW35245   3.149   1.187   1.030  0.0147 -0.1784  0.1058
 7870SOL    HW135246   3.108   1.121   0.974  0.6268 -1.4554  1.1931
 7870SOL    HW235247   3.082   1.255   1.029 -2.2954 -2.4804  0.7293
 7871SOL     OW35248   1.541   2.447   6.431 -0.6285 -0.3927 -0.2053
 7871SOL    HW135249   1.630   2.410   6.428 -0.3428  0.1924  1.4429
 7871SOL    HW235250   1.485   2.373   6.407 -0.2750 -0.9766  0.7938
 7872SOL     OW35251   3.648   2.969   3.424 -0.5962 -0.2510 -0.5220
 7872SOL    HW135252   3.676   3.030   3.492 -0.1773 -0.2393 -0.7058
 7872SOL    HW235253   3.589   2.910   3.472  0.0180 -1.6002 -1.4415
 7873SOL     OW35254   0.035   2.187   3.015  0.0164  0.3126  0.1780
 7873SOL    HW135255   4.683   2.226   3.027 -1.2288 -1.5063 -2.8777
 7873SOL    HW235256   0.007   2.160   2.928  0.8792 -4.4349  1.3448
 7874SOL     OW35257   2.627   1.543   4.339  0.7179 -0.1945 -0.0649
 7874SOL    HW135258   2.687   1.604   4.296 -0.8064  1.1016 -0.3444
 7874SOL    HW235259   2.575   1.609   4.384  0.3480  1.0827 -2.3591
 7875SOL     OW35260   0.584   3.026   0.519  0.9652  0.0580 -0.1651
 7875SOL    HW135261   0.542   3.043   0.435 -1.9952  1.6547  1.6151
 7875SOL    HW235262   0.661   2.978   0.490 -0.0667 -1.2417 -0.7268
 7876SOL     OW35263   1.095   2.004   5.139  0.0650  0.1012 -0.3738
 7876SOL    HW135264   1.167   1.997   5.201  2.1555  0.3663 -2.7615
 7876SOL    HW235265   1.122   2.078   5.085  0.7978 -0.0982 -0.2762
 7877SOL     OW35266   2.064   3.047   6.633 -0.0193 -0.0750 -0.0022
 7877SOL    HW135267   2.152   3.067   6.665  0.4866 -0.0838 -1.3896
 7877SOL    HW235268   2.042   2.983   6.702 -0.2070 -0.6096 -0.5599
 7878SOL     OW35269   1.616   3.400   7.592  0.0857  0.0065 -0.6103
 7878SOL    HW135270   1.553   3.440   7.652 -1.7781 -1.4136 -1.5865
 7878SOL    HW235271   1.668   3.349   7.654  0.6193  0.4252 -0.7147
 7879SOL     OW35272   3.297   2.936   7.264  0.4419 -0.3346 -0.3344
 7879SOL    HW135273   3.266   2.915   7.352  2.3082  0.7102  0.5885
 7879SOL    HW235274   3.364   2.867   7.266 -0.7385 -1.4612  0.0870
 7880SOL     OW35275   0.292   1.555   3.833  0.4727 -0.4112  0.7362
 7880SOL    HW135276   0.217   1.512   3.792  2.2860  0.0808 -3.1505
 7880SOL    HW235277   0.361   1.490   3.815  2.3578  1.6440  0.4805
 7881SOL     OW35278   1.203   3.559   5.757 -0.2262  0.0047 -0.3953
 7881SOL    HW135279   1.220   3.546   5.850  2.5392 -0.6524 -1.0115
 7881SOL    HW235280   1.166   3.473   5.739  0.7584 -0.4702 -0.0980
 7882SOL     OW35281   3.940   0.434   9.175  0.6781  0.2344 -0.3047
 7882SOL    HW135282   3.864   0.488   9.153  1.1901  1.0415 -0.0813
 7882SOL    HW235283   3.910   0.344   9.162  0.6380  0.2328 -0.2004
 7883SOL     OW35284   0.660   2.694  10.226  0.3415  0.0634  0.1137
 7883SOL    HW135285   0.690   2.608  10.196 -1.8672 -0.8841  0.5871
 7883SOL    HW235286   0.574   2.693  10.184 -0.3677  3.1374  1.5564
 7884SOL     OW35287   4.097   3.869  15.653 -0.2725 -0.1563 -0.4962
 7884SOL    HW135288   4.176   3.821  15.674  0.4903  0.4920 -1.8694
 7884SOL    HW235289   4.082   3.825  15.569 -0.9920  1.3612 -1.1792
 7885SOL     OW35290   3.298   2.623   5.634 -0.1674 -0.0008  0.3192
 7885SOL    HW135291   3.310   2.629   5.539 -2.5577 -0.6342 -0.0337
 7885SOL    HW235292   3.389   2.611   5.657 -0.6112 -1.4776  1.2846
 7886SOL     OW35293   2.142   1.880   5.964 -0.4179  0.0703  0.0396
 7886SOL    HW135294   2.235   1.871   5.983  0.0170  1.4075 -1.5245
 7886SOL    HW235295   2.092   1.868   6.045 -0.9611  1.5622 -0.0806
 7887SOL     OW35296   0.183   2.421  16.860 -0.3314  0.1066 -0.2615
 7887SOL    HW135297   0.274   2.392  16.852 -0.5659 -0.5531 -0.5784
 7887SOL    HW235298   0.178   2.397  16.953  1.1556  1.9988  0.2973
 7888SOL     OW35299   3.879   3.502   4.310  0.0707  0.0944  0.0212
 7888SOL    HW135300   3.925   3.451   4.244 -0.7103  2.6996 -2.4999
 7888SOL    HW235301   3.921   3.586   4.293  0.9641 -0.3189  0.1806
 7889SOL     OW35302   0.289   1.135   8.001  0.6374  0.3532 -0.3417
 7889SOL    HW135303   0.347   1.211   7.996  1.0458 -0.0398 -1.6537
 7889SOL    HW235304   0.210   1.162   7.953  1.5794  1.1305 -1.4420
 7890SOL     OW35305   3.656   3.069   0.379 -0.6466 -0.4016 -0.0605
 7890SOL    HW135306   3.674   2.987   0.425 -1.4587 -0.4622  0.1537
 7890SOL    HW235307   3.571   3.045   0.341 -0.0158 -0.4705 -1.4193
 7891SOL     OW35308   1.846   3.233   4.487  0.1877  0.3459 -0.0095
 7891SOL    HW135309   1.878   3.287   4.559  0.4340  2.9804 -2.1195
 7891SOL    HW235310   1.799   3.302   4.440  1.2856  0.7002 -0.5707
 7892SOL     OW35311   2.293   4.706   2.224 -0.0581 -0.0036  0.1319
 7892SOL    HW135312   2.287   0.015   2.139  1.4875 -0.7366 -0.3444
 7892SOL    HW235313   2.339   4.627   2.196  0.7642  0.6209 -0.2871
 7893SOL     OW35314   2.391   1.811   8.792 -0.3914 -0.0787  0.2756
 7893SOL    HW135315   2.376   1.872   8.864  1.5605  1.4583 -0.6329
 7893SOL    HW235316   2.464   1.755   8.820  0.9932  0.8027 -1.6093
 7894SOL     OW35317   4.465   1.808   7.058  0.5142  0.2858 -0.6126
 7894SOL    HW135318   4.370   1.819   7.054  0.0810 -2.0903  2.6319
 7894SOL    HW235319   4.473   1.746   6.985 -1.2927 -2.3889  1.4523
 7895SOL     OW35320   0.211   1.641   4.345  0.4238  0.0660 -0.1011
 7895SOL    HW135321   0.172   1.721   4.380  0.6857  0.7242 -1.3465
 7895SOL    HW235322   0.144   1.575   4.364  1.8325 -1.1785  0.5739
 7896SOL     OW35323   1.025   4.607  12.862 -0.8976 -0.1729 -0.4147
 7896SOL    HW135324   0.992   4.531  12.813  1.2869 -0.4803 -1.3944
 7896SOL    HW235325   1.094   4.560  12.910 -1.7106 -0.1345  0.7893
 7897SOL     OW35326   2.784   3.475   4.355  0.1678  0.4026 -0.1791
 7897SOL    HW135327   2.705   3.482   4.409  0.7822 -0.6100  0.8542
 7897SOL    HW235328   2.824   3.562   4.367  1.3894 -0.2414  0.4590
 7898SOL     OW35329   2.628   4.646   4.983 -0.0635  0.1546  0.0580
 7898SOL    HW135330   2.655   4.567   5.031  1.5399  0.4319 -0.3803
 7898SOL    HW235331   2.532   4.646   4.986 -0.0366  0.5440  0.9747
 7899SOL     OW35332   2.438   2.063   1.840 -0.0854 -0.0927 -0.4635
 7899SOL    HW135333   2.399   2.103   1.763  1.5291  1.6498 -0.3835
 7899SOL    HW235334   2.530   2.066   1.814 -0.7909  0.7530 -2.7996
 7900SOL     OW35335   0.347   4.372   7.862 -0.0886 -0.5140 -0.1623
 7900SOL    HW135336   0.356   4.447   7.803 -0.0858 -0.9978 -0.7811
 7900SOL    HW235337   0.253   4.358   7.850 -0.6985  1.5893  2.3176
 7901SOL     OW35338   2.038   0.641   2.634 -0.0040 -0.2107 -0.2011
 7901SOL    HW135339   2.095   0.598   2.571 -2.3386 -0.4169 -2.1935
 7901SOL    HW235340   2.102   0.689   2.686 -0.0920 -0.8136  0.4695
 7902SOL     OW35341   2.599   3.443   4.871 -0.2407 -0.3774 -0.3618
 7902SOL    HW135342   2.579   3.350   4.869 -2.7615  0.1906 -1.0556
 7902SOL    HW235343   2.693   3.444   4.853 -0.3079  2.5253 -0.5846
 7903SOL     OW35344   2.136   4.512   6.610 -0.6134  0.0688  0.4491
 7903SOL    HW135345   2.165   4.525   6.520  1.6729  0.9248  1.3219
 7903SOL    HW235346   2.144   4.417   6.607 -0.9355  0.0173  1.0306
 7904SOL     OW35347   0.879   3.738  14.287  0.7113  0.1190 -0.4604
 7904SOL    HW135348   0.895   3.806  14.353 -1.5337  2.5686 -2.4146
 7904SOL    HW235349   0.800   3.698  14.323 -0.0364  1.2484 -0.8436
 7905SOL     OW35350   2.664   3.234   7.267 -0.6025  1.4571  0.0673
 7905SOL    HW135351   2.628   3.260   7.182 -1.6818 -3.2236 -0.9173
 7905SOL    HW235352   2.757   3.255   7.261  0.1840 -1.0987  2.7764
 7906SOL     OW35353   1.657   0.647  15.064  0.4641 -0.0698  0.1060
 7906SOL    HW135354   1.584   0.667  15.123  0.9824  1.7244  0.1489
 7906SOL    HW235355   1.608   0.620  14.986  0.0024 -0.2316  0.4534
 7907SOL     OW35356   0.539   1.794  15.238 -0.1357 -0.3379 -0.0901
 7907SOL    HW135357   0.476   1.820  15.170 -0.4142 -0.8410 -0.0259
 7907SOL    HW235358   0.619   1.782  15.188 -1.1671 -0.1815 -1.7567
 7908SOL     OW35359   2.810   3.845  16.595  0.0337  0.4972 -0.2708
 7908SOL    HW135360   2.807   3.834  16.690 -0.2130  0.3059 -0.3018
 7908SOL    HW235361   2.800   3.940  16.593  1.4465  0.6374 -1.6059
 7909SOL     OW35362   1.416   3.724   0.369  0.0076 -0.0609 -0.0277
 7909SOL    HW135363   1.506   3.695   0.379 -0.5035 -1.1503  1.3547
 7909SOL    HW235364   1.392   3.762   0.453  3.2872 -2.1560  1.8329
 7910SOL     OW35365   4.224   4.184   4.266  0.2789 -0.0840 -0.2425
 7910SOL    HW135366   4.264   4.125   4.330 -1.3423 -0.2986  0.5694
 7910SOL    HW235367   4.302   4.227   4.232  0.3730  0.7423  1.0133
 7911SOL     OW35368   3.552   0.331   4.798  0.3138  0.4052 -0.5378
 7911SOL    HW135369   3.577   0.417   4.832  3.7857 -0.5337 -0.7574
 7911SOL    HW235370   3.475   0.307   4.850 -0.4346  1.1354 -1.3155
 7912SOL     OW35371   2.987   4.715   8.253 -0.0826  0.3166 -0.1598
 7912SOL    HW135372   2.902   0.018   8.227 -1.5382 -3.1533 -0.3190
 7912SOL    HW235373   2.988   0.034   8.333 -0.2301 -0.0938  0.1127
 7913SOL     OW35374   1.957   4.613  12.160 -0.4663 -0.3312 -0.1908
 7913SOL    HW135375   1.877   4.626  12.212  0.8726  0.1044  1.7756
 7913SOL    HW235376   1.915   4.572  12.085 -2.8980  2.1559 -0.1778
 7914SOL     OW35377   2.525   1.089   2.043  0.0774 -0.1968  0.5952
 7914SOL    HW135378   2.613   1.113   2.072 -0.1484  1.4094 -0.0608
 7914SOL    HW235379   2.482   1.081   2.128 -1.1259  2.2867  0.2110
 7915SOL     OW35380   4.435   0.365  14.697  0.9891 -0.0422  0.3963
 7915SOL    HW135381   4.489   0.386  14.773  0.3324  1.5485  0.4391
 7915SOL    HW235382   4.472   0.427  14.634  0.8080  2.5798  2.8763
 7916SOL     OW35383   0.897   3.047   7.584 -0.1114 -0.7233 -0.3148
 7916SOL    HW135384   0.915   3.120   7.643  1.0963 -1.5646  0.3576
 7916SOL    HW235385   0.802   3.048   7.575  0.0317  0.9759 -1.7249
 7917SOL     OW35386   1.919   2.382   3.287 -0.2738 -0.5956 -0.1858
 7917SOL    HW135387   1.851   2.445   3.313  0.4351 -0.7708  2.0163
 7917SOL    HW235388   1.988   2.394   3.352  0.8240 -2.3065 -1.0401
 7918SOL     OW35389   2.244   2.856   6.816  0.6510  0.0314  0.2630
 7918SOL    HW135390   2.241   2.791   6.746  0.1673  1.5429 -1.1208
 7918SOL    HW235391   2.196   2.813   6.886 -0.0943 -1.4119 -1.1326
 7919SOL     OW35392   4.201   0.637  11.395  0.0857 -0.2411 -0.5825
 7919SOL    HW135393   4.289   0.605  11.412  0.4800  0.1925 -1.7394
 7919SOL    HW235394   4.227   0.720  11.353  0.8600  0.4836  1.3501
 7920SOL     OW35395   3.233   1.653   3.121  0.7064 -0.3694 -0.5691
 7920SOL    HW135396   3.245   1.596   3.045 -1.5575 -1.8156  0.1541
 7920SOL    HW235397   3.250   1.582   3.184  0.2999 -1.8965 -2.1693
 7921SOL     OW35398   0.821   3.685   0.077 -0.4525 -0.2296 -0.6767
 7921SOL    HW135399   0.904   3.646   0.104 -0.6901  0.0089  0.4187
 7921SOL    HW235400   0.767   3.614   0.042  0.1136 -0.7471 -0.4926
 7922SOL     OW35401   3.108   4.560  10.268 -0.1561 -0.3934 -0.2196
 7922SOL    HW135402   3.043   4.587  10.203 -0.5714 -0.9947 -0.0510
 7922SOL    HW235403   3.173   4.630  10.259 -1.0146  0.2912 -1.1755
 7923SOL     OW35404   1.986   0.055   7.200 -0.2921  0.3358  0.7148
 7923SOL    HW135405   1.931   0.018   7.269 -1.0989  1.0907  0.4653
 7923SOL    HW235406   1.947   0.141   7.208  1.8794  1.4256 -0.4383
 7924SOL     OW35407   3.217   4.713   4.627 -0.6753 -0.4464 -0.1445
 7924SOL    HW135408   3.149   0.033   4.667 -0.3968 -0.2286  0.0384
 7924SOL    HW235409   3.173   4.676   4.551  0.3524 -0.8806 -0.5330
 7925SOL     OW35410   2.613   0.306   4.510 -0.1750  0.1713  0.0820
 7925SOL    HW135411   2.607   0.355   4.428 -0.6785  0.6086  0.3798
 7925SOL    HW235412   2.664   0.358   4.572 -1.1410 -0.5127  1.4535
 7926SOL     OW35413   3.148   2.620   3.896  0.3011  0.6889  0.4364
 7926SOL    HW135414   3.083   2.567   3.850  0.4385  0.8723  0.0290
 7926SOL    HW235415   3.134   2.598   3.987 -1.0335 -1.9182 -0.4090
 7927SOL     OW35416   2.034   1.786   8.508 -0.4149  0.1147 -0.3097
 7927SOL    HW135417   2.057   1.839   8.432 -0.9025 -0.1782 -0.6592
 7927SOL    HW235418   1.939   1.802   8.509 -0.4656 -0.1477 -0.8649
 7928SOL     OW35419   1.676   4.670   8.880 -0.0706 -0.3966 -0.4503
 7928SOL    HW135420   1.641   0.021   8.905  1.8776 -0.7663  3.4890
 7928SOL    HW235421   1.608   4.603   8.868 -2.3957  1.8660  0.1436
 7929SOL     OW35422   0.675   2.005  12.165 -0.0211 -0.1119 -0.3901
 7929SOL    HW135423   0.595   2.047  12.198 -0.3002 -1.4280  0.5983
 7929SOL    HW235424   0.639   1.916  12.161  1.1395 -0.5069 -2.1166
 7930SOL     OW35425   0.909   4.187   8.656 -0.6148  0.5663 -0.6847
 7930SOL    HW135426   0.947   4.188   8.744 -1.3575 -0.1923 -0.3703
 7930SOL    HW235427   0.854   4.110   8.653 -0.4332  0.2716  3.0895
 7931SOL     OW35428   3.383   3.182   2.022  0.3247  0.1819  0.1037
 7931SOL    HW135429   3.431   3.264   2.033  0.6089 -0.0380  0.5319
 7931SOL    HW235430   3.300   3.208   1.983  0.0260  0.4777  0.9395
 7932SOL     OW35431   1.559   1.881  12.748  0.3761 -0.3459 -0.5687
 7932SOL    HW135432   1.565   1.794  12.709  2.3597  0.0084 -1.0543
 7932SOL    HW235433   1.620   1.866  12.820 -0.5101 -0.2568  0.1927
 7933SOL     OW35434   4.366   0.851  15.599 -0.1403 -0.8767  0.3595
 7933SOL    HW135435   4.299   0.918  15.616  1.0070 -0.6157  3.8318
 7933SOL    HW235436   4.340   0.803  15.521 -0.5481 -2.6098  1.5558
 7934SOL     OW35437   2.986   3.092   6.820  0.3410 -0.0182  0.0065
 7934SOL    HW135438   2.969   3.030   6.750 -1.2812 -0.9287  1.2019
 7934SOL    HW235439   3.050   3.045   6.873 -0.6009  0.7269  1.8093
 7935SOL     OW35440   4.253   3.185   5.587 -0.5349  0.1381 -0.4244
 7935SOL    HW135441   4.174   3.238   5.590 -0.9808 -0.4859 -1.1559
 7935SOL    HW235442   4.257   3.146   5.675  0.1880  1.0979 -0.0261
 7936SOL     OW35443   1.998   2.958   9.566  0.3269 -0.2487  0.0394
 7936SOL    HW135444   2.060   2.909   9.512  0.1102 -0.9328  0.4113
 7936SOL    HW235445   1.965   3.028   9.510  1.8944 -0.4115 -1.0545
 7937SOL     OW35446   3.834   4.181   5.667 -0.3151 -0.6576 -0.3115
 7937SOL    HW135447   3.833   4.151   5.576  0.6022  0.2974 -0.6445
 7937SOL    HW235448   3.868   4.270   5.654 -1.9239 -0.1118 -0.8509
 7938SOL     OW35449   0.462   2.872  14.235 -0.8331 -0.3678 -0.1047
 7938SOL    HW135450   0.471   2.849  14.328 -2.9632  1.9487  0.6828
 7938SOL    HW235451   0.456   2.967  14.244  0.7580 -0.4651  2.1116
 7939SOL     OW35452   0.296   3.550  17.680  0.2374  0.5324 -0.2996
 7939SOL    HW135453   0.346   3.631  17.675 -0.7769  1.2631  1.6089
 7939SOL    HW235454   0.349   3.502  17.616 -0.6707 -1.5712  0.5365
 7940SOL     OW35455   0.355   2.088  14.081  0.8236  0.3333 -0.5530
 7940SOL    HW135456   0.442   2.127  14.093  0.1202  2.0247 -0.8378
 7940SOL    HW235457   0.330   2.147  14.010 -4.5544  0.1252  1.1407
 7941SOL     OW35458   2.877   2.554  17.672  0.1804 -0.2103  0.5256
 7941SOL    HW135459   2.816   2.506  17.729 -2.6527  3.6010  0.7381
 7941SOL    HW235460   2.963   2.535  17.710 -0.3168 -2.7154  0.3612
 7942SOL     OW35461   0.226   3.799   0.549  0.6061  0.0572 -0.4859
 7942SOL    HW135462   0.194   3.850   0.475 -0.3045 -0.0264 -0.1554
 7942SOL    HW235463   0.218   3.874   0.609 -2.4418 -0.8934  0.3106
 7943SOL     OW35464   2.249   0.025   3.091 -0.3250 -0.4687  0.8618
 7943SOL    HW135465   2.304   0.059   3.161  0.8355  2.4480 -1.4303
 7943SOL    HW235466   2.159   0.047   3.114 -1.0404 -1.0536 -1.3458
 7944SOL     OW35467   3.275   1.489   2.923  0.2972  0.0381  0.1159
 7944SOL    HW135468   3.360   1.487   2.878 -0.9153 -0.0160 -2.1883
 7944SOL    HW235469   3.248   1.399   2.904 -0.5048 -0.1439  2.1476
 7945SOL     OW35470   0.763   0.196  11.243 -0.3509  0.0594 -0.6878
 7945SOL    HW135471   0.708   0.210  11.166 -1.9976  0.3037  0.5166
 7945SOL    HW235472   0.746   0.280  11.286 -0.8235  0.7149 -2.1557
 7946SOL     OW35473   3.245   1.638   6.902 -0.0298  0.0038  0.1237
 7946SOL    HW135474   3.248   1.647   6.998 -1.1143  0.8950  0.0827
 7946SOL    HW235475   3.155   1.614   6.882 -0.0664  0.9091 -0.8173
 7947SOL     OW35476   1.782   1.752  13.839  0.1825  0.1340 -0.3146
 7947SOL    HW135477   1.854   1.709  13.885 -0.9932 -2.2904 -0.7692
 7947SOL    HW235478   1.709   1.692  13.848  0.6244 -0.0545  2.1037
 7948SOL     OW35479   1.798   2.432   6.214 -0.3880 -0.7198  0.1401
 7948SOL    HW135480   1.783   2.382   6.294 -1.1534 -1.3669 -0.4093
 7948SOL    HW235481   1.873   2.398   6.166 -0.3245 -0.8881  0.3576
 7949SOL     OW35482   3.509   3.911  13.241  0.4498 -0.2102 -0.0485
 7949SOL    HW135483   3.574   3.869  13.184  0.5155 -0.9141  0.5355
 7949SOL    HW235484   3.464   3.834  13.277  0.1625 -0.3492 -0.7115
 7950SOL     OW35485   0.488   3.611   2.718  0.5866 -0.0484 -0.3091
 7950SOL    HW135486   0.481   3.569   2.633 -2.5051 -0.9509  0.3974
 7950SOL    HW235487   0.481   3.703   2.693 -0.3636 -0.4289 -1.3736
 7951SOL     OW35488   2.798   4.670   7.417 -0.6066  0.3659  0.0630
 7951SOL    HW135489   2.854   4.717   7.355  1.0567  1.4140  2.3561
 7951SOL    HW235490   2.716   4.685   7.370  1.1286  2.6700 -2.2294
 7952SOL     OW35491   2.726   0.398   6.146  0.2606  0.4972 -0.3221
 7952SOL    HW135492   2.698   0.389   6.237 -0.7467 -1.4176 -0.8111
 7952SOL    HW235493   2.744   0.492   6.144  0.3396  0.4575 -1.5699
 7953SOL     OW35494   4.367   1.599   3.804  0.1341  0.2137  0.2595
 7953SOL    HW135495   4.305   1.642   3.864  1.0284 -0.7554  1.8884
 7953SOL    HW235496   4.456   1.614   3.835  0.9940  0.5285 -2.4446
 7954SOL     OW35497   1.653   3.542   3.382  0.0625  0.2175 -0.3920
 7954SOL    HW135498   1.735   3.523   3.336  0.7267  1.3830  0.3228
 7954SOL    HW235499   1.677   3.508   3.468  0.4491  0.0897 -0.5496
 7955SOL     OW35500   1.513   3.464   5.897  0.5651  0.4497  0.0323
 7955SOL    HW135501   1.437   3.422   5.939  0.1273  1.1012 -0.1059
 7955SOL    HW235502   1.572   3.390   5.886  1.9681  1.4468  0.8568
 7956SOL     OW35503   1.768   4.368   4.823  0.1152  0.3243 -0.1535
 7956SOL    HW135504   1.861   4.352   4.810  0.1700  0.1265  0.4756
 7956SOL    HW235505   1.738   4.279   4.842 -2.3691  0.6038 -2.7301
 7957SOL     OW35506   1.882   1.101   7.490  0.3294  0.2191  0.4373
 7957SOL    HW135507   1.865   1.007   7.494 -1.5957  0.4412 -2.4444
 7957SOL    HW235508   1.936   1.110   7.568  1.4855 -1.1476 -0.2116
 7958SOL     OW35509   1.097   3.342   3.541  0.1791 -0.3830 -0.5053
 7958SOL    HW135510   1.061   3.425   3.574  1.2502 -0.0500 -0.1927
 7958SOL    HW235511   1.184   3.376   3.521 -0.2838  2.0678  1.6117
 7959SOL     OW35512   2.941   0.384   3.116  0.5584 -0.3018 -0.2516
 7959SOL    HW135513   2.876   0.452   3.098  0.1577  0.0564  2.5216
 7959SOL    HW235514   2.898   0.328   3.181 -2.0505  1.5296 -0.3788
 7960SOL     OW35515   3.869   0.974   5.578 -0.2332 -0.7572 -0.1005
 7960SOL    HW135516   3.817   1.052   5.557  1.4341  0.2233 -0.5729
 7960SOL    HW235517   3.911   1.006   5.659 -1.3280  2.4355 -0.7903
 7961SOL     OW35518   0.689   1.139   5.773  0.2132  0.2315  0.3395
 7961SOL    HW135519   0.721   1.179   5.692  0.2626  1.0348  0.7600
 7961SOL    HW235520   0.595   1.146   5.754 -0.1763 -1.3644  1.6867
 7962SOL     OW35521   1.806   1.461   1.409 -0.3203  0.2200  0.5126
 7962SOL    HW135522   1.799   1.366   1.411  0.8292  0.1352  0.4049
 7962SOL    HW235523   1.851   1.483   1.327 -1.6490 -2.6265 -0.9771
 7963SOL     OW35524   3.909   1.832   7.362  0.3716 -0.1140 -0.5487
 7963SOL    HW135525   4.005   1.830   7.355  0.4591  0.9541  0.2856
 7963SOL    HW235526   3.905   1.922   7.393 -1.9644 -0.7552  0.9673
 7964SOL     OW35527   3.722   4.444  16.404  0.0701 -0.0739  0.2030
 7964SOL    HW135528   3.664   4.416  16.475 -1.6075 -0.1303 -1.2089
 7964SOL    HW235529   3.779   4.502  16.455 -0.0140 -0.9743  1.3299
 7965SOL     OW35530   4.006   2.010   1.812 -0.5231  0.2334 -0.1297
 7965SOL    HW135531   3.930   2.046   1.857  1.0038  2.8342  0.3793
 7965SOL    HW235532   4.078   2.062   1.848  0.4215 -0.2903 -1.2566
 7966SOL     OW35533   4.531   4.061   0.349  0.6563  0.3622 -0.3846
 7966SOL    HW135534   4.588   4.136   0.336  0.1179  0.6855 -0.8757
 7966SOL    HW235535   4.467   4.119   0.391 -0.4202  0.2709 -1.9060
 7967SOL     OW35536   0.338   1.542   9.576  0.1120  0.1452  0.0513
 7967SOL    HW135537   0.275   1.553   9.504  1.6198  0.9091 -1.1570
 7967SOL    HW235538   0.285   1.490   9.636 -1.7993  0.7607 -1.0945
 7968SOL     OW35539   2.030   2.907  12.567 -0.0630 -0.2004 -0.3492
 7968SOL    HW135540   1.984   2.980  12.609  1.3510  0.4892  0.0030
 7968SOL    HW235541   2.074   2.953  12.496 -2.2426  1.3139 -0.7155
 7969SOL     OW35542   4.322   2.138   9.675  0.0562 -0.0757 -0.0019
 7969SOL    HW135543   4.388   2.079   9.640 -2.1402 -1.5927 -1.6005
 7969SOL    HW235544   4.378   2.195   9.728  0.3525 -1.1053  0.8000
 7970SOL     OW35545   3.970   1.960   6.234  0.0182  0.4187  0.3656
 7970SOL    HW135546   3.964   1.899   6.160  0.2196 -0.3649  0.9877
 7970SOL    HW235547   3.926   1.906   6.300  0.5139 -0.1789  0.2147
 7971SOL     OW35548   1.757   2.000   7.363 -0.0030 -0.4213  0.4813
 7971SOL    HW135549   1.847   2.029   7.381  0.3319 -1.3085  0.2317
 7971SOL    HW235550   1.776   1.988   7.269  0.9744  0.1602  0.6009
 7972SOL     OW35551   3.556   4.105  11.546  0.0797  0.1624  0.3580
 7972SOL    HW135552   3.518   4.055  11.475 -0.9727  0.6825  0.5529
 7972SOL    HW235553   3.639   4.139  11.513 -0.1076  0.7568  0.4930
 7973SOL     OW35554   1.979   2.959   5.326 -0.0204 -0.2959 -0.0778
 7973SOL    HW135555   2.056   3.005   5.292  1.6818 -1.5661  2.0982
 7973SOL    HW235556   1.914   3.030   5.329  2.4867  2.0166 -0.1742
 7974SOL     OW35557   4.416   4.061   4.816  0.0571  0.4021 -0.2142
 7974SOL    HW135558   4.327   4.027   4.825  0.0044  0.1707 -1.5819
 7974SOL    HW235559   4.410   4.148   4.856 -3.8947 -0.3374  0.7859
 7975SOL     OW35560   0.973   3.595   3.415 -0.4838  0.3583 -0.1774
 7975SOL    HW135561   1.056   3.622   3.456 -0.7256 -0.4418  0.8538
 7975SOL    HW235562   1.013   3.579   3.330  2.8343  2.6953  0.9581
 7976SOL     OW35563   2.849   2.294  11.701 -0.0201 -0.0192 -0.4674
 7976SOL    HW135564   2.756   2.308  11.680 -0.9158 -1.4320  2.5688
 7976SOL    HW235565   2.885   2.342  11.626 -0.8309 -1.1943 -1.6098
 7977SOL     OW35566   0.583   3.750   0.416  0.1336 -0.2742 -0.2961
 7977SOL    HW135567   0.557   3.667   0.455  0.0788 -0.1185 -0.0065
 7977SOL    HW235568   0.510   3.759   0.354  0.0037  0.5258 -0.0227
 7978SOL     OW35569   2.798   1.933   3.749 -0.2683  0.0037  0.8122
 7978SOL    HW135570   2.855   1.867   3.710  1.3822  2.3416 -0.7090
 7978SOL    HW235571   2.748   1.963   3.673  1.5961 -1.4092 -0.9656
 7979SOL     OW35572   4.531   1.304   2.258 -0.5401 -0.1942  0.0593
 7979SOL    HW135573   4.473   1.361   2.208  0.8765  1.1781 -0.0055
 7979SOL    HW235574   4.612   1.310   2.208 -0.8964 -3.3115 -0.9003
 7980SOL     OW35575   4.199   4.187  11.997  0.0421  0.1426  0.0489
 7980SOL    HW135576   4.161   4.226  12.076  0.8913  1.7944 -0.3655
 7980SOL    HW235577   4.282   4.235  11.994  0.4716 -0.6440 -0.7563
 7981SOL     OW35578   3.593   4.509   2.108  0.0259 -0.6258 -0.3035
 7981SOL    HW135579   3.608   4.420   2.141 -2.6947 -0.9126  0.1580
 7981SOL    HW235580   3.663   4.559   2.152 -0.6813  0.1005 -0.0068
 7982SOL     OW35581   0.549   1.177  17.261  0.2581 -0.1594  0.5247
 7982SOL    HW135582   0.591   1.262  17.278 -0.5409  0.2233  0.5807
 7982SOL    HW235583   0.466   1.182  17.308 -0.8209  1.7461 -1.5799
 7983SOL     OW35584   2.319   0.942   9.097  0.1304 -0.1602 -0.7398
 7983SOL    HW135585   2.299   0.994   9.019  2.5125 -1.3692 -2.1511
 7983SOL    HW235586   2.414   0.941   9.090  0.2316 -1.9556  0.8934
 7984SOL     OW35587   3.273   2.120   6.464  0.4866 -0.1560  0.4843
 7984SOL    HW135588   3.361   2.101   6.496 -0.0135  0.8848  2.4891
 7984SOL    HW235589   3.242   2.030   6.458  2.1463 -0.7947  1.7934
 7985SOL     OW35590   1.494   3.716   4.264 -0.1012  0.4637  0.7064
 7985SOL    HW135591   1.501   3.673   4.349 -0.2085  0.4250  0.6955
 7985SOL    HW235592   1.400   3.730   4.255 -0.3809 -1.4039  0.7696
 7986SOL     OW35593   1.666   3.967   7.648  0.1045  0.0449 -0.0931
 7986SOL    HW135594   1.730   3.907   7.685 -1.4541 -1.3373  0.3459
 7986SOL    HW235595   1.636   3.916   7.572  0.9852  1.0693 -1.1315
 7987SOL     OW35596   0.329   2.450   3.344 -0.1057  0.0089 -0.0702
 7987SOL    HW135597   0.347   2.449   3.438  2.0644 -1.8695 -0.4948
 7987SOL    HW235598   0.415   2.444   3.303  0.3763 -1.7815  1.1708
 7988SOL     OW35599   2.588   1.927  13.015 -0.4643 -0.7089  0.3978
 7988SOL    HW135600   2.548   1.994  12.959 -2.0333 -1.6539  0.3935
 7988SOL    HW235601   2.621   1.857  12.958  0.8026  0.0391  0.2158
 7989SOL     OW35602   2.736   2.480   7.184  0.2932  0.2819  0.5365
 7989SOL    HW135603   2.772   2.443   7.264 -1.0415  0.2834  1.1399
 7989SOL    HW235604   2.814   2.485   7.129 -1.0284 -2.0631 -1.5930
 7990SOL     OW35605   4.277   1.722   6.637  0.1958  0.5771  0.0297
 7990SOL    HW135606   4.313   1.680   6.559 -2.0935 -1.0486 -0.1260
 7990SOL    HW235607   4.264   1.811   6.605  0.7316  0.3669 -0.7611
 7991SOL     OW35608   0.240   4.068  14.950 -0.2543  0.1410 -0.0401
 7991SOL    HW135609   0.270   4.155  14.975  0.1521 -0.3784  1.2855
 7991SOL    HW235610   0.323   4.035  14.916 -0.8731 -1.7385  0.2598
 7992SOL     OW35611   3.517   1.897   6.361 -0.2760 -0.2742 -0.1090
 7992SOL    HW135612   3.560   1.911   6.276  1.5039 -1.9885  0.5054
 7992SOL    HW235613   3.567   1.967   6.404 -1.2363  1.6691 -2.1003
 7993SOL     OW35614   3.576   3.973   8.995  0.0888  0.2565 -0.4233
 7993SOL    HW135615   3.520   3.993   9.070  1.2461  1.8270  0.0042
 7993SOL    HW235616   3.588   4.055   8.948  0.5236  0.4779  0.0715
 7994SOL     OW35617   3.498   3.171  17.105 -0.1492  0.8647  0.0147
 7994SOL    HW135618   3.417   3.213  17.134 -0.5231  1.7223 -2.2313
 7994SOL    HW235619   3.550   3.242  17.066  0.7125  0.2808  0.1130
 7995SOL     OW35620   1.490   2.967   3.977  0.3438 -0.0356 -0.0915
 7995SOL    HW135621   1.450   2.890   4.017 -1.1909  0.7468 -0.0997
 7995SOL    HW235622   1.583   2.946   3.972  0.6267  1.0466  0.4848
 7996SOL     OW35623   4.060   0.540   2.898 -0.5506 -0.7656 -0.0779
 7996SOL    HW135624   4.031   0.450   2.913  1.7458 -1.6301 -0.8009
 7996SOL    HW235625   4.043   0.540   2.803 -0.2462 -0.2428 -0.1287
 7997SOL     OW35626   1.954   2.380   8.308  0.4127 -0.1259  0.3382
 7997SOL    HW135627   1.870   2.370   8.264 -0.8417  2.0733  2.2739
 7997SOL    HW235628   2.006   2.319   8.255  1.2445  2.1057 -1.3876
 7998SOL     OW35629   3.161   4.224   7.669  0.2530  0.2668 -0.1547
 7998SOL    HW135630   3.159   4.202   7.576  2.5802  1.4392 -0.4720
 7998SOL    HW235631   3.067   4.215   7.686  0.5281 -1.0133  0.7585
 7999SOL     OW35632   1.995   0.344   2.887  0.1237  0.3628 -0.1929
 7999SOL    HW135633   2.006   0.319   2.795  0.2160  1.8973 -0.6046
 7999SOL    HW235634   2.086   0.350   2.915 -0.3607 -1.7747  1.8136
 8000SOL     OW35635   0.377   3.661   7.701 -0.1034  0.2285 -0.1180
 8000SOL    HW135636   0.352   3.743   7.743 -1.3830 -0.3713  0.3162
 8000SOL    HW235637   0.352   3.603   7.773  0.1877  1.7288  1.1725
 8001SOL     OW35638   1.338   0.930  13.431  0.0328 -0.3033  0.0212
 8001SOL    HW135639   1.380   0.939  13.345 -0.9986  1.7842 -0.2722
 8001SOL    HW235640   1.246   0.937  13.408  0.4160 -0.4840 -1.5241
 8002SOL     OW35641   2.821   0.764  10.251 -0.4252  0.4894 -0.9388
 8002SOL    HW135642   2.813   0.817  10.330  1.0479  2.4100 -2.0784
 8002SOL    HW235643   2.910   0.728  10.252  0.3435  2.4050 -0.4659
 8003SOL     OW35644   0.930   4.331   3.231  0.1505 -0.2129  0.4931
 8003SOL    HW135645   0.877   4.294   3.159 -0.0042 -0.2260  0.6132
 8003SOL    HW235646   0.956   4.256   3.284  0.0768  0.0685  0.9262
 8004SOL     OW35647   2.986   3.797   5.248  0.2053  0.4187 -0.4335
 8004SOL    HW135648   3.081   3.784   5.253 -0.1008 -1.1573  1.3775
 8004SOL    HW235649   2.955   3.708   5.235 -0.3058  0.3431  1.2719
 8005SOL     OW35650   1.956   2.851   5.985 -0.8619 -0.6292  0.1100
 8005SOL    HW135651   1.996   2.764   5.980 -3.1198 -1.7448  1.6867
 8005SOL    HW235652   1.879   2.829   5.932  0.6944 -2.0363 -1.5764
 8006SOL     OW35653   0.820   2.319   8.021  0.1742 -0.7212  0.3577
 8006SOL    HW135654   0.762   2.309   7.945 -2.7462  1.7727  2.2267
 8006SOL    HW235655   0.758   2.360   8.082  1.6619  0.3002  1.1929
 8007SOL     OW35656   3.581   1.373  15.520 -0.2727 -0.1897 -0.3132
 8007SOL    HW135657   3.550   1.381  15.430 -2.1282  0.5676  0.3868
 8007SOL    HW235658   3.574   1.278  15.529 -0.2383 -0.1108  0.5619
 8008SOL     OW35659   4.012   4.350   5.128  0.1661 -0.0789 -0.4302
 8008SOL    HW135660   3.916   4.346   5.123 -0.0253  3.2765  0.4552
 8008SOL    HW235661   4.038   4.410   5.058  0.2784  3.1170  2.3312
 8009SOL     OW35662   0.852   4.016   2.832  0.5241 -0.2039 -0.0574
 8009SOL    HW135663   0.849   3.925   2.861  0.1000  0.9674  3.5896
 8009SOL    HW235664   0.939   4.041   2.865  1.1073 -2.5286  0.2175
 8010SOL     OW35665   0.473   2.754   3.425  0.1059 -0.0711 -0.7587
 8010SOL    HW135666   0.466   2.842   3.461  2.7940 -0.0142 -0.3152
 8010SOL    HW235667   0.417   2.758   3.348  0.6026  1.4163 -1.0386
 8011SOL     OW35668   4.431   1.940   4.626  0.1634  0.3350  0.8435
 8011SOL    HW135669   4.345   1.968   4.659  0.4281  1.2114  0.8014
 8011SOL    HW235670   4.498   1.970   4.687  0.1955 -0.6577  1.2940
 8012SOL     OW35671   1.942   1.277   2.336 -0.1412 -0.4019 -0.0991
 8012SOL    HW135672   1.875   1.246   2.397  0.7741  0.9278  1.5746
 8012SOL    HW235673   1.892   1.331   2.276 -0.1485 -1.9837 -1.5151
 8013SOL     OW35674   3.834   2.630  13.556  0.3150  0.5494  0.6918
 8013SOL    HW135675   3.893   2.587  13.494 -1.3038 -1.1307  0.3521
 8013SOL    HW235676   3.764   2.670  13.505  0.2449 -1.6776 -0.9305
 8014SOL     OW35677   2.905   2.779   5.894 -0.2207 -0.2534  0.0985
 8014SOL    HW135678   2.835   2.844   5.886 -0.0536  0.1109  1.6764
 8014SOL    HW235679   2.968   2.820   5.835 -0.2515  0.8442  0.8289
 8015SOL     OW35680   3.312   2.336   7.785 -0.5634  0.0797 -0.9384
 8015SOL    HW135681   3.391   2.294   7.819  1.0328  2.0134 -2.3494
 8015SOL    HW235682   3.319   2.318   7.691  1.7787 -0.6950 -0.6180
 8016SOL     OW35683   2.017   3.513   9.931  0.1102  0.1215  0.7376
 8016SOL    HW135684   2.103   3.544   9.902 -0.0039  0.1007  0.3764
 8016SOL    HW235685   1.977   3.530   9.846  0.8835 -1.1108  0.1237
 8017SOL     OW35686   4.580   1.366   1.607 -0.0682  0.1121 -0.4162
 8017SOL    HW135687   4.514   1.433   1.591  0.1952  0.7344  1.1420
 8017SOL    HW235688   4.649   1.394   1.547  0.5440  0.5360  0.5018
 8018SOL     OW35689   2.937   2.536   4.384  0.3305  0.4048 -0.5131
 8018SOL    HW135690   3.011   2.529   4.445  0.3416 -1.6368 -0.7801
 8018SOL    HW235691   2.864   2.559   4.442  0.1715 -0.3381 -0.4242
 8019SOL     OW35692   3.148   3.678   4.565  0.0688 -0.0971 -0.6777
 8019SOL    HW135693   3.189   3.721   4.640 -0.9132  0.1576 -0.2772
 8019SOL    HW235694   3.220   3.665   4.504  1.6950 -0.7980  1.3836
 8020SOL     OW35695   0.752   3.984   8.206 -0.1911 -0.2710 -0.3440
 8020SOL    HW135696   0.833   4.026   8.176 -0.4373 -0.0880 -0.7584
 8020SOL    HW235697   0.722   4.045   8.275  0.2532 -0.3072 -0.1172
 8021SOL     OW35698   1.698   2.320  15.650  0.1350  0.0613  0.1153
 8021SOL    HW135699   1.764   2.312  15.582 -2.1056 -1.7605 -1.8290
 8021SOL    HW235700   1.729   2.387  15.711 -2.9478 -1.0552  2.9346
 8022SOL     OW35701   3.395   4.647   8.555  0.3392  0.1345  0.4263
 8022SOL    HW135702   3.414   4.553   8.548 -0.6197 -0.0519  0.3607
 8022SOL    HW235703   3.423   4.674   8.642  1.2078 -0.6881  0.4089
 8023SOL     OW35704   2.563   3.480   2.951 -0.4492  0.4673 -0.0021
 8023SOL    HW135705   2.562   3.485   2.856 -1.1987  1.3898  0.0477
 8023SOL    HW235706   2.622   3.407   2.967 -2.3936 -0.9148  0.8448
 8024SOL     OW35707   4.082   1.038  13.889  0.2413 -0.2735 -0.3703
 8024SOL    HW135708   4.075   0.952  13.848  0.3865  0.0337 -1.0479
 8024SOL    HW235709   4.060   1.007  13.977 -0.7110  2.4580  0.3541
 8025SOL     OW35710   0.047   0.167   6.325  0.1227 -0.4689  0.1127
 8025SOL    HW135711   0.124   0.221   6.310 -2.4683  3.4971  0.9939
 8025SOL    HW235712   0.025   0.198   6.413  4.5650  1.0401  0.6933
 8026SOL     OW35713   0.502   0.234   2.129  0.1103 -0.3614  0.5842
 8026SOL    HW135714   0.512   0.156   2.074  1.3237 -0.9318  1.6234
 8026SOL    HW235715   0.563   0.217   2.201  0.1549  1.7576  1.0503
 8027SOL     OW35716   4.433   3.752   8.657 -0.5481  0.6270 -0.2516
 8027SOL    HW135717   4.357   3.797   8.621 -1.9697  0.2400  2.2844
 8027SOL    HW235718   4.389   3.672   8.686 -1.8313  1.1824 -0.7103
 8028SOL     OW35719   0.380   3.976  15.443  0.4267  0.1104 -0.5633
 8028SOL    HW135720   0.350   3.949  15.356  1.8961 -1.1198 -0.6874
 8028SOL    HW235721   0.372   4.071  15.440 -0.3632  0.0785  0.3562
 8029SOL     OW35722   2.875   1.883   2.000 -0.0220  0.0968  0.1070
 8029SOL    HW135723   2.917   1.967   1.984 -1.5550  0.8279 -0.0121
 8029SOL    HW235724   2.790   1.910   1.964  0.8023 -1.0824 -2.7453
 8030SOL     OW35725   3.362   3.079   2.847 -0.4266  0.7960  0.0459
 8030SOL    HW135726   3.426   3.151   2.844 -2.2327  2.4353  1.0409
 8030SOL    HW235727   3.376   3.037   2.762 -1.4660 -0.0772  0.3129
 8031SOL     OW35728   0.615   2.556   0.087  0.2926  1.0120 -0.0784
 8031SOL    HW135729   0.526   2.565   0.123  0.3697  1.7617 -0.0592
 8031SOL    HW235730   0.611   2.470   0.046 -0.6245  0.7291  0.5926
 8032SOL     OW35731   3.549   4.125  10.412 -0.1657 -0.3859 -0.6093
 8032SOL    HW135732   3.609   4.198  10.429 -1.0053  0.1290  0.1234
 8032SOL    HW235733   3.483   4.162  10.354  0.9555 -0.0069 -1.6502
 8033SOL     OW35734   4.331   1.858   1.006  0.3130  0.1319 -0.6857
 8033SOL    HW135735   4.420   1.839   0.978  0.8248 -0.9614  1.6855
 8033SOL    HW235736   4.323   1.796   1.079 -1.2930 -1.3717 -2.1199
 8034SOL     OW35737   1.930   2.166   0.788  0.5796  0.2913  0.3520
 8034SOL    HW135738   2.003   2.109   0.814  0.2197 -0.3586 -0.0730
 8034SOL    HW235739   1.927   2.228   0.861 -1.1511  0.9468 -0.2911
 8035SOL     OW35740   0.931   1.581  11.089  0.4952 -0.0274  0.0673
 8035SOL    HW135741   0.859   1.568  11.027 -0.8416 -2.0981  2.0441
 8035SOL    HW235742   0.977   1.653  11.045 -0.3554 -0.4207 -1.4732
 8036SOL     OW35743   0.670   2.966  16.549  0.0214  0.7023  0.4787
 8036SOL    HW135744   0.727   2.960  16.472 -3.3894 -0.0113 -2.0017
 8036SOL    HW235745   0.592   2.918  16.522  1.7976 -0.0589 -3.3058
 8037SOL     OW35746   2.369   1.564   6.007 -0.5833 -0.3367  0.1941
 8037SOL    HW135747   2.333   1.582   6.094 -0.7163 -0.5824  0.1891
 8037SOL    HW235748   2.334   1.477   5.987  0.9072 -0.5034 -1.7011
 8038SOL     OW35749   2.243   0.580   6.616 -0.0367  0.2987 -0.2696
 8038SOL    HW135750   2.228   0.486   6.632  2.2210  0.2739  1.7353
 8038SOL    HW235751   2.248   0.601   6.709 -0.6739  0.5915 -0.3030
 8039SOL     OW35752   1.183   2.065   0.856  0.3351  0.2253  0.1423
 8039SOL    HW135753   1.158   2.012   0.780  1.4193 -0.2095  0.0896
 8039SOL    HW235754   1.098   2.090   0.891 -0.3684 -2.3373  0.2781
 8040SOL     OW35755   3.427   1.583   5.604 -0.7255  0.0659 -0.5758
 8040SOL    HW135756   3.459   1.527   5.674  1.0960  0.1589 -1.3238
 8040SOL    HW235757   3.338   1.599   5.637 -0.1344  3.0463 -0.4166
 8041SOL     OW35758   1.633   0.407  10.602  0.0059  0.1455 -0.3064
 8041SOL    HW135759   1.588   0.488  10.625 -0.8300 -0.5975  0.7027
 8041SOL    HW235760   1.713   0.451  10.573  1.4620 -1.4403  1.2631
 8042SOL     OW35761   0.855   2.923   9.756  0.4984  0.4271  0.4905
 8042SOL    HW135762   0.884   3.009   9.725  1.5932 -0.3937 -0.7765
 8042SOL    HW235763   0.857   2.930   9.852 -2.5455 -4.0477  0.8995
 8043SOL     OW35764   3.201   0.120  15.204 -0.2261  0.1748 -0.5603
 8043SOL    HW135765   3.223   0.190  15.266 -0.4991  0.9462 -1.3378
 8043SOL    HW235766   3.289   0.082  15.205  0.0898  0.9116  0.2035
 8044SOL     OW35767   4.351   4.252   9.621 -0.8934 -0.4930 -0.2253
 8044SOL    HW135768   4.417   4.299   9.672 -1.4851  1.4610 -1.2679
 8044SOL    HW235769   4.266   4.284   9.652  0.3779  1.6761  0.9761
 8045SOL     OW35770   4.094   0.370   9.393 -0.4835 -0.5456 -0.5658
 8045SOL    HW135771   4.023   0.308   9.409 -1.8608  2.2584  4.2182
 8045SOL    HW235772   4.054   0.424   9.325 -1.3875  1.1230  1.2944
 8046SOL     OW35773   4.472   1.723  10.891  0.0516 -0.7250  0.8293
 8046SOL    HW135774   4.445   1.710  10.801  0.4524  2.0770  0.2999
 8046SOL    HW235775   4.560   1.758  10.877  0.5183 -1.5204  1.7339
 8047SOL     OW35776   4.398   1.424   7.145 -0.3119  0.2479  0.1885
 8047SOL    HW135777   4.385   1.432   7.051  0.8979  1.9826  0.1575
 8047SOL    HW235778   4.490   1.396   7.144 -0.2266  0.5437 -0.0750
 8048SOL     OW35779   3.261   2.376   2.331  0.7514 -0.3955 -0.6653
 8048SOL    HW135780   3.343   2.416   2.358  0.5626 -1.2069  1.0594
 8048SOL    HW235781   3.237   2.450   2.275 -0.8130 -0.4061 -0.0059
 8049SOL     OW35782   3.676   0.109   8.907  0.1546 -0.6403  0.0003
 8049SOL    HW135783   3.748   0.153   8.860 -0.4260  0.0945 -0.2157
 8049SOL    HW235784   3.613   0.108   8.835 -2.4514  4.3227  2.1796
 8050SOL     OW35785   0.196   0.264   7.799  0.0021 -0.0710 -0.0161
 8050SOL    HW135786   0.198   0.357   7.778  0.0770 -0.5340 -2.0286
 8050SOL    HW235787   0.127   0.258   7.865  0.5078 -1.9549  0.3641
 8051SOL     OW35788   3.718   2.847   0.509 -0.0462  0.7101 -0.0694
 8051SOL    HW135789   3.674   2.767   0.538 -0.8816  0.8125 -1.0328
 8051SOL    HW235790   3.790   2.803   0.463  0.0877  0.1268  0.6959
 8052SOL     OW35791   4.152   2.541  15.130  0.0234 -0.0782 -0.0076
 8052SOL    HW135792   4.197   2.458  15.150  0.5577  0.3025  0.3628
 8052SOL    HW235793   4.094   2.556  15.204 -2.8889  0.2429 -2.3498
 8053SOL     OW35794   4.422   3.497   1.650  0.3809  0.7625 -0.0088
 8053SOL    HW135795   4.399   3.432   1.718  1.0970 -1.3999 -1.8313
 8053SOL    HW235796   4.398   3.578   1.695  1.0282  1.0793 -0.2425
 8054SOL     OW35797   1.831   0.770   5.211 -0.4036  0.2475 -0.2585
 8054SOL    HW135798   1.895   0.701   5.228 -0.3776  0.9616  2.5048
 8054SOL    HW235799   1.797   0.792   5.298  4.9954  1.8379  1.4669
 8055SOL     OW35800   0.731   0.003   8.164  0.3951 -0.1482  0.4195
 8055SOL    HW135801   0.703   4.649   8.140  0.8670  0.5064 -2.4901
 8055SOL    HW235802   0.665   0.034   8.226  0.7202  0.3775  0.5112
 8056SOL     OW35803   1.303   4.389   8.232 -0.1997  0.1256  0.1935
 8056SOL    HW135804   1.252   4.386   8.152 -0.6319  1.1243  0.4302
 8056SOL    HW235805   1.306   4.484   8.245 -0.6194 -0.0644  1.7350
 8057SOL     OW35806   1.414   2.707   1.964  0.1271  0.0311 -0.4159
 8057SOL    HW135807   1.425   2.612   1.970 -0.6792  0.0792  1.8006
 8057SOL    HW235808   1.440   2.742   2.049  1.0063  1.4876 -1.2908
 8058SOL     OW35809   0.507   1.189   9.444 -0.0467 -0.8487 -0.0267
 8058SOL    HW135810   0.547   1.257   9.498 -1.1410  0.5006 -0.8936
 8058SOL    HW235811   0.490   1.130   9.517  1.1299 -0.8507  0.2325
 8059SOL     OW35812   4.330   2.091  12.694 -0.2719 -0.0149  0.3593
 8059SOL    HW135813   4.321   1.997  12.680  2.5350 -0.4570  1.5738
 8059SOL    HW235814   4.373   2.125  12.616  1.0250 -0.3563  0.9276
 8060SOL     OW35815   1.821   4.571   5.195  0.1042  0.3517 -0.8263
 8060SOL    HW135816   1.872   4.646   5.164 -0.8413  1.5224  0.4379
 8060SOL    HW235817   1.735   4.580   5.155 -0.0758  1.4280 -0.1970
 8061SOL     OW35818   1.172   1.785   3.278  0.0090  0.3428  0.4993
 8061SOL    HW135819   1.242   1.849   3.266 -0.8469  1.0075 -0.8812
 8061SOL    HW235820   1.178   1.726   3.203 -1.0973 -0.0165  0.6899
 8062SOL     OW35821   4.142   0.773   8.827  0.1827 -0.4410  0.6177
 8062SOL    HW135822   4.100   0.768   8.913  0.6886  0.9661  0.9550
 8062SOL    HW235823   4.084   0.842   8.794 -1.9341 -0.9426  3.2795
 8063SOL     OW35824   3.915   0.052   8.081  0.1487 -0.6431  0.1139
 8063SOL    HW135825   3.869   0.136   8.081 -0.3688 -0.9127 -4.1098
 8063SOL    HW235826   3.873   4.732   8.014  0.7480 -0.9590 -0.0137
 8064SOL     OW35827   1.289   3.996   4.162  0.0006 -0.1238  0.5332
 8064SOL    HW135828   1.251   3.917   4.200 -0.8060  0.9196  1.8939
 8064SOL    HW235829   1.280   4.055   4.237  0.2130  0.4976  0.0664
 8065SOL     OW35830   2.983   2.450   3.767 -0.0914 -0.3252 -0.5812
 8065SOL    HW135831   2.988   2.357   3.745 -1.3521 -0.6550  0.5653
 8065SOL    HW235832   2.889   2.469   3.760 -0.0976 -1.2884 -3.0334
 8066SOL     OW35833   0.288   0.825   2.679 -0.0415 -0.1068 -0.0956
 8066SOL    HW135834   0.319   0.805   2.767 -0.9249  1.5089  0.5769
 8066SOL    HW235835   0.203   0.788   2.705 -0.0347 -2.1141 -2.9264
 8067SOL     OW35836   0.120   1.866   4.472  0.3269  0.2771  0.0010
 8067SOL    HW135837   0.085   1.950   4.444 -1.6264  0.2634  2.3714
 8067SOL    HW235838   0.081   1.850   4.558 -0.9251  0.0624 -0.6056
 8068SOL     OW35839   4.492   4.691   8.070  0.1765  0.3351  1.1812
 8068SOL    HW135840   4.443   4.623   8.116  1.0414 -1.7971 -1.0196
 8068SOL    HW235841   4.575   4.650   8.092 -0.6351 -2.3411 -0.6751
 8069SOL     OW35842   2.860   2.375   6.173  0.5471 -0.0104  0.4654
 8069SOL    HW135843   2.851   2.282   6.194  0.5877 -0.3437 -1.0288
 8069SOL    HW235844   2.954   2.376   6.158  0.4442  2.1021 -0.0207
 8070SOL     OW35845   1.035   0.216   7.012  0.2509 -0.5948  0.3332
 8070SOL    HW135846   1.014   0.149   7.077  2.8885 -1.4686  0.2538
 8070SOL    HW235847   1.125   0.245   7.023 -0.2138  1.0382 -0.0291
 8071SOL     OW35848   1.369   2.205  15.795 -0.1805  0.2343 -0.2468
 8071SOL    HW135849   1.389   2.197  15.888 -2.6118 -1.3029  0.1617
 8071SOL    HW235850   1.427   2.135  15.765  0.7506  0.6510  0.5800
 8072SOL     OW35851   0.085   1.851   0.791  0.1966  0.0691  0.2187
 8072SOL    HW135852   0.129   1.775   0.754  2.2208 -0.1869  3.0701
 8072SOL    HW235853   0.153   1.884   0.850  0.2614  0.3686 -0.0211
 8073SOL     OW35854   1.268   2.679   7.374 -0.4018  0.2222 -0.1939
 8073SOL    HW135855   1.173   2.685   7.365 -0.0434  3.1858 -1.9885
 8073SOL    HW235856   1.293   2.667   7.282  0.4827  0.6919 -0.0135
 8074SOL     OW35857   2.211   2.968  11.067 -0.0551  0.5931  0.5247
 8074SOL    HW135858   2.200   2.888  11.118 -3.3433 -0.2460 -1.4541
 8074SOL    HW235859   2.135   3.019  11.096 -1.1448 -0.6412 -0.1377
 8075SOL     OW35860   2.038   2.820   2.177 -0.6438 -0.2431 -0.5042
 8075SOL    HW135861   2.112   2.800   2.120 -0.7528 -0.9274 -0.3984
 8075SOL    HW235862   1.997   2.734   2.180  0.5813 -0.8500 -1.0293
 8076SOL     OW35863   4.323   2.605  15.385  0.3528  0.5034  0.4674
 8076SOL    HW135864   4.269   2.601  15.463  0.4240 -2.0095  0.3888
 8076SOL    HW235865   4.310   2.513  15.361 -1.8975  0.7610  0.7282
 8077SOL     OW35866   2.980   1.218   6.537 -0.5194 -0.2642 -0.1000
 8077SOL    HW135867   3.000   1.243   6.628 -2.5931 -0.7560  0.4912
 8077SOL    HW235868   2.892   1.254   6.529  0.4571  1.7543 -1.5833
 8078SOL     OW35869   3.873   0.254   8.754  0.5911  0.0331 -0.6963
 8078SOL    HW135870   3.898   0.218   8.669 -0.2030  0.3530 -1.0668
 8078SOL    HW235871   3.916   0.340   8.760  0.0567  0.2984 -0.6778
 8079SOL     OW35872   0.376   0.726  12.869 -0.0056  0.3416  0.1145
 8079SOL    HW135873   0.449   0.783  12.893  2.2254 -1.5305 -2.0653
 8079SOL    HW235874   0.404   0.687  12.786  0.0635  0.3714  0.1239
 8080SOL     OW35875   3.190   1.891   0.667 -0.5112 -0.0170  0.6978
 8080SOL    HW135876   3.184   1.795   0.667  0.3985 -0.0886 -1.1431
 8080SOL    HW235877   3.263   1.899   0.605 -0.3181  0.1133  0.9382
 8081SOL     OW35878   0.271   0.541   3.452 -0.0323  0.0638  0.5448
 8081SOL    HW135879   0.336   0.518   3.518 -1.6997 -0.5370  1.9743
 8081SOL    HW235880   0.218   0.461   3.450  0.4017 -0.2229  0.6388
 8082SOL     OW35881   0.987   2.111   4.341 -0.2233 -0.0593 -0.8708
 8082SOL    HW135882   1.047   2.056   4.391  0.6894 -0.5466 -2.4721
 8082SOL    HW235883   0.923   2.052   4.302 -1.3161  0.3502  0.3139
 8083SOL     OW35884   4.397   0.399   2.733  0.8307 -0.0628  0.1465
 8083SOL    HW135885   4.433   0.339   2.668 -0.1820  0.2701 -0.7303
 8083SOL    HW235886   4.459   0.472   2.729  1.9907 -0.8933  3.0054
 8084SOL     OW35887   3.499   1.126   6.579  0.3190 -0.0003  0.0766
 8084SOL    HW135888   3.480   1.104   6.670  0.7212 -0.7409 -0.0149
 8084SOL    HW235889   3.413   1.157   6.552  0.8680  2.0715  0.7316
 8085SOL     OW35890   4.430   2.973  12.938 -0.0281  0.4094  0.3901
 8085SOL    HW135891   4.520   2.998  12.915 -0.5075  1.9128  0.1487
 8085SOL    HW235892   4.417   2.893  12.886  1.9718 -0.6543  1.5096
 8086SOL     OW35893   2.400   1.826   6.031  0.4743  0.2312 -0.1870
 8086SOL    HW135894   2.479   1.866   5.996  0.2303 -0.3961 -1.4644
 8086SOL    HW235895   2.407   1.732   6.015 -0.5865 -0.1318  1.4620
 8087SOL     OW35896   4.176   2.350   5.773 -0.5456  0.1903  0.1925
 8087SOL    HW135897   4.219   2.427   5.810 -1.5023  0.8150 -0.0049
 8087SOL    HW235898   4.223   2.280   5.819  0.3455  1.4568  1.1825
 8088SOL     OW35899   2.187   3.721   3.448 -0.0163  0.3567 -0.4868
 8088SOL    HW135900   2.169   3.638   3.404 -0.7811  1.0313 -1.4579
 8088SOL    HW235901   2.154   3.702   3.535  2.2303 -1.4954 -0.0663
 8089SOL     OW35902   1.586   1.066   6.177 -0.0398  0.4877  0.4036
 8089SOL    HW135903   1.522   1.125   6.139 -0.7007 -1.5204 -1.6204
 8089SOL    HW235904   1.623   1.018   6.103  0.9800  0.4992  0.9029
 8090SOL     OW35905   3.347   1.524   6.556 -0.0908  0.5797  0.0495
 8090SOL    HW135906   3.429   1.543   6.601 -0.6238  1.0450  0.8277
 8090SOL    HW235907   3.322   1.607   6.514 -1.2322  1.4489  2.4620
 8091SOL     OW35908   0.703   4.268   4.565  0.7402  0.0379 -0.2654
 8091SOL    HW135909   0.748   4.233   4.641  0.4711  0.6921  0.1945
 8091SOL    HW235910   0.617   4.291   4.599  0.6601 -2.0395  0.9489
 8092SOL     OW35911   2.494   1.637   2.070  0.3103  0.3781  0.2713
 8092SOL    HW135912   2.429   1.574   2.098  3.6511 -2.1422  2.2754
 8092SOL    HW235913   2.571   1.602   2.114 -0.1834 -0.8131  0.1823
 8093SOL     OW35914   2.049   2.376   4.018  0.2396 -0.1078 -0.5466
 8093SOL    HW135915   2.135   2.352   3.983  0.0230 -0.9903 -0.4773
 8093SOL    HW235916   2.031   2.311   4.085  1.8503 -3.5440 -3.4291
 8094SOL     OW35917   0.554   0.555   1.780  0.0873 -0.1307 -0.1137
 8094SOL    HW135918   0.531   0.567   1.687  0.0092  2.1346  0.2043
 8094SOL    HW235919   0.582   0.464   1.793  0.0221 -0.3370 -1.3630
 8095SOL     OW35920   2.192   4.411  14.052  0.0883 -0.2298 -0.2205
 8095SOL    HW135921   2.172   4.484  13.993  0.0777  1.0273  1.3342
 8095SOL    HW235922   2.103   4.407  14.088  0.3235  1.6013  0.5737
 8096SOL     OW35923   2.357   2.025   6.215  0.1580 -0.4801  0.5982
 8096SOL    HW135924   2.375   1.968   6.140 -0.8096  1.4508 -1.1104
 8096SOL    HW235925   2.327   2.103   6.168  0.2724 -0.5456  0.4157
 8097SOL     OW35926   1.697   2.878  12.630  0.1616  0.0244 -0.3172
 8097SOL    HW135927   1.750   2.809  12.589 -0.8098  0.5015 -2.3747
 8097SOL    HW235928   1.662   2.829  12.704  0.3344 -0.1812 -0.3726
 8098SOL     OW35929   2.819   3.558   1.899  0.3120  0.1812  0.1308
 8098SOL    HW135930   2.749   3.526   1.956  0.2941  0.2220  0.1319
 8098SOL    HW235931   2.774   3.629   1.853  4.3963  2.2720 -0.6458
 8099SOL     OW35932   2.121   2.275   2.376 -0.0488 -1.1855 -0.3598
 8099SOL    HW135933   2.196   2.316   2.333 -0.3872 -0.3576 -0.1503
 8099SOL    HW235934   2.078   2.358   2.394 -1.2278 -1.9728  0.4703
 8100SOL     OW35935   1.845   0.155   6.603 -0.3335  0.3346  0.4048
 8100SOL    HW135936   1.838   0.244   6.636  1.9907  0.3730  0.8392
 8100SOL    HW235937   1.940   0.147   6.588  0.2480  3.2209  2.6509
 8101SOL     OW35938   4.231   3.809   4.573 -0.2462  0.8123  0.0785
 8101SOL    HW135939   4.316   3.831   4.611  0.7123  0.8872 -2.1164
 8101SOL    HW235940   4.250   3.773   4.486  0.6283 -0.2194  0.7002
 8102SOL     OW35941   4.272   4.407   7.099 -0.2677  0.8588 -0.1824
 8102SOL    HW135942   4.189   4.369   7.070  0.5594 -0.8899 -0.2224
 8102SOL    HW235943   4.263   4.503   7.093  3.1941  1.3302  1.9542
 8103SOL     OW35944   0.713   1.549  13.479 -0.0881  0.1809  0.3325
 8103SOL    HW135945   0.741   1.481  13.417  0.6840 -0.0947  0.9849
 8103SOL    HW235946   0.629   1.509  13.502 -1.0640  0.9904 -1.7786
 8104SOL     OW35947   2.204   3.320   4.596  0.1367 -0.0507 -0.2590
 8104SOL    HW135948   2.265   3.336   4.524  0.0900  1.6418  0.0761
 8104SOL    HW235949   2.160   3.404   4.583 -1.2908 -0.9344 -1.1987
 8105SOL     OW35950   3.727   3.779  14.538  0.8934 -0.2314 -0.6429
 8105SOL    HW135951   3.652   3.720  14.530 -0.7338  1.5010  1.9996
 8105SOL    HW235952   3.787   3.733  14.597  0.4986  0.4361  0.2655
 8106SOL     OW35953   3.629   3.801  11.691  0.7531  0.6974 -0.0042
 8106SOL    HW135954   3.671   3.887  11.689  1.3818  0.4121  0.4795
 8106SOL    HW235955   3.567   3.792  11.764  0.5127  0.5094 -0.2348
 8107SOL     OW35956   0.324   1.368   0.752  0.1339  0.1621 -0.1243
 8107SOL    HW135957   0.402   1.424   0.753  0.4923 -0.2841 -2.3940
 8107SOL    HW235958   0.356   1.300   0.813 -1.6400 -1.5249 -1.0897
 8108SOL     OW35959   3.664   0.448   8.884  0.1273  0.4723  0.2967
 8108SOL    HW135960   3.576   0.472   8.856  1.3298  0.8955 -3.1290
 8108SOL    HW235961   3.652   0.385   8.955  1.2311  0.4525  0.4638
 8109SOL     OW35962   3.458   2.335   6.297 -0.0225  0.1705 -0.2516
 8109SOL    HW135963   3.433   2.401   6.233 -1.2463 -0.7520 -0.7316
 8109SOL    HW235964   3.392   2.272   6.270 -0.2560  0.1722  0.3200
 8110SOL     OW35965   0.807   2.188  17.297  0.6157 -0.1522  0.5064
 8110SOL    HW135966   0.869   2.233  17.239  0.4739 -1.5288 -0.7199
 8110SOL    HW235967   0.861   2.113  17.324 -1.3862 -1.9316 -0.3984
 8111SOL     OW35968   0.640   2.200   7.167  0.3080  0.3793  0.2823
 8111SOL    HW135969   0.722   2.249   7.166 -0.2677  1.2424 -2.7358
 8111SOL    HW235970   0.598   2.219   7.084 -2.1875 -0.4570  1.3554
 8112SOL     OW35971   2.297   0.053   5.174 -0.2797  0.3450  0.6186
 8112SOL    HW135972   2.344   0.075   5.254 -0.4100  0.3457  0.6950
 8112SOL    HW235973   2.337   4.702   5.151  0.0253  0.7791 -0.4838
 8113SOL     OW35974   2.295   4.221   9.312 -0.1908  0.0916 -0.1614
 8113SOL    HW135975   2.257   4.239   9.398 -0.6768  0.8292 -0.5289
 8113SOL    HW235976   2.361   4.155   9.334 -1.5050 -1.3088 -0.4373
 8114SOL     OW35977   3.723   2.312   4.362 -0.1040  0.8712  0.2687
 8114SOL    HW135978   3.698   2.403   4.343 -0.3972  0.5583 -0.8761
 8114SOL    HW235979   3.794   2.330   4.424  0.1212 -0.7692  0.4812
 8115SOL     OW35980   2.833   4.613   6.114  0.2691  0.5136  0.0354
 8115SOL    HW135981   2.785   4.614   6.197  2.5895  0.6461  1.3494
 8115SOL    HW235982   2.920   4.587   6.143 -0.8022 -2.3036  0.6528
 8116SOL     OW35983   4.260   0.178  14.786  0.1415  0.0149  0.0757
 8116SOL    HW135984   4.235   0.208  14.873  1.5360  4.0640 -0.8805
 8116SOL    HW235985   4.301   0.256  14.749  0.9490  0.0877  1.1384
 8117SOL     OW35986   3.110   0.814   9.911  0.2313  0.1836  0.1947
 8117SOL    HW135987   3.054   0.866   9.969  1.7039  2.3874 -0.3704
 8117SOL    HW235988   3.186   0.791   9.964  1.0643  0.9889 -0.6585
 8118SOL     OW35989   0.747   0.512  13.482 -0.4815 -0.5664 -0.1833
 8118SOL    HW135990   0.819   0.536  13.424 -1.2805  1.4938 -0.3130
 8118SOL    HW235991   0.670   0.543  13.435  0.0890 -0.1682 -0.8577
 8119SOL     OW35992   4.281   0.621   0.955  0.0880 -0.7135  0.1000
 8119SOL    HW135993   4.282   0.656   1.044 -0.3263  1.6553 -0.8463
 8119SOL    HW235994   4.338   0.544   0.963  0.2205 -0.8627 -2.1500
 8120SOL     OW35995   2.934   4.308  14.508  0.6842 -0.3449 -0.4432
 8120SOL    HW135996   2.976   4.270  14.431  0.9517  0.4459 -0.6813
 8120SOL    HW235997   2.842   4.298  14.485  0.2588  0.1323  1.0160
 8121SOL     OW35998   0.741   2.727  12.478 -0.5045  0.1338  0.4511
 8121SOL    HW135999   0.792   2.692  12.405  2.9299 -0.8861  3.3762
 8121SOL    HW236000   0.661   2.763  12.438 -1.3600 -3.2557 -0.8978
 8122SOL     OW36001   0.677   1.662  13.153 -0.1387 -0.0894 -0.3746
 8122SOL    HW136002   0.653   1.751  13.127 -0.5122  0.0528  0.4529
 8122SOL    HW236003   0.749   1.627  13.100 -0.4842  0.4601 -1.1975
 8123SOL     OW36004   2.733   0.908  15.645  0.3551 -0.3493 -1.0983
 8123SOL    HW136005   2.768   0.819  15.643  0.3090 -0.4019  0.1439
 8123SOL    HW236006   2.787   0.946  15.576  1.4563 -1.9734 -1.1480
 8124SOL     OW36007   1.089   1.246   3.084  0.2098  0.1986  0.0198
 8124SOL    HW136008   1.032   1.321   3.063 -0.6888 -0.5918 -0.3538
 8124SOL    HW236009   1.171   1.292   3.099  0.5903 -0.3692 -0.3522
 8125SOL     OW36010   1.524   2.087   8.189 -0.4371  0.4766 -0.3086
 8125SOL    HW136011   1.443   2.047   8.157 -0.8049  2.0105 -1.2896
 8125SOL    HW236012   1.526   2.067   8.283  1.5539 -0.6503 -0.5852
 8126SOL     OW36013   1.426   3.702   3.359  0.0083  0.5764  0.0964
 8126SOL    HW136014   1.433   3.779   3.303 -2.8990  1.5285  1.0449
 8126SOL    HW236015   1.511   3.659   3.349 -0.6853 -0.7667  0.0326
 8127SOL     OW36016   4.568   3.767   3.141  0.4109 -0.0962 -0.5311
 8127SOL    HW136017   4.504   3.728   3.201 -0.4003 -0.5016 -1.6651
 8127SOL    HW236018   4.639   3.704   3.155 -1.4721 -2.0998 -0.0997
 8128SOL     OW36019   1.422   1.133   5.471  0.7006  0.0122 -0.5389
 8128SOL    HW136020   1.352   1.093   5.522 -1.4550  2.0594 -1.8737
 8128SOL    HW236021   1.417   1.090   5.386 -0.5236  0.1655 -0.5495
 8129SOL     OW36022   4.126   2.841  10.292 -0.0337 -0.0567  0.1270
 8129SOL    HW136023   4.204   2.840  10.347 -0.7943  0.8077  1.2145
 8129SOL    HW236024   4.155   2.907  10.228  0.4038  0.1353  0.5220
 8130SOL     OW36025   4.224   1.153  12.090  0.1065  0.1469  0.0871
 8130SOL    HW136026   4.257   1.152  12.000  0.9319  1.4538  0.3673
 8130SOL    HW236027   4.167   1.230  12.087 -0.0175  0.1048  1.3361
 8131SOL     OW36028   3.381   1.048   3.962  0.5076  0.0506  0.1701
 8131SOL    HW136029   3.447   1.113   3.937  0.6571 -0.0747  0.2345
 8131SOL    HW236030   3.444   1.017   4.027 -1.5620 -2.6179  0.8931
 8132SOL     OW36031   2.452   0.967  12.114  0.1676  0.3311 -0.0050
 8132SOL    HW136032   2.463   0.873  12.098 -0.7421  0.1676  0.3448
 8132SOL    HW236033   2.407   0.994  12.034  0.2775  1.3136  0.2648
 8133SOL     OW36034   4.505   1.052   2.356 -0.6529 -0.2037  0.6335
 8133SOL    HW136035   4.526   1.137   2.316  0.1441 -1.1689 -0.9774
 8133SOL    HW236036   4.421   1.031   2.316 -0.0973  0.4457 -0.8752
 8134SOL     OW36037   2.996   0.853  16.466 -0.1558  0.4916 -0.2976
 8134SOL    HW136038   3.046   0.839  16.386  1.4648 -1.2522  1.0372
 8134SOL    HW236039   2.950   0.936  16.452 -0.2430  0.0053 -2.8683
 8135SOL     OW36040   2.021   3.066   9.825 -0.4033 -0.2420  0.2679
 8135SOL    HW136041   2.013   3.024   9.739 -0.3057 -2.1883  1.2198
 8135SOL    HW236042   2.116   3.077   9.836 -0.4120  1.0773 -0.8500
 8136SOL     OW36043   3.736   4.516   3.434  0.5930  0.6802  0.3859
 8136SOL    HW136044   3.684   4.580   3.482 -0.2202 -0.9740  1.6982
 8136SOL    HW236045   3.726   4.545   3.343  1.4745 -1.2095 -0.3320
 8137SOL     OW36046   0.393   2.258  16.921 -0.2878 -0.1977 -0.4538
 8137SOL    HW136047   0.388   2.245  17.016  0.9224  0.5823 -0.2708
 8137SOL    HW236048   0.335   2.186  16.898 -1.2867  0.3669  0.2507
 8138SOL     OW36049   0.604   1.641  16.914  0.0266 -0.4613 -0.0218
 8138SOL    HW136050   0.638   1.726  16.944 -2.4862  0.9323 -1.0575
 8138SOL    HW236051   0.531   1.632  16.976  0.1961 -0.1120  0.2312
 8139SOL     OW36052   4.161   4.037   9.902 -0.8883 -0.6691  0.3260
 8139SOL    HW136053   4.196   3.949   9.914 -1.6126 -0.8547  1.1241
 8139SOL    HW236054   4.068   4.016   9.887 -0.4187 -0.8763 -2.3091
 8140SOL     OW36055   0.271   0.049   4.269  0.0713 -0.0014 -0.4046
 8140SOL    HW136056   0.248   0.139   4.246 -0.3573 -0.0062 -0.0003
 8140SOL    HW236057   0.191   0.019   4.313  1.6745 -0.8130  1.9470
 8141SOL     OW36058   0.046   4.597  16.597  1.1136  0.8254 -0.5533
 8141SOL    HW136059   4.699   4.549  16.576 -0.0209  0.3485  5.0803
 8141SOL    HW236060   0.064   4.551  16.679  0.3208  0.0752 -0.8001
 8142SOL     OW36061   4.722   0.024   2.270 -0.1559  0.4426 -0.1037
 8142SOL    HW136062   4.663   0.081   2.221 -1.5237  0.7304  1.8662
 8142SOL    HW236063   0.028   0.091   2.326 -0.9119  0.2190  0.7119
 8143SOL     OW36064   0.398   0.393   9.309  0.2962  0.7057  0.1881
 8143SOL    HW136065   0.493   0.397   9.299  0.4069 -2.9054 -0.3740
 8143SOL    HW236066   0.366   0.452   9.241  0.4920 -1.0066 -1.3763
 8144SOL     OW36067   1.917   2.425   2.951  0.4172 -0.7758  0.1368
 8144SOL    HW136068   1.822   2.425   2.966  0.2375 -1.4263 -0.9675
 8144SOL    HW236069   1.948   2.415   3.041 -0.3357  2.7863  0.7824
 8145SOL     OW36070   3.123   2.164  11.619 -0.4477 -0.1615 -0.5845
 8145SOL    HW136071   3.061   2.107  11.665 -0.0163 -1.3959 -1.5369
 8145SOL    HW236072   3.125   2.236  11.682  3.0619 -2.8970  2.4870
 8146SOL     OW36073   3.280   1.335  17.364 -0.2360  0.2749  0.1867
 8146SOL    HW136074   3.373   1.357  17.372  0.0599 -0.7938 -0.2215
 8146SOL    HW236075   3.281   1.250  17.409  1.4802 -0.9037 -2.0595
 8147SOL     OW36076   1.341   4.323   5.078 -0.0359 -0.6146 -0.2096
 8147SOL    HW136077   1.374   4.369   5.155 -0.5637  1.2849 -1.1026
 8147SOL    HW236078   1.311   4.395   5.023 -0.8747 -0.3593  0.5813
 8148SOL     OW36079   1.961   2.265  15.955  0.1204  1.1308 -0.2964
 8148SOL    HW136080   1.996   2.300  16.037  0.9644 -3.2617  1.2207
 8148SOL    HW236081   2.030   2.286  15.892  0.0988  0.5965 -0.4974
 8149SOL     OW36082   0.819   4.399   1.896 -0.4411  0.4595 -0.3924
 8149SOL    HW136083   0.741   4.451   1.877  0.0623  0.7240 -1.7173
 8149SOL    HW236084   0.808   4.330   1.830  0.2739  0.1765 -0.2182
 8150SOL     OW36085   1.107   3.721   2.634 -0.0977  0.4893  0.1234
 8150SOL    HW136086   1.150   3.732   2.549 -2.0952 -0.7776 -1.0496
 8150SOL    HW236087   1.017   3.702   2.608  1.0404 -2.7764 -1.5158
 8151SOL     OW36088   1.928   4.724  11.067  0.1992 -0.3646 -0.2876
 8151SOL    HW136089   1.954   0.081  11.053  1.1647 -0.9953 -2.5516
 8151SOL    HW236090   1.898   4.723  11.158  2.0671  1.3956  0.3551
 8152SOL     OW36091   2.477   2.042   5.149  0.4673  0.5635 -0.0922
 8152SOL    HW136092   2.405   2.068   5.207 -0.9922 -1.6022 -0.9472
 8152SOL    HW236093   2.550   2.102   5.166 -1.1103  2.3191  0.4580
 8153SOL     OW36094   3.186   2.882  12.115  0.1276  0.1630  0.3746
 8153SOL    HW136095   3.102   2.922  12.093 -0.5799 -0.4271  2.0166
 8153SOL    HW236096   3.177   2.789  12.094  0.6262 -0.1923  1.7832
 8154SOL     OW36097   1.574   0.096   4.234 -0.0035  0.7279 -0.3180
 8154SOL    HW136098   1.532   0.100   4.148  0.6028  0.1391 -0.6461
 8154SOL    HW236099   1.660   0.116   4.198  0.6174  1.0313  1.3458
 8155SOL     OW36100   2.021   4.264  12.245 -0.0347  0.1502 -0.1591
 8155SOL    HW136101   1.942   4.318  12.252 -0.5282 -0.6003  0.1135
 8155SOL    HW236102   2.058   4.294  12.162 -1.9458  0.4716 -0.8925
 8156SOL     OW36103   3.962   4.267   9.364  0.2468 -0.5613 -0.4382
 8156SOL    HW136104   3.925   4.349   9.332  0.2989  0.3474  1.8296
 8156SOL    HW236105   3.991   4.301   9.448 -0.9075  2.0513 -1.1123
 8157SOL     OW36106   2.787   0.510   9.436 -0.3825  0.2744  0.0313
 8157SOL    HW136107   2.751   0.588   9.478 -1.8467 -0.4786  0.1673
 8157SOL    HW236108   2.782   0.533   9.343 -0.5089  0.2775  0.0389
 8158SOL     OW36109   0.523   2.139  11.381  0.0318 -0.7948 -0.3765
 8158SOL    HW136110   0.434   2.173  11.376  0.2998 -0.0614 -0.2140
 8158SOL    HW236111   0.511   2.058  11.431  1.5974 -2.4612 -2.7052
 8159SOL     OW36112   2.575   2.285  11.689 -0.7463  0.5525  0.1916
 8159SOL    HW136113   2.541   2.283  11.599  0.3902 -1.0444 -0.1937
 8159SOL    HW236114   2.511   2.230  11.734  1.2117 -2.1547 -0.3408
 8160SOL     OW36115   0.207   0.661   3.779 -0.1936 -0.0543 -0.0880
 8160SOL    HW136116   0.216   0.674   3.874  2.8677  0.5777 -0.4795
 8160SOL    HW236117   0.115   0.676   3.756 -0.3632  0.9323  1.1798
 8161SOL     OW36118   2.644   1.658   8.332 -0.4194  0.4921 -0.5666
 8161SOL    HW136119   2.697   1.722   8.283 -0.9775  1.2493 -0.1735
 8161SOL    HW236120   2.589   1.722   8.377 -0.0334 -0.9441  1.9741
 8162SOL     OW36121   1.956   0.708   8.039 -0.2895  0.3440  0.2140
 8162SOL    HW136122   1.947   0.749   8.125 -0.7704 -0.5023  0.5613
 8162SOL    HW236123   2.011   0.634   8.064  0.9582  0.8806 -0.9251
 8163SOL     OW36124   4.609   1.184   3.976  0.0504 -0.0950  0.6409
 8163SOL    HW136125   4.541   1.226   3.923 -1.4008 -1.6944  1.2337
 8163SOL    HW236126   4.646   1.264   4.012  1.9977 -1.2723  1.2776
 8164SOL     OW36127   1.509   4.548   7.269  0.7107 -0.0799  0.3863
 8164SOL    HW136128   1.493   4.505   7.353 -1.9146 -2.0230 -1.1032
 8164SOL    HW236129   1.587   4.494   7.255  1.2255  0.1168  2.3985
 8165SOL     OW36130   4.179   4.115   5.386  0.0117  0.3025 -0.8211
 8165SOL    HW136131   4.240   4.114   5.312  2.0353 -3.6282  0.9171
 8165SOL    HW236132   4.098   4.094   5.340 -0.9007 -0.5694  1.1788
 8166SOL     OW36133   1.440   3.874  15.579  0.0213 -0.2370 -0.5863
 8166SOL    HW136134   1.368   3.923  15.538 -0.2244  0.1885  0.3727
 8166SOL    HW236135   1.494   3.949  15.606  0.0030 -0.3905 -0.1329
 8167SOL     OW36136   3.757   3.079  14.690  0.1418 -0.2191  0.2052
 8167SOL    HW136137   3.771   3.030  14.609 -1.6818 -1.4618  0.6524
 8167SOL    HW236138   3.844   3.091  14.728  0.4638 -2.0810  0.0348
 8168SOL     OW36139   3.210   0.856   8.226  0.0961  0.0796 -0.4250
 8168SOL    HW136140   3.138   0.800   8.255  1.1382 -1.1611 -0.2216
 8168SOL    HW236141   3.175   0.943   8.243 -1.5000 -0.5356 -0.5795
 8169SOL     OW36142   0.307   3.585   8.245  0.3021  0.2652  0.3893
 8169SOL    HW136143   0.324   3.620   8.157  0.1344  0.3662  0.3980
 8169SOL    HW236144   0.393   3.596   8.286  0.7128 -1.0176 -0.1012
 8170SOL     OW36145   4.137   0.553   0.690  0.6491 -0.0967 -0.7737
 8170SOL    HW136146   4.185   0.583   0.767  0.4972  0.2265 -0.8057
 8170SOL    HW236147   4.199   0.489   0.653 -1.7559 -1.7586 -1.9074
 8171SOL     OW36148   2.011   4.380   3.006 -0.0410 -0.4779 -0.2876
 8171SOL    HW136149   2.085   4.359   2.949 -0.7583  3.1144 -2.5236
 8171SOL    HW236150   2.010   4.476   3.007  1.3818 -0.4475 -1.0281
 8172SOL     OW36151   1.398   1.431  11.426 -0.1636 -0.2639 -0.2971
 8172SOL    HW136152   1.443   1.415  11.343  1.9751  1.8417  0.4705
 8172SOL    HW236153   1.307   1.433  11.395 -0.2732 -0.6324 -0.0051
 8173SOL     OW36154   1.136   1.237   7.783 -1.0013  0.2452 -0.3021
 8173SOL    HW136155   1.146   1.218   7.690  0.7629  0.5762 -0.1775
 8173SOL    HW236156   1.225   1.223   7.816 -0.6462 -1.5944 -2.0327
 8174SOL     OW36157   3.914   0.454   0.554 -0.3742  0.6413  0.0378
 8174SOL    HW136158   3.892   0.522   0.491 -2.6346 -1.3864 -1.3391
 8174SOL    HW236159   3.996   0.487   0.591  0.5672 -0.6842 -0.8691
 8175SOL     OW36160   0.739   0.082   8.888  0.5026  0.5893 -0.5443
 8175SOL    HW136161   0.774   4.727   8.882  0.0865  0.3307  0.6915
 8175SOL    HW236162   0.649   0.080   8.854 -0.6194  0.9827  2.3958
 8176SOL     OW36163   0.979   1.746   2.505 -0.1490  0.0379 -0.0818
 8176SOL    HW136164   0.989   1.684   2.433 -0.4554 -0.1610  0.0444
 8176SOL    HW236165   0.954   1.685   2.575  0.3415  1.0634  0.9768
 8177SOL     OW36166   0.512   2.705   9.634 -0.1013  0.0777  0.3482
 8177SOL    HW136167   0.501   2.786   9.683 -2.1936 -1.4176  2.3936
 8177SOL    HW236168   0.574   2.665   9.695  0.3681  0.8876  0.3916
 8178SOL     OW36169   4.478   3.521   3.948 -0.1001 -0.5209  0.5576
 8178SOL    HW136170   4.509   3.522   4.039  2.1117  0.2365 -0.1900
 8178SOL    HW236171   4.526   3.448   3.909  1.9361  0.6226  0.8930
 8179SOL     OW36172   1.629   4.222   6.946 -0.1299  0.2785 -0.6956
 8179SOL    HW136173   1.700   4.284   6.964 -0.1576  0.8373 -2.5231
 8179SOL    HW236174   1.570   4.274   6.892  1.1520  2.0587 -0.3714
 8180SOL     OW36175   1.767   3.773   2.618 -0.3944  0.4575 -0.0617
 8180SOL    HW136176   1.738   3.707   2.556 -2.1929  0.9703  0.2060
 8180SOL    HW236177   1.703   3.842   2.598  0.8522  1.9230  0.9739
 8181SOL     OW36178   0.364   1.565   8.948 -0.7477 -0.4243  0.5083
 8181SOL    HW136179   0.414   1.527   9.021 -2.5903 -1.4393  1.2283
 8181SOL    HW236180   0.432   1.605   8.894 -0.7329 -0.8471  0.2183
 8182SOL     OW36181   0.830   4.724   9.182 -0.1941  0.2094  0.0096
 8182SOL    HW136182   0.821   0.085   9.171  1.2818  0.0936 -2.1925
 8182SOL    HW236183   0.811   4.699   9.091  0.0457 -0.6670  0.2000
 8183SOL     OW36184   1.593   3.083   2.530 -0.1601  0.0476  0.1150
 8183SOL    HW136185   1.675   3.051   2.493 -0.1720  1.5555 -1.2265
 8183SOL    HW236186   1.542   3.003   2.517  1.5254 -1.2657  1.5544
 8184SOL     OW36187   3.505   0.097   7.621  0.0615  0.2376  0.2869
 8184SOL    HW136188   3.447   0.140   7.557 -1.2459  1.8952  2.5617
 8184SOL    HW236189   3.438   0.077   7.687  0.5309 -0.5134  0.5240
 8185SOL     OW36190   1.019   4.723  11.161 -0.5584  0.0639 -0.0484
 8185SOL    HW136191   1.101   4.689  11.126 -0.2081  0.0124  0.8157
 8185SOL    HW236192   0.986   4.656  11.221  0.0018 -1.8552 -1.9292
 8186SOL     OW36193   4.026   3.321   5.579  0.2572 -0.2048  0.2771
 8186SOL    HW136194   3.997   3.370   5.656  1.2783 -1.7817  1.6767
 8186SOL    HW236195   3.974   3.360   5.509 -0.1145  1.2842  1.3967
 8187SOL     OW36196   2.916   3.158   2.683  0.3282 -0.5586 -0.8216
 8187SOL    HW136197   2.946   3.170   2.593  2.5980  0.7568  0.0907
 8187SOL    HW236198   2.953   3.235   2.728 -0.9648 -1.6306  2.0924
 8188SOL     OW36199   3.916   1.631   2.858  0.4815  0.5057  0.5505
 8188SOL    HW136200   3.977   1.603   2.927  0.3486 -0.6129  0.2160
 8188SOL    HW236201   3.828   1.611   2.891 -0.5990  1.6804 -1.6267
 8189SOL     OW36202   2.439   3.485  12.543 -0.7915  0.1138 -0.1843
 8189SOL    HW136203   2.456   3.413  12.483 -0.7967  0.4783 -0.6174
 8189SOL    HW236204   2.346   3.475  12.563 -0.2506 -1.4051  1.6441
 8190SOL     OW36205   0.590   0.641  15.606  0.6100  0.3857  0.4753
 8190SOL    HW136206   0.633   0.708  15.554 -1.7698  0.5773 -1.2371
 8190SOL    HW236207   0.518   0.610  15.550 -0.4087  2.0873  0.8410
 8191SOL     OW36208   0.395   1.829   5.153 -0.1207  0.2180 -0.1314
 8191SOL    HW136209   0.486   1.835   5.179  0.0995  1.2936 -1.1224
 8191SOL    HW236210   0.353   1.894   5.209 -0.9476 -0.8945  0.5414
 8192SOL     OW36211   0.144   0.961   9.392 -0.3227 -0.1490  0.1767
 8192SOL    HW136212   0.091   1.040   9.396  1.4093  0.9595  0.9982
 8192SOL    HW236213   0.083   0.896   9.428 -0.8698 -0.8228 -1.9300
 8193SOL     OW36214   3.732   2.598   1.098 -0.1052 -0.2862  0.7279
 8193SOL    HW136215   3.770   2.578   1.013  0.0763  0.0299  0.7351
 8193SOL    HW236216   3.770   2.682   1.123 -0.8434 -0.2490  1.7191
 8194SOL     OW36217   4.088   1.117   4.932  0.5623 -0.1054 -0.1785
 8194SOL    HW136218   4.056   1.028   4.946 -1.3420  0.7366  0.7383
 8194SOL    HW236219   4.021   1.159   4.878  0.4294 -2.5088 -1.8821
 8195SOL     OW36220   0.648   3.396   6.800 -0.4672 -0.1630  0.1553
 8195SOL    HW136221   0.691   3.445   6.730  1.7692 -1.1671  0.8320
 8195SOL    HW236222   0.685   3.308   6.791  1.2125  0.9312 -3.5935
 8196SOL     OW36223   0.013   1.914  16.531  0.0965 -0.0836  0.6478
 8196SOL    HW136224   4.707   1.829  16.517 -0.4157  0.2780 -0.1227
 8196SOL    HW236225   0.107   1.898  16.544  0.3584 -0.6994 -2.0065
 8197SOL     OW36226   3.662   3.803   8.013  0.1569  0.2989  0.0836
 8197SOL    HW136227   3.620   3.718   8.027 -0.6755  0.5477 -0.9460
 8197SOL    HW236228   3.711   3.787   7.932  1.5438  0.2694  0.9168
 8198SOL     OW36229   1.741   3.966   6.918  0.5034  0.2203  0.8981
 8198SOL    HW136230   1.832   3.992   6.902  0.7444 -0.9785  0.3383
 8198SOL    HW236231   1.698   4.050   6.929  0.3900  0.8617 -4.2022
 8199SOL     OW36232   4.350   1.052   7.584 -0.1520  0.0336 -0.0523
 8199SOL    HW136233   4.279   0.990   7.602 -0.4985 -0.4450 -3.0221
 8199SOL    HW236234   4.396   1.046   7.667 -0.2358 -0.3801 -0.0367
 8200SOL     OW36235   2.834   3.369  17.485 -0.3771 -0.2213  0.2599
 8200SOL    HW136236   2.821   3.448  17.434  2.0289  0.0413  0.0593
 8200SOL    HW236237   2.750   3.357  17.530 -0.7422  0.8684 -0.1375
 8201SOL     OW36238   1.126   4.026   7.030  0.0685  0.4837 -0.9579
 8201SOL    HW136239   1.135   4.097   6.967 -1.6302  1.4337 -0.1291
 8201SOL    HW236240   1.032   4.008   7.029  0.5086 -2.0058  1.1894
 8202SOL     OW36241   0.256   3.734   1.660 -0.5223  0.0263 -0.0281
 8202SOL    HW136242   0.274   3.647   1.696  1.3479  0.1315 -0.7142
 8202SOL    HW236243   0.218   3.778   1.736  0.0290 -0.1610  0.3564
 8203SOL     OW36244   4.489   0.354   2.356  0.4090 -0.0891 -0.2433
 8203SOL    HW136245   4.525   0.345   2.444  0.2581  0.2291 -0.1473
 8203SOL    HW236246   4.522   0.441   2.334  0.0949 -0.1670 -1.0166
 8204SOL     OW36247   1.569   4.080   3.697  0.0151 -0.1822 -0.0250
 8204SOL    HW136248   1.575   4.079   3.602 -0.5580 -1.4100 -0.0487
 8204SOL    HW236249   1.610   3.999   3.725  0.9127  0.8056  1.5228
 8205SOL     OW36250   3.565   2.753  17.306 -0.0618 -0.5107  0.6281
 8205SOL    HW136251   3.579   2.746  17.212  1.6039  0.8836  0.7704
 8205SOL    HW236252   3.502   2.824  17.309  1.4127  0.8598 -0.3940
 8206SOL     OW36253   2.279   2.834  17.527  0.6331 -0.2957 -0.1899
 8206SOL    HW136254   2.364   2.814  17.487  1.0058  1.6725 -0.4009
 8206SOL    HW236255   2.311   2.882  17.604 -0.2474  0.8457 -0.5365
 8207SOL     OW36256   1.374   0.083  12.786  0.0002 -0.4151 -0.0800
 8207SOL    HW136257   1.410   0.159  12.739  0.2059 -0.0215  0.7123
 8207SOL    HW236258   1.280   0.098  12.774  0.2599  0.2358 -1.3239
 8208SOL     OW36259   0.949   3.579  10.799  0.4999 -0.7012 -0.0238
 8208SOL    HW136260   0.873   3.613  10.751  0.3346 -0.6799  0.2537
 8208SOL    HW236261   0.926   3.615  10.884  1.2823  0.4593 -0.2945
 8209SOL     OW36262   0.349   3.032   4.846 -0.6322  1.1957 -0.2284
 8209SOL    HW136263   0.345   3.026   4.941 -0.0347 -0.4695 -0.3103
 8209SOL    HW236264   0.441   3.020   4.823 -1.0244  1.7709 -2.0587
 8210SOL     OW36265   1.847   3.909   4.288  0.0939 -0.0122  0.1841
 8210SOL    HW136266   1.929   3.957   4.276  1.0184 -0.9762  2.7547
 8210SOL    HW236267   1.790   3.960   4.230 -0.5628 -0.6477  0.2852
 8211SOL     OW36268   0.680   3.373   0.200  0.8501  0.4350  0.0352
 8211SOL    HW136269   0.734   3.405   0.272 -0.5418  0.9778  0.8252
 8211SOL    HW236270   0.596   3.410   0.228  0.9339  2.1835 -1.9569
 8212SOL     OW36271   3.594   3.683   2.007 -0.0014  0.4478 -0.1338
 8212SOL    HW136272   3.553   3.751   1.954  1.0357  1.1666 -0.0123
 8212SOL    HW236273   3.611   3.724   2.092 -0.9924  0.5420  0.0185
 8213SOL     OW36274   3.756   3.526   7.916  0.1464  0.3081 -0.2390
 8213SOL    HW136275   3.752   3.439   7.878  2.1242 -0.0746  0.4601
 8213SOL    HW236276   3.745   3.503   8.008 -1.0435 -0.8700 -0.6781
 8214SOL     OW36277   3.521   1.455   7.259  0.0326  0.0877 -0.5135
 8214SOL    HW136278   3.599   1.453   7.314  1.0317 -1.2829 -1.9662
 8214SOL    HW236279   3.502   1.367   7.229  1.7106 -0.7094  0.7540
 8215SOL     OW36280   0.056   4.233  17.098  0.2379 -0.4535  0.6872
 8215SOL    HW136281   4.717   4.295  17.091  1.5012  1.1756  1.7808
 8215SOL    HW236282   0.014   4.161  17.145  0.3324 -0.9903 -0.0580
 8216SOL     OW36283   2.009   2.899   8.431  0.1097 -0.5700  0.0411
 8216SOL    HW136284   1.917   2.886   8.454  0.0477  0.4749  0.3883
 8216SOL    HW236285   2.026   2.993   8.444  0.0373 -0.3941 -1.1555
 8217SOL     OW36286   1.144   3.742   6.902 -0.5130  0.4291 -0.0224
 8217SOL    HW136287   1.209   3.724   6.834 -1.4197 -1.3343 -0.4165
 8217SOL    HW236288   1.194   3.723   6.981  0.8326  0.1286 -0.9366
 8218SOL     OW36289   0.014   2.957   5.095  0.2055  0.0913  0.4585
 8218SOL    HW136290   4.672   2.899   5.097  0.9034 -0.8501 -0.0955
 8218SOL    HW236291   0.075   2.892   5.059 -0.2834 -0.9832  1.5852
 8219SOL     OW36292   2.798   4.436  11.735  0.1981 -0.0718  0.1640
 8219SOL    HW136293   2.764   4.521  11.708 -0.3540 -0.0361  0.9681
 8219SOL    HW236294   2.713   4.397  11.756  0.9659 -1.4534  0.7185
 8220SOL     OW36295   3.560   2.577   8.254  0.4140  1.2532  0.2300
 8220SOL    HW136296   3.555   2.514   8.326 -2.0263  1.8708  0.5996
 8220SOL    HW236297   3.475   2.582   8.209  0.4167  1.7730  0.2766
 8221SOL     OW36298   1.317   1.852   4.754  0.2625  0.5446 -0.0700
 8221SOL    HW136299   1.322   1.792   4.829  1.0303  1.7167  0.8263
 8221SOL    HW236300   1.348   1.793   4.686 -0.7277  2.2964 -2.0149
 8222SOL     OW36301   2.122   4.553   3.253  0.1003 -0.0444 -0.3702
 8222SOL    HW136302   2.208   4.585   3.227  0.4389 -0.0747  0.7148
 8222SOL    HW236303   2.079   4.633   3.284  0.3449 -0.3052  0.6420
 8223SOL     OW36304   1.460   0.505   5.290  0.3179  0.2266 -0.1032
 8223SOL    HW136305   1.416   0.455   5.359 -0.7893 -1.3709 -1.9549
 8223SOL    HW236306   1.404   0.494   5.213 -1.9477 -0.1050  1.5636
 8224SOL     OW36307   1.738   4.719   7.946  0.3293 -0.0584 -0.1986
 8224SOL    HW136308   1.705   0.047   8.011 -2.3323 -2.3271  0.6120
 8224SOL    HW236309   1.677   4.649   7.967  0.3339 -0.0100 -0.0180
 8225SOL     OW36310   4.583   0.518   3.321 -0.2239 -0.5487  0.1427
 8225SOL    HW136311   4.614   0.471   3.398 -1.9773  0.4048  1.4346
 8225SOL    HW236312   4.547   0.442   3.276  0.4823 -0.7722 -0.0505
 8226SOL     OW36313   0.404   0.254  16.888  0.1065 -0.3089 -0.1691
 8226SOL    HW136314   0.450   0.264  16.804  2.0736  0.0388  0.9383
 8226SOL    HW236315   0.472   0.216  16.943 -0.4177  0.2003  0.8254
 8227SOL     OW36316   4.504   1.664  12.144 -0.1225 -0.1876  0.7261
 8227SOL    HW136317   4.425   1.612  12.140  0.9711 -1.8709  1.2524
 8227SOL    HW236318   4.559   1.620  12.080  0.8338  0.7084  0.9232
 8228SOL     OW36319   1.310   4.523   3.583  0.8378 -0.1975  0.0617
 8228SOL    HW136320   1.256   4.444   3.594  2.9499 -1.4379  1.3833
 8228SOL    HW236321   1.395   4.487   3.608  1.4711  0.3181 -1.3648
 8229SOL     OW36322   4.221   2.523   8.370 -0.6381 -0.1683  0.3647
 8229SOL    HW136323   4.240   2.595   8.431 -2.2944  0.8153 -0.2859
 8229SOL    HW236324   4.307   2.497   8.339 -0.6898  0.3181 -0.1804
 8230SOL     OW36325   3.990   3.654   6.598  0.2860  0.2919 -0.3804
 8230SOL    HW136326   4.075   3.660   6.556  0.7543 -0.7233  0.4495
 8230SOL    HW236327   4.010   3.571   6.640  3.1781  0.7098 -0.9475
 8231SOL     OW36328   0.621   0.057  11.886 -0.7428 -0.2786  0.0736
 8231SOL    HW136329   0.674   0.111  11.827  0.5955 -2.1968 -0.4900
 8231SOL    HW236330   0.628   0.118  11.960  2.1940  1.0000 -1.2373
 8232SOL     OW36331   3.217   0.172   3.543 -0.2165  0.7285  0.2382
 8232SOL    HW136332   3.217   0.152   3.637 -2.8187 -0.0417  0.1071
 8232SOL    HW236333   3.176   0.091   3.509 -3.3524  3.0290 -1.5018
 8233SOL     OW36334   1.478   1.647   3.753 -0.4021 -0.5825  0.4725
 8233SOL    HW136335   1.385   1.655   3.732 -0.2236 -0.8058 -0.3857
 8233SOL    HW236336   1.507   1.717   3.812 -0.7621  1.2006 -1.4667
 8234SOL     OW36337   3.700   3.798   2.603 -0.4038 -0.6522  0.8105
 8234SOL    HW136338   3.782   3.833   2.638 -0.9822  0.2570  1.2609
 8234SOL    HW236339   3.696   3.718   2.656  0.6879 -0.8909  0.5377
 8235SOL     OW36340   0.176   2.487   8.903 -0.7874 -0.3380  0.2702
 8235SOL    HW136341   0.143   2.570   8.868  0.3581 -1.1972 -2.8305
 8235SOL    HW236342   0.270   2.500   8.892 -0.3956 -2.6481  0.9834
 8236SOL     OW36343   3.118   3.495   6.572 -0.3508 -0.3430 -0.2826
 8236SOL    HW136344   3.181   3.566   6.569  0.7407 -1.1954  2.1378
 8236SOL    HW236345   3.142   3.451   6.654  0.7885  0.6708 -0.0763
 8237SOL     OW36346   1.360   0.841   5.966 -0.5630  0.4671  0.0082
 8237SOL    HW136347   1.333   0.759   6.007  0.0020 -0.2554 -1.0662
 8237SOL    HW236348   1.357   0.905   6.037  0.1535 -1.3285  1.6776
 8238SOL     OW36349   1.420   1.445   8.907  0.3343  0.6666 -0.5102
 8238SOL    HW136350   1.384   1.433   8.819  0.2786  2.6852 -0.7482
 8238SOL    HW236351   1.373   1.521   8.941 -0.2546 -0.6386  1.6067
 8239SOL     OW36352   3.844   4.220   8.832  0.9159 -0.1328  0.2787
 8239SOL    HW136353   3.853   4.224   8.927 -3.1052  1.3824  0.5864
 8239SOL    HW236354   3.913   4.282   8.810 -0.5896  0.0709 -3.8419
 8240SOL     OW36355   2.744   2.755  14.550  0.4709 -0.0070  0.5088
 8240SOL    HW136356   2.807   2.790  14.487 -1.5797  0.5095 -1.2459
 8240SOL    HW236357   2.658   2.790  14.525  0.6842  0.1883  0.0574
 8241SOL     OW36358   0.435   0.495   2.647  0.0610 -0.1905  0.2820
 8241SOL    HW136359   0.481   0.579   2.656  0.1448 -0.3168  1.0198
 8241SOL    HW236360   0.416   0.472   2.738  2.6949  2.1056  1.4360
 8242SOL     OW36361   2.641   2.929  13.485 -0.3537 -0.2262 -0.0752
 8242SOL    HW136362   2.581   2.996  13.515 -0.3741 -1.2080  2.0816
 8242SOL    HW236363   2.675   2.900  13.569  2.1192  0.5009 -0.8195
 8243SOL     OW36364   3.035   3.463   9.542 -0.0433  0.0113  0.6091
 8243SOL    HW136365   3.027   3.397   9.610 -0.0652 -0.2612  0.3440
 8243SOL    HW236366   3.126   3.452   9.515 -0.9467  0.3596 -2.5885
 8244SOL     OW36367   1.573   1.236  10.859 -0.0491  0.1125 -0.2603
 8244SOL    HW136368   1.640   1.207  10.922  0.8564  0.5779 -1.0112
 8244SOL    HW236369   1.581   1.330  10.879  2.8483 -0.1237 -0.3488
 8245SOL     OW36370   1.705   3.817   3.792 -0.1638 -0.0143 -0.0495
 8245SOL    HW136371   1.795   3.806   3.823  0.1421 -1.4701 -1.4849
 8245SOL    HW236372   1.661   3.792   3.873  0.8384  2.1065  1.1551
 8246SOL     OW36373   1.273   2.825   8.550 -0.0545 -0.0981  0.6247
 8246SOL    HW136374   1.188   2.799   8.585 -1.3742  2.4716 -0.6360
 8246SOL    HW236375   1.249   2.872   8.470  1.0672  2.5690  1.8280
 8247SOL     OW36376   3.578   0.834   3.849 -0.3132 -0.3865  0.1931
 8247SOL    HW136377   3.652   0.894   3.860  0.4365 -1.1757 -0.4994
 8247SOL    HW236378   3.533   0.835   3.933 -1.0839  0.6748 -0.2340
 8248SOL     OW36379   1.187   4.659  15.344  0.2780 -0.1678 -0.1402
 8248SOL    HW136380   1.123   4.681  15.411  0.5425  1.0030 -0.2624
 8248SOL    HW236381   1.161   4.718  15.273  0.4321  0.4830  0.3455
 8249SOL     OW36382   0.929   4.374  16.071 -0.3057 -0.1849 -0.3594
 8249SOL    HW136383   0.994   4.333  16.014  1.4978 -0.3764  1.7976
 8249SOL    HW236384   0.972   4.346  16.152 -1.4270 -1.9329 -0.3735
 8250SOL     OW36385   0.133   0.744  14.860  0.2177  0.5069  0.4472
 8250SOL    HW136386   0.202   0.774  14.802  1.7402 -1.3639  1.2966
 8250SOL    HW236387   0.069   0.697  14.807  1.5775 -0.9960  0.1510
 8251SOL     OW36388   3.526   1.616   5.000 -0.2192  0.3559 -0.0205
 8251SOL    HW136389   3.510   1.527   4.970  1.2426  0.1201 -0.0581
 8251SOL    HW236390   3.523   1.667   4.919 -0.7425 -0.3107 -0.4262
 8252SOL     OW36391   1.245   3.018   2.643  0.4340 -0.6148  0.1190
 8252SOL    HW136392   1.311   2.981   2.584  1.7012  0.3833  0.8969
 8252SOL    HW236393   1.305   3.047   2.712 -0.6450 -0.9691  1.2059
 8253SOL     OW36394   3.468   3.856   2.754  0.2469  0.4669  0.3223
 8253SOL    HW136395   3.445   3.949   2.748 -0.2737  0.2313 -1.2607
 8253SOL    HW236396   3.551   3.855   2.706  1.2244 -0.1117  2.0132
 8254SOL     OW36397   1.296   0.460   3.165 -0.2496 -0.6196 -0.1895
 8254SOL    HW136398   1.326   0.541   3.207 -0.7391 -0.8073  0.5187
 8254SOL    HW236399   1.383   0.431   3.138  0.6499 -0.0928  2.1237
 8255SOL     OW36400   1.593   1.932   6.442  0.0205 -0.0925  0.0721
 8255SOL    HW136401   1.629   2.004   6.390  0.5882 -0.3308  0.1337
 8255SOL    HW236402   1.532   1.900   6.376  1.1370 -1.9275 -0.0835
 8256SOL     OW36403   3.373   4.309   5.353  0.2904 -0.1628  0.0035
 8256SOL    HW136404   3.448   4.283   5.300 -1.9299 -1.7811 -2.3274
 8256SOL    HW236405   3.300   4.291   5.294  0.9736 -0.1070 -0.8590
 8257SOL     OW36406   0.852   0.501  15.356 -0.0477 -0.1250 -0.7400
 8257SOL    HW136407   0.780   0.522  15.296  0.7129  0.7099 -1.3670
 8257SOL    HW236408   0.823   0.426  15.407  0.5005  0.8002  0.9563
 8258SOL     OW36409   0.868   1.964   5.316 -0.1344 -0.2007  0.4764
 8258SOL    HW136410   0.926   1.940   5.244  0.6054  1.0182  0.6572
 8258SOL    HW236411   0.900   2.050   5.341 -0.7641 -0.0788  0.8588
 8259SOL     OW36412   2.344   0.595   7.558  0.5411  0.0590 -0.1475
 8259SOL    HW136413   2.330   0.541   7.636  4.0634  2.0877  1.9221
 8259SOL    HW236414   2.378   0.523   7.506  0.9256 -0.6461  1.0868
 8260SOL     OW36415   0.757   1.024   2.031  0.0189 -0.4436  0.0177
 8260SOL    HW136416   0.687   0.984   1.978 -0.0618 -0.3669  0.0674
 8260SOL    HW236417   0.742   0.981   2.115 -3.1168 -0.8223 -0.7159
 8261SOL     OW36418   2.248   2.045   5.454  0.2579  0.3050 -0.2559
 8261SOL    HW136419   2.317   2.018   5.516  1.6279  4.4043  0.0129
 8261SOL    HW236420   2.206   1.963   5.428 -0.1634  0.9728 -1.6438
 8262SOL     OW36421   0.955   3.537  16.562  0.1716 -0.5167  0.4129
 8262SOL    HW136422   0.925   3.446  16.562  1.0022 -0.7913  2.0816
 8262SOL    HW236423   1.035   3.525  16.613 -1.6511  0.4927  3.5229
 8263SOL     OW36424   1.004   3.169   0.417  0.2761 -0.0493 -0.5568
 8263SOL    HW136425   0.912   3.194   0.414  0.0811 -0.7428 -0.1137
 8263SOL    HW236426   1.016   3.117   0.338  1.0449  0.5031 -0.8154
 8264SOL     OW36427   3.244   0.166  13.474 -0.4423 -0.2159  0.4026
 8264SOL    HW136428   3.229   0.164  13.379 -0.3652  1.9238  0.3372
 8264SOL    HW236429   3.264   0.257  13.496  1.8425 -0.9967  1.5729
 8265SOL     OW36430   1.805   1.269  11.560  0.0025 -0.1514 -0.1742
 8265SOL    HW136431   1.733   1.246  11.619  0.5764 -1.8934 -0.1693
 8265SOL    HW236432   1.765   1.329  11.497  1.9026  0.8741 -0.4119
 8266SOL     OW36433   0.521   0.568  14.965  0.3013 -0.2579 -0.4600
 8266SOL    HW136434   0.472   0.488  14.985  0.1617  0.0094  0.2383
 8266SOL    HW236435   0.534   0.562  14.870  1.2304 -0.7347 -0.2976
 8267SOL     OW36436   1.267   0.772   6.242  0.4238  0.5032  0.2813
 8267SOL    HW136437   1.189   0.718   6.234  0.6911 -0.1128  1.9661
 8267SOL    HW236438   1.224   0.857   6.238  1.0815  0.8248 -0.0391
 8268SOL     OW36439   1.013   3.991   6.010 -0.6877 -0.4539  0.0541
 8268SOL    HW136440   1.080   4.003   6.078 -0.6391  0.5290 -0.1586
 8268SOL    HW236441   1.002   3.897   6.020  0.8567 -0.8663 -2.3101
 8269SOL     OW36442   2.393   1.479   4.032 -0.1050 -0.2618  0.1067
 8269SOL    HW136443   2.400   1.550   3.968 -1.7586  0.8346  1.1528
 8269SOL    HW236444   2.352   1.520   4.108  0.2320  2.0946 -0.9789
 8270SOL     OW36445   3.435   0.552   3.211  0.5446 -0.4790  0.6680
 8270SOL    HW136446   3.362   0.491   3.220 -1.1749  1.7174  1.6539
 8270SOL    HW236447   3.452   0.575   3.303 -1.0598  0.7654  0.6458
 8271SOL     OW36448   0.672   2.811   5.027  0.4459  0.3942 -0.0435
 8271SOL    HW136449   0.656   2.901   4.998 -0.5352  0.5628  1.0018
 8271SOL    HW236450   0.686   2.768   4.943 -1.1891  2.3511 -1.3324
 8272SOL     OW36451   1.072   2.801   4.200 -0.2778  0.3727  0.4467
 8272SOL    HW136452   1.003   2.750   4.157 -0.2806  0.2234  0.6329
 8272SOL    HW236453   1.016   2.864   4.245  0.8210  1.8084 -0.1985
 8273SOL     OW36454   2.373   0.627   8.434  0.1199 -0.5484 -0.5765
 8273SOL    HW136455   2.299   0.602   8.491 -0.2210  1.6488 -0.0521
 8273SOL    HW236456   2.344   0.715   8.410 -0.5279 -0.7193 -0.4273
 8274SOL     OW36457   2.187   4.197  12.454 -0.2250  0.3210 -0.2276
 8274SOL    HW136458   2.163   4.105  12.469 -0.9553  0.4672 -0.4809
 8274SOL    HW236459   2.152   4.216  12.367 -2.2925 -1.1548  0.2683
 8275SOL     OW36460   2.829   2.939   1.208 -0.2284  0.1773  0.3256
 8275SOL    HW136461   2.813   3.004   1.140 -0.4370 -0.0769  0.1329
 8275SOL    HW236462   2.905   2.980   1.249  0.1998 -1.2854  0.9823
 8276SOL     OW36463   2.769   2.258   7.880  0.0064  0.1016 -0.4952
 8276SOL    HW136464   2.693   2.199   7.881 -1.0510  1.4428 -0.6478
 8276SOL    HW236465   2.739   2.323   7.943 -1.7003  3.3526 -4.6526
 8277SOL     OW36466   4.664   3.838   9.894  1.0102  0.1568 -0.0874
 8277SOL    HW136467   4.713   3.827   9.812  0.1197 -0.8657 -0.4832
 8277SOL    HW236468   4.604   3.907   9.867 -2.3655 -2.4234  0.8610
 8278SOL     OW36469   0.054   1.928   3.056 -0.1389  0.7165 -0.4132
 8278SOL    HW136470   0.014   1.904   2.973  1.6853 -3.5184 -0.0706
 8278SOL    HW236471   0.056   2.024   3.060  1.6159  0.7546 -2.4571
 8279SOL     OW36472   1.058   1.537   0.886 -0.4539  0.5394  0.3692
 8279SOL    HW136473   1.150   1.560   0.892 -1.1354  2.7135  2.6827
 8279SOL    HW236474   1.061   1.531   0.791  1.7464 -1.7511  0.5896
 8280SOL     OW36475   3.569   3.476   3.005  0.3106  0.0180 -0.1922
 8280SOL    HW136476   3.610   3.468   3.091  0.4144 -1.7072 -0.4146
 8280SOL    HW236477   3.599   3.567   3.002 -1.4175  0.5303 -1.7951
 8281SOL     OW36478   0.475   0.643   5.107  0.0361 -0.1430 -0.6267
 8281SOL    HW136479   0.478   0.678   5.018  0.6569 -0.5974 -0.7818
 8281SOL    HW236480   0.400   0.587   5.087  0.4897 -0.9878  0.0380
 8282SOL     OW36481   4.198   1.227   6.981  0.2492 -0.0912 -0.2026
 8282SOL    HW136482   4.108   1.232   6.949  0.2377 -1.8937 -0.4055
 8282SOL    HW236483   4.172   1.179   7.059 -2.1502  0.2759 -0.7685
 8283SOL     OW36484   2.378   2.421  14.197  0.4158  0.2355  0.0252
 8283SOL    HW136485   2.329   2.503  14.191 -0.3992 -0.2234  0.5846
 8283SOL    HW236486   2.432   2.451  14.270 -1.0567  1.5176  0.5869
 8284SOL     OW36487   2.337   1.518  17.697 -0.4046  0.0397  0.6504
 8284SOL    HW136488   2.272   1.518   0.034 -0.2235  2.4292  0.7990
 8284SOL    HW236489   2.399   1.580   0.000  0.4438 -1.1537  1.2143
 8285SOL     OW36490   3.851   3.977   6.272  0.4766  0.3243  0.0589
 8285SOL    HW136491   3.838   4.052   6.330  1.1679 -2.0221  3.2773
 8285SOL    HW236492   3.849   3.908   6.339 -0.6424  1.8140  1.5525
 8286SOL     OW36493   1.664   1.592   8.801  0.0023  0.6512 -1.1769
 8286SOL    HW136494   1.616   1.521   8.844  1.6615 -1.5328 -2.8865
 8286SOL    HW236495   1.719   1.616   8.876 -2.2103 -1.9579  1.2927
 8287SOL     OW36496   4.137   3.901   6.298  0.3527  0.2484 -0.3920
 8287SOL    HW136497   4.130   3.822   6.245 -1.4688  0.5032 -0.5360
 8287SOL    HW236498   4.156   3.862   6.383  0.6641  1.1239 -0.0531
 8288SOL     OW36499   1.222   3.788   4.430  0.1475  0.2812 -0.4394
 8288SOL    HW136500   1.223   3.733   4.351 -1.3543  2.1568 -1.7438
 8288SOL    HW236501   1.207   3.719   4.494  1.5221  0.8697  0.5179
 8289SOL     OW36502   4.167   0.865   3.313 -0.1131 -0.4422 -0.2937
 8289SOL    HW136503   4.211   0.794   3.266 -0.9394 -0.2074 -1.4280
 8289SOL    HW236504   4.076   0.835   3.313 -0.4405  0.5599 -1.1343
 8290SOL     OW36505   3.122   1.683   8.255  0.0193 -0.1345  0.3241
 8290SOL    HW136506   3.054   1.668   8.190 -1.0035  0.9283  1.1494
 8290SOL    HW236507   3.154   1.594   8.269 -0.5244 -0.0361  2.1951
 8291SOL     OW36508   4.337   3.045   6.840  0.3330  0.0765  0.1175
 8291SOL    HW136509   4.401   3.116   6.849  0.7187 -0.3527  0.7374
 8291SOL    HW236510   4.259   3.101   6.849  0.0254 -0.0960 -1.5163
 8292SOL     OW36511   1.378   2.219   6.424  0.2181 -0.3511 -0.6410
 8292SOL    HW136512   1.369   2.152   6.492  0.0534 -0.9496 -1.2438
 8292SOL    HW236513   1.339   2.176   6.348 -1.7572 -0.1383  0.2565
 8293SOL     OW36514   0.729   3.611   3.539 -0.6090 -0.2963  0.1654
 8293SOL    HW136515   0.808   3.603   3.485 -0.9398  0.1552 -0.3786
 8293SOL    HW236516   0.728   3.703   3.565 -1.5909 -0.3399  0.2835
 8294SOL     OW36517   3.023   1.498   7.560  0.0576 -0.6838 -0.3417
 8294SOL    HW136518   3.050   1.424   7.506  1.4024 -1.0540  0.8190
 8294SOL    HW236519   3.078   1.566   7.521 -2.9981  2.6057  1.1066
 8295SOL     OW36520   0.158   2.405   2.918  0.1248  0.0524 -0.0194
 8295SOL    HW136521   0.095   2.472   2.946 -2.1891 -2.8432  1.8066
 8295SOL    HW236522   0.107   2.331   2.952 -1.4169  1.8979  1.6888
 8296SOL     OW36523   3.355   2.038   2.900 -0.0732  0.6389 -0.2273
 8296SOL    HW136524   3.425   2.100   2.876  0.0889  1.4121  2.2684
 8296SOL    HW236525   3.401   1.962   2.934 -0.8193  0.6217  0.7312
 8297SOL     OW36526   1.323   3.847  11.436  0.5777 -0.3958  0.5325
 8297SOL    HW136527   1.369   3.876  11.357 -0.1096 -1.8451 -0.3826
 8297SOL    HW236528   1.336   3.920  11.498 -0.0007  1.3404 -1.3818
 8298SOL     OW36529   4.173   1.323  10.934 -0.0935  0.1542 -0.2927
 8298SOL    HW136530   4.246   1.355  10.881 -0.5836 -1.2752 -1.8414
 8298SOL    HW236531   4.134   1.401  10.972 -0.1768 -0.3588  0.6860
 8299SOL     OW36532   3.047   2.874   6.190 -0.0539 -0.3647 -0.0315
 8299SOL    HW136533   3.142   2.888   6.188 -0.1106  0.0867  0.4468
 8299SOL    HW236534   3.015   2.952   6.145  1.3775 -0.7872 -1.7700
 8300SOL     OW36535   2.327   0.087   5.822 -0.6280  0.7726  0.2973
 8300SOL    HW136536   2.356   0.017   5.880 -1.0803 -0.5415 -1.0620
 8300SOL    HW236537   2.232   0.078   5.818 -0.6302  0.5238  0.9566
 8301SOL     OW36538   3.039   2.493  15.131  0.3253  0.2661  0.1319
 8301SOL    HW136539   3.061   2.532  15.047  1.0469  1.8755  1.0618
 8301SOL    HW236540   3.030   2.573  15.183  3.2964 -0.1386  1.3015
 8302SOL     OW36541   3.956   3.200  11.811 -0.2202  0.8714  0.2461
 8302SOL    HW136542   3.906   3.161  11.739 -0.6775  3.1282 -0.6586
 8302SOL    HW236543   4.034   3.236  11.767 -0.8487  1.1172 -0.6680
 8303SOL     OW36544   3.114   2.179   5.942 -0.7458  0.4025 -0.2181
 8303SOL    HW136545   3.191   2.197   5.996 -1.2840 -0.2802  0.7752
 8303SOL    HW236546   3.156   2.216   5.864  0.7557 -0.1386  0.3269
 8304SOL     OW36547   2.534   2.973   4.137  0.6770 -0.2557  0.5185
 8304SOL    HW136548   2.544   3.057   4.092  1.5797 -0.8721 -0.4138
 8304SOL    HW236549   2.538   2.920   4.058 -2.5488  0.0099  0.1735
 8305SOL     OW36550   0.416   1.940  11.527 -0.2742 -0.3264 -0.3553
 8305SOL    HW136551   0.379   1.950  11.615  0.5344 -1.9273  0.1680
 8305SOL    HW236552   0.333   1.914  11.485 -0.3500 -1.8688  0.7516
 8306SOL     OW36553   3.523   1.632  15.654 -0.2534 -0.2370 -0.4890
 8306SOL    HW136554   3.521   1.539  15.631  1.7044 -0.3237 -0.3160
 8306SOL    HW236555   3.534   1.618  15.748 -2.4776 -1.3477 -0.3772
 8307SOL     OW36556   2.812   2.247   4.171  0.2179  0.2894 -0.0730
 8307SOL    HW136557   2.808   2.165   4.123 -0.3359  0.3930 -0.1974
 8307SOL    HW236558   2.789   2.311   4.104 -2.1142 -1.8914 -1.3247
 8308SOL     OW36559   0.440   4.180   2.897 -0.2975 -0.2475 -0.6039
 8308SOL    HW136560   0.379   4.201   2.826 -1.6558 -1.9778  0.0591
 8308SOL    HW236561   0.400   4.129   2.967 -0.8024 -0.3540 -0.9708
 8309SOL     OW36562   0.596   3.339  10.321  0.0529  0.0738 -0.8730
 8309SOL    HW136563   0.690   3.355  10.336 -0.0970  0.9644 -0.9174
 8309SOL    HW236564   0.597   3.378  10.234 -2.9073  1.7615 -0.1308
 8310SOL     OW36565   0.109   0.117  16.316  0.3208  0.2010 -0.1973
 8310SOL    HW136566   0.190   0.157  16.347  0.6720  0.4400 -1.3934
 8310SOL    HW236567   0.113   0.041  16.374 -0.0719 -0.0838 -0.5429
 8311SOL     OW36568   3.374   3.273   3.127 -0.1428 -0.2556  0.3858
 8311SOL    HW136569   3.414   3.203   3.180 -2.2914 -1.8605 -0.1284
 8311SOL    HW236570   3.435   3.281   3.054 -2.2398 -1.4172 -1.4856
 8312SOL     OW36571   4.579   0.773   0.991  0.1066 -0.2932  0.3827
 8312SOL    HW136572   4.561   0.844   0.930  2.5233 -0.3241 -0.3580
 8312SOL    HW236573   4.674   0.764   0.993  0.1787  0.0661 -1.1665
 8313SOL     OW36574   1.015   1.571   4.811 -0.5712  0.1077  0.4934
 8313SOL    HW136575   1.056   1.562   4.725 -3.3026  0.1787 -0.8175
 8313SOL    HW236576   1.021   1.664   4.833 -0.6835 -0.4108  2.6560
 8314SOL     OW36577   0.418   2.924  15.285  0.2065 -0.0842 -0.0178
 8314SOL    HW136578   0.426   2.855  15.351 -2.8493  0.4202  0.8900
 8314SOL    HW236579   0.387   2.993  15.342 -1.2816 -1.2659  0.6064
 8315SOL     OW36580   1.533   1.914   6.706  0.4840 -0.6128  0.2634
 8315SOL    HW136581   1.544   1.915   6.611 -3.6013  1.5364 -0.1902
 8315SOL    HW236582   1.533   2.008   6.726 -1.7175 -1.2988  3.5506
 8316SOL     OW36583   3.862   3.014  11.567 -0.3474 -0.2317  0.2258
 8316SOL    HW136584   3.866   3.110  11.563  2.8981 -0.4234 -0.9906
 8316SOL    HW236585   3.953   2.989  11.577 -0.4190 -0.4094  0.4454
 8317SOL     OW36586   2.872   4.516   9.795  0.1161 -0.7245 -0.1233
 8317SOL    HW136587   2.836   4.604   9.806  2.2352  0.1507 -0.3453
 8317SOL    HW236588   2.843   4.490   9.708 -3.4527  1.5381  0.3731
 8318SOL     OW36589   1.699   1.869  13.232 -0.1248 -0.3490 -0.2803
 8318SOL    HW136590   1.647   1.927  13.288  1.0349 -0.5037  0.9617
 8318SOL    HW236591   1.742   1.938  13.183 -0.5179 -0.1760 -0.3825
 8319SOL     OW36592   2.835   3.426   7.796 -0.0947  0.3001 -0.1482
 8319SOL    HW136593   2.742   3.449   7.793 -0.0763  0.2210 -1.5682
 8319SOL    HW236594   2.879   3.465   7.872  0.1486  0.3461 -0.3147
 8320SOL     OW36595   3.825   1.523  15.673  0.4092 -0.1950 -0.0495
 8320SOL    HW136596   3.771   1.495  15.599  0.4720 -1.6061  0.4247
 8320SOL    HW236597   3.760   1.572  15.724  0.9496 -1.6641  2.0924
 8321SOL     OW36598   2.804   1.373  11.095 -0.2440  0.4174  0.7212
 8321SOL    HW136599   2.844   1.459  11.080  1.8595 -1.1266 -2.4013
 8321SOL    HW236600   2.872   1.333  11.149 -1.0624 -0.1773  1.3023
 8322SOL     OW36601   4.429   4.087   6.864 -0.0170  0.4381 -0.2913
 8322SOL    HW136602   4.373   4.009   6.872 -2.7146  2.4757  0.7026
 8322SOL    HW236603   4.502   4.068   6.922 -0.0753  0.6956 -0.1328
 8323SOL     OW36604   0.316   1.115  12.793  0.1153  0.0913  0.3338
 8323SOL    HW136605   0.396   1.068  12.817 -1.0341 -2.0455  0.0423
 8323SOL    HW236606   0.310   1.168  12.872  0.9944  0.6844 -0.0031
 8324SOL     OW36607   1.623   1.575  14.429 -0.3353 -0.1285  0.0685
 8324SOL    HW136608   1.560   1.551  14.497  0.8004 -2.9075  0.1338
 8324SOL    HW236609   1.564   1.598  14.358  0.8439  2.6058 -0.0304
 8325SOL     OW36610   2.930   2.256   4.853  0.0139 -0.2448  0.3799
 8325SOL    HW136611   2.930   2.326   4.918  3.3674  0.3498 -0.2927
 8325SOL    HW236612   2.852   2.278   4.802 -1.1129  1.9648  3.0491
 8326SOL     OW36613   4.351   4.667   4.869 -0.0904  0.1956  0.2235
 8326SOL    HW136614   4.359   4.573   4.889 -0.7288  0.8285  3.4057
 8326SOL    HW236615   4.356   4.654   4.774 -0.5227 -1.4192  0.4183
 8327SOL     OW36616   3.431   2.794   2.231 -0.9128  0.4861 -0.8993
 8327SOL    HW136617   3.356   2.849   2.253 -2.4748 -1.4681 -1.3268
 8327SOL    HW236618   3.475   2.864   2.182  1.5262  1.0098  1.9974
 8328SOL     OW36619   0.611   0.287   6.994 -0.3552 -0.0179 -0.2572
 8328SOL    HW136620   0.589   0.196   6.972 -1.9204  0.5595 -1.0820
 8328SOL    HW236621   0.526   0.330   6.988  0.5248  1.2269 -3.8866
 8329SOL     OW36622   1.502   4.041  11.345  0.0191  0.0572 -0.2963
 8329SOL    HW136623   1.545   4.121  11.313  0.0335 -0.1404 -0.7729
 8329SOL    HW236624   1.453   4.067  11.423 -0.7129 -0.7272 -0.5000
 8330SOL     OW36625   2.922   0.145   6.971 -0.4726 -0.0877  0.2219
 8330SOL    HW136626   2.891   0.196   6.897 -2.7908  2.0590  2.6465
 8330SOL    HW236627   2.978   0.211   7.013  2.4852 -1.7611 -1.1036
 8331SOL     OW36628   3.205   4.632   9.743 -0.0270 -0.3625  0.4655
 8331SOL    HW136629   3.147   4.569   9.786  0.4837  0.4117  2.2641
 8331SOL    HW236630   3.149   4.708   9.753  0.1803 -0.2255  0.5797
 8332SOL     OW36631   0.441   1.678   4.757 -0.5440  0.2399  0.1468
 8332SOL    HW136632   0.352   1.700   4.728 -0.7309  1.6232  1.7971
 8332SOL    HW236633   0.461   1.759   4.804  2.8330 -0.7203  0.3489
 8333SOL     OW36634   3.983   0.148   6.334  0.2110 -0.1912 -0.0717
 8333SOL    HW136635   3.905   0.157   6.280  0.6062 -1.9153 -0.9523
 8333SOL    HW236636   3.950   0.155   6.424  0.8087  0.3321  0.1075
 8334SOL     OW36637   4.089   2.726  13.981  0.1412 -0.5173 -0.0257
 8334SOL    HW136638   4.100   2.821  13.974  0.9952 -0.7052 -1.3671
 8334SOL    HW236639   4.020   2.717  13.915 -0.5418  2.2453  0.3324
 8335SOL     OW36640   4.011   1.363   0.183  0.0779 -0.2455 -0.0468
 8335SOL    HW136641   4.045   1.278   0.155  0.2462 -0.4697  0.8457
 8335SOL    HW236642   3.918   1.344   0.170 -0.2540 -0.0974  2.1325
 8336SOL     OW36643   0.491   3.334   2.798  0.0319  0.7985  0.0297
 8336SOL    HW136644   0.473   3.421   2.763  1.1085  0.8889 -0.3105
 8336SOL    HW236645   0.483   3.359   2.890  0.9085 -2.8630  1.0992
 8337SOL     OW36646   1.510   3.466   0.019 -0.1017 -0.0602 -0.1431
 8337SOL    HW136647   1.560   3.390  17.725  1.5183  0.3018  1.6699
 8337SOL    HW236648   1.511   3.453   0.114  0.8076  1.0275  0.0042
 8338SOL     OW36649   1.309   1.796   7.647 -0.6170  0.1177  0.3725
 8338SOL    HW136650   1.357   1.877   7.633 -1.2886  0.1744 -1.5225
 8338SOL    HW236651   1.289   1.769   7.558  0.0165  1.3203 -0.1210
 8339SOL     OW36652   0.428   0.287   4.931  0.3686 -0.3255  0.2028
 8339SOL    HW136653   0.520   0.261   4.935  1.2984  2.8744 -0.4269
 8339SOL    HW236654   0.398   0.210   4.883  1.0080  0.1573 -0.9595
 8340SOL     OW36655   0.364   2.438   3.654 -0.0251 -0.2732  0.5825
 8340SOL    HW136656   0.317   2.374   3.708  1.1240  0.3166  2.2973
 8340SOL    HW236657   0.308   2.515   3.662 -0.2863 -0.2675 -1.3132
 8341SOL     OW36658   0.335   4.671  13.108  0.1528  0.6987  0.2149
 8341SOL    HW136659   0.415   4.620  13.123  1.2348  2.6932  1.2109
 8341SOL    HW236660   0.278   4.596  13.091  0.1006  0.4500  1.4278
 8342SOL     OW36661   1.050   1.520   2.328  0.1637  0.2518  0.5181
 8342SOL    HW136662   1.069   1.429   2.303  2.2650  0.7801  0.1610
 8342SOL    HW236663   1.121   1.564   2.281  2.0196  1.3590  4.3438
 8343SOL     OW36664   3.857   2.485   5.134 -0.3033  0.3046 -0.1559
 8343SOL    HW136665   3.805   2.446   5.205  1.0005  1.1274  1.2383
 8343SOL    HW236666   3.836   2.578   5.136 -0.9856  0.1790 -1.1695
 8344SOL     OW36667   0.947   4.450   6.766  0.0920 -1.1418  0.0033
 8344SOL    HW136668   0.986   4.494   6.690  0.7436 -1.1842  0.3107
 8344SOL    HW236669   0.868   4.497   6.795  0.8162 -0.9371  1.6478
 8345SOL     OW36670   0.227   1.509  10.782  0.0485  0.6050 -0.4906
 8345SOL    HW136671   0.319   1.518  10.759  0.1308 -1.4785 -1.0198
 8345SOL    HW236672   0.214   1.414  10.785 -1.5748  0.8098 -1.1045
 8346SOL     OW36673   1.126   4.545   8.905 -0.3108 -0.4901  0.3485
 8346SOL    HW136674   1.152   4.583   8.989  1.5875  0.2997 -0.5899
 8346SOL    HW236675   1.059   4.486   8.941 -0.3218 -0.2591  0.7097
 8347SOL     OW36676   1.123   1.014   9.796  0.1081  0.1045  0.3468
 8347SOL    HW136677   1.207   1.060   9.799  0.6211 -0.7216 -1.2508
 8347SOL    HW236678   1.108   1.005   9.890  0.8074  4.0244  0.8252
 8348SOL     OW36679   3.733   0.409   2.399 -0.0035 -0.5276 -0.0485
 8348SOL    HW136680   3.816   0.368   2.376 -0.7832 -2.0581 -0.1209
 8348SOL    HW236681   3.671   0.383   2.330  2.2843 -2.0402 -1.5498
 8349SOL     OW36682   3.908   3.717  15.017  0.3389  0.0602  0.0407
 8349SOL    HW136683   3.817   3.712  15.044  0.7368 -1.6367  1.0592
 8349SOL    HW236684   3.904   3.775  14.940  3.1921 -1.1533 -1.0317
 8350SOL     OW36685   4.413   4.669   2.754 -0.2545 -0.2302 -0.0554
 8350SOL    HW136686   4.458   4.593   2.790 -1.3300 -0.2766  1.2252
 8350SOL    HW236687   4.475   4.728   2.712  0.7783 -1.5130 -0.3139
 8351SOL     OW36688   0.110   4.213   9.416 -0.1818  0.2773  0.1440
 8351SOL    HW136689   0.132   4.122   9.437 -1.6386 -0.3815 -1.2495
 8351SOL    HW236690   0.050   4.234   9.488  0.3418 -0.2574  0.7432
 8352SOL     OW36691   0.361   2.111  12.324 -0.0724  0.5764  0.8184
 8352SOL    HW136692   0.325   2.195  12.352  0.9610  1.4726 -0.4971
 8352SOL    HW236693   0.449   2.127  12.360  0.0213 -1.7230  1.6190
 8353SOL     OW36694   2.543   0.488   3.102  0.0630 -0.1637 -0.9687
 8353SOL    HW136695   2.577   0.405   3.071 -0.2585 -0.5357 -0.3365
 8353SOL    HW236696   2.520   0.524   3.017 -0.5487  1.6082 -0.0582
 8354SOL     OW36697   2.132   1.358   9.906 -0.2262 -0.2085 -0.4756
 8354SOL    HW136698   2.219   1.342   9.870 -0.3343 -1.6042 -0.1255
 8354SOL    HW236699   2.127   1.285   9.967  2.2620  0.4787  0.5131
 8355SOL     OW36700   2.935   3.601   9.308  0.0164 -0.3245  0.2388
 8355SOL    HW136701   2.974   3.543   9.372  0.7833 -0.8788 -0.7275
 8355SOL    HW236702   2.878   3.657   9.361 -0.7522 -0.9353  0.0525
 8356SOL     OW36703   0.289   0.716  13.451  0.4569 -0.8618  0.1268
 8356SOL    HW136704   0.211   0.722  13.506  0.1701  1.2394 -0.5445
 8356SOL    HW236705   0.257   0.765  13.376 -1.5348  0.0098  1.5131
 8357SOL     OW36706   4.316   3.166   4.801 -0.4157  0.6888 -0.2972
 8357SOL    HW136707   4.311   3.165   4.706  2.2553  1.9881 -0.4452
 8357SOL    HW236708   4.363   3.245   4.829 -0.1552  0.9780 -1.5814
 8358SOL     OW36709   2.708   1.620  16.407  0.1870 -1.0534 -0.4387
 8358SOL    HW136710   2.730   1.631  16.499 -2.8138  1.8372 -0.0866
 8358SOL    HW236711   2.677   1.710  16.392  2.0804 -0.4496 -0.7331
 8359SOL     OW36712   1.875   3.653   6.270  0.4599 -0.0205 -0.0855
 8359SOL    HW136713   1.903   3.561   6.275  1.0495  0.2116  0.9229
 8359SOL    HW236714   1.911   3.670   6.183  1.7635  1.5421  0.7594
 8360SOL     OW36715   1.065   4.659   5.183  0.2281 -0.2687 -0.0039
 8360SOL    HW136716   1.007   4.582   5.192 -0.4074  0.3632  1.3130
 8360SOL    HW236717   1.011   0.003   5.197 -0.7444 -1.3542  2.2089
 8361SOL     OW36718   0.386   0.207   1.146 -0.4686 -0.1581  0.2127
 8361SOL    HW136719   0.303   0.252   1.158 -1.6179 -2.6051  1.3214
 8361SOL    HW236720   0.413   0.185   1.235 -1.9661  0.6913  0.8752
 8362SOL     OW36721   3.453   1.399   8.796  0.6424 -0.7804 -0.2236
 8362SOL    HW136722   3.406   1.329   8.752 -2.3032  0.7469  0.4590
 8362SOL    HW236723   3.400   1.412   8.875  1.5932  2.3120 -0.0851
 8363SOL     OW36724   2.872   0.269  13.192  0.1693  0.3419  0.1464
 8363SOL    HW136725   2.906   0.217  13.264  0.2294  2.1922  1.4602
 8363SOL    HW236726   2.780   0.255  13.212 -0.3383  2.8701 -0.4018
 8364SOL     OW36727   4.664   3.523  17.018 -0.2050 -0.6774  0.0417
 8364SOL    HW136728   4.633   3.438  16.987 -0.6393 -0.5529  0.1375
 8364SOL    HW236729   4.623   3.592  16.966  1.2305  0.8670  0.9796
 8365SOL     OW36730   0.555   2.147   6.030 -0.3374 -0.0570  0.2825
 8365SOL    HW136731   0.498   2.222   6.050 -0.9754 -0.2908 -0.6838
 8365SOL    HW236732   0.524   2.122   5.943 -0.1634  1.7698 -0.3139
 8366SOL     OW36733   2.034   2.638   9.432  0.1226  0.5057  0.1781
 8366SOL    HW136734   2.068   2.691   9.360  0.1808  2.3978  1.6142
 8366SOL    HW236735   2.067   2.553   9.402 -0.4993  0.1825  0.4051
 8367SOL     OW36736   2.363   2.283   5.357  0.1484 -0.5171  0.0457
 8367SOL    HW136737   2.309   2.362   5.348  3.7277  1.9003  0.0230
 8367SOL    HW236738   2.302   2.214   5.384  0.5344 -0.0001  2.1920
 8368SOL     OW36739   3.201   2.284  16.955 -0.2533  0.3786  0.3520
 8368SOL    HW136740   3.124   2.332  16.923 -2.5069 -2.0802  2.1620
 8368SOL    HW236741   3.275   2.341  16.933  1.3355 -1.3253  1.3203
 8369SOL     OW36742   3.829   2.318   3.821  0.3577  0.1617  0.0324
 8369SOL    HW136743   3.782   2.397   3.846 -1.7083 -0.9008 -0.5172
 8369SOL    HW236744   3.767   2.249   3.841  1.0903 -0.1992  1.0354
 8370SOL     OW36745   1.515   0.291   7.716 -0.6574 -0.1952  0.1243
 8370SOL    HW136746   1.424   0.263   7.726 -1.5618  1.9540 -2.0888
 8370SOL    HW236747   1.532   0.270   7.624 -0.6005 -0.8139  0.2786
 8371SOL     OW36748   3.127   0.867   1.657  0.0335 -0.4344  0.6984
 8371SOL    HW136749   3.071   0.944   1.645  0.2614 -0.1758  1.2849
 8371SOL    HW236750   3.212   0.911   1.652  0.9319 -2.4536 -1.5529
 8372SOL     OW36751   2.928   4.537   5.222 -0.0681 -0.2297  0.4000
 8372SOL    HW136752   2.918   4.583   5.305 -0.7824 -0.5915  0.5102
 8372SOL    HW236753   2.835   4.518   5.211 -0.1551 -0.0462  0.8166
 8373SOL     OW36754   3.373   3.103  10.783 -0.2353 -0.0742  0.2517
 8373SOL    HW136755   3.417   3.188  10.778  0.1768 -0.3244 -0.4017
 8373SOL    HW236756   3.280   3.126  10.792 -0.3593 -1.4671  2.5498
 8374SOL     OW36757   1.453   4.215   2.486  0.3713  0.9042  0.2882
 8374SOL    HW136758   1.429   4.240   2.397 -0.4041 -2.4729 -0.4344
 8374SOL    HW236759   1.367   4.219   2.528  0.5366 -2.0556  0.8892
 8375SOL     OW36760   1.130   3.306  11.392 -0.5306 -0.6996  0.1950
 8375SOL    HW136761   1.145   3.327  11.484 -0.9773 -0.0834  0.1251
 8375SOL    HW236762   1.146   3.211  11.393  1.3826 -0.3625  2.6592
 8376SOL     OW36763   0.179   2.430   7.670  0.1248 -0.1275 -0.6265
 8376SOL    HW136764   0.211   2.464   7.587 -1.7831  1.4682 -0.7157
 8376SOL    HW236765   0.207   2.339   7.658 -0.6942 -0.4256 -0.2631
 8377SOL     OW36766   3.940   0.880   6.751 -0.3916  0.2816  0.3826
 8377SOL    HW136767   3.907   0.940   6.818 -0.5500  0.0500  0.5079
 8377SOL    HW236768   4.035   0.896   6.751 -0.4654  0.7310 -1.1458
 8378SOL     OW36769   3.836   3.333   2.099  0.2743 -0.8459 -0.2370
 8378SOL    HW136770   3.897   3.259   2.097 -0.0970 -1.1673  0.6556
 8378SOL    HW236771   3.867   3.381   2.022  0.5204 -0.2610  0.2265
 8379SOL     OW36772   3.023   4.530   1.120 -0.6658 -0.8055  0.3544
 8379SOL    HW136773   3.029   4.517   1.215  0.6958  1.0499  0.4996
 8379SOL    HW236774   2.943   4.582   1.113  0.2655  0.7145  1.0871
 8380SOL     OW36775   2.562   4.583   7.204 -0.1793  0.2599  0.2047
 8380SOL    HW136776   2.501   4.636   7.153  1.1873 -0.3723 -2.0715
 8380SOL    HW236777   2.639   4.619   7.160 -0.4567 -0.8258 -1.1449
 8381SOL     OW36778   3.437   0.141   2.965  0.1691 -0.8384  0.0278
 8381SOL    HW136779   3.421   0.061   2.915 -0.7144 -0.1026 -0.8702
 8381SOL    HW236780   3.369   0.151   3.032  0.7290  0.5309  0.3871
 8382SOL     OW36781   0.800   4.152  17.238 -0.2688 -0.0555  0.1875
 8382SOL    HW136782   0.736   4.204  17.190 -0.8480 -0.5295  0.4476
 8382SOL    HW236783   0.796   4.198  17.322  2.3474  2.2541 -0.9186
 8383SOL     OW36784   4.611   4.001   0.097  0.5092 -0.2253  0.1196
 8383SOL    HW136785   4.693   4.049   0.084  0.2967  0.0209 -0.3010
 8383SOL    HW236786   4.595   4.020   0.189 -2.6374 -0.5599 -0.3723
 8384SOL     OW36787   1.872   1.835   3.940  0.0361  0.2070  0.1265
 8384SOL    HW136788   1.938   1.881   3.888 -0.0833  1.6164  1.2042
 8384SOL    HW236789   1.829   1.902   3.994 -0.0453  2.3443 -2.5708
 8385SOL     OW36790   2.311   2.558  16.596  0.1916  0.0720 -0.0307
 8385SOL    HW136791   2.306   2.551  16.691  0.0491  1.1417  0.0339
 8385SOL    HW236792   2.332   2.468  16.570  0.2707  0.6926 -2.1622
 8386SOL     OW36793   2.340   2.054  12.378 -0.3081  0.2176  0.4561
 8386SOL    HW136794   2.405   2.007  12.430 -1.5585 -1.8403  0.1624
 8386SOL    HW236795   2.264   2.048  12.435 -0.5308 -2.0416 -0.0445
 8387SOL     OW36796   3.071   3.974   2.323  0.2198 -0.1026 -0.4018
 8387SOL    HW136797   3.126   3.967   2.244 -0.0913 -1.5834 -0.4862
 8387SOL    HW236798   3.023   4.054   2.301  0.1863  0.3377  1.3279
 8388SOL     OW36799   1.565   0.432   3.083  0.0325 -0.3849  0.3088
 8388SOL    HW136800   1.619   0.501   3.122 -0.2949  0.8277 -1.4263
 8388SOL    HW236801   1.631   0.370   3.053 -1.6000 -1.5745 -0.8092
 8389SOL     OW36802   2.338   1.508   0.703 -0.9630  0.0580  0.2769
 8389SOL    HW136803   2.362   1.599   0.689 -1.1906  0.0563 -0.1185
 8389SOL    HW236804   2.373   1.460   0.627 -1.5972  1.4891 -0.9225
 8390SOL     OW36805   1.298   2.717   7.098 -0.0444  0.1725 -0.5469
 8390SOL    HW136806   1.278   2.805   7.129 -1.4430 -0.1609 -0.5147
 8390SOL    HW236807   1.341   2.729   7.013  0.0331 -0.9801 -0.6655
 8391SOL     OW36808   4.657   1.899   0.045 -0.2732  0.3202 -0.1830
 8391SOL    HW136809   4.652   1.873   0.137  1.3896  1.5137  0.2344
 8391SOL    HW236810   0.016   1.900   0.023  0.0428  1.2201  1.2057
 8392SOL     OW36811   3.723   0.519   4.514  0.0139  0.2140 -0.7597
 8392SOL    HW136812   3.791   0.584   4.493  2.7770 -1.9902  1.3440
 8392SOL    HW236813   3.698   0.549   4.601  1.8116  2.7962 -1.1282
 8393SOL     OW36814   1.911   1.898  10.793 -0.1270  0.3126 -0.4501
 8393SOL    HW136815   1.914   1.838  10.867  0.7702 -0.8453 -1.4303
 8393SOL    HW236816   1.843   1.961  10.816 -0.4398 -0.3207  0.3766
 8394SOL     OW36817   3.713   2.802  12.105  0.8177  0.4095  0.1483
 8394SOL    HW136818   3.687   2.775  12.016 -3.5397  1.2962  1.1452
 8394SOL    HW236819   3.644   2.863  12.129 -0.0303 -0.5233  0.1092
 8395SOL     OW36820   3.882   0.534   8.517 -0.4954 -1.0018 -0.5876
 8395SOL    HW136821   3.870   0.563   8.607  1.1745 -0.6940 -0.4665
 8395SOL    HW236822   3.917   0.615   8.480 -0.7194  0.3485  2.1420
 8396SOL     OW36823   0.823   2.862   0.497 -0.6754  0.1026  0.0714
 8396SOL    HW136824   0.895   2.877   0.437 -1.2628  1.5251 -0.2934
 8396SOL    HW236825   0.867   2.896   0.575  2.2932  0.3262 -1.7100
 8397SOL     OW36826   3.457   3.177  12.383  0.4365  0.2979 -0.2025
 8397SOL    HW136827   3.468   3.229  12.304  1.2188 -0.4280 -0.5701
 8397SOL    HW236828   3.393   3.232  12.429 -0.2384 -0.6008 -0.0581
 8398SOL     OW36829   3.383   2.338  11.439  0.3579 -0.6958  1.0646
 8398SOL    HW136830   3.476   2.359  11.429  0.1369 -1.7755 -3.6452
 8398SOL    HW236831   3.338   2.399  11.380  3.2089  0.7127  0.3609
 8399SOL     OW36832   0.820   2.254   4.526 -0.1612 -0.5360 -0.2115
 8399SOL    HW136833   0.874   2.236   4.450 -0.5477  0.1573 -0.6533
 8399SOL    HW236834   0.799   2.163   4.545  0.3461  0.0039  2.9363
 8400SOL     OW36835   3.501   2.859   3.860 -0.7114  0.3524 -0.3897
 8400SOL    HW136836   3.496   2.802   3.783  3.5267  0.6158 -0.8249
 8400SOL    HW236837   3.449   2.932   3.825  0.8948  1.6734 -0.0320
 8401SOL     OW36838   1.695   0.176   5.468  0.0438 -0.1064  0.3617
 8401SOL    HW136839   1.752   0.238   5.423 -0.6178 -0.5302 -1.0347
 8401SOL    HW236840   1.663   0.120   5.397 -1.0032  2.3130 -1.0704
 8402SOL     OW36841   3.084   3.773  15.543 -0.6143 -0.8992 -0.8025
 8402SOL    HW136842   3.063   3.829  15.469  0.1015 -1.0445 -1.1162
 8402SOL    HW236843   3.060   3.685  15.514 -2.1189 -0.1160 -1.8698
 8403SOL     OW36844   3.038   0.117   2.619  0.7463 -0.4617 -0.1533
 8403SOL    HW136845   3.007   0.054   2.684  1.0871  1.4915  1.8630
 8403SOL    HW236846   3.104   0.066   2.573  1.8820  0.0306  0.9512
 8404SOL     OW36847   2.990   0.869   5.972 -0.0471 -0.0260  0.3800
 8404SOL    HW136848   3.016   0.854   5.881  1.8373  2.6373  0.4908
 8404SOL    HW236849   2.916   0.807   5.972 -1.5616  1.7275 -3.7990
 8405SOL     OW36850   0.392   0.802  14.665 -0.2276 -0.9999  0.2854
 8405SOL    HW136851   0.465   0.794  14.604 -1.1587  3.9930 -1.4808
 8405SOL    HW236852   0.337   0.736  14.625 -2.4585  0.4793  0.9359
 8406SOL     OW36853   2.431   2.685   4.549  0.0359  0.2989 -0.4942
 8406SOL    HW136854   2.434   2.780   4.552  0.0835  0.1976  3.7402
 8406SOL    HW236855   2.380   2.678   4.469 -0.1655 -0.9990 -0.2519
 8407SOL     OW36856   1.183   2.758   3.887  0.2059  0.2277 -0.2299
 8407SOL    HW136857   1.241   2.720   3.953  0.1792 -1.5024 -1.2266
 8407SOL    HW236858   1.104   2.750   3.940  1.0157  0.3261  0.9942
 8408SOL     OW36859   1.294   3.420   0.381 -0.0634 -0.0175 -0.5027
 8408SOL    HW136860   1.269   3.488   0.443  2.3441  2.0142 -1.7273
 8408SOL    HW236861   1.332   3.471   0.309 -1.4057  1.1877 -0.3635
 8409SOL     OW36862   1.788   3.960  17.647 -0.1928  0.0755 -0.3931
 8409SOL    HW136863   1.713   4.014  17.669 -0.0822  0.2139 -0.3572
 8409SOL    HW236864   1.743   3.878  17.669  0.0959 -0.0323 -0.2048
 8410SOL     OW36865   3.123   4.218   9.691 -0.0890  0.2966  0.1608
 8410SOL    HW136866   3.034   4.249   9.672  0.1212 -0.0739 -1.4300
 8410SOL    HW236867   3.131   4.262   9.776 -0.8424 -1.0614  0.9550
 8411SOL     OW36868   0.279   2.138   4.935  0.5819 -0.5623 -0.2974
 8411SOL    HW136869   0.192   2.165   4.962  0.6207 -0.4111 -0.3240
 8411SOL    HW236870   0.338   2.164   5.006 -0.2912  1.2660 -0.2398
 8412SOL     OW36871   4.471   2.462   8.268  0.0312 -0.0205  0.5755
 8412SOL    HW136872   4.508   2.384   8.226  0.1724  1.0375 -1.2978
 8412SOL    HW236873   4.507   2.536   8.220 -3.0431 -0.3468 -2.2725
 8413SOL     OW36874   3.314   2.496  14.896  0.6606  0.5424 -0.2256
 8413SOL    HW136875   3.222   2.480  14.876  0.9084 -0.5728 -0.4693
 8413SOL    HW236876   3.344   2.543  14.818 -1.6978 -0.6336 -1.8517
 8414SOL     OW36877   2.602   0.904   4.604 -0.0621 -0.0200 -0.6514
 8414SOL    HW136878   2.695   0.924   4.597 -0.3281  1.2312 -0.6734
 8414SOL    HW236879   2.594   0.884   4.697  0.0324  0.5513 -0.5161
 8415SOL     OW36880   1.713   2.847   7.510  0.6814  0.8001 -0.1270
 8415SOL    HW136881   1.633   2.796   7.521  0.7912  0.3530 -1.4551
 8415SOL    HW236882   1.749   2.817   7.427 -0.8871 -0.1172 -0.4836
 8416SOL     OW36883   3.445   1.717   0.856  0.5196  0.1491 -0.3415
 8416SOL    HW136884   3.428   1.623   0.847  2.6885 -0.0943 -1.8185
 8416SOL    HW236885   3.440   1.745   0.765  0.1709 -1.4184 -0.7921
 8417SOL     OW36886   0.051   0.697   5.668 -0.7805  0.5251 -0.0770
 8417SOL    HW136887   0.001   0.629   5.713 -1.1042  0.8142  0.0051
 8417SOL    HW236888   4.714   0.741   5.621  0.0164  1.7162 -0.1560
 8418SOL     OW36889   0.620   1.443   7.618 -0.6424  0.0203 -0.1044
 8418SOL    HW136890   0.538   1.487   7.640 -0.8099  0.2782 -1.2332
 8418SOL    HW236891   0.628   1.388   7.696 -1.9915  0.3342  0.2596
 8419SOL     OW36892   0.583   0.386  10.744  0.8608 -0.4146  0.0459
 8419SOL    HW136893   0.641   0.397  10.668  0.2104  1.1047 -0.2225
 8419SOL    HW236894   0.607   0.468  10.786 -1.4950  0.9196 -1.2155
 8420SOL     OW36895   0.421   2.626   6.620  0.3663 -0.4387 -0.2196
 8420SOL    HW136896   0.359   2.574   6.670  1.6036 -3.1551 -1.5098
 8420SOL    HW236897   0.501   2.614   6.670  1.2971  2.2844 -1.0373
 8421SOL     OW36898   2.128   0.848  13.392 -0.0686 -0.4881  0.0650
 8421SOL    HW136899   2.054   0.832  13.333 -0.2833 -1.0579  0.4961
 8421SOL    HW236900   2.146   0.936  13.359  1.2359 -0.5769  0.5565
 8422SOL     OW36901   1.266   1.187   8.895  0.4869 -0.5939  0.3699
 8422SOL    HW136902   1.336   1.137   8.937  0.1849 -0.2113  1.3371
 8422SOL    HW236903   1.298   1.277   8.888 -0.2486 -0.3203  0.5334
 8423SOL     OW36904   4.683   2.103   7.932  0.0384  0.3015  0.6205
 8423SOL    HW136905   4.715   2.145   7.852  0.2737 -2.2227 -0.5892
 8423SOL    HW236906   4.592   2.130   7.940 -0.0949  0.3636 -0.9731
 8424SOL     OW36907   0.155   2.396  14.007 -0.4967 -0.0205 -0.0272
 8424SOL    HW136908   0.079   2.364  14.056 -0.2489  1.8523  1.5591
 8424SOL    HW236909   0.141   2.358  13.920  1.3006  0.6955 -0.6196
 8425SOL     OW36910   2.917   2.066   8.089 -0.3068  0.5492 -0.2706
 8425SOL    HW136911   2.914   2.152   8.130 -0.1412 -0.7172  2.4302
 8425SOL    HW236912   3.013   2.060   8.083 -0.2646  2.0732 -1.1511
 8426SOL     OW36913   2.925   1.151   8.517 -0.1389 -0.5524 -0.2015
 8426SOL    HW136914   2.878   1.117   8.593  1.5545 -0.2557  0.9847
 8426SOL    HW236915   3.012   1.113   8.529 -0.7239 -2.2730 -1.4829
 8427SOL     OW36916   0.175   0.329  14.992  0.4686 -0.2079 -0.7640
 8427SOL    HW136917   0.184   0.420  15.020 -1.8532 -0.2085 -0.0900
 8427SOL    HW236918   0.262   0.297  15.018  0.7171  0.3702 -0.8884
 8428SOL     OW36919   1.934   4.613   7.764  0.0261 -0.5360  0.2219
 8428SOL    HW136920   1.993   4.688   7.775  1.1370 -1.4625  0.6384
 8428SOL    HW236921   1.858   4.640   7.814 -0.7552 -1.3023 -0.5457
 8429SOL     OW36922   4.363   1.367   9.751 -0.2070  0.4590  0.7329
 8429SOL    HW136923   4.431   1.419   9.709 -0.4912  0.9076  0.8305
 8429SOL    HW236924   4.393   1.352   9.841 -0.9658  0.6875  1.0249
 8430SOL     OW36925   2.136   1.684  10.317 -0.0131  0.5411 -0.3182
 8430SOL    HW136926   2.054   1.723  10.288 -0.5830 -1.8840 -1.9236
 8430SOL    HW236927   2.126   1.603  10.267 -0.3275 -0.6582  1.6666
 8431SOL     OW36928   1.353   1.459   1.745  0.2664  0.4589 -0.2769
 8431SOL    HW136929   1.440   1.430   1.720  0.1259  0.1595 -0.4219
 8431SOL    HW236930   1.380   1.542   1.784 -0.4104  0.0962  0.9576
 8432SOL     OW36931   1.093   3.848   3.908  0.0423  0.5486  0.0996
 8432SOL    HW136932   1.087   3.937   3.942  0.8659  0.4518  0.4910
 8432SOL    HW236933   1.108   3.805   3.992 -0.1569 -0.9093 -0.6035
 8433SOL     OW36934   3.225   4.039   6.440 -0.5899  0.3359  0.0631
 8433SOL    HW136935   3.306   3.989   6.434  0.0189  1.3335 -0.1510
 8433SOL    HW236936   3.212   4.079   6.354  1.9208  1.9507  0.4280
 8434SOL     OW36937   4.330   0.232  16.104  0.1927 -0.3892  0.0828
 8434SOL    HW136938   4.291   0.162  16.052 -1.7283 -0.3004  1.4032
 8434SOL    HW236939   4.256   0.276  16.146 -0.3364  0.3426 -1.6162
 8435SOL     OW36940   1.115   2.223   3.257  0.3349 -0.2809  0.0012
 8435SOL    HW136941   1.091   2.307   3.296 -1.7080 -1.0495  0.3995
 8435SOL    HW236942   1.159   2.192   3.337  0.8735  0.1062 -0.1441
 8436SOL     OW36943   1.460   3.826   2.798 -0.8194 -0.0629  0.1693
 8436SOL    HW136944   1.428   3.786   2.716 -0.9725  0.6527 -0.1151
 8436SOL    HW236945   1.541   3.865   2.765  0.5598 -0.8165  2.6968
 8437SOL     OW36946   2.631   2.963  17.046 -0.9258 -0.3568 -0.1368
 8437SOL    HW136947   2.702   2.909  17.010 -0.2406  0.5480 -0.1579
 8437SOL    HW236948   2.624   2.923  17.132 -0.2331  0.2359  0.1956
 8438SOL     OW36949   3.026   3.706  11.080  0.3219 -0.2298  0.6308
 8438SOL    HW136950   3.019   3.800  11.094  0.2307 -0.3138  1.1363
 8438SOL    HW236951   3.079   3.685  11.156 -3.5931 -4.2080  2.2747
 8439SOL     OW36952   2.131   4.689   9.117  0.1686  0.7852 -0.4471
 8439SOL    HW136953   2.061   4.672   9.181 -0.6008  1.3177 -1.1402
 8439SOL    HW236954   2.107   4.650   9.033 -0.0828  1.0416 -0.4928
 8440SOL     OW36955   1.370   4.256  10.179 -0.0427 -0.1006 -0.0298
 8440SOL    HW136956   1.386   4.170  10.141 -1.1562 -0.2868 -0.0656
 8440SOL    HW236957   1.312   4.287  10.109  0.5168  2.6370  0.7005
 8441SOL     OW36958   1.763   2.817   7.990 -0.4889  0.0310  0.0317
 8441SOL    HW136959   1.720   2.879   7.931  0.8765 -1.4318 -2.5090
 8441SOL    HW236960   1.815   2.871   8.050  1.3879 -1.3178 -0.3559
 8442SOL     OW36961   3.073   0.662  13.013  0.2760 -0.5502 -0.5353
 8442SOL    HW136962   3.002   0.599  13.025 -0.8949  0.8048 -0.3325
 8442SOL    HW236963   3.129   0.616  12.951  1.0056 -1.1932  0.5844
 8443SOL     OW36964   3.272   3.226  16.578 -0.4199  0.1923 -0.2936
 8443SOL    HW136965   3.335   3.216  16.507  1.0117  1.0659  0.8559
 8443SOL    HW236966   3.329   3.250  16.651  2.0006  0.0083 -2.1692
 8444SOL     OW36967   1.015   4.252   4.394  0.1006 -0.2680  0.2951
 8444SOL    HW136968   1.085   4.208   4.442 -0.7705  0.7319  2.4897
 8444SOL    HW236969   0.939   4.195   4.404  0.2697 -0.4113  0.7513
 8445SOL     OW36970   0.667   1.372   3.616 -0.6348 -0.3260  0.1338
 8445SOL    HW136971   0.666   1.281   3.646  2.8926 -1.2977 -2.7092
 8445SOL    HW236972   0.754   1.374   3.578  0.2248 -0.3397  2.0885
 8446SOL     OW36973   4.243   1.418   5.697  0.5999  0.3879  0.0043
 8446SOL    HW136974   4.275   1.356   5.762 -1.8831 -0.4995  0.3587
 8446SOL    HW236975   4.262   1.373   5.615  1.9141  0.2928  0.3616
 8447SOL     OW36976   2.681   4.286   0.864  0.0375 -0.4989 -0.6115
 8447SOL    HW136977   2.592   4.320   0.878  1.1544  2.3295 -0.3324
 8447SOL    HW236978   2.704   4.241   0.945  1.3083 -0.5217 -0.9781
 8448SOL     OW36979   3.103   0.419   1.609 -0.3781  0.3354 -0.2795
 8448SOL    HW136980   3.198   0.413   1.617 -0.5075  2.0581  2.7498
 8448SOL    HW236981   3.080   0.449   1.697 -1.7799 -0.1035 -0.5014
 8449SOL     OW36982   2.326   2.383   9.456  0.1342  0.1508  0.4237
 8449SOL    HW136983   2.286   2.345   9.378  1.3251  1.1141 -0.6476
 8449SOL    HW236984   2.409   2.413   9.420 -0.0549  0.4787  0.2634
 8450SOL     OW36985   4.624   2.196   5.180  0.0067  0.4567 -0.3419
 8450SOL    HW136986   4.593   2.285   5.195  0.8196  0.5619  0.7425
 8450SOL    HW236987   4.651   2.207   5.089 -0.5109  0.4868 -0.4934
 8451SOL     OW36988   4.407   3.065   1.418  0.1818  0.0875 -0.6254
 8451SOL    HW136989   4.423   3.113   1.337 -1.9085  1.6772 -0.0958
 8451SOL    HW236990   4.337   3.006   1.390 -0.9479  0.1626  2.0611
 8452SOL     OW36991   1.512   2.790   7.860  0.0841  0.2756  0.5637
 8452SOL    HW136992   1.503   2.713   7.916  2.6337 -0.9854 -0.7554
 8452SOL    HW236993   1.508   2.742   7.777 -1.7291  2.3548 -0.5707
 8453SOL     OW36994   4.371   1.888   3.399  0.1089 -0.2078  0.3419
 8453SOL    HW136995   4.441   1.938   3.440 -0.1899  0.2514  0.2884
 8453SOL    HW236996   4.411   1.849   3.321 -2.0754 -2.7275  0.4738
 8454SOL     OW36997   3.990   3.401   8.402 -0.9172 -0.2500 -0.5737
 8454SOL    HW136998   3.951   3.450   8.473 -0.8280 -0.1207 -0.6148
 8454SOL    HW236999   4.075   3.387   8.444 -1.6822  2.4939  1.8278
 8455SOL     OW37000   1.886   4.585   3.756 -0.2617  0.3966 -0.0979
 8455SOL    HW137001   1.831   4.620   3.686 -0.7282 -2.0214 -0.9479
 8455SOL    HW237002   1.853   4.497   3.741 -1.6572  0.6136  1.6821
 8456SOL     OW37003   3.906   0.845   7.072 -0.1372 -0.2311  0.1403
 8456SOL    HW137004   3.988   0.804   7.042  0.1422 -1.6152  2.7637
 8456SOL    HW237005   3.894   0.811   7.160 -0.2470 -2.8308 -0.8718
 8457SOL     OW37006   3.319   1.981  11.008 -1.0036 -0.3407 -0.2332
 8457SOL    HW137007   3.368   2.045  10.957 -0.6754  0.3035  0.9055
 8457SOL    HW237008   3.243   2.026  11.045 -0.0511  2.4904 -1.7204
 8458SOL     OW37009   0.574   1.435   3.259 -0.2482 -0.0701  0.4718
 8458SOL    HW137010   0.581   1.340   3.267 -0.9410 -0.2138 -0.7365
 8458SOL    HW237011   0.631   1.445   3.182 -0.3397 -1.7245  0.1906
 8459SOL     OW37012   2.059   4.023   2.936  0.1544 -0.0443 -0.6337
 8459SOL    HW137013   2.030   3.985   2.853 -0.9326  0.6767 -0.5779
 8459SOL    HW237014   2.072   3.942   2.984 -0.7632 -0.1137 -0.5022
 8460SOL     OW37015   3.334   3.523   5.229 -0.8068  0.3658  0.3102
 8460SOL    HW137016   3.351   3.469   5.306 -1.1066  2.6805  1.9931
 8460SOL    HW237017   3.248   3.559   5.247 -0.5435 -0.5726  3.4721
 8461SOL     OW37018   0.216   0.856  17.436  0.3802  0.5091 -0.2573
 8461SOL    HW137019   0.266   0.899  17.505 -0.9559  0.5997  0.6613
 8461SOL    HW237020   0.284   0.811  17.386  0.3773 -0.5194  0.6826
 8462SOL     OW37021   2.460   1.256  14.700 -0.4599  0.6506  0.0692
 8462SOL    HW137022   2.490   1.277  14.789  1.7207 -2.6731  0.1373
 8462SOL    HW237023   2.537   1.287  14.653 -0.1248  2.6498  1.9137
 8463SOL     OW37024   1.207   0.589   2.279  0.3166  0.0370  0.9037
 8463SOL    HW137025   1.137   0.645   2.247 -2.5567 -3.2783  1.4375
 8463SOL    HW237026   1.274   0.607   2.213  0.6830  0.5347  1.4144
 8464SOL     OW37027   0.028   2.508  15.624 -0.2666 -0.1667  0.2348
 8464SOL    HW137028   4.714   2.571  15.678  1.3437 -0.0239  1.4970
 8464SOL    HW237029   4.691   2.490  15.562 -0.4709  0.5860  0.2494
 8465SOL     OW37030   0.777   2.452  10.113 -0.0578  0.0857  0.0815
 8465SOL    HW137031   0.727   2.447  10.032 -1.3392 -4.0293  1.1382
 8465SOL    HW237032   0.843   2.388  10.087 -1.1718 -0.8374 -0.4442
 8466SOL     OW37033   2.075   3.596   9.191  0.2674  0.1102  0.4819
 8466SOL    HW137034   2.070   3.633   9.103 -0.3710 -0.7051  0.1740
 8466SOL    HW237035   2.168   3.579   9.203 -0.4177 -1.0457  3.9619
 8467SOL     OW37036   4.466   2.972   8.180  0.5040  0.3375  0.2387
 8467SOL    HW137037   4.412   3.024   8.240  3.4141 -1.6736  4.5981
 8467SOL    HW237038   4.397   2.924   8.135  1.7527 -1.1592 -0.0440
 8468SOL     OW37039   3.118   0.715  10.389  0.3120  0.5848 -0.1552
 8468SOL    HW137040   3.188   0.715  10.453 -0.1201 -1.2110  0.3300
 8468SOL    HW237041   3.133   0.802  10.353 -0.1131  1.7745  2.5470
 8469SOL     OW37042   2.938   4.355   9.500 -0.6561 -0.8234 -0.0164
 8469SOL    HW137043   2.934   4.269   9.456 -0.6177 -1.7307  1.7437
 8469SOL    HW237044   2.943   4.415   9.426 -2.2154 -0.9960 -0.2788
 8470SOL     OW37045   4.264   1.154   8.570 -0.0657 -0.4963  0.3208
 8470SOL    HW137046   4.242   1.174   8.661 -2.0456  2.8149 -0.8748
 8470SOL    HW237047   4.302   1.238   8.545 -0.5531  0.1372  1.7298
 8471SOL     OW37048   2.775   0.559   1.938 -0.2182 -0.1332  0.1267
 8471SOL    HW137049   2.732   0.553   1.852  0.4573  2.1469 -0.3518
 8471SOL    HW237050   2.711   0.527   2.002 -0.4277  1.3356  0.6437
 8472SOL     OW37051   2.395   2.729  10.163  0.1554  0.1801 -0.5222
 8472SOL    HW137052   2.392   2.658  10.227  0.2117  0.9580  0.3576
 8472SOL    HW237053   2.475   2.710  10.115  0.0001  0.6857 -0.9776
 8473SOL     OW37054   2.590   4.567   9.351 -0.4240 -0.3790 -0.5146
 8473SOL    HW137055   2.591   4.521   9.267  0.4598 -2.0133  0.3949
 8473SOL    HW237056   2.565   4.653   9.316  0.9096 -0.0145 -0.5538
 8474SOL     OW37057   2.453   2.833   5.491  0.2431  0.0784 -0.1584
 8474SOL    HW137058   2.504   2.763   5.531 -0.8202 -1.0193 -0.7279
 8474SOL    HW237059   2.489   2.912   5.532 -0.1882 -0.1868  0.7349
 8475SOL     OW37060   4.541   0.718   2.090 -0.3027 -0.4047  0.6834
 8475SOL    HW137061   4.532   0.796   2.034  0.2138 -0.3424  0.6883
 8475SOL    HW237062   4.572   0.662   2.019  1.2311 -0.6053  1.5063
 8476SOL     OW37063   0.309   1.900   8.806 -0.4367 -0.2385  0.2747
 8476SOL    HW137064   0.313   1.987   8.845  0.1879 -0.6831  1.2042
 8476SOL    HW237065   0.368   1.909   8.731 -1.0544  2.1162  0.1031
 8477SOL     OW37066   1.915   2.072   1.078 -0.8315  0.0672  0.1747
 8477SOL    HW137067   1.891   2.009   1.145  2.2482  0.1410  1.3336
 8477SOL    HW237068   1.853   2.067   1.005 -1.1538 -0.4296  0.4838
 8478SOL     OW37069   2.359   0.348   9.029  0.5761 -0.0879  0.0674
 8478SOL    HW137070   2.329   0.312   9.112 -0.3473  1.4798  0.4249
 8478SOL    HW237071   2.338   0.442   9.032  1.0806 -0.0660  2.6262
 8479SOL     OW37072   4.395   0.525   6.463 -0.1290  0.4045  0.0460
 8479SOL    HW137073   4.341   0.459   6.420  1.9545 -2.2382  1.4688
 8479SOL    HW237074   4.372   0.605   6.417 -0.4605  0.0275 -0.4329
 8480SOL     OW37075   0.514   2.282   9.171 -0.0921  0.4762  0.3482
 8480SOL    HW137076   0.461   2.244   9.101  1.8612 -0.7370 -0.4683
 8480SOL    HW237077   0.602   2.276   9.134 -0.5203  0.6313 -0.7044
 8481SOL     OW37078   4.389   3.485   9.077  0.6280 -0.0285  0.3466
 8481SOL    HW137079   4.362   3.413   9.020 -2.6755  0.3657  1.3825
 8481SOL    HW237080   4.315   3.543   9.059 -1.2556 -3.2157 -2.1221
 8482SOL     OW37081   0.618   2.569   3.560 -0.2849 -0.6807  0.3013
 8482SOL    HW137082   0.565   2.629   3.507 -0.3672 -0.1129  1.0291
 8482SOL    HW237083   0.558   2.521   3.618  0.1269 -0.0346  1.2659
 8483SOL     OW37084   1.077   4.469  14.783  0.7229 -0.5262  0.6248
 8483SOL    HW137085   1.148   4.500  14.727 -1.2573 -1.8191 -2.6023
 8483SOL    HW237086   1.000   4.486  14.728 -0.0415 -2.1968  1.1535
 8484SOL     OW37087   4.381   3.181   2.881  0.6078  0.1914  0.2543
 8484SOL    HW137088   4.419   3.245   2.821  1.7415  0.7631  1.5972
 8484SOL    HW237089   4.461   3.150   2.923  0.0932 -1.8481 -0.2893
 8485SOL     OW37090   2.351   4.538   5.738 -0.3973  0.1266  0.9991
 8485SOL    HW137091   2.413   4.583   5.795 -1.4661 -0.1384  2.3580
 8485SOL    HW237092   2.363   4.570   5.649  3.0944 -1.3079  0.9701
 8486SOL     OW37093   0.099   4.199  16.837 -0.2228  0.5979 -0.2008
 8486SOL    HW137094   0.089   4.292  16.817 -3.2515  0.3729  0.1686
 8486SOL    HW237095   0.089   4.194  16.932  1.6244  0.7558 -0.0026
 8487SOL     OW37096   0.532   1.843  14.028  0.9518  0.5223 -0.1321
 8487SOL    HW137097   0.460   1.898  14.060  2.4460  1.8665  0.8993
 8487SOL    HW237098   0.567   1.900  13.959  1.4478  0.2557 -0.0968
 8488SOL     OW37099   0.643   3.354   4.978 -0.1652  0.5009  0.2792
 8488SOL    HW137100   0.714   3.385   5.034  0.3440 -0.0378 -0.0755
 8488SOL    HW237101   0.629   3.434   4.927  0.4615  0.7357  0.4677
 8489SOL     OW37102   0.228   2.159  13.816  0.0611  0.2798 -0.6392
 8489SOL    HW137103   0.188   2.169  13.730 -1.0827  0.1249 -0.1281
 8489SOL    HW237104   0.311   2.207  13.809  0.2950  0.0236  0.3910
 8490SOL     OW37105   2.543   2.244   3.680  0.3103 -0.1631  0.1123
 8490SOL    HW137106   2.517   2.325   3.636  0.9760  0.0452  0.1135
 8490SOL    HW237107   2.594   2.202   3.611  1.6801 -0.3032  1.2173
 8491SOL     OW37108   3.176   3.946  12.864  0.5059 -0.1449  0.2731
 8491SOL    HW137109   3.147   3.855  12.869  1.0774 -0.4177 -1.3400
 8491SOL    HW237110   3.249   3.942  12.925 -0.1335  2.0863  1.1843
 8492SOL     OW37111   1.331   1.645  16.425  0.0069  0.4452  0.2400
 8492SOL    HW137112   1.380   1.721  16.396  1.1826  0.1669  1.4831
 8492SOL    HW237113   1.392   1.577  16.396 -2.9149 -0.9841 -2.6342
 8493SOL     OW37114   1.759   1.138   1.152 -0.6882 -0.0418  0.0650
 8493SOL    HW137115   1.760   1.167   1.243 -0.9616  1.9599 -0.5706
 8493SOL    HW237116   1.677   1.154   1.106 -1.6386 -1.1563  1.3915
 8494SOL     OW37117   0.480   2.514   8.884 -0.2604  0.0453 -0.1153
 8494SOL    HW137118   0.505   2.583   8.947  0.6686  0.4701 -0.9462
 8494SOL    HW237119   0.553   2.523   8.823  0.0262 -0.4369  0.1529
 8495SOL     OW37120   2.444   4.573   8.911 -0.2934 -0.0202  0.0984
 8495SOL    HW137121   2.488   4.516   8.848  0.0505  0.1811  0.1553
 8495SOL    HW237122   2.358   4.582   8.871 -0.5641  1.3992  0.9915
 8496SOL     OW37123   1.740   2.536  15.830 -0.3392  0.0790  0.9254
 8496SOL    HW137124   1.815   2.589  15.856  0.8239 -0.6596 -0.9024
 8496SOL    HW237125   1.692   2.600  15.778 -0.3911 -1.8773 -1.4574
 8497SOL     OW37126   0.945   1.385   5.806 -0.0177  0.1024  0.9671
 8497SOL    HW137127   0.940   1.326   5.731 -0.3304  1.8667 -0.3988
 8497SOL    HW237128   1.001   1.458   5.780 -0.3284  0.3603  1.0269
 8498SOL     OW37129   2.365   3.632   9.235  0.3815 -0.2438 -0.2890
 8498SOL    HW137130   2.332   3.711   9.278  1.2123  0.6282 -1.2712
 8498SOL    HW237131   2.459   3.641   9.250  0.3078 -0.2056  0.1375
 8499SOL     OW37132   2.538   0.654   4.452 -0.3211  0.2337 -0.0803
 8499SOL    HW137133   2.570   0.744   4.448 -2.3183  1.0606  1.9644
 8499SOL    HW237134   2.523   0.646   4.547  0.3305  1.7281  0.1485
 8500SOL     OW37135   1.937   1.049  12.799  0.2463  0.2616  0.6065
 8500SOL    HW137136   1.956   0.996  12.876 -0.0369  0.5248  0.8517
 8500SOL    HW237137   1.871   0.995  12.757 -1.6240  1.4453  2.0283
 8501SOL     OW37138   0.846   1.635   8.485  0.4723 -0.2424  0.6022
 8501SOL    HW137139   0.766   1.655   8.435 -0.4182  0.3192  2.2536
 8501SOL    HW237140   0.815   1.565   8.541  1.5539  0.4950  2.1280
 8502SOL     OW37141   4.271   1.881   8.424  0.7959  0.7370  0.3149
 8502SOL    HW137142   4.282   1.964   8.379 -0.2802 -0.5840 -2.3799
 8502SOL    HW237143   4.277   1.915   8.514  0.8678 -1.3309  1.0924
 8503SOL     OW37144   2.682   1.558   5.587 -0.1593 -0.0579 -0.2116
 8503SOL    HW137145   2.721   1.645   5.577 -1.0184  0.5610  1.8434
 8503SOL    HW237146   2.594   1.579   5.555  0.7042  2.0955 -1.2092
 8504SOL     OW37147   4.547   4.434   9.733  0.7821  0.1913 -0.4585
 8504SOL    HW137148   4.612   4.379   9.690  0.0307 -0.1629 -1.1525
 8504SOL    HW237149   4.569   4.437   9.826 -2.2486 -2.6859  0.3527
 8505SOL     OW37150   2.527   2.379   6.990  0.2982  0.5085 -0.4480
 8505SOL    HW137151   2.613   2.417   6.969 -0.6794  2.4784 -0.8211
 8505SOL    HW237152   2.484   2.450   7.037 -0.6126 -1.5270  1.7495
 8506SOL     OW37153   1.113   3.164   8.014 -0.4259  0.1333  0.0495
 8506SOL    HW137154   1.100   3.069   8.014 -0.5724  0.1537 -0.0728
 8506SOL    HW237155   1.020   3.185   8.013 -1.0924 -2.9001 -1.1330
 8507SOL     OW37156   0.352   0.973   0.631  0.0974  0.1559  0.2683
 8507SOL    HW137157   0.362   1.064   0.605 -0.4566 -0.2097 -1.2699
 8507SOL    HW237158   0.392   0.936   0.552 -0.1678  0.0695  0.1751
 8508SOL     OW37159   0.737   1.754  14.262  0.4853  0.0889  0.3026
 8508SOL    HW137160   0.772   1.840  14.237  0.0670  0.1058 -0.2385
 8508SOL    HW237161   0.673   1.772  14.330 -0.2285 -1.7433  0.1067
 8509SOL     OW37162   2.092   4.639   4.546  0.1936 -0.1381  0.0607
 8509SOL    HW137163   2.003   4.617   4.518 -0.8601  0.9676  2.4795
 8509SOL    HW237164   2.081   4.727   4.583  0.1851  0.0929 -0.4906
 8510SOL     OW37165   0.197   2.426   5.079 -0.7440  0.3352  0.0099
 8510SOL    HW137166   0.276   2.425   5.025  0.7753 -1.2771  2.2413
 8510SOL    HW237167   0.198   2.336   5.113 -1.8407  1.3929  2.8479
 8511SOL     OW37168   2.441   4.190   0.474  0.7511  0.1583  0.3865
 8511SOL    HW137169   2.528   4.228   0.476  1.1944 -0.7663 -2.0806
 8511SOL    HW237170   2.452   4.125   0.544  0.3038  0.7193  0.9835
 8512SOL     OW37171   1.104   4.246   5.512 -0.6354  0.3130 -0.6666
 8512SOL    HW137172   1.188   4.263   5.553 -1.3723  2.5954 -0.0940
 8512SOL    HW237173   1.106   4.154   5.486  1.6804  0.1543  0.1280
 8513SOL     OW37174   1.226   2.666   6.237  0.1369 -0.4234 -0.1630
 8513SOL    HW137175   1.145   2.717   6.245  0.0200 -0.6010 -0.1990
 8513SOL    HW237176   1.193   2.591   6.288 -3.1606  0.0920 -1.5067
 8514SOL     OW37177   0.156   1.968   7.755  0.1534 -0.4504 -0.5016
 8514SOL    HW137178   0.156   2.048   7.703  1.2337 -0.0216  0.1820
 8514SOL    HW237179   0.061   1.956   7.763  0.1463 -0.5952 -0.7889
 8515SOL     OW37180   1.020   2.079   8.694 -0.7756  0.0192  0.0865
 8515SOL    HW137181   0.972   2.117   8.768 -0.2700 -0.3722  0.6175
 8515SOL    HW237182   1.000   2.136   8.620 -1.2822 -0.3540 -0.0636
 8516SOL     OW37183   2.566   0.124   4.094 -0.1783 -0.6050  0.1848
 8516SOL    HW137184   2.565   0.205   4.044 -0.8113 -0.7113  0.0233
 8516SOL    HW237185   2.513   0.150   4.170  0.4722  0.6001  0.2064
 8517SOL     OW37186   3.315   0.420  13.303  0.6389  0.2316  0.1019
 8517SOL    HW137187   3.279   0.378  13.226  2.7813 -2.5253  0.6159
 8517SOL    HW237188   3.242   0.412  13.364 -0.1376 -0.0348 -0.8695
 8518SOL     OW37189   2.378   0.039   1.971 -0.3909 -0.0294  0.2300
 8518SOL    HW137190   2.363   4.681   1.950  1.3025 -0.2542  0.0090
 8518SOL    HW237191   2.392   0.072   1.882 -2.1838  0.5290  0.1483
 8519SOL     OW37192   1.297   2.553   0.352  0.4332  0.8276  0.3545
 8519SOL    HW137193   1.276   2.608   0.277  1.2554  2.0223  1.0133
 8519SOL    HW237194   1.239   2.594   0.416 -1.7522  1.2171 -1.8776
 8520SOL     OW37195   4.229   1.890   6.971 -0.7566 -0.0619 -0.2397
 8520SOL    HW137196   4.169   1.819   6.950 -0.4690 -0.0643 -1.0473
 8520SOL    HW237197   4.167   1.957   7.001  0.4311  1.0188 -0.1817
 8521SOL     OW37198   4.617   1.158   8.611  0.0456  0.2283  0.5957
 8521SOL    HW137199   4.602   1.253   8.609  0.5299  0.2527 -1.1613
 8521SOL    HW237200   4.627   1.145   8.706  1.1297 -1.0716  0.3040
 8522SOL     OW37201   0.137   2.514   9.867  0.0764 -0.1970 -0.0736
 8522SOL    HW137202   0.065   2.451   9.863  1.9038 -2.0908 -3.3002
 8522SOL    HW237203   0.198   2.473   9.805  0.5784 -0.5420  0.6561
 8523SOL     OW37204   2.346   3.309   3.924 -0.4253 -0.5899 -0.4557
 8523SOL    HW137205   2.325   3.330   3.833 -1.8395  1.4968  0.3578
 8523SOL    HW237206   2.272   3.350   3.970 -1.6171 -2.3891 -0.7490
 8524SOL     OW37207   2.361   0.330  11.581 -0.4815  0.0819  1.0998
 8524SOL    HW137208   2.315   0.400  11.628 -0.7075 -1.1836  2.7707
 8524SOL    HW237209   2.299   0.257  11.583  0.1621 -0.6355 -4.9499
 8525SOL     OW37210   3.382   0.478  10.075 -0.7725 -0.8187 -0.2081
 8525SOL    HW137211   3.469   0.461  10.038 -0.6628  1.8152 -1.1914
 8525SOL    HW237212   3.373   0.411  10.142 -0.2379 -1.2735 -0.5906
 8526SOL     OW37213   2.659   3.221   3.232  0.1990 -0.7820  0.3580
 8526SOL    HW137214   2.585   3.281   3.242  0.3827 -0.3564 -0.8190
 8526SOL    HW237215   2.687   3.205   3.322 -1.9758 -1.8434  0.8732
 8527SOL     OW37216   4.128   3.687   2.090 -0.4440  0.0977 -0.4915
 8527SOL    HW137217   4.041   3.670   2.125 -0.4438 -0.8046 -0.9329
 8527SOL    HW237218   4.106   3.711   2.000  0.0427  1.1877 -0.3196
 8528SOL     OW37219   4.711   2.278   2.342 -0.0434  0.3170 -0.6422
 8528SOL    HW137220   0.012   2.201   2.297  1.2613 -0.4483  1.6592
 8528SOL    HW237221   0.053   2.304   2.395  1.1874 -1.1771 -1.6647
 8529SOL     OW37222   1.461   1.055   7.177 -0.0695 -0.2278 -0.2968
 8529SOL    HW137223   1.528   0.998   7.140  0.5218  1.3890 -1.7255
 8529SOL    HW237224   1.503   1.140   7.166 -1.7436  0.8265  1.5070
 8530SOL     OW37225   4.022   2.368   6.785 -1.0683 -0.5333 -0.3518
 8530SOL    HW137226   4.088   2.437   6.785 -2.4564  0.7869 -0.9601
 8530SOL    HW237227   3.995   2.361   6.693  0.1886  1.2986 -0.8529
 8531SOL     OW37228   3.389   1.137   1.122 -0.0418  0.4844 -0.7316
 8531SOL    HW137229   3.308   1.160   1.076 -2.0124 -2.3543  1.2859
 8531SOL    HW237230   3.349   1.118   1.207 -0.8013 -1.5057 -1.5327
 8532SOL     OW37231   4.667   1.096   3.389  0.2794 -0.2441  0.0300
 8532SOL    HW137232   4.641   1.034   3.321  2.2587  0.6386 -1.5252
 8532SOL    HW237233   4.679   1.174   3.335  0.0869  0.8906  1.6354
 8533SOL     OW37234   1.627   2.717   3.575  0.5761 -0.5111  0.8112
 8533SOL    HW137235   1.656   2.770   3.502 -1.2256 -0.3118  0.2311
 8533SOL    HW237236   1.706   2.723   3.628  1.2528  2.9584 -0.6444
 8534SOL     OW37237   4.023   1.465   1.965 -0.3643 -0.1215 -0.3551
 8534SOL    HW137238   4.012   1.414   2.045 -0.7812  1.2632  0.4699
 8534SOL    HW237239   4.016   1.557   1.991 -1.1616 -0.2967  0.0401
 8535SOL     OW37240   3.708   2.600   3.492  0.6416 -0.8955 -0.3264
 8535SOL    HW137241   3.627   2.588   3.443  1.0135 -0.9497 -0.9312
 8535SOL    HW237242   3.690   2.541   3.566 -0.3337  0.3890  0.4518
 8536SOL     OW37243   4.026   0.464   6.598 -0.3357 -0.2073  0.5244
 8536SOL    HW137244   4.075   0.453   6.517 -2.3689 -0.9285 -0.6061
 8536SOL    HW237245   4.095   0.463   6.664  0.1735 -2.9258 -0.0333
 8537SOL     OW37246   2.659   0.105   2.727 -0.5104  0.5144  0.2887
 8537SOL    HW137247   2.623   0.032   2.778 -1.0605  0.4463 -0.1881
 8537SOL    HW237248   2.712   0.158   2.786 -0.4909 -0.7740  1.4396
 8538SOL     OW37249   1.292   3.870   9.119 -0.1563  0.5229  0.4051
 8538SOL    HW137250   1.258   3.921   9.193 -0.1212  0.0651  0.7363
 8538SOL    HW237251   1.244   3.787   9.123 -0.2686  0.5503 -0.4949
 8539SOL     OW37252   3.364   0.756   7.731 -0.0070  0.5960 -0.1068
 8539SOL    HW137253   3.298   0.687   7.737 -0.0585  0.7702  1.2642
 8539SOL    HW237254   3.371   0.786   7.821 -0.0929  0.0027  0.0977
 8540SOL     OW37255   1.200   1.461   0.167  0.3761 -0.0689  0.5326
 8540SOL    HW137256   1.255   1.530   0.130 -0.4289  0.4860  0.3712
 8540SOL    HW237257   1.204   1.390   0.104  1.7655  2.2389 -1.9877
 8541SOL     OW37258   3.346   3.006   8.191  0.7272  0.4607  0.0247
 8541SOL    HW137259   3.379   3.067   8.257  0.1502  0.1665  0.5763
 8541SOL    HW237260   3.336   2.929   8.246 -0.3166  0.2583 -0.4582
 8542SOL     OW37261   0.457   3.951  14.848  0.1867 -0.0030  0.2093
 8542SOL    HW137262   0.464   3.855  14.842  1.8152  0.1666 -0.3342
 8542SOL    HW237263   0.515   3.979  14.778  1.7664 -2.2849  0.5871
 8543SOL     OW37264   1.077   4.398   8.575  0.9085 -0.2011  0.4459
 8543SOL    HW137265   1.147   4.342   8.542 -0.3974 -0.9091 -1.1530
 8543SOL    HW237266   1.014   4.339   8.617  0.0943  0.0593 -0.4093
 8544SOL     OW37267   0.138   2.060  13.236 -0.3705  0.1091  0.1852
 8544SOL    HW137268   0.215   2.006  13.255 -0.3396 -0.4652 -1.5258
 8544SOL    HW237269   0.104   2.012  13.160  0.0059 -0.9332  0.6624
 8545SOL     OW37270   2.457   2.210  12.628  0.1350 -0.3364  0.6917
 8545SOL    HW137271   2.514   2.199  12.552 -0.7989 -3.5997  0.4737
 8545SOL    HW237272   2.471   2.301  12.657  1.3240 -0.4555  0.5101
 8546SOL     OW37273   4.191   2.150   2.256  0.2661  0.2685 -0.0572
 8546SOL    HW137274   4.194   2.166   2.162 -1.1949  0.7455 -0.0094
 8546SOL    HW237275   4.279   2.118   2.279  0.1774  0.6330  0.7862
 8547SOL     OW37276   0.699   2.755   7.685 -0.0774 -0.4149 -0.1518
 8547SOL    HW137277   0.668   2.675   7.641  1.9144 -0.1023 -2.1113
 8547SOL    HW237278   0.680   2.822   7.619  2.6783  1.1027  0.6287
 8548SOL     OW37279   0.757   1.913   9.152 -0.4216  0.4375 -0.0495
 8548SOL    HW137280   0.756   1.856   9.228 -1.3035 -1.3469 -1.3795
 8548SOL    HW237281   0.772   1.996   9.196  0.0690  0.5362 -0.4053
 8549SOL     OW37282   3.420   1.942   7.108  0.5837 -0.2098  0.2619
 8549SOL    HW137283   3.421   1.860   7.057 -2.6930  0.3657 -0.7165
 8549SOL    HW237284   3.468   2.001   7.050 -1.0029  2.1740  1.3805
 8550SOL     OW37285   0.344   0.142   8.165  0.0950  0.6198 -0.7464
 8550SOL    HW137286   0.249   0.152   8.175 -0.2691 -2.2300 -1.3589
 8550SOL    HW237287   0.368   0.211   8.227 -0.9606  0.8044 -0.5390
 8551SOL     OW37288   3.499   0.019  12.634 -0.1590 -0.4145  0.3353
 8551SOL    HW137289   3.408   4.729  12.653 -0.3832  0.0886 -0.1116
 8551SOL    HW237290   3.544   4.672  12.660  0.8790 -0.1402 -0.6414
 8552SOL     OW37291   3.096   0.286   2.130 -0.4270 -0.3181 -0.1563
 8552SOL    HW137292   3.126   0.258   2.217 -0.0555  0.5596  0.0050
 8552SOL    HW237293   3.062   0.374   2.149 -0.4340 -0.1891 -0.7753
 8553SOL     OW37294   2.128   3.450   8.860  0.6143  0.1153 -0.4843
 8553SOL    HW137295   2.205   3.409   8.900  0.3750 -0.2914 -0.4391
 8553SOL    HW237296   2.082   3.366   8.851  0.1928  0.2207  0.7101
 8554SOL     OW37297   3.992   3.804   5.715  0.3169 -0.6015  0.2542
 8554SOL    HW137298   3.904   3.817   5.680  0.5774 -1.9600 -0.9137
 8554SOL    HW237299   4.041   3.819   5.634 -1.0163  0.4907 -0.3416
 8555SOL     OW37300   1.308   4.205   7.341 -0.1689  0.0752  0.0268
 8555SOL    HW137301   1.368   4.196   7.267 -0.6185 -1.6010 -0.1371
 8555SOL    HW237302   1.362   4.256   7.401 -1.8126  2.3080 -0.3950
 8556SOL     OW37303   0.676   4.334   4.970 -0.1498  0.2135  0.1846
 8556SOL    HW137304   0.629   4.405   4.926 -1.4684  0.8937  2.6861
 8556SOL    HW237305   0.604   4.294   5.020 -1.7445 -0.4666 -2.6846
 8557SOL     OW37306   1.063   1.143   4.920 -0.2586 -0.1750 -0.1363
 8557SOL    HW137307   1.096   1.066   4.966 -1.0079 -1.3254 -1.5022
 8557SOL    HW237308   1.140   1.199   4.922 -1.3359  1.3486 -1.3917
 8558SOL     OW37309   3.898   1.434   9.938 -0.1715  0.0300 -0.0498
 8558SOL    HW137310   3.859   1.348   9.921 -0.2948  0.3330 -1.3375
 8558SOL    HW237311   3.990   1.415   9.923  0.0310  0.9152  0.0376
 8559SOL     OW37312   3.877   4.352   2.722  0.0993 -0.0782 -0.2682
 8559SOL    HW137313   3.795   4.309   2.697  1.4937 -0.9431 -3.2562
 8559SOL    HW237314   3.939   4.288   2.690  1.3002  0.1626  1.5564
 8560SOL     OW37315   2.837   1.684   0.779  0.4995  0.1668  0.4699
 8560SOL    HW137316   2.787   1.757   0.743 -0.3403 -0.5600  0.1436
 8560SOL    HW237317   2.764   1.625   0.801 -0.0180  0.0515 -1.5536
 8561SOL     OW37318   3.659   3.516   5.082 -0.0768 -0.4372 -0.1079
 8561SOL    HW137319   3.664   3.607   5.111 -3.7651 -0.1551 -0.4083
 8561SOL    HW237320   3.686   3.519   4.991 -1.0637 -0.5119 -0.4000
 8562SOL     OW37321   0.988   4.101  10.166 -0.2153 -0.4660  0.4042
 8562SOL    HW137322   0.913   4.074  10.113  0.8694 -0.9789 -0.8714
 8562SOL    HW237323   1.062   4.108  10.105 -0.0107  0.7383  0.7785
 8563SOL     OW37324   3.710   0.896   2.350 -0.0376 -0.1955 -0.8305
 8563SOL    HW137325   3.652   0.822   2.329 -0.8939  0.5653 -1.1407
 8563SOL    HW237326   3.664   0.948   2.415  2.2146  0.7839  0.0006
 8564SOL     OW37327   1.819   4.147   7.187  0.1923  0.2479 -0.2932
 8564SOL    HW137328   1.760   4.071   7.191  0.7867 -0.1911  0.1288
 8564SOL    HW237329   1.880   4.130   7.259 -0.4694 -0.2750  0.1510
 8565SOL     OW37330   3.490   3.621  10.699  0.1452  0.1898  0.2230
 8565SOL    HW137331   3.452   3.636  10.785  0.7990 -0.0321  0.5507
 8565SOL    HW237332   3.550   3.694  10.681  0.8454 -0.6713 -0.9526
 8566SOL     OW37333   2.744   4.485  11.427  0.4883 -0.2722  0.0589
 8566SOL    HW137334   2.792   4.470  11.346  0.9064  0.5652  0.1514
 8566SOL    HW237335   2.820   4.513  11.477 -0.0548  3.6513 -1.3416
 8567SOL     OW37336   1.344   3.115   4.140 -0.1152 -0.6365  0.1920
 8567SOL    HW137337   1.324   3.035   4.189 -2.8513 -0.4558 -0.6386
 8567SOL    HW237338   1.396   3.086   4.065  1.6419 -0.4978  1.3460
 8568SOL     OW37339   3.536   0.448   4.331  0.5001 -0.1172 -0.1512
 8568SOL    HW137340   3.575   0.446   4.244  0.5568 -1.0855 -0.0985
 8568SOL    HW237341   3.615   0.453   4.385  0.9889  0.7678 -0.9500
 8569SOL     OW37342   3.323   4.536   7.447  0.1319 -0.0362  0.0911
 8569SOL    HW137343   3.356   4.488   7.523  1.5834 -0.3431 -0.7149
 8569SOL    HW237344   3.403   4.552   7.396  0.9297  0.8375  1.6014
 8570SOL     OW37345   2.576   2.234   8.631  0.3171 -0.3440 -0.2426
 8570SOL    HW137346   2.503   2.173   8.614  0.3783 -0.3207 -0.6016
 8570SOL    HW237347   2.573   2.295   8.557  0.4259  0.5270  0.4698
 8571SOL     OW37348   3.483   4.237   3.153  0.4307  0.0251  0.4577
 8571SOL    HW137349   3.517   4.301   3.216  0.7224  1.6453 -1.3628
 8571SOL    HW237350   3.424   4.188   3.211 -1.1713 -0.4637 -1.5839
 8572SOL     OW37351   4.598   1.667   1.253  0.0914 -0.2144 -0.1154
 8572SOL    HW137352   4.502   1.671   1.249  0.0101 -1.9683  0.3402
 8572SOL    HW237353   4.624   1.736   1.313 -1.3922 -1.7760  2.2946
 8573SOL     OW37354   4.471   4.011   0.813  0.2127 -0.3409  0.0738
 8573SOL    HW137355   4.493   4.094   0.771 -3.0547  0.0051 -0.9530
 8573SOL    HW237356   4.438   4.038   0.899  0.8796 -1.8774  0.8007
 8574SOL     OW37357   0.407   2.784  15.030  0.1662 -0.1909 -0.1029
 8574SOL    HW137358   0.396   2.842  15.105 -0.8227  2.4362 -2.2964
 8574SOL    HW237359   0.484   2.746  15.072 -0.5508 -0.6498  0.7958
 8575SOL     OW37360   4.005   0.559   5.593 -0.6973  0.3013  0.2570
 8575SOL    HW137361   3.916   0.592   5.585 -1.1367 -0.6259  1.1818
 8575SOL    HW237362   4.003   0.463   5.584 -0.3450  0.1658  1.5772
 8576SOL     OW37363   3.157   1.766   4.807 -0.3547  0.3345 -0.6126
 8576SOL    HW137364   3.101   1.839   4.834  0.1488  0.0595  1.1710
 8576SOL    HW237365   3.192   1.814   4.732  0.4912  0.6792  0.0098
 8577SOL     OW37366   4.720   4.267   8.544 -0.2188 -0.1332 -0.0109
 8577SOL    HW137367   4.729   4.346   8.598 -0.3364  0.7944 -1.3684
 8577SOL    HW237368   4.642   4.286   8.493 -0.3500  1.3834  0.7676
 8578SOL     OW37369   2.093   2.991  15.579  0.0429 -0.7231 -0.6897
 8578SOL    HW137370   2.061   2.985  15.489  2.4255 -0.4995 -1.5617
 8578SOL    HW237371   2.129   2.903  15.592  0.5536 -0.6247 -1.4567
 8579SOL     OW37372   0.336   2.788   9.110 -0.2689  0.2596 -0.2853
 8579SOL    HW137373   0.377   2.828   9.188 -2.1019  2.2743 -0.3553
 8579SOL    HW237374   0.346   2.696   9.134 -3.9231  0.2276  1.0450
 8580SOL     OW37375   2.892   2.484  15.515  0.4749  0.4873  0.0414
 8580SOL    HW137376   2.904   2.479  15.610  2.1646  2.9019 -0.0661
 8580SOL    HW237377   2.884   2.578  15.499 -0.7957  0.5266  0.8880
 8581SOL     OW37378   4.591   4.591   9.175 -0.1792  0.1405  0.6359
 8581SOL    HW137379   4.524   4.596   9.243  1.7284  0.7255  2.4481
 8581SOL    HW237380   4.657   4.652   9.206 -0.5215  1.0626 -0.4248
 8582SOL     OW37381   3.132   0.519   2.951  0.2527 -0.5249 -0.7394
 8582SOL    HW137382   3.145   0.455   3.021 -0.7209 -1.8691 -1.7816
 8582SOL    HW237383   3.057   0.565   2.988  1.4540  0.9135 -0.1432
 8583SOL     OW37384   4.656   2.451  15.129 -0.6001 -0.3088  0.5133
 8583SOL    HW137385   4.716   2.514  15.088 -1.5197  0.8557  0.9743
 8583SOL    HW237386   4.603   2.426  15.053  0.0594  1.1267 -0.4379
 8584SOL     OW37387   0.086   1.970  13.978  0.6530  0.1343  0.4596
 8584SOL    HW137388   0.114   1.894  13.928 -1.5355 -1.0056  0.9887
 8584SOL    HW237389   0.155   2.027  13.944  3.0048 -1.7203  2.1722
 8585SOL     OW37390   1.816   1.851  11.812  0.3720 -0.4803  0.2716
 8585SOL    HW137391   1.861   1.767  11.800  0.4784 -0.2885 -0.6614
 8585SOL    HW237392   1.727   1.818  11.798 -0.6652  1.5755  1.9342
 8586SOL     OW37393   1.552   1.604   2.424  0.4830 -0.5519 -0.3259
 8586SOL    HW137394   1.495   1.681   2.423  2.1855  0.7066 -0.3232
 8586SOL    HW237395   1.510   1.539   2.368  0.3729 -0.0583 -0.8241
 8587SOL     OW37396   2.123   1.276   6.910  0.5983  0.4453  0.1482
 8587SOL    HW137397   2.108   1.361   6.951 -1.2990 -0.4737  1.3604
 8587SOL    HW237398   2.206   1.279   6.864  0.1276 -2.0509 -0.8839
 8588SOL     OW37399   1.442   1.407   5.913 -0.0644  0.5834 -0.5339
 8588SOL    HW137400   1.529   1.379   5.887  0.5043  0.9784  0.9442
 8588SOL    HW237401   1.386   1.363   5.849 -0.8504 -0.3432  0.7985
 8589SOL     OW37402   1.294   1.178  14.660 -0.3081  0.4045 -0.3180
 8589SOL    HW137403   1.326   1.124  14.588 -1.1771  1.8387 -1.7892
 8589SOL    HW237404   1.351   1.254  14.677  2.3851 -1.1610 -2.3860
 8590SOL     OW37405   4.564   1.748   5.438  0.5885  0.7532 -0.0591
 8590SOL    HW137406   4.573   1.693   5.515 -1.0933  1.9706  1.0177
 8590SOL    HW237407   4.535   1.833   5.471  1.9854  1.6894 -1.2329
 8591SOL     OW37408   0.649   3.943  14.617 -0.1164  0.1987  0.0798
 8591SOL    HW137409   0.603   3.919  14.537  2.9252  2.5083 -2.3784
 8591SOL    HW237410   0.685   4.030  14.597 -0.8465  0.5567  0.3264
 8592SOL     OW37411   0.509   0.962   3.340  0.3329 -0.3314  0.2920
 8592SOL    HW137412   0.463   0.895   3.289 -0.6617  0.6827 -0.1377
 8592SOL    HW237413   0.543   0.905   3.409 -0.3101  0.5446  1.3414
 8593SOL     OW37414   0.391   2.954  14.783 -0.0657  0.1465  0.1989
 8593SOL    HW137415   0.382   2.905  14.865 -0.1133 -0.2960 -0.0733
 8593SOL    HW237416   0.305   2.939  14.743  2.3897  0.5370 -5.0951
 8594SOL     OW37417   1.842   0.538   7.057 -0.4998  0.2998  0.0044
 8594SOL    HW137418   1.863   0.528   7.149  1.8156  1.5606 -0.3934
 8594SOL    HW237419   1.775   0.470   7.052 -0.7881  0.7132 -2.0532
 8595SOL     OW37420   1.025   3.601   7.657 -0.9298 -0.4227 -0.5986
 8595SOL    HW137421   0.936   3.632   7.644 -1.8454 -2.4048  0.9600
 8595SOL    HW237422   1.066   3.644   7.582 -0.2491  0.2219  0.1375
 8596SOL     OW37423   1.835   0.596   9.554 -0.2774 -0.1418 -0.4489
 8596SOL    HW137424   1.847   0.675   9.607  1.0833  0.0234 -1.0021
 8596SOL    HW237425   1.811   0.535   9.623 -3.4021  0.4200 -1.0612
 8597SOL     OW37426   2.191   3.245   3.172 -0.1066  0.0076 -0.4269
 8597SOL    HW137427   2.127   3.255   3.242 -0.7433 -2.1219 -0.7001
 8597SOL    HW237428   2.150   3.169   3.130  0.2141 -0.2255 -0.3280
 8598SOL     OW37429   2.866   0.198   9.727 -0.3271 -0.0246 -0.0015
 8598SOL    HW137430   2.803   0.131   9.752 -1.0852  0.6911 -0.0028
 8598SOL    HW237431   2.939   0.162   9.777 -2.9359 -3.2164  1.5028
 8599SOL     OW37432   4.156   3.124   7.329  0.0810  0.1423 -0.5170
 8599SOL    HW137433   4.089   3.076   7.281  0.3214  0.4477 -1.1618
 8599SOL    HW237434   4.227   3.059   7.334  1.0723  1.2700  0.1241
 8600SOL     OW37435   2.028   3.579   9.673 -0.4573  0.1880  0.1947
 8600SOL    HW137436   2.115   3.567   9.637 -0.8136  1.5709 -1.1370
 8600SOL    HW237437   1.995   3.658   9.629  3.5103  2.1194  0.7305
 8601SOL     OW37438   3.716   1.582   1.139  0.2361  0.0215  0.0835
 8601SOL    HW137439   3.705   1.487   1.134 -1.1678  0.0287  2.7920
 8601SOL    HW237440   3.625   1.604   1.116  0.1287 -0.8209 -0.2737
 8602SOL     OW37441   3.054   0.538   9.755  0.4327 -0.0830  0.6864
 8602SOL    HW137442   2.965   0.501   9.749 -0.2063  1.5045  0.5127
 8602SOL    HW237443   3.067   0.537   9.850 -0.0664 -0.8119  0.7464
 8603SOL     OW37444   2.143   3.195   1.388  0.6287 -0.3705  0.0619
 8603SOL    HW137445   2.122   3.123   1.448  1.6895 -0.9325 -0.2413
 8603SOL    HW237446   2.207   3.164   1.324 -1.9223 -0.0115 -2.6689
 8604SOL     OW37447   1.591   3.594   4.499 -1.0042 -0.0386 -0.0479
 8604SOL    HW137448   1.682   3.604   4.528 -0.2197 -0.4252 -2.3024
 8604SOL    HW237449   1.609   3.534   4.426 -1.6302 -0.8260  0.4547
 8605SOL     OW37450   3.575   1.752   4.477 -0.0389 -0.8027 -0.2608
 8605SOL    HW137451   3.509   1.779   4.414  1.0940  1.0159 -0.6833
 8605SOL    HW237452   3.655   1.775   4.430 -1.3900 -2.1089 -3.1679
 8606SOL     OW37453   3.305   2.817   8.713 -0.1493 -0.6501 -0.3971
 8606SOL    HW137454   3.350   2.808   8.629  1.1291 -0.7634  0.3126
 8606SOL    HW237455   3.298   2.912   8.729 -0.1414 -1.1176  2.2913
 8607SOL     OW37456   3.722   0.893   0.245  0.5499  0.1472  0.2018
 8607SOL    HW137457   3.665   0.965   0.270  1.2905  0.2489  1.6166
 8607SOL    HW237458   3.799   0.947   0.263 -0.5501  1.5345  0.6931
 8608SOL     OW37459   1.030   3.825  11.465 -0.3959 -0.0195 -0.2982
 8608SOL    HW137460   1.010   3.887  11.535  3.3207  1.1461 -0.2813
 8608SOL    HW237461   1.121   3.844  11.445  0.0642 -0.8226  1.0726
 8609SOL     OW37462   2.408   1.980   6.474  0.0759 -0.0598  0.1394
 8609SOL    HW137463   2.405   2.025   6.389 -2.2868  0.9445  0.7686
 8609SOL    HW237464   2.333   2.023   6.515  1.3335  2.3498 -0.1163
 8610SOL     OW37465   2.082   3.548  12.234  0.0998  0.2222  0.1291
 8610SOL    HW137466   2.144   3.515  12.169 -1.1397  0.5902 -1.2265
 8610SOL    HW237467   2.142   3.609  12.277  0.4539  1.4691 -2.1595
 8611SOL     OW37468   0.635   0.418   7.256 -0.1313  0.2765 -0.4006
 8611SOL    HW137469   0.688   0.494   7.231 -0.1554  0.2031 -0.6760
 8611SOL    HW237470   0.616   0.386   7.168  0.0031 -2.3550  0.5404
 8612SOL     OW37471   4.360   1.933   1.933  1.0565  0.0320 -0.1442
 8612SOL    HW137472   4.311   2.012   1.956  1.8159  0.4569  0.0315
 8612SOL    HW237473   4.421   1.936   2.007 -0.0145  0.8959  0.7152
 8613SOL     OW37474   1.522   1.188  10.574  0.0979 -0.1539  0.3848
 8613SOL    HW137475   1.585   1.200  10.645 -0.8403  1.8644  0.8767
 8613SOL    HW237476   1.440   1.167  10.619 -0.1720  3.7017  1.6927
 8614SOL     OW37477   4.127   3.079   2.500 -0.2109 -0.6737 -0.8272
 8614SOL    HW137478   4.100   2.992   2.469  0.5519 -1.7131  1.4005
 8614SOL    HW237479   4.219   3.084   2.475 -0.6261  1.9215 -1.7646
 8615SOL     OW37480   4.261   4.125   5.775 -0.0833  0.5631  0.3450
 8615SOL    HW137481   4.261   4.219   5.795  1.3504  0.6911 -0.2062
 8615SOL    HW237482   4.327   4.119   5.705 -1.0882  0.0407 -0.5499
 8616SOL     OW37483   2.722   0.190  14.725  0.5060 -0.0807 -0.9274
 8616SOL    HW137484   2.663   0.218  14.656 -0.8943 -2.3335 -0.6485
 8616SOL    HW237485   2.728   0.266  14.783 -0.9872 -0.3159 -0.4506
 8617SOL     OW37486   1.320   3.835  16.718  0.1139  0.0065  0.5033
 8617SOL    HW137487   1.338   3.763  16.658  0.6811 -0.3149  1.0637
 8617SOL    HW237488   1.248   3.795  16.767 -0.4010 -0.7267 -0.8467
 8618SOL     OW37489   3.142   3.157   7.473  0.3342  0.2392  0.0102
 8618SOL    HW137490   3.231   3.122   7.484 -0.4121 -1.4674  0.6995
 8618SOL    HW237491   3.096   3.126   7.551  2.1489 -0.8725  0.6527
 8619SOL     OW37492   4.443   2.178   1.672 -0.4232 -0.0959 -0.2934
 8619SOL    HW137493   4.399   2.229   1.740 -0.8961 -0.6586 -0.1710
 8619SOL    HW237494   4.508   2.131   1.726  0.3106  0.1942 -0.9234
 8620SOL     OW37495   2.985   0.516   2.191  1.2344 -0.2681  0.2438
 8620SOL    HW137496   2.914   0.581   2.187 -0.4090 -2.0003  1.5751
 8620SOL    HW237497   2.943   0.459   2.254  0.5492  0.2295  0.2321
 8621SOL     OW37498   4.699   3.183   6.429  0.1308  0.2225  0.3366
 8621SOL    HW137499   0.001   3.141   6.351 -0.6124  0.5841 -0.1949
 8621SOL    HW237500   4.727   3.124   6.499  0.1828 -0.0059  0.1227
 8622SOL     OW37501   2.121   0.095   7.759  0.6628  0.2852  0.3671
 8622SOL    HW137502   2.180   0.108   7.832  1.1141  0.3549 -0.0104
 8622SOL    HW237503   2.091   0.186   7.755 -2.2464 -0.8132 -3.2939
 8623SOL     OW37504   2.695   1.107  13.113 -0.1402  0.1024 -0.2919
 8623SOL    HW137505   2.758   1.053  13.162  1.1036  1.5968 -0.2495
 8623SOL    HW237506   2.713   1.194  13.148 -2.1544 -0.5189  2.2896
 8624SOL     OW37507   2.699   1.083   6.477 -0.5280 -0.5890 -0.1612
 8624SOL    HW137508   2.747   1.069   6.395  0.0930 -1.3512  0.3456
 8624SOL    HW237509   2.698   1.179   6.484 -0.8232 -0.5120 -1.1807
 8625SOL     OW37510   3.113   3.840   6.586 -0.4548 -0.2359  0.3625
 8625SOL    HW137511   3.115   3.896   6.509 -1.3394 -0.6875  0.0151
 8625SOL    HW237512   3.205   3.826   6.605 -0.4247 -0.8348 -0.2481
 8626SOL     OW37513   0.492   2.583   2.420 -0.6563 -0.1868  0.0263
 8626SOL    HW137514   0.536   2.500   2.406  0.8061  0.6627 -0.4562
 8626SOL    HW237515   0.539   2.616   2.497 -1.0041  2.2544 -0.7861
 8627SOL     OW37516   0.367   3.063   3.406  0.4704 -0.2669 -0.2835
 8627SOL    HW137517   0.329   3.019   3.330 -0.2917 -0.5006  0.2311
 8627SOL    HW237518   0.335   3.149   3.378 -0.7531 -0.6964 -0.2032
 8628SOL     OW37519   3.724   1.881  10.060  0.4556  0.0950  0.0729
 8628SOL    HW137520   3.753   1.935  10.134  0.9830  0.7144 -0.5889
 8628SOL    HW237521   3.767   1.796  10.072 -1.8975 -0.7514  2.6469
 8629SOL     OW37522   1.368   0.554   9.185  0.7336  0.2088  0.0788
 8629SOL    HW137523   1.432   0.624   9.168  0.3126  0.4940 -0.3289
 8629SOL    HW237524   1.295   0.594   9.231  0.5833 -1.5015  1.3447
 8630SOL     OW37525   0.219   0.031   5.318  0.5388  0.1984 -0.5137
 8630SOL    HW137526   0.259   4.695   5.370  2.5046  0.8012 -1.2062
 8630SOL    HW237527   0.285   0.099   5.327 -0.0351  0.3085  2.7558
 8631SOL     OW37528   3.626   0.977   2.101  0.6952  0.3977 -0.0591
 8631SOL    HW137529   3.645   0.943   2.188 -2.6550  0.2153  0.5799
 8631SOL    HW237530   3.676   0.911   2.053  0.2740  0.4645 -0.5853
 8632SOL     OW37531   2.785   3.943   3.408  0.4389  0.2191 -0.4959
 8632SOL    HW137532   2.832   3.933   3.491  0.8639 -1.2237 -0.9147
 8632SOL    HW237533   2.851   3.902   3.353  0.9262  1.5708 -0.9215
 8633SOL     OW37534   1.307   2.723   2.989  0.3629  0.3547 -0.4195
 8633SOL    HW137535   1.299   2.636   2.949 -0.3289  0.0929  0.2876
 8633SOL    HW237536   1.275   2.709   3.078 -0.8998 -2.3174 -1.3007
 8634SOL     OW37537   3.369   2.396   1.280  0.0257  0.1154  0.2899
 8634SOL    HW137538   3.386   2.399   1.186  1.5214 -2.3607  0.4800
 8634SOL    HW237539   3.426   2.322   1.298 -0.2242 -0.5295 -1.6010
 8635SOL     OW37540   1.888   4.363   2.261  0.0119  0.0754  0.2261
 8635SOL    HW137541   1.882   4.458   2.250  0.9880  0.1461  0.3517
 8635SOL    HW237542   1.816   4.328   2.209  0.1955  0.0778 -0.0300
 8636SOL     OW37543   3.547   1.455  14.538 -0.3026 -0.2449 -0.0072
 8636SOL    HW137544   3.484   1.465  14.609 -2.1378  0.9029 -1.8019
 8636SOL    HW237545   3.568   1.547  14.525  2.5598 -0.6893  1.5972
 8637SOL     OW37546   1.249   0.835   9.637  0.6297  0.0642  0.6320
 8637SOL    HW137547   1.171   0.869   9.680 -0.2445 -0.2351 -0.6990
 8637SOL    HW237548   1.255   0.891   9.559 -1.5808 -0.3864  0.1239
 8638SOL     OW37549   4.333   0.065   2.102 -0.3462  0.0322 -0.8582
 8638SOL    HW137550   4.306   0.053   2.011  0.9464  2.7934 -1.6117
 8638SOL    HW237551   4.253   0.099   2.141  0.3172  1.8301 -1.0634
 8639SOL     OW37552   4.249   3.010   6.519  0.1992  0.2550 -0.1502
 8639SOL    HW137553   4.248   2.925   6.476  1.6209 -0.1503  0.6248
 8639SOL    HW237554   4.156   3.031   6.519  0.1561  0.0696  0.4746
 8640SOL     OW37555   0.034   1.513  17.201 -0.5993  0.3550 -0.2405
 8640SOL    HW137556   0.093   1.446  17.166  0.8424  0.4711  1.9513
 8640SOL    HW237557   0.086   1.547  17.275 -1.1459  3.0238 -1.0937
 8641SOL     OW37558   3.423   2.709   1.498 -0.3880  0.1216 -0.2488
 8641SOL    HW137559   3.373   2.757   1.433 -1.1764 -2.3959 -1.4966
 8641SOL    HW237560   3.351   2.664   1.542 -1.1544  0.4723 -1.1617
 8642SOL     OW37561   2.172   1.412   6.478  0.5714 -0.3583  0.3432
 8642SOL    HW137562   2.172   1.318   6.496  0.7618 -0.3215  0.5402
 8642SOL    HW237563   2.082   1.437   6.458  0.1334 -1.7225  0.5869
 8643SOL     OW37564   1.651   2.501  14.226  0.6386 -0.2341  0.3984
 8643SOL    HW137565   1.645   2.407  14.216  1.1226 -0.1467 -0.6443
 8643SOL    HW237566   1.709   2.517  14.152 -1.6953 -3.3749 -2.0726
 8644SOL     OW37567   1.686   4.456   5.689  0.1635 -0.3805 -0.1317
 8644SOL    HW137568   1.736   4.393   5.638  2.0494  1.3034 -0.3423
 8644SOL    HW237569   1.664   4.408   5.769 -0.0111  0.6809  0.4591
 8645SOL     OW37570   2.256   2.212   4.011  0.0029  0.0412  0.0254
 8645SOL    HW137571   2.284   2.162   3.934 -2.9563 -0.1756 -0.8853
 8645SOL    HW237572   2.274   2.149   4.080 -1.1188 -0.5967 -0.2793
 8646SOL     OW37573   4.260   4.002   3.149  0.2205 -0.5648  0.1364
 8646SOL    HW137574   4.347   4.039   3.138 -0.0207 -0.2822 -0.8663
 8646SOL    HW237575   4.273   3.917   3.191  0.6551  0.1733  1.4692
 8647SOL     OW37576   0.846   0.855  11.993  0.0146  0.0582 -0.1630
 8647SOL    HW137577   0.891   0.919  12.049 -1.6044  0.1358  1.0617
 8647SOL    HW237578   0.814   0.911  11.923  2.1349  0.1120 -1.0785
 8648SOL     OW37579   3.935   2.401   3.580  0.4696 -0.1042  0.0354
 8648SOL    HW137580   3.968   2.487   3.604 -1.8461  0.7005  0.3984
 8648SOL    HW237581   3.892   2.374   3.661  0.1235 -0.9522 -0.4219
 8649SOL     OW37582   4.314   2.116  15.424 -0.7486 -0.1916  0.1555
 8649SOL    HW137583   4.295   2.058  15.497  1.4853  0.8787  1.5861
 8649SOL    HW237584   4.351   2.047  15.369 -1.3538  0.4256 -1.0305
 8650SOL     OW37585   3.715   2.307   8.890 -0.0441  0.2588 -0.2202
 8650SOL    HW137586   3.723   2.398   8.863  2.1199  0.5373  1.2719
 8650SOL    HW237587   3.783   2.263   8.840 -1.9415 -3.3159  0.3689
 8651SOL     OW37588   2.905   3.753  15.936 -0.8529  0.0076 -0.0394
 8651SOL    HW137589   2.967   3.760  16.008  0.1692 -0.8641 -0.8256
 8651SOL    HW237590   2.840   3.819  15.960  1.2375  1.6178  1.1133
 8652SOL     OW37591   3.442   3.575   8.449 -0.1444  0.0217 -0.2371
 8652SOL    HW137592   3.427   3.638   8.520  0.4159  1.0498 -1.0147
 8652SOL    HW237593   3.440   3.492   8.495  0.2601  0.5298  0.7057
 8653SOL     OW37594   0.310   4.097  14.631 -0.7257  0.6063 -0.1993
 8653SOL    HW137595   0.394   4.142  14.618 -0.1405 -0.4363 -0.0303
 8653SOL    HW237596   0.334   4.058  14.715 -1.7767 -0.9275 -0.5907
 8654SOL     OW37597   0.134   1.467   6.299 -0.6593 -0.1248 -0.2528
 8654SOL    HW137598   0.162   1.546   6.344 -0.0431 -1.4503  1.6823
 8654SOL    HW237599   0.127   1.408   6.374  0.3651  1.5096  1.1347
 8655SOL     OW37600   2.332   2.009   3.515 -0.4865  0.3358  0.3934
 8655SOL    HW137601   2.306   1.917   3.513  0.7398 -0.0355  1.9971
 8655SOL    HW237602   2.347   2.029   3.422 -1.8622 -1.0722 -0.1339
 8656SOL     OW37603   4.170   0.012  13.806  0.2383  0.1740 -0.4205
 8656SOL    HW137604   4.130   4.694  13.736 -0.6629  0.2097  0.0783
 8656SOL    HW237605   4.153   4.693  13.883 -1.7947 -0.0775 -1.0459
 8657SOL     OW37606   4.261   4.333   0.909  0.1489 -0.4971 -0.2339
 8657SOL    HW137607   4.224   4.254   0.949 -0.0298 -0.6268 -0.6473
 8657SOL    HW237608   4.268   4.298   0.820  1.1943  0.6495 -0.5915
 8658SOL     OW37609   3.121   4.228  15.191  0.0089  0.3989  0.1978
 8658SOL    HW137610   3.131   4.213  15.097 -3.0295 -1.0014  0.0832
 8658SOL    HW237611   3.179   4.161  15.228  1.5412  2.1537  0.9672
 8659SOL     OW37612   4.124   0.549  10.006  0.3519 -0.2574 -0.6743
 8659SOL    HW137613   4.143   0.624  10.063 -0.7417 -0.9896  0.6640
 8659SOL    HW237614   4.186   0.491  10.050 -1.0111 -1.3062 -0.1222
 8660SOL     OW37615   2.446   4.358   6.063  0.1656  0.0928  0.3715
 8660SOL    HW137616   2.531   4.372   6.021  1.6558 -1.9941  2.6589
 8660SOL    HW237617   2.395   4.321   5.991  2.0379  1.4036 -1.6230
 8661SOL     OW37618   4.545   3.382   5.198 -0.1151 -0.0924 -0.1977
 8661SOL    HW137619   4.457   3.390   5.234  0.3315  1.4320  0.5366
 8661SOL    HW237620   4.573   3.294   5.224  3.5203  0.8589 -0.8257
 8662SOL     OW37621   2.889   4.656   2.401  0.2480  0.7243  0.0924
 8662SOL    HW137622   2.940   4.711   2.461  0.4505  1.9864 -1.2435
 8662SOL    HW237623   2.836   4.617   2.470 -4.8586  1.9808 -3.1036
 8663SOL     OW37624   0.631   2.528  12.654  0.1067 -0.2030 -0.1159
 8663SOL    HW137625   0.652   2.601  12.712 -0.0742  0.2978 -0.6889
 8663SOL    HW237626   0.657   2.567  12.571 -4.6515  0.4245 -1.3199
 8664SOL     OW37627   3.784   3.543   2.796  0.0832  0.2059 -0.1286
 8664SOL    HW137628   3.863   3.580   2.757  0.0343  0.8596  0.3928
 8664SOL    HW237629   3.810   3.455   2.823  0.7505  0.5359  0.3022
 8665SOL     OW37630   0.302   1.988   0.871  0.4398  0.3071 -0.5976
 8665SOL    HW137631   0.330   2.068   0.827 -5.4569  1.8035 -1.6364
 8665SOL    HW237632   0.287   2.035   0.953 -0.6095 -3.4666  1.3675
 8666SOL     OW37633   3.066   2.231  14.972 -0.1412 -0.1610 -0.2015
 8666SOL    HW137634   3.054   2.314  15.019  1.5035 -0.4297  0.6949
 8666SOL    HW237635   3.021   2.242  14.889 -0.3618 -2.3842 -0.3803
 8667SOL     OW37636   2.043   1.208  16.789 -0.0488  0.4125  0.0558
 8667SOL    HW137637   2.039   1.207  16.693  2.5832 -0.4763 -0.0538
 8667SOL    HW237638   2.135   1.231  16.800 -0.2811  0.7059  1.3127
 8668SOL     OW37639   1.046   1.199   5.574  0.5613  0.1940 -0.1844
 8668SOL    HW137640   1.082   1.135   5.512  1.9158  2.0829 -1.3488
 8668SOL    HW237641   0.954   1.207   5.549  0.4358 -1.6150 -0.3399
 8669SOL     OW37642   4.163   2.900   1.290 -0.4134  0.3490  0.5255
 8669SOL    HW137643   4.115   2.971   1.247  0.5464 -0.6481 -2.1804
 8669SOL    HW237644   4.145   2.837   1.221 -0.4040 -0.1594  0.9870
 8670SOL     OW37645   0.201   4.596   1.142 -0.1219  0.1929  0.3320
 8670SOL    HW137646   0.189   4.502   1.152  0.7832  0.2071  1.4588
 8670SOL    HW237647   0.222   4.617   1.232 -0.2118  2.5309 -0.1864
 8671SOL     OW37648   1.204   3.336   6.627  0.3654  0.2787 -0.3070
 8671SOL    HW137649   1.224   3.267   6.564  0.1672  1.0524 -1.2004
 8671SOL    HW237650   1.274   3.399   6.612 -0.3581  1.0140 -0.5773
 8672SOL     OW37651   2.667   0.896  16.120 -0.5781  0.4004 -0.0277
 8672SOL    HW137652   2.746   0.899  16.065 -0.2368  1.4459  0.5230
 8672SOL    HW237653   2.714   0.896  16.203 -1.6154  0.8385  0.5521
 8673SOL     OW37654   0.683   2.806   8.247  0.1772 -0.5196 -0.1221
 8673SOL    HW137655   0.615   2.738   8.244 -1.6434  1.3160 -0.4481
 8673SOL    HW237656   0.756   2.744   8.248  1.2023  0.7261  0.6243
 8674SOL     OW37657   0.949   0.645   5.509  0.0455  0.4924  0.3476
 8674SOL    HW137658   0.892   0.713   5.546  0.2058  0.6984  0.2144
 8674SOL    HW237659   0.983   0.609   5.590  0.7600 -0.5296 -0.4180
 8675SOL     OW37660   1.628   2.831   2.687 -0.0778 -0.0729  0.0965
 8675SOL    HW137661   1.700   2.772   2.666  0.5918  1.4495 -1.8897
 8675SOL    HW237662   1.619   2.810   2.780 -0.2710 -0.2778  0.0303
 8676SOL     OW37663   2.911   3.719   4.329  0.4708  0.2543 -0.3242
 8676SOL    HW137664   2.924   3.787   4.396 -0.5678  0.2023 -0.0734
 8676SOL    HW237665   2.982   3.737   4.268  0.1270 -1.8797 -1.3428
 8677SOL     OW37666   3.450   2.832   3.535  0.2857 -0.5696  0.0401
 8677SOL    HW137667   3.397   2.843   3.456  0.3098 -0.8618 -0.0163
 8677SOL    HW237668   3.408   2.761   3.583 -3.0094  0.5136 -1.2424
 8678SOL     OW37669   0.932   0.700   7.920  0.3225 -0.1828 -0.1823
 8678SOL    HW137670   1.018   0.715   7.961 -0.1899 -3.4217  2.0817
 8678SOL    HW237671   0.958   0.726   7.831 -0.7329 -0.1979 -0.4908
 8679SOL     OW37672   1.491   3.766   2.034 -0.5957 -0.2165  0.1915
 8679SOL    HW137673   1.575   3.784   1.991 -0.1338  1.9636  2.0309
 8679SOL    HW237674   1.492   3.843   2.091  0.4905  0.2847 -0.4981
 8680SOL     OW37675   4.499   4.371   6.564  0.2693 -0.0194  0.1456
 8680SOL    HW137676   4.562   4.300   6.558  1.1899  0.8279 -0.3187
 8680SOL    HW237677   4.437   4.331   6.624  1.2640  1.8766  2.4595
 8681SOL     OW37678   2.008   3.824   1.695 -0.5239  0.1494  0.4477
 8681SOL    HW137679   1.939   3.848   1.756  0.0117  2.8244  0.0325
 8681SOL    HW237680   1.990   3.730   1.696 -0.3158  0.0956 -0.6259
 8682SOL     OW37681   2.714   1.725  14.078 -0.3976  0.1314  0.4870
 8682SOL    HW137682   2.783   1.701  14.017 -0.2039  2.0944 -0.0771
 8682SOL    HW237683   2.647   1.764  14.022 -2.5583 -1.9980  1.5687
 8683SOL     OW37684   2.611   2.094   7.253 -0.3794  0.0302  0.0403
 8683SOL    HW137685   2.537   2.034   7.255  0.3378 -0.7704  2.2013
 8683SOL    HW237686   2.615   2.135   7.339 -4.2848  0.8769 -0.1671
 8684SOL     OW37687   4.682   1.820   1.469  0.2401  0.1938  0.2928
 8684SOL    HW137688   4.703   1.799   1.560 -0.5690 -2.7838 -0.1911
 8684SOL    HW237689   4.612   1.883   1.485 -0.6153 -0.3398 -1.2876
 8685SOL     OW37690   0.938   2.172   3.051 -0.3804 -0.0374  0.3352
 8685SOL    HW137691   0.901   2.084   3.058  2.1713 -1.1619 -0.4509
 8685SOL    HW237692   1.010   2.178   3.113  0.9447 -2.4958 -0.9724
 8686SOL     OW37693   2.017   0.263   2.598 -0.9207  0.1149 -0.4952
 8686SOL    HW137694   2.053   0.300   2.517  1.8452 -1.2217  0.1188
 8686SOL    HW237695   2.093   0.217   2.633 -0.1890  1.4347 -0.3587
 8687SOL     OW37696   0.274   1.431  16.813 -0.5198  0.0071 -0.0156
 8687SOL    HW137697   0.343   1.489  16.781  0.0676 -2.4300 -3.0793
 8687SOL    HW237698   0.207   1.421  16.746  0.2857 -1.3676 -0.5987
 8688SOL     OW37699   4.405   4.178   7.503  0.2838  0.4908 -0.4175
 8688SOL    HW137700   4.349   4.119   7.452  0.1765  1.4269 -1.3536
 8688SOL    HW237701   4.382   4.129   7.582 -3.2946  2.3626 -0.2832
 8689SOL     OW37702   0.469   1.768   6.821 -0.2514  0.0408 -0.1336
 8689SOL    HW137703   0.499   1.684   6.786 -0.9897 -0.1294 -0.3782
 8689SOL    HW237704   0.386   1.776   6.773  1.3552  1.7225 -2.6431
 8690SOL     OW37705   4.331   3.192   4.518  0.1017  0.0635  0.5943
 8690SOL    HW137706   4.236   3.195   4.501  0.4974 -0.0342 -1.6387
 8690SOL    HW237707   4.360   3.130   4.451  0.9356 -1.4704  2.4024
 8691SOL     OW37708   0.009   1.889   9.254  0.6357 -0.0016  0.7891
 8691SOL    HW137709   0.024   1.948   9.181  0.5132 -0.1362  0.6556
 8691SOL    HW237710   0.021   1.948   9.329  1.9962  0.9759 -0.1949
 8692SOL     OW37711   1.350   4.470  14.079 -0.3331 -0.7739 -0.1517
 8692SOL    HW137712   1.259   4.476  14.050 -0.8823  0.3615  1.7576
 8692SOL    HW237713   1.333   4.501  14.168 -0.7397  1.7192 -1.0944
 8693SOL     OW37714   1.697   2.337   8.192 -0.2683  0.0928  0.1547
 8693SOL    HW137715   1.721   2.379   8.109 -1.1842 -2.3658 -1.3607
 8693SOL    HW237716   1.667   2.251   8.163  0.6048  1.0290 -3.4760
 8694SOL     OW37717   3.592   1.696   6.852  0.5641  0.0863  0.1206
 8694SOL    HW137718   3.550   1.663   6.932 -0.0434 -2.4783 -1.2414
 8694SOL    HW237719   3.622   1.614   6.812 -2.7424 -1.7922  1.4407
 8695SOL     OW37720   2.550   0.816   5.481  0.1070  0.8106  0.1113
 8695SOL    HW137721   2.455   0.807   5.492  0.5872 -1.6815  2.2966
 8695SOL    HW237722   2.551   0.775   5.395 -0.4816  1.1169 -0.0448
 8696SOL     OW37723   1.442   0.036   3.614  0.9412  0.0056 -0.4139
 8696SOL    HW137724   1.389   4.690   3.622  1.8750 -0.8381 -2.7030
 8696SOL    HW237725   1.385   0.089   3.559 -0.6383 -0.4280  0.8307
 8697SOL     OW37726   2.653   0.894   4.297  0.4527 -0.3995 -0.2244
 8697SOL    HW137727   2.597   0.893   4.220  2.0377  1.7094 -1.4043
 8697SOL    HW237728   2.682   0.984   4.310 -2.2408  0.3570  0.3365
 8698SOL     OW37729   1.485   0.000  17.420 -0.2248  0.1091  0.2055
 8698SOL    HW137730   1.487   0.025  17.327 -4.3126 -0.8882 -0.1456
 8698SOL    HW237731   1.551   0.059  17.456 -2.6607  2.1594  1.3804
 8699SOL     OW37732   4.560   0.610  17.328 -0.1044  0.6206 -1.0028
 8699SOL    HW137733   4.483   0.621  17.273  1.2475  0.9971 -2.8486
 8699SOL    HW237734   4.619   0.680  17.299  0.2727 -0.3571 -2.5989
 8700SOL     OW37735   0.752   0.012   1.822 -0.7142 -0.3794  0.1636
 8700SOL    HW137736   0.696   0.014   1.900  0.7907  1.0040  1.2056
 8700SOL    HW237737   0.709   4.669   1.783  1.2786 -0.4050 -1.9953
 8701SOL     OW37738   1.948   0.777   6.932 -0.9659 -0.0098  0.3760
 8701SOL    HW137739   1.901   0.762   6.850 -1.8103 -0.3824  0.9301
 8701SOL    HW237740   1.897   0.721   6.990  0.4979 -3.7746 -1.9493
 8702SOL     OW37741   4.679   2.444   7.820  0.3882  0.1888  0.3197
 8702SOL    HW137742   0.037   2.455   7.793  0.2879 -2.9961 -1.3466
 8702SOL    HW237743   4.670   2.500   7.897 -2.2847 -0.8783  0.7524
 8703SOL     OW37744   0.482   1.405   2.599  0.7850  0.2017  0.0375
 8703SOL    HW137745   0.501   1.481   2.655 -3.8056  0.7054  0.8965
 8703SOL    HW237746   0.537   1.429   2.525  0.0074 -0.2593 -0.6813
 8704SOL     OW37747   3.118   1.284   5.941 -0.4809  0.4616 -0.3151
 8704SOL    HW137748   3.138   1.301   6.034 -4.2317 -3.0269  1.1178
 8704SOL    HW237749   3.163   1.200   5.929 -1.1120  0.1169 -0.2572
 8705SOL     OW37750   3.337   4.140   7.377  0.4483 -0.0442  0.6152
 8705SOL    HW137751   3.376   4.200   7.441  2.0978 -1.0531  0.5451
 8705SOL    HW237752   3.300   4.199   7.312 -1.4369 -0.6620  1.1017
 8706SOL     OW37753   2.253   3.434   6.723 -0.2278  0.0260  0.3476
 8706SOL    HW137754   2.284   3.346   6.742 -1.6797 -0.4647  0.4263
 8706SOL    HW237755   2.159   3.423   6.705 -0.0676  1.2684 -1.2247
 8707SOL     OW37756   1.111   2.817  12.305  0.6276  0.7169 -0.2701
 8707SOL    HW137757   1.066   2.897  12.276 -0.5760  0.5557  1.1878
 8707SOL    HW237758   1.039   2.756  12.319 -0.1398  1.3320 -1.5283
 8708SOL     OW37759   4.421   1.860   5.924 -0.2108 -0.2376 -0.0833
 8708SOL    HW137760   4.381   1.803   5.858  1.9014  1.3298 -2.7219
 8708SOL    HW237761   4.508   1.821   5.922 -1.6561 -3.4657  0.0393
 8709SOL     OW37762   3.743   2.266   7.044 -0.0153  0.3505 -0.3677
 8709SOL    HW137763   3.751   2.179   7.006 -2.0313 -0.1294  0.3019
 8709SOL    HW237764   3.683   2.312   6.985 -2.0812 -0.1031  1.3914
 8710SOL     OW37765   4.097   1.219  10.657 -0.3784  0.8764  0.1903
 8710SOL    HW137766   4.134   1.161  10.591 -0.1015  0.8006  0.4119
 8710SOL    HW237767   4.152   1.295  10.677  0.7402  0.1246 -0.0621
 8711SOL     OW37768   2.243   4.231   4.920  0.1090  0.3962 -0.2944
 8711SOL    HW137769   2.333   4.250   4.946  0.3474  0.3348 -1.0916
 8711SOL    HW237770   2.261   4.167   4.852  2.9788 -0.2316  1.0480
 8712SOL     OW37771   3.362   2.906   5.063  0.2904 -0.3100  0.3747
 8712SOL    HW137772   3.384   2.999   5.074  0.1186 -0.3344  0.9188
 8712SOL    HW237773   3.445   2.866   5.035  1.3898  2.4468 -0.3637
 8713SOL     OW37774   2.252   2.303  15.253  0.1204 -0.2380 -1.0816
 8713SOL    HW137775   2.278   2.365  15.184  3.0861 -0.7198 -0.3732
 8713SOL    HW237776   2.319   2.234  15.245  1.3581  1.0568 -1.8746
 8714SOL     OW37777   2.827   4.513   7.983 -0.1932  0.2550 -0.1074
 8714SOL    HW137778   2.818   4.606   8.003 -0.0429  0.1703  0.3571
 8714SOL    HW237779   2.889   4.513   7.909  0.2117 -1.0116  0.2359
 8715SOL     OW37780   0.354   0.559  15.425  0.0320  0.2923 -0.2291
 8715SOL    HW137781   0.401   0.607  15.357 -0.6379 -0.0068 -0.8908
 8715SOL    HW237782   0.337   0.479  15.376 -0.3744  1.1725 -1.4990
 8716SOL     OW37783   2.751   4.384  13.630  0.4292  0.7108 -0.3745
 8716SOL    HW137784   2.672   4.436  13.645  0.4527  0.6717 -0.1248
 8716SOL    HW237785   2.783   4.385  13.720 -1.3626  1.6679  0.2500
 8717SOL     OW37786   4.528   3.674  14.472  0.4390 -0.0617  0.1652
 8717SOL    HW137787   4.581   3.739  14.426 -1.4907  1.1900 -0.3119
 8717SOL    HW237788   4.508   3.607  14.406 -0.7840  1.0555 -0.6184
 8718SOL     OW37789   2.733   0.452  14.833  0.5744 -0.7175 -0.8215
 8718SOL    HW137790   2.673   0.466  14.760 -0.6579  0.7663  0.4762
 8718SOL    HW237791   2.807   0.510  14.814 -0.9955  2.0311  1.3683
 8719SOL     OW37792   1.713   4.614   6.081 -0.4421 -0.1228 -0.4114
 8719SOL    HW137793   1.793   4.564   6.096  1.3951  2.2578 -2.1847
 8719SOL    HW237794   1.677   4.562   6.010  0.7725 -1.1262 -0.2991
 8720SOL     OW37795   2.555   0.217   3.663 -0.3710  0.0821  0.5870
 8720SOL    HW137796   2.573   0.211   3.757 -0.8704 -2.3775  0.5150
 8720SOL    HW237797   2.567   0.127   3.635  0.5528  0.1723  0.6983
 8721SOL     OW37798   2.889   3.281   4.630 -0.0397 -0.0860 -0.2659
 8721SOL    HW137799   2.872   3.323   4.546 -0.3517  0.2817 -0.0236
 8721SOL    HW237800   2.901   3.360   4.683 -1.4610  1.7047 -2.6193
 8722SOL     OW37801   2.037   3.183   1.821 -0.1698 -0.0837  0.1377
 8722SOL    HW137802   2.036   3.117   1.891  1.8542  1.4067  1.5535
 8722SOL    HW237803   1.980   3.143   1.756  1.1062  0.9922 -1.6397
 8723SOL     OW37804   3.901   4.391  12.270 -0.1220  0.4448  0.1876
 8723SOL    HW137805   3.809   4.394  12.297  0.0814  1.5947  0.7596
 8723SOL    HW237806   3.898   4.330  12.197  2.0076  0.3310  0.1928
 8724SOL     OW37807   0.362   1.005   8.733  0.2934  0.2138 -0.5265
 8724SOL    HW137808   0.428   0.968   8.674  1.7362  0.8883  0.6333
 8724SOL    HW237809   0.280   0.972   8.697 -0.6753  2.2221 -0.1191
 8725SOL     OW37810   1.683   3.877   6.598  0.5666 -0.7408 -0.4507
 8725SOL    HW137811   1.605   3.929   6.618  0.7553 -1.3965  2.0321
 8725SOL    HW237812   1.746   3.937   6.639 -1.0071 -0.2241  1.2369
 8726SOL     OW37813   0.249   3.045   4.580  0.1007 -0.0892  0.1625
 8726SOL    HW137814   0.274   3.059   4.672  3.1140  2.1607 -0.9928
 8726SOL    HW237815   0.296   2.971   4.543 -0.1973 -0.2920  0.1911
 8727SOL     OW37816   3.094   2.364  13.687 -0.3758  0.5122 -0.0760
 8727SOL    HW137817   3.142   2.398  13.762 -0.3813 -1.3205  0.7704
 8727SOL    HW237818   3.094   2.274  13.721  0.4091  0.4591 -0.2345
 8728SOL     OW37819   0.975   4.303   5.949  0.5930  0.2527  0.1427
 8728SOL    HW137820   0.914   4.290   6.022  2.0186 -2.1854  0.9264
 8728SOL    HW237821   1.050   4.250   5.977 -0.7562 -1.0838  1.2343
 8729SOL     OW37822   3.143   2.260  14.431  0.0173 -0.0580 -0.2008
 8729SOL    HW137823   3.137   2.212  14.349 -0.3520  1.8558 -1.2849
 8729SOL    HW237824   3.184   2.200  14.495 -1.2654  0.9211  1.5458
 8730SOL     OW37825   1.206   4.644   9.622 -0.1872  0.2697  0.7279
 8730SOL    HW137826   1.226   0.001   9.646  1.5864  0.5381 -1.7434
 8730SOL    HW237827   1.121   4.665   9.583  0.7094  3.6466  0.5505
 8731SOL     OW37828   0.535   1.210   2.190 -0.1038 -0.1122  0.0187
 8731SOL    HW137829   0.552   1.287   2.243 -0.3614 -0.1399  0.1423
 8731SOL    HW237830   0.627   1.184   2.184  0.4211  1.5831  0.8322
 8732SOL     OW37831   0.959   2.606   4.048 -0.2261 -0.0927  0.1987
 8732SOL    HW137832   0.969   2.560   3.965 -1.0808 -0.2580  0.1819
 8732SOL    HW237833   0.915   2.543   4.107  0.3355 -0.3976  0.2901
 8733SOL     OW37834   1.888   3.004   0.172  0.0533 -0.7303  0.0573
 8733SOL    HW137835   1.943   2.929   0.146 -0.2405 -1.0872  0.4626
 8733SOL    HW237836   1.892   3.004   0.268  1.2508 -0.5522  0.0143
 8734SOL     OW37837   3.483   1.880  15.029 -0.3576  0.7907  0.1707
 8734SOL    HW137838   3.529   1.840  14.955 -1.2182  0.4174 -0.1630
 8734SOL    HW237839   3.545   1.888  15.101 -1.5732 -0.5024  1.3737
 8735SOL     OW37840   3.093   1.874   4.178  0.9390  0.3832  0.0607
 8735SOL    HW137841   3.143   1.807   4.225 -0.7793 -0.7544  0.2722
 8735SOL    HW237842   3.102   1.848   4.086 -1.5080  1.2959 -0.4322
 8736SOL     OW37843   0.668   1.671   7.808  0.0695  0.2066  0.7624
 8736SOL    HW137844   0.649   1.685   7.900 -0.4607  0.4001  0.6227
 8736SOL    HW237845   0.583   1.662   7.766 -0.1783 -1.1879  1.5695
 8737SOL     OW37846   0.664   0.206   8.643  0.5554  0.2948 -0.2262
 8737SOL    HW137847   0.731   0.168   8.700 -0.2659 -0.7369  0.0491
 8737SOL    HW237848   0.590   0.217   8.704  1.6418 -1.6574  1.4507
 8738SOL     OW37849   2.391   4.281   5.594 -0.1977 -0.3305  0.2725
 8738SOL    HW137850   2.421   4.265   5.504  2.1831 -1.7583  1.3102
 8738SOL    HW237851   2.366   4.373   5.594 -1.9971 -0.8120  0.4114
 8739SOL     OW37852   1.874   4.065   7.462  0.3818 -0.7000 -0.5210
 8739SOL    HW137853   1.867   4.160   7.464 -1.9205 -0.8769 -0.0151
 8739SOL    HW237854   1.815   4.039   7.533  1.7906 -1.6574  0.2972
 8740SOL     OW37855   4.414   2.123   5.318 -0.2146 -0.9322  0.0256
 8740SOL    HW137856   4.485   2.161   5.266 -0.2421 -0.1433  0.5685
 8740SOL    HW237857   4.419   2.035   5.282  0.8591 -1.0193  0.3615
 8741SOL     OW37858   1.233   2.657  15.040  0.4185 -0.3831 -0.1201
 8741SOL    HW137859   1.149   2.692  15.010  0.2446 -0.7451 -0.0433
 8741SOL    HW237860   1.264   2.718  15.107 -1.9088 -0.0605  0.6611
 8742SOL     OW37861   0.307   0.845   5.313  0.2420  0.1260  0.0050
 8742SOL    HW137862   0.273   0.881   5.231 -1.0015  2.0146  1.3353
 8742SOL    HW237863   0.240   0.786   5.348 -0.1896 -0.3808 -1.6811
 8743SOL     OW37864   3.097   4.656   8.709 -0.4305 -0.1907  0.1268
 8743SOL    HW137865   3.004   4.675   8.697 -0.0482  1.8559  0.4778
 8743SOL    HW237866   3.105   4.600   8.632 -1.9024  1.1019 -0.9579
 8744SOL     OW37867   2.290   3.420   9.387  0.1191  0.0116 -0.1919
 8744SOL    HW137868   2.305   3.469   9.468  1.3335 -1.3788  0.4250
 8744SOL    HW237869   2.317   3.479   9.317 -1.4854  1.1240  0.1410
 8745SOL     OW37870   1.065   3.249  12.727  1.0302 -0.1800 -0.8230
 8745SOL    HW137871   1.008   3.208  12.662 -1.1453 -0.0268  0.9536
 8745SOL    HW237872   1.147   3.204  12.710  0.9126 -0.6385 -0.1987
 8746SOL     OW37873   4.121   3.494  16.268 -0.5009 -0.5477  0.5445
 8746SOL    HW137874   4.035   3.537  16.273 -0.3884 -0.1336 -0.9277
 8746SOL    HW237875   4.114   3.446  16.185 -1.5642  1.6628 -0.6437
 8747SOL     OW37876   4.621   1.873   2.376 -0.0224  0.0452 -0.0689
 8747SOL    HW137877   4.642   1.819   2.300 -1.7618  0.3350 -0.7677
 8747SOL    HW237878   4.590   1.820   2.450  0.5514 -1.5636 -0.9866
 8748SOL     OW37879   1.902   0.033  14.940  0.5917 -0.4474 -0.4516
 8748SOL    HW137880   1.986   0.024  14.984  0.0307 -2.3269  0.2318
 8748SOL    HW237881   1.868   4.677  14.934  1.2472 -0.7257  0.0787
 8749SOL     OW37882   1.623   0.741   1.416  0.7318 -0.2957  0.5061
 8749SOL    HW137883   1.697   0.786   1.375 -1.5908  2.4740 -0.5996
 8749SOL    HW237884   1.562   0.755   1.344  0.6376 -3.0728  0.0321
 8750SOL     OW37885   3.505   4.114   2.468  0.6060  0.1245 -0.2525
 8750SOL    HW137886   3.479   4.195   2.423  2.2395 -0.0447 -1.5155
 8750SOL    HW237887   3.438   4.052   2.440 -0.2367  0.5234  0.8821
 8751SOL     OW37888   3.615   0.211   5.952 -0.4327  0.8554  0.0923
 8751SOL    HW137889   3.552   0.150   5.913  1.8512 -0.8965 -0.8448
 8751SOL    HW237890   3.668   0.244   5.879 -0.6968 -0.4957 -0.7187
 8752SOL     OW37891   4.368   1.038   3.558 -0.6699  0.2630 -0.4223
 8752SOL    HW137892   4.312   0.968   3.590 -0.1848 -0.0866 -0.3434
 8752SOL    HW237893   4.335   1.055   3.469 -1.3841  0.5006 -0.1110
 8753SOL     OW37894   1.750   2.546   2.717 -0.6270 -0.1123  0.1219
 8753SOL    HW137895   1.714   2.504   2.795 -1.4714  0.4622  0.0470
 8753SOL    HW237896   1.696   2.504   2.650  1.0512 -0.5297 -0.9752
 8754SOL     OW37897   1.037   4.287   7.576 -0.2090 -0.2524  0.6970
 8754SOL    HW137898   1.038   4.227   7.502 -1.5757  0.2271  0.2796
 8754SOL    HW237899   0.998   4.232   7.645 -1.0754 -2.2444 -1.3536
 8755SOL     OW37900   3.564   1.057  15.593  0.1542 -0.3583  0.4597
 8755SOL    HW137901   3.633   1.033  15.531 -0.0026  0.8675 -0.1914
 8755SOL    HW237902   3.584   1.003  15.669 -1.5135 -1.7780 -0.1322
 8756SOL     OW37903   3.786   4.140  11.441 -0.3267 -0.2001  0.4686
 8756SOL    HW137904   3.803   4.215  11.384 -1.0064 -1.8555 -1.9178
 8756SOL    HW237905   3.806   4.061  11.390  0.0283 -1.0245  1.8883
 8757SOL     OW37906   0.710   4.113   5.491 -0.4355 -0.2292  0.2744
 8757SOL    HW137907   0.726   4.049   5.560  0.1240 -0.6102 -0.2122
 8757SOL    HW237908   0.629   4.083   5.448 -1.2358  2.1813  0.0827
 8758SOL     OW37909   3.276   0.720   0.883  0.4796 -0.2348  0.1103
 8758SOL    HW137910   3.314   0.740   0.969 -0.4385  0.5036  0.3438
 8758SOL    HW237911   3.234   0.636   0.899  2.0066 -1.2800 -1.3776
 8759SOL     OW37912   4.688   2.617   2.303  0.5027 -0.2519 -0.1154
 8759SOL    HW137913   4.711   2.546   2.243  0.3690  1.4046 -2.1285
 8759SOL    HW237914   4.611   2.658   2.263  2.1701  1.4344 -1.5443
 8760SOL     OW37915   4.286   3.329   7.191 -0.7241  0.0227 -0.3949
 8760SOL    HW137916   4.230   3.268   7.240  1.0864 -0.9964  0.4121
 8760SOL    HW237917   4.367   3.284   7.213  0.6153  1.7150 -1.9323
 8761SOL     OW37918   0.861   0.917   6.518  0.3145 -0.8632  0.0009
 8761SOL    HW137919   0.841   0.880   6.432  3.0599  0.8977 -1.4055
 8761SOL    HW237920   0.898   0.844   6.567  0.8039 -0.3808  0.3532
 8762SOL     OW37921   2.256   3.886   7.747 -0.5670 -0.4128  0.3751
 8762SOL    HW137922   2.214   3.967   7.717 -0.7595 -0.0737  1.5551
 8762SOL    HW237923   2.261   3.842   7.662 -1.6268  1.6852 -0.7642
 8763SOL     OW37924   0.250   2.568   8.049 -0.8457  0.0993 -0.3097
 8763SOL    HW137925   0.287   2.491   8.093 -1.7274 -0.2219 -0.1220
 8763SOL    HW237926   0.229   2.626   8.122 -0.0439 -0.4369  0.3460
 8764SOL     OW37927   3.338   3.430   8.035 -0.0428  0.1475  0.5995
 8764SOL    HW137928   3.371   3.387   7.955 -1.2584  0.2403  0.0513
 8764SOL    HW237929   3.348   3.522   8.012 -2.1732 -0.1951 -1.7631
 8765SOL     OW37930   3.599   3.437   3.520  0.5804  0.1950  0.1256
 8765SOL    HW137931   3.561   3.358   3.557  1.9841 -0.8281 -0.6002
 8765SOL    HW237932   3.651   3.470   3.593  1.1113  2.7597 -1.3984
 8766SOL     OW37933   3.512   1.707   8.316  0.1164  0.0269 -0.2099
 8766SOL    HW137934   3.473   1.704   8.229 -0.8799 -4.1649  0.3679
 8766SOL    HW237935   3.605   1.716   8.297 -0.5369  1.5228 -2.7501
 8767SOL     OW37936   2.094   3.692   0.618 -0.4833  0.4797 -0.7045
 8767SOL    HW137937   2.133   3.679   0.705 -0.6312 -2.6500 -1.1172
 8767SOL    HW237938   2.097   3.607   0.575  0.6799  0.1469  0.0192
 8768SOL     OW37939   2.328   4.720   2.510 -0.2303 -0.0514 -0.0700
 8768SOL    HW137940   2.389   0.057   2.490  0.3234 -0.1216  1.3428
 8768SOL    HW237941   2.320   4.678   2.425 -2.8255  0.6250 -0.1718
 8769SOL     OW37942   3.175   2.183   3.038  0.0030  0.2110 -0.6697
 8769SOL    HW137943   3.249   2.243   3.034 -0.2611  0.5548 -0.4015
 8769SOL    HW237944   3.187   2.122   2.965 -1.5725 -1.7554  0.7149
 8770SOL     OW37945   4.201   4.001  14.922  0.2110 -0.2080 -0.6331
 8770SOL    HW137946   4.114   3.961  14.930  0.2697  0.1992  2.0882
 8770SOL    HW237947   4.188   4.078  14.978  0.1879 -1.5446  1.2233
 8771SOL     OW37948   4.552   3.368   4.424 -0.1116  0.9465 -0.0322
 8771SOL    HW137949   4.488   3.301   4.449  2.6738 -2.2876 -1.5236
 8771SOL    HW237950   4.607   3.374   4.502  2.0092 -1.9414 -1.2896
 8772SOL     OW37951   0.482   3.249   7.989  1.4038 -0.2348 -0.4616
 8772SOL    HW137952   0.513   3.181   7.928  2.6569 -0.1884  0.1155
 8772SOL    HW237953   0.556   3.264   8.048  2.2444 -0.6304 -1.3982
 8773SOL     OW37954   2.900   1.056  15.493  0.4772  0.1847 -0.3577
 8773SOL    HW137955   2.888   1.066  15.399 -2.7529  0.1401  0.0500
 8773SOL    HW237956   2.992   1.083  15.499  0.6710 -1.0287  2.3941
 8774SOL     OW37957   3.137   0.601   0.434  0.0381  0.6479  0.1065
 8774SOL    HW137958   3.096   0.687   0.418  0.6197  0.7237 -0.9640
 8774SOL    HW237959   3.229   0.609   0.408 -0.0746 -0.8911 -0.7357
 8775SOL     OW37960   2.009   1.073   3.826  0.1328  0.2707 -0.2555
 8775SOL    HW137961   1.965   1.142   3.875 -0.1494 -0.0958  0.0029
 8775SOL    HW237962   2.068   1.131   3.777  0.9791  0.4978  1.0314
 8776SOL     OW37963   2.328   4.307   4.109 -0.0168 -0.6046 -0.7880
 8776SOL    HW137964   2.295   4.391   4.139 -0.4154 -1.3939  1.0115
 8776SOL    HW237965   2.421   4.312   4.131 -0.3480  1.1823  0.1082
 8777SOL     OW37966   2.321   4.601   2.869 -0.3420 -0.6533  0.3697
 8777SOL    HW137967   2.251   4.536   2.868  1.2551 -2.3911 -0.4636
 8777SOL    HW237968   2.304   4.645   2.952  0.7104  1.2712 -0.4256
 8778SOL     OW37969   1.875   3.735   7.155 -0.0676 -0.6304  0.0917
 8778SOL    HW137970   1.827   3.686   7.088 -2.5522  1.5958  0.2567
 8778SOL    HW237971   1.951   3.766   7.105 -0.6081 -0.2798 -0.4966
 8779SOL     OW37972   1.606   0.091  11.782 -0.0667  0.4208  0.5008
 8779SOL    HW137973   1.687   0.041  11.772 -0.6290  0.1267 -2.6191
 8779SOL    HW237974   1.589   0.089  11.876  1.5236  0.3059  0.7819
 8780SOL     OW37975   1.838   1.004   4.297 -0.6919 -0.1825  0.1919
 8780SOL    HW137976   1.920   0.956   4.307 -1.5385 -1.7691 -0.5339
 8780SOL    HW237977   1.784   0.986   4.374  0.6689 -1.3803  0.8608
 8781SOL     OW37978   2.166   3.223  10.778  0.1796 -0.0516  0.0683
 8781SOL    HW137979   2.171   3.159  10.707  0.7742 -0.7982  0.7889
 8781SOL    HW237980   2.242   3.202  10.832  0.6957 -3.6196 -2.0660
 8782SOL     OW37981   0.509   1.911  17.022  0.6594 -0.3695 -0.0087
 8782SOL    HW137982   0.583   1.929  16.965  0.1652 -0.3802 -0.6582
 8782SOL    HW237983   0.439   1.922  16.958 -1.7956  0.3250  2.7357
 8783SOL     OW37984   0.197   3.455  16.425  0.1041 -0.2869  0.6092
 8783SOL    HW137985   0.124   3.448  16.485  1.9760 -0.6226  2.8304
 8783SOL    HW237986   0.222   3.544  16.449 -1.2767 -0.2240  1.7330
 8784SOL     OW37987   1.207   2.328   5.307 -0.3463 -0.4381 -0.3624
 8784SOL    HW137988   1.230   2.284   5.224  0.4564  0.5360 -0.6557
 8784SOL    HW237989   1.286   2.310   5.358 -0.3570 -3.3437 -1.3425
 8785SOL     OW37990   3.458   1.270   1.875  0.0641  0.1188 -0.5893
 8785SOL    HW137991   3.473   1.261   1.969 -0.5026  2.0151 -0.3172
 8785SOL    HW237992   3.482   1.362   1.863 -0.3475  0.6181  2.4257
 8786SOL     OW37993   2.585   3.062   7.778 -0.1860  0.0828 -0.2170
 8786SOL    HW137994   2.566   3.089   7.689  0.8768 -1.7301 -0.9887
 8786SOL    HW237995   2.526   3.113   7.833 -1.3800 -1.7073  0.1655
 8787SOL     OW37996   4.000   2.723  10.066 -0.0829  0.5076 -0.2515
 8787SOL    HW137997   3.907   2.736  10.086 -0.2383 -0.0641 -0.5848
 8787SOL    HW237998   4.042   2.788  10.121 -0.6805 -0.2267  1.0875
 8788SOL     OW37999   1.120   3.526   5.455 -0.4588 -0.1388 -0.0770
 8788SOL    HW138000   1.129   3.473   5.534  1.5271  1.5945  0.8629
 8788SOL    HW238001   1.071   3.461   5.404  0.3940  0.0278 -1.1289
 8789SOL     OW38002   2.127   0.326  16.826 -0.5262 -0.0891 -0.2572
 8789SOL    HW138003   2.163   0.367  16.747 -1.8002 -2.9609 -2.3226
 8789SOL    HW238004   2.089   0.403  16.870 -0.9917 -1.6081  1.9938
 8790SOL     OW38005   3.973   2.992   7.157 -0.0715 -0.1539  0.4785
 8790SOL    HW138006   3.940   3.042   7.083  0.9437  1.6298  1.2257
 8790SOL    HW238007   3.899   2.984   7.218 -0.2187 -2.9018 -0.0327
 8791SOL     OW38008   0.853   2.530  15.679 -0.0165 -0.6737  0.3369
 8791SOL    HW138009   0.795   2.462  15.714 -1.0724  1.2586  2.3931
 8791SOL    HW238010   0.896   2.489  15.605  0.0920 -0.3852  0.2425
 8792SOL     OW38011   3.879   1.165  12.994 -0.3629  0.3441  0.3453
 8792SOL    HW138012   3.808   1.193  13.052 -0.9581  1.2479 -0.8088
 8792SOL    HW238013   3.887   1.074  13.024  1.4765  0.1459 -0.7642
 8793SOL     OW38014   2.322   2.141   2.079 -0.2893 -0.0715 -0.7213
 8793SOL    HW138015   2.407   2.174   2.107 -2.2635  1.6479  3.3867
 8793SOL    HW238016   2.353   2.092   2.003  0.0571  0.5101 -0.9565
 8794SOL     OW38017   3.587   2.207   7.582  0.2436  0.5377 -0.0260
 8794SOL    HW138018   3.493   2.227   7.576  0.4149  2.0733  2.2598
 8794SOL    HW238019   3.594   2.133   7.521 -2.1294 -0.1605  0.5239
 8795SOL     OW38020   3.862   4.618   6.145 -0.0165 -0.0140 -1.0808
 8795SOL    HW138021   3.785   4.615   6.088  1.4941 -0.0526 -3.0782
 8795SOL    HW238022   3.841   4.690   6.205  2.1217 -0.6147  0.3806
 8796SOL     OW38023   1.332   0.440  12.818  0.1432  0.1459 -0.3523
 8796SOL    HW138024   1.380   0.519  12.842  0.4342 -0.0300 -0.3662
 8796SOL    HW238025   1.388   0.405  12.748  0.7084 -1.5827  0.9820
 8797SOL     OW38026   0.643   1.903  10.689  0.4032  0.4666  0.6545
 8797SOL    HW138027   0.719   1.921  10.632 -0.1194  0.3241 -0.0907
 8797SOL    HW238028   0.681   1.827  10.734  0.1745 -0.0873 -0.0908
 8798SOL     OW38029   1.767   0.750   2.537 -0.0717 -0.1026  0.6129
 8798SOL    HW138030   1.843   0.699   2.563  1.2314  2.5114  1.9551
 8798SOL    HW238031   1.699   0.683   2.527 -0.5099  0.1307  1.9397
 8799SOL     OW38032   0.303   1.169  10.089 -0.1803  0.8596 -0.2009
 8799SOL    HW138033   0.325   1.119  10.011  1.0483  2.3386 -0.7884
 8799SOL    HW238034   0.348   1.115  10.155  1.4657  1.5212 -0.8005
 8800SOL     OW38035   2.209   4.698  12.263  0.3268  0.4361  0.4081
 8800SOL    HW138036   2.155   4.665  12.191 -0.0930  0.0576  0.8932
 8800SOL    HW238037   2.249   4.618  12.298 -1.9956 -1.9049 -2.2032
 8801SOL     OW38038   2.039   4.218   2.469 -0.6794 -0.5912 -0.2822
 8801SOL    HW138039   1.999   4.284   2.413  0.8876 -0.0232 -0.7403
 8801SOL    HW238040   1.968   4.196   2.529  0.5175  0.8712  1.6775
 8802SOL     OW38041   0.262   2.311   2.409 -0.2726 -0.4740  0.3972
 8802SOL    HW138042   0.328   2.372   2.375 -1.8992 -0.0836 -2.0863
 8802SOL    HW238043   0.290   2.299   2.500  0.0549 -0.4399  0.3035
 8803SOL     OW38044   3.825   0.896  15.196 -0.0677 -0.5449 -0.1369
 8803SOL    HW138045   3.843   0.982  15.160 -1.5804 -0.3501 -0.4145
 8803SOL    HW238046   3.743   0.872  15.153 -1.4317  3.7362  0.1481
 8804SOL     OW38047   4.536   2.820   2.968 -0.0522  0.1162 -0.4141
 8804SOL    HW138048   4.572   2.907   2.984 -1.0843  0.5255 -0.3043
 8804SOL    HW238049   4.602   2.789   2.906 -0.2199  0.5512 -0.8145
 8805SOL     OW38050   0.978   2.395  10.817  0.3987  0.3031 -0.0138
 8805SOL    HW138051   0.923   2.378  10.894 -0.7868 -0.7658 -1.1107
 8805SOL    HW238052   0.923   2.459  10.772  0.0243  0.0913  0.1503
 8806SOL     OW38053   2.815   2.444   8.671 -0.4743 -0.2508 -0.1623
 8806SOL    HW138054   2.733   2.449   8.621  0.5584 -1.6951 -2.0264
 8806SOL    HW238055   2.856   2.522   8.634 -0.0176  0.3281  1.5568
 8807SOL     OW38056   3.078   2.684   5.306  0.0744  0.0401  0.1052
 8807SOL    HW138057   2.988   2.679   5.339  0.4400  1.2794  1.3211
 8807SOL    HW238058   3.086   2.778   5.324  1.0078  0.0316 -0.2550
 8808SOL     OW38059   3.963   0.167   6.791  0.0553 -0.0235 -0.0137
 8808SOL    HW138060   4.048   0.138   6.756  0.9390  1.8691  0.5362
 8808SOL    HW238061   3.909   0.176   6.713  2.2214 -2.6013 -1.8320
 8809SOL     OW38062   2.886   4.341  10.323  0.0621  0.0408 -0.4959
 8809SOL    HW138063   2.953   4.409  10.323  0.7119 -0.6039 -0.4038
 8809SOL    HW238064   2.917   4.274  10.262  1.6374  1.8210 -1.6204
 8810SOL     OW38065   4.023   4.289   8.581  0.3357 -0.0432  0.0416
 8810SOL    HW138066   4.091   4.313   8.518  1.5635 -0.6014  1.1559
 8810SOL    HW238067   4.064   4.299   8.667  0.2489  0.0171  0.0764
 8811SOL     OW38068   4.469   3.553   3.423 -0.5570  0.0175  0.0335
 8811SOL    HW138069   4.397   3.495   3.447 -2.1326  1.6304 -0.8324
 8811SOL    HW238070   4.414   3.625   3.393  0.3192 -0.0927 -1.8236
 8812SOL     OW38071   0.131   1.278   1.273 -0.0341 -0.1966 -0.3715
 8812SOL    HW138072   0.092   1.353   1.319 -1.7908 -1.7873  0.7067
 8812SOL    HW238073   0.225   1.295   1.276 -0.4285  2.1356 -1.2023
 8813SOL     OW38074   3.396   3.443   8.966  0.1501  0.6095 -0.4880
 8813SOL    HW138075   3.330   3.500   8.925  1.4585  2.5753  0.1566
 8813SOL    HW238076   3.426   3.504   9.033 -0.7927  0.5365 -0.0003
 8814SOL     OW38077   0.587   3.977   9.005  0.1903 -0.2386  0.7167
 8814SOL    HW138078   0.678   3.971   9.033  0.1175 -2.8923  0.3683
 8814SOL    HW238079   0.556   3.887   9.002  0.6123 -0.2994 -1.5456
 8815SOL     OW38080   4.306   2.753  14.921 -0.2249 -0.0879 -0.1375
 8815SOL    HW138081   4.279   2.697  14.993  0.1437 -0.5865 -0.3854
 8815SOL    HW238082   4.306   2.837  14.966  2.6269  0.1241 -0.5077
 8816SOL     OW38083   0.958   1.275  16.866  0.0016 -0.4255  0.3701
 8816SOL    HW138084   0.864   1.294  16.861  0.0138 -0.0263  1.7190
 8816SOL    HW238085   0.951   1.184  16.837  1.4210 -0.2803 -0.4259
 8817SOL     OW38086   2.815   0.823   0.653 -0.4176  0.7399  0.0779
 8817SOL    HW138087   2.868   0.789   0.726  0.5065  0.1611 -0.8660
 8817SOL    HW238088   2.879   0.876   0.606 -1.4582  0.6549 -1.4301
 8818SOL     OW38089   3.251   4.361   4.686  0.3615  0.3468 -0.4515
 8818SOL    HW138090   3.232   4.440   4.737  1.7881  1.1835 -1.2070
 8818SOL    HW238091   3.285   4.301   4.752 -0.4739 -0.0370 -0.3752
 8819SOL     OW38092   2.772   1.177   7.180 -0.3781 -0.0575  0.5973
 8819SOL    HW138093   2.700   1.114   7.177  1.9124 -2.5610 -1.2247
 8819SOL    HW238094   2.812   1.150   7.263 -2.0756 -0.5668  1.2648
 8820SOL     OW38095   4.664   3.288  17.217  0.0430  0.6521  0.0116
 8820SOL    HW138096   4.699   3.225  17.155 -0.3577  0.1638  0.2888
 8820SOL    HW238097   4.614   3.232  17.276 -0.2201  1.3549  0.4546
 8821SOL     OW38098   0.841   1.537   2.070 -0.6818  0.2483 -0.7268
 8821SOL    HW138099   0.917   1.586   2.102 -0.3643 -1.8737  1.6960
 8821SOL    HW238100   0.870   1.447   2.077 -3.2315 -0.4825  0.2757
 8822SOL     OW38101   3.594   3.276   5.873 -0.5271 -0.4777  0.4533
 8822SOL    HW138102   3.631   3.192   5.900  1.2214 -0.7397 -2.6940
 8822SOL    HW238103   3.594   3.277   5.777  0.8816  0.0667  0.4591
 8823SOL     OW38104   2.391   4.676  12.723  0.4797 -0.0343 -0.2429
 8823SOL    HW138105   2.421   0.031  12.741 -2.6694  1.8239 -4.0090
 8823SOL    HW238106   2.425   4.655  12.636 -0.8311  0.5608 -0.8997
 8824SOL     OW38107   1.482   3.285   6.424 -0.0414  0.0169  0.3178
 8824SOL    HW138108   1.501   3.224   6.495 -1.1315 -2.2238 -1.3050
 8824SOL    HW238109   1.423   3.238   6.364  1.8832 -1.4021 -0.4782
 8825SOL     OW38110   2.357   0.346  12.941 -0.2002  0.1244  0.1553
 8825SOL    HW138111   2.296   0.284  12.982 -0.1645 -0.1991 -0.2828
 8825SOL    HW238112   2.297   0.418  12.921 -0.6324  0.5304  2.9020
 8826SOL     OW38113   3.220   0.911   3.546 -0.0721  0.1294  0.2898
 8826SOL    HW138114   3.292   0.971   3.562  0.3729 -0.9518  2.3717
 8826SOL    HW238115   3.158   0.965   3.497  0.2333 -1.8618 -2.3401
 8827SOL     OW38116   2.807   0.953   4.894 -0.3227  0.3332 -0.0493
 8827SOL    HW138117   2.728   0.902   4.913  0.6099 -0.7828  0.8404
 8827SOL    HW238118   2.788   1.029   4.948  1.4258  1.5934 -1.2226
 8828SOL     OW38119   0.219   0.288  16.518 -0.3647  0.3556  0.1368
 8828SOL    HW138120   0.250   0.365  16.565  2.5223  0.5050 -2.0401
 8828SOL    HW238121   0.129   0.273  16.549 -0.0103 -1.8191  0.1654
 8829SOL     OW38122   3.061   0.460   6.374  0.2204  0.2372  0.1249
 8829SOL    HW138123   3.021   0.530   6.425  0.4830 -1.2885  2.4403
 8829SOL    HW238124   3.026   0.478   6.287  2.4670 -0.0067 -0.8254
 8830SOL     OW38125   0.613   3.503   9.096 -0.0331  0.0648 -0.0966
 8830SOL    HW138126   0.623   3.431   9.033  1.2842 -0.8304  1.1174
 8830SOL    HW238127   0.520   3.493   9.116  0.8217 -1.2795  3.1713
 8831SOL     OW38128   3.068   1.886   2.445 -0.4641 -0.0126  0.5261
 8831SOL    HW138129   3.071   1.915   2.354  1.3183  1.8364  1.1815
 8831SOL    HW238130   3.148   1.927   2.476 -0.3878  0.9075 -0.8853
 8832SOL     OW38131   4.507   1.085   2.647 -0.3942 -0.0836 -0.0951
 8832SOL    HW138132   4.523   1.108   2.556 -0.6350 -0.9271 -0.3470
 8832SOL    HW238133   4.414   1.107   2.654 -0.0462  0.3973  3.1659
 8833SOL     OW38134   2.832   1.650  10.596 -0.1892  0.2633 -0.0729
 8833SOL    HW138135   2.885   1.588  10.545  2.1826  0.0567  2.5931
 8833SOL    HW238136   2.849   1.610  10.682  1.3439 -0.0523 -0.5243
 8834SOL     OW38137   1.558   2.386   5.044 -0.4754 -0.3272  0.0157
 8834SOL    HW138138   1.633   2.408   5.099 -1.0124  1.0378  0.1912
 8834SOL    HW238139   1.560   2.290   5.049 -0.4874 -0.4047 -1.5202
 8835SOL     OW38140   1.932   2.300   0.559 -0.0127  0.3873  0.2831
 8835SOL    HW138141   1.895   2.261   0.638  0.9772 -0.5121  0.2952
 8835SOL    HW238142   1.875   2.275   0.486 -2.2093  2.9701  1.0914
 8836SOL     OW38143   0.483   3.549   2.453  0.1637  0.2881  0.0386
 8836SOL    HW138144   0.558   3.501   2.416  1.9125  2.1454  1.1413
 8836SOL    HW238145   0.444   3.586   2.374 -1.8918 -0.5721  0.6619
 8837SOL     OW38146   3.615   3.856   7.598  0.1201 -0.3366  0.2580
 8837SOL    HW138147   3.589   3.941   7.632 -0.4349 -0.2450 -0.3863
 8837SOL    HW238148   3.704   3.865   7.632 -1.0202 -2.6572  3.8619
 8838SOL     OW38149   0.697   1.019   9.641 -0.3851  0.1199  0.1984
 8838SOL    HW138150   0.698   0.927   9.616  0.0784  0.4945 -1.1630
 8838SOL    HW238151   0.718   1.013   9.734 -1.1158  1.1214  0.4348
 8839SOL     OW38152   1.899   0.781   8.643  0.1555 -0.4632 -0.1546
 8839SOL    HW138153   1.919   0.858   8.696 -0.4890 -0.1000 -0.4364
 8839SOL    HW238154   1.825   0.815   8.592  1.5105 -1.8852 -3.0793
 8840SOL     OW38155   0.095   2.421   3.459  0.1853  0.0201  0.0762
 8840SOL    HW138156   0.107   2.490   3.525  0.1938  2.3538 -2.4004
 8840SOL    HW238157   0.176   2.428   3.410 -0.6131  0.9956 -1.0910
 8841SOL     OW38158   4.187   0.612   8.270 -0.4062  0.4140  0.0226
 8841SOL    HW138159   4.152   0.700   8.285 -0.3811  0.4055  0.1327
 8841SOL    HW238160   4.104   0.566   8.270 -0.4489  0.4703  2.2291
 8842SOL     OW38161   2.043   3.272  12.339 -0.0785  0.5474  0.2562
 8842SOL    HW138162   2.035   3.365  12.317  1.7032  0.6986  0.2796
 8842SOL    HW238163   1.993   3.238  12.264  0.3433  3.6553 -1.4353
 8843SOL     OW38164   3.881   3.298   5.128  0.1937  0.2890 -0.2175
 8843SOL    HW138165   3.974   3.289   5.149  0.1999 -1.3503 -0.9163
 8843SOL    HW238166   3.881   3.278   5.034  0.8367  0.7827 -0.3218
 8844SOL     OW38167   1.301   4.729  13.535  0.3377  0.1907  0.4919
 8844SOL    HW138168   1.386   4.713  13.495 -0.7442 -0.9950 -1.3488
 8844SOL    HW238169   1.322   4.680  13.614 -1.7358  0.2150  1.0537
 8845SOL     OW38170   1.774   2.902   6.397  0.6059  0.1703  0.2671
 8845SOL    HW138171   1.679   2.914   6.398  0.3254 -2.0900  0.1507
 8845SOL    HW238172   1.782   2.826   6.339  1.7383 -0.9423  1.8975
 8846SOL     OW38173   1.912   1.611   6.716 -0.3278 -0.1651 -0.1651
 8846SOL    HW138174   2.003   1.581   6.716  0.0308  0.9265 -0.4784
 8846SOL    HW238175   1.896   1.584   6.807 -1.7382  1.6294  0.1059
 8847SOL     OW38176   2.960   3.133   7.723 -0.5519  0.2183  0.2661
 8847SOL    HW138177   3.048   3.130   7.762  0.3080  3.2371 -1.4283
 8847SOL    HW238178   2.912   3.210   7.754 -1.3904 -0.6242  1.0526
 8848SOL     OW38179   0.387   1.649  11.906 -0.7983 -0.2006  0.2111
 8848SOL    HW138180   0.428   1.576  11.861  1.8484  0.6332  1.2669
 8848SOL    HW238181   0.325   1.618  11.971 -2.9042 -2.1661 -2.7216
 8849SOL     OW38182   4.129   4.396  17.134 -0.3905 -0.7916 -0.0102
 8849SOL    HW138183   4.048   4.347  17.126 -0.7264 -0.3729  0.8270
 8849SOL    HW238184   4.193   4.326  17.125 -2.0022 -2.2603  0.0128
 8850SOL     OW38185   1.526   2.422   8.814  0.6388  0.6711  0.7673
 8850SOL    HW138186   1.449   2.383   8.856 -0.0654  1.8877  0.6244
 8850SOL    HW238187   1.484   2.464   8.739  1.1721 -0.4940 -0.1754
 8851SOL     OW38188   4.665   2.026   3.929 -0.3330  0.2924 -0.1384
 8851SOL    HW138189   0.015   1.983   3.949 -1.0727 -1.7902 -1.5503
 8851SOL    HW238190   4.651   1.990   3.841 -0.2510  2.2463 -0.9597
 8852SOL     OW38191   2.959   3.022  16.201  0.9486  0.2648  0.6328
 8852SOL    HW138192   2.906   3.087  16.246 -0.2514 -1.1252  1.2266
 8852SOL    HW238193   2.983   2.956  16.267  0.2264 -0.1887  0.4338
 8853SOL     OW38194   1.911   4.172   3.929  0.1866 -0.5642  0.0175
 8853SOL    HW138195   1.933   4.156   3.837 -2.5517  0.8859 -0.8843
 8853SOL    HW238196   1.963   4.251   3.945 -1.6862  1.0028 -1.5385
 8854SOL     OW38197   0.175   2.238   0.604 -0.0076 -1.0220 -0.3473
 8854SOL    HW138198   0.199   2.209   0.516  1.0324  0.8149 -0.6543
 8854SOL    HW238199   0.086   2.202   0.610 -0.3011 -0.3870 -0.9180
 8855SOL     OW38200   3.503   0.347   5.382  0.1338 -0.2565 -0.2627
 8855SOL    HW138201   3.503   0.277   5.447  2.2490 -0.5795 -0.6018
 8855SOL    HW238202   3.588   0.391   5.386  0.0578 -0.2115  0.8667
 8856SOL     OW38203   2.243   2.406  17.719 -0.0744 -1.0310 -0.2467
 8856SOL    HW138204   2.222   2.318   0.017 -0.3407 -0.7360  0.3629
 8856SOL    HW238205   2.263   2.453   0.065 -1.4615 -0.7176 -0.0849
 8857SOL     OW38206   3.338   4.461   8.362 -0.0734  0.1884 -0.0001
 8857SOL    HW138207   3.377   4.425   8.282  0.5846 -0.1536  0.4734
 8857SOL    HW238208   3.401   4.426   8.425  0.2172 -0.0488 -0.4257
 8858SOL     OW38209   4.549   3.547   4.200  0.3588  0.0894 -1.1460
 8858SOL    HW138210   4.624   3.605   4.213 -0.0252 -0.2081  2.3910
 8858SOL    HW238211   4.554   3.491   4.278  2.2140  1.4228 -0.2855
 8859SOL     OW38212   1.374   4.521  13.115  0.0995  0.0207 -0.3366
 8859SOL    HW138213   1.380   4.532  13.020 -0.0356  3.2081  0.0415
 8859SOL    HW238214   1.283   4.550  13.123 -0.6820 -2.9862  1.5686
 8860SOL     OW38215   3.542   2.379   6.857 -0.4653  0.1099 -0.0264
 8860SOL    HW138216   3.467   2.321   6.870 -2.0747  2.5314  1.4345
 8860SOL    HW238217   3.529   2.418   6.771 -0.7083  0.0347 -0.0218
 8861SOL     OW38218   4.109   2.063   9.183  0.0557 -0.4705  0.5293
 8861SOL    HW138219   4.168   2.073   9.257  0.0751  1.2813  0.2743
 8861SOL    HW238220   4.110   2.154   9.153 -0.3891 -0.9796 -1.0804
 8862SOL     OW38221   1.597   0.594   7.679 -0.1110  0.4443 -0.4009
 8862SOL    HW138222   1.568   0.513   7.721  0.3769  0.0998 -0.7266
 8862SOL    HW238223   1.630   0.560   7.595 -1.1691  0.5194 -0.8410
 8863SOL     OW38224   1.072   1.559   6.156  0.1693  0.1227  0.5423
 8863SOL    HW138225   1.018   1.543   6.079 -0.7325  0.5409  1.0907
 8863SOL    HW238226   1.058   1.484   6.215  1.5705 -0.5862 -0.0167
 8864SOL     OW38227   3.720   3.177   8.761  0.0017 -0.2491  0.1463
 8864SOL    HW138228   3.639   3.143   8.801 -0.7143 -0.0932 -1.1739
 8864SOL    HW238229   3.788   3.123   8.802 -1.2128 -1.0333  1.1535
 8865SOL     OW38230   4.546   0.670   6.860 -0.2026  0.3626  0.4480
 8865SOL    HW138231   4.577   0.688   6.949  0.1025  2.7216 -0.1163
 8865SOL    HW238232   4.475   0.609   6.876  1.1802 -1.3477  0.0726
 8866SOL     OW38233   1.148   4.520   6.409 -0.4521 -0.0788  0.1755
 8866SOL    HW138234   1.056   4.496   6.420 -0.5829  0.4834  0.2942
 8866SOL    HW238235   1.142   4.612   6.436 -0.9852  0.0075 -0.2554
 8867SOL     OW38236   0.295   1.297  14.756 -0.0321  0.2236 -0.1658
 8867SOL    HW138237   0.209   1.270  14.723  0.4329 -1.3538 -0.0591
 8867SOL    HW238238   0.338   1.213  14.768 -2.9078 -1.4712 -1.7438
 8868SOL     OW38239   2.781   3.081   5.288 -0.0430 -0.1473 -0.0532
 8868SOL    HW138240   2.832   3.011   5.330  1.5478 -0.7178 -2.9904
 8868SOL    HW238241   2.844   3.148   5.315 -0.2091  0.2763 -0.7481
 8869SOL     OW38242   4.248   0.235   3.779 -0.5211 -0.2861  0.1307
 8869SOL    HW138243   4.249   0.147   3.742  0.1338  1.0262 -2.9559
 8869SOL    HW238244   4.161   0.269   3.758 -0.8903 -1.6950 -0.6100
 8870SOL     OW38245   4.657   3.382   2.221  0.2520  0.3933 -0.3478
 8870SOL    HW138246   0.004   3.340   2.251 -1.5314 -2.5859  0.2567
 8870SOL    HW238247   4.600   3.305   2.216  0.2607  0.3868 -0.3449
 8871SOL     OW38248   2.501   1.894  12.523  0.4903 -0.0376  0.7045
 8871SOL    HW138249   2.487   1.812  12.570  0.9487 -1.0380 -0.9269
 8871SOL    HW238250   2.597   1.898  12.521  0.5994 -2.9915  1.2740
 8872SOL     OW38251   0.637   0.742   4.650 -0.0648  0.5816 -0.5563
 8872SOL    HW138252   0.666   0.711   4.564  0.1069 -0.2841 -0.1936
 8872SOL    HW238253   0.603   0.829   4.630 -0.7486  0.8086  1.5823
 8873SOL     OW38254   1.800   3.092   6.601 -1.0243 -0.5441 -0.0972
 8873SOL    HW138255   1.893   3.076   6.615 -0.8003  1.2556  0.5395
 8873SOL    HW238256   1.777   3.038   6.526 -1.2721 -0.6547  0.0564
 8874SOL     OW38257   2.840   0.823   5.468  0.3021 -0.2179  0.0267
 8874SOL    HW138258   2.777   0.773   5.520 -0.8210  0.7755 -0.3993
 8874SOL    HW238259   2.804   0.910   5.456  1.3474  0.3918  1.4099
 8875SOL     OW38260   4.273   1.059   2.201 -0.0527 -0.1835  0.6815
 8875SOL    HW138261   4.227   1.115   2.264 -2.3964 -1.0211 -0.2898
 8875SOL    HW238262   4.240   1.094   2.118  1.8552  1.5062  0.6494
 8876SOL     OW38263   0.531   0.487  10.385  0.1900  0.2225  1.0519
 8876SOL    HW138264   0.563   0.417  10.443  0.7121 -0.0746  0.4089
 8876SOL    HW238265   0.616   0.505  10.345 -0.0993  2.2615  1.4004
 8877SOL     OW38266   0.766   2.064  14.315  0.2171 -0.2461  0.0920
 8877SOL    HW138267   0.777   2.127  14.386 -1.8687 -0.7371  0.8652
 8877SOL    HW238268   0.857   2.035  14.309 -0.4333 -2.6712  1.8548
 8878SOL     OW38269   2.736   0.176   2.307  0.8503  0.5938 -0.6858
 8878SOL    HW138270   2.772   0.172   2.218  2.3728  2.2350 -0.1421
 8878SOL    HW238271   2.820   0.203   2.345  0.1735  0.1046  1.1664
 8879SOL     OW38272   1.997   4.580   6.838  0.1570  0.0312 -0.1134
 8879SOL    HW138273   2.063   4.569   6.770 -0.7107  1.4750 -1.1843
 8879SOL    HW238274   2.041   4.647   6.890 -1.5547  0.2997  1.0035
 8880SOL     OW38275   1.410   1.707   2.851  0.4028  0.1899  0.1363
 8880SOL    HW138276   1.394   1.753   2.769 -2.6443 -0.0031  0.6266
 8880SOL    HW238277   1.502   1.727   2.869  0.4234  0.5390 -0.3828
 8881SOL     OW38278   3.816   2.666   8.191 -0.1726  0.1597 -0.2362
 8881SOL    HW138279   3.736   2.626   8.224  1.6879 -2.7202  0.7486
 8881SOL    HW238280   3.876   2.594   8.170  1.5208  1.6577 -0.6521
 8882SOL     OW38281   3.498   2.538   5.085  0.3491 -0.0360  0.0702
 8882SOL    HW138282   3.407   2.515   5.101 -0.0040  0.8632 -0.6537
 8882SOL    HW238283   3.506   2.604   5.017  1.4745  1.1964  1.4071
 8883SOL     OW38284   0.499   1.253   9.756 -0.4875  0.3375  0.2043
 8883SOL    HW138285   0.408   1.281   9.768  0.2583  2.3435  1.1546
 8883SOL    HW238286   0.500   1.176   9.813 -0.5073 -0.3558 -0.7298
 8884SOL     OW38287   3.691   4.616   7.959  0.8349  0.0246  0.2886
 8884SOL    HW138288   3.595   4.616   7.956  0.7498  0.0511  3.1498
 8884SOL    HW238289   3.703   4.526   7.988 -1.5075 -1.3284 -2.8909
 8885SOL     OW38290   1.588   0.051   5.239 -0.6791  0.2180  0.2969
 8885SOL    HW138291   1.495   0.072   5.234 -0.6783 -0.2958 -1.7741
 8885SOL    HW238292   1.628   0.113   5.178  0.6562 -0.9069  0.0272
 8886SOL     OW38293   0.223   4.314   6.622 -0.0567 -0.4759 -0.0035
 8886SOL    HW138294   0.302   4.259   6.617 -1.3247 -2.1493 -1.4467
 8886SOL    HW238295   0.252   4.374   6.691 -1.2526 -0.2108  0.2560
 8887SOL     OW38296   3.882   2.691  13.838  0.3667 -0.3571 -0.0355
 8887SOL    HW138297   3.817   2.745  13.792  2.0458 -0.4230 -2.4696
 8887SOL    HW238298   3.867   2.616  13.780 -1.4095  0.1525 -0.2403
 8888SOL     OW38299   4.407   2.960   1.970 -0.3811  0.5525  0.7000
 8888SOL    HW138300   4.420   2.930   2.061  0.6534 -3.1071 -0.6523
 8888SOL    HW238301   4.475   2.909   1.925 -2.1831 -1.4563  0.2478
 8889SOL     OW38302   3.386   0.790   8.470  0.5070 -0.3118  0.0187
 8889SOL    HW138303   3.331   0.771   8.395  0.5708 -0.3830 -0.0101
 8889SOL    HW238304   3.394   0.704   8.511 -0.1651 -0.4138 -0.0747
 8890SOL     OW38305   3.650   1.165   1.417  0.1420  0.2945  0.0532
 8890SOL    HW138306   3.728   1.183   1.469  0.6101 -0.5635 -0.3485
 8890SOL    HW238307   3.675   1.196   1.330  1.2261  1.3489  0.7391
 8891SOL     OW38308   0.164   3.412   7.054 -0.1995 -0.2045 -0.0559
 8891SOL    HW138309   0.149   3.343   7.120 -0.7189  1.6715  1.7960
 8891SOL    HW238310   0.247   3.455   7.072 -1.5471  1.6964  1.7059
 8892SOL     OW38311   2.206   3.308   0.821 -0.5220  0.6631 -0.3501
 8892SOL    HW138312   2.189   3.240   0.886  0.5163 -1.2765 -2.1022
 8892SOL    HW238313   2.181   3.387   0.869  0.0025 -0.0140  1.0547
 8893SOL     OW38314   2.126   3.770   7.975 -0.1328  0.2400 -0.4102
 8893SOL    HW138315   2.165   3.831   7.913 -0.4200  1.9690  1.1013
 8893SOL    HW238316   2.120   3.688   7.925 -1.6700  1.3638 -2.0585
 8894SOL     OW38317   1.952   3.654   4.203 -0.0074  0.3429 -0.1108
 8894SOL    HW138318   1.916   3.736   4.235  0.1750 -0.5296  2.2906
 8894SOL    HW238319   1.873   3.620   4.162  0.4188 -0.5388 -0.1960
 8895SOL     OW38320   4.309   2.907   3.808 -0.2680 -0.2892  0.2589
 8895SOL    HW138321   4.301   2.893   3.903  2.7937  1.6866  0.7990
 8895SOL    HW238322   4.404   2.908   3.798 -0.1821 -0.1313  1.0749
 8896SOL     OW38323   4.499   2.826   6.342  0.3405  0.4694 -0.1400
 8896SOL    HW138324   4.463   2.788   6.423  2.0419  0.6687  0.7207
 8896SOL    HW238325   4.593   2.807   6.350  0.5157  1.3738 -0.1384
 8897SOL     OW38326   0.303   0.881   8.396 -0.1247 -0.2790 -0.7390
 8897SOL    HW138327   0.232   0.912   8.452 -0.7406 -0.4340 -1.4289
 8897SOL    HW238328   0.386   0.884   8.443 -0.6953  0.7805  0.2025
 8898SOL     OW38329   2.107   4.557  16.686  0.1877 -0.3164  0.1470
 8898SOL    HW138330   2.052   4.480  16.697  0.1998 -0.4697 -0.8674
 8898SOL    HW238331   2.062   4.597  16.761 -0.6111  1.9788 -1.5641
 8899SOL     OW38332   2.752   3.745   2.891 -0.3731 -0.0136  0.0522
 8899SOL    HW138333   2.744   3.657   2.856  0.9720  0.1605 -0.6695
 8899SOL    HW238334   2.675   3.779   2.845 -1.4663 -0.2286  1.7008
 8900SOL     OW38335   1.227   3.451   2.325  0.7873  0.1349  0.3085
 8900SOL    HW138336   1.232   3.384   2.257  1.0499  0.9534 -0.4688
 8900SOL    HW238337   1.287   3.406   2.386 -1.1799 -0.6730  1.6404
 8901SOL     OW38338   3.139   4.382   9.922  0.5518 -0.7041  0.0669
 8901SOL    HW138339   3.226   4.350   9.946  1.3952  1.3790 -0.2176
 8901SOL    HW238340   3.104   4.371  10.010  0.6382  2.9634  0.5540
 8902SOL     OW38341   0.127   3.400   6.010  0.1659 -0.1225  0.0420
 8902SOL    HW138342   0.144   3.311   6.038 -1.3462 -0.7471 -1.0287
 8902SOL    HW238343   0.120   3.441   6.096  0.1196 -1.0876  0.4954
 8903SOL     OW38344   0.630   0.627   8.924  0.0398  0.5107 -0.6708
 8903SOL    HW138345   0.656   0.546   8.968 -1.2913  1.9703  2.7599
 8903SOL    HW238346   0.550   0.591   8.886 -1.4869 -1.4146  4.3799
 8904SOL     OW38347   3.088   4.547  14.348  0.0210  0.0776  0.3330
 8904SOL    HW138348   3.090   4.509  14.436 -0.9627  0.1870  0.3979
 8904SOL    HW238349   3.033   4.625  14.356 -2.1014 -1.4787  0.7440
 8905SOL     OW38350   1.338   1.182  15.436 -0.5261 -0.5332  0.2494
 8905SOL    HW138351   1.279   1.226  15.374 -1.0820  0.0691  1.1950
 8905SOL    HW238352   1.378   1.265  15.463  1.2754 -1.8780  1.6077
 8906SOL     OW38353   1.368   3.148   6.994  0.1454  0.0831 -0.1801
 8906SOL    HW138354   1.303   3.153   6.923 -1.1003 -0.0458  0.9576
 8906SOL    HW238355   1.315   3.110   7.065 -1.3459 -2.3758 -2.5837
 8907SOL     OW38356   2.647   0.766   6.417  0.0319 -0.1860 -0.7942
 8907SOL    HW138357   2.742   0.779   6.411 -0.0202  1.2371  1.4004
 8907SOL    HW238358   2.633   0.778   6.511  0.0104  2.8301 -1.1856
 8908SOL     OW38359   1.051   4.683   8.479  0.4995 -0.5733  0.3183
 8908SOL    HW138360   1.124   4.653   8.426 -1.0788 -2.2531 -0.9186
 8908SOL    HW238361   1.026   4.604   8.528 -4.2332  0.8232  0.1365
 8909SOL     OW38362   2.890   3.999   9.796  0.3081  0.4431  0.0445
 8909SOL    HW138363   2.948   3.970   9.866 -0.5200  1.1748  1.0411
 8909SOL    HW238364   2.890   3.919   9.743 -0.2310 -0.6064  1.6179
 8910SOL     OW38365   1.574   3.326   4.828  0.1039  0.1807  0.1089
 8910SOL    HW138366   1.597   3.278   4.748 -0.0652 -0.6971  0.5857
 8910SOL    HW238367   1.480   3.329   4.811  0.1239 -0.2517 -0.0898
 8911SOL     OW38368   1.921   0.882   1.529 -0.0746  0.0019  0.1917
 8911SOL    HW138369   1.955   0.837   1.451 -1.1603 -2.3801  1.0734
 8911SOL    HW238370   1.971   0.848   1.603 -0.8503  0.1888  0.7977
 8912SOL     OW38371   1.715   2.431   4.433 -0.8194  0.0588 -0.1019
 8912SOL    HW138372   1.713   2.503   4.371 -1.6326 -0.0555 -0.2057
 8912SOL    HW238373   1.624   2.428   4.462 -1.2064 -1.1511 -1.4648
 8913SOL     OW38374   4.624   2.018  13.744  0.0784  0.3538 -0.1803
 8913SOL    HW138375   4.584   1.931  13.739  0.8182 -0.0660  1.0598
 8913SOL    HW238376   4.717   1.996  13.733  0.1616  0.7786 -0.3180
 8914SOL     OW38377   1.847   4.388   8.169 -0.6027 -0.2779 -0.3717
 8914SOL    HW138378   1.902   4.314   8.194 -1.9265 -1.3467 -0.6071
 8914SOL    HW238379   1.758   4.357   8.187 -1.1468  1.8192  0.4680
 8915SOL     OW38380   1.406   2.201  12.223  0.2432 -0.3407 -0.7295
 8915SOL    HW138381   1.331   2.216  12.280  1.2594  0.6584  0.3398
 8915SOL    HW238382   1.440   2.119  12.258  0.3990  0.4579  0.9702
 8916SOL     OW38383   3.296   2.932   6.130 -0.0095 -0.4973  0.8727
 8916SOL    HW138384   3.335   2.971   6.052 -1.8777 -0.7850 -0.1979
 8916SOL    HW238385   3.370   2.909   6.186  2.3014 -0.2554 -2.0808
 8917SOL     OW38386   1.529   2.615  16.833 -0.5717  0.5867 -0.7283
 8917SOL    HW138387   1.613   2.571  16.817 -1.7820 -1.1850 -2.1687
 8917SOL    HW238388   1.470   2.540  16.830  1.1257 -0.7337 -1.2835
 8918SOL     OW38389   0.370   0.463   2.197  0.0796  0.3400  0.4189
 8918SOL    HW138390   0.343   0.419   2.278  0.3245  0.1591  0.4035
 8918SOL    HW238391   0.416   0.390   2.156 -0.0918  0.6533 -0.3342
 8919SOL     OW38392   0.650   2.327  16.970  0.5067  0.2471  0.5074
 8919SOL    HW138393   0.569   2.320  16.919  0.9848 -1.1009 -0.0462
 8919SOL    HW238394   0.680   2.238  16.986 -1.8221 -0.9137 -1.6109
 8920SOL     OW38395   2.962   0.777   5.250 -0.0443  0.0507  0.2573
 8920SOL    HW138396   2.925   0.788   5.338 -0.9409  3.1447 -0.5297
 8920SOL    HW238397   2.967   0.869   5.223 -1.8844 -0.4152 -1.6645
 8921SOL     OW38398   2.271   1.155   7.478  0.1162 -0.0452  0.0859
 8921SOL    HW138399   2.213   1.126   7.549  0.9967 -1.2697  0.3092
 8921SOL    HW238400   2.280   1.068   7.441  0.2569  0.1596 -0.3670
 8922SOL     OW38401   0.152   1.471  12.665  0.0427 -0.4289 -0.7306
 8922SOL    HW138402   0.246   1.487  12.677  0.2742 -0.8811 -1.9531
 8922SOL    HW238403   0.126   1.481  12.757  1.0283 -0.4667 -0.4462
 8923SOL     OW38404   1.179   0.127  17.421  0.0429 -0.8665 -0.1424
 8923SOL    HW138405   1.136   0.107  17.505 -2.3990 -0.5766 -1.3253
 8923SOL    HW238406   1.270   0.109  17.444 -0.1363  0.3014  1.5349
 8924SOL     OW38407   3.916   0.026  16.145  0.4542  0.2571 -0.4155
 8924SOL    HW138408   3.869   4.676  16.143  0.8471  0.0459 -0.7052
 8924SOL    HW238409   3.873   0.075  16.215  4.5761  0.1123  2.2273
 8925SOL     OW38410   0.076   2.964   8.652  0.2949 -0.5233  0.1704
 8925SOL    HW138411   0.087   2.992   8.743 -0.2750  0.4133 -0.0543
 8925SOL    HW238412   0.050   3.041   8.602  1.8384 -0.0165  0.1489
 8926SOL     OW38413   1.429   0.522   3.630  0.4572  0.3683 -0.1086
 8926SOL    HW138414   1.344   0.560   3.609  0.0648 -0.6097 -0.3189
 8926SOL    HW238415   1.490   0.594   3.647  0.6698  0.3350 -0.7363
 8927SOL     OW38416   1.422   1.885   4.376 -0.3595  0.2531  0.0685
 8927SOL    HW138417   1.426   1.807   4.430 -0.1525 -0.7383 -1.3890
 8927SOL    HW238418   1.402   1.850   4.289  2.2872 -2.7691  0.6963
 8928SOL     OW38419   2.694   3.332   5.867  0.0187  0.0105 -0.2326
 8928SOL    HW138420   2.661   3.376   5.945  0.8181  0.1046  0.0506
 8928SOL    HW238421   2.614   3.285   5.846 -0.3566  0.1629  0.8660
 8929SOL     OW38422   0.852   2.130   6.549  0.5318  0.6241 -0.0654
 8929SOL    HW138423   0.923   2.101   6.492  1.3312 -0.3544  1.4383
 8929SOL    HW238424   0.802   2.053   6.576 -1.2955  1.6579 -0.4818
 8930SOL     OW38425   0.550   1.416   4.011 -0.3602  0.1798  0.2755
 8930SOL    HW138426   0.575   1.466   4.088  0.3384 -0.3207  0.3706
 8930SOL    HW238427   0.589   1.469   3.941 -1.8998 -0.1430 -0.8404
 8931SOL     OW38428   4.436   3.478   6.836 -0.2050  0.5110 -0.3849
 8931SOL    HW138429   4.367   3.427   6.794  1.4265 -0.2366 -2.1563
 8931SOL    HW238430   4.488   3.412   6.882 -0.7884 -1.4195 -2.4945
 8932SOL     OW38431   0.649   0.445   9.233 -0.4924 -0.0864 -0.3112
 8932SOL    HW138432   0.703   0.518   9.262 -0.0849 -0.7518  0.6416
 8932SOL    HW238433   0.691   0.432   9.148 -0.8983  1.8578 -0.7897
 8933SOL     OW38434   1.863   1.639  14.541 -0.0824 -0.2028 -0.2895
 8933SOL    HW138435   1.846   1.727  14.576  0.5494  0.2290 -1.0823
 8933SOL    HW238436   1.778   1.631  14.497  0.5779  0.7820 -1.7321
 8934SOL     OW38437   0.382   2.408  12.694 -0.0809 -0.5219 -0.2974
 8934SOL    HW138438   0.459   2.452  12.659 -1.2715  1.4195 -0.4698
 8934SOL    HW238439   0.412   2.318  12.688 -0.7407 -0.8675  1.6100
 8935SOL     OW38440   4.020   2.834   7.839 -0.0877  0.1036  0.4351
 8935SOL    HW138441   4.019   2.859   7.932  1.9100 -1.7971  0.9806
 8935SOL    HW238442   3.994   2.742   7.848 -0.0835 -0.1332 -2.1704
 8936SOL     OW38443   0.072   2.850   6.998  0.2022  0.7180 -0.2131
 8936SOL    HW138444   0.008   2.815   6.935  1.3610 -1.2066 -0.3173
 8936SOL    HW238445   0.108   2.926   6.952 -0.3613  1.3636  0.4186
 8937SOL     OW38446   0.520   2.396  13.573  0.7072  0.7232 -0.2061
 8937SOL    HW138447   0.560   2.483  13.579  0.6934  0.6692  0.6551
 8937SOL    HW238448   0.598   2.343  13.563 -0.2773 -0.5165 -1.2564
 8938SOL     OW38449   2.544   3.628  13.460  0.4559 -0.1754  0.3074
 8938SOL    HW138450   2.572   3.642  13.550  2.7963  1.9181 -0.7482
 8938SOL    HW238451   2.567   3.536  13.445 -0.5984 -0.3407 -0.3321
 8939SOL     OW38452   3.714   3.423   4.000  0.1077 -0.0733  0.1022
 8939SOL    HW138453   3.745   3.357   4.061  0.4594  0.7339  0.7993
 8939SOL    HW238454   3.658   3.368   3.945  0.4144  0.9669 -1.2404
 8940SOL     OW38455   3.940   1.171   8.399 -0.5519 -0.4114  0.3233
 8940SOL    HW138456   3.945   1.218   8.482 -1.3193 -1.0088  0.7204
 8940SOL    HW238457   3.987   1.089   8.413  1.6086  0.2960 -2.8581
 8941SOL     OW38458   0.150   3.950   0.315  0.1000  0.5106  0.0623
 8941SOL    HW138459   0.220   4.007   0.284  2.9882 -1.5923  2.6882
 8941SOL    HW238460   0.124   3.901   0.237 -0.3774  0.6911  0.1029
 8942SOL     OW38461   4.370   3.262   3.310  0.4845  0.6339 -0.3145
 8942SOL    HW138462   4.276   3.272   3.294  0.2617 -0.9482  0.0581
 8942SOL    HW238463   4.396   3.331   3.248  1.1733 -0.8070 -1.6268
 8943SOL     OW38464   1.739   0.967   6.822  0.3576  0.2517 -0.0918
 8943SOL    HW138465   1.769   0.919   6.745  0.8681  0.5494 -0.0793
 8943SOL    HW238466   1.793   1.044   6.810 -1.5586  1.2418 -2.3244
 8944SOL     OW38467   1.018   3.814  14.626  0.3392  0.2095  0.4001
 8944SOL    HW138468   0.937   3.823  14.676  0.9708  0.3551  1.3912
 8944SOL    HW238469   1.052   3.726  14.640  0.4828 -0.0516 -1.5637
 8945SOL     OW38470   1.105   1.389   6.378  0.3903  0.2164 -0.5286
 8945SOL    HW138471   1.109   1.388   6.473  0.6463 -1.8382 -0.5564
 8945SOL    HW238472   1.015   1.357   6.374  0.5261 -0.2469  0.1012
 8946SOL     OW38473   1.218   0.412  14.756 -0.1639  0.2283 -0.3510
 8946SOL    HW138474   1.312   0.397  14.761 -0.4424 -1.1473  0.6959
 8946SOL    HW238475   1.207   0.489  14.812 -0.2816  2.3422 -3.2726
 8947SOL     OW38476   0.229   3.228   5.752 -0.1196 -0.1577  0.2925
 8947SOL    HW138477   0.185   3.255   5.671 -0.2450 -3.0673 -0.6167
 8947SOL    HW238478   0.203   3.302   5.807  0.8307  2.2772 -2.4526
 8948SOL     OW38479   2.664   1.747   7.590 -0.1066 -0.3605 -0.0512
 8948SOL    HW138480   2.702   1.669   7.630 -0.5808 -0.3409  0.4530
 8948SOL    HW238481   2.739   1.806   7.585 -0.8339  0.7634  2.2033
 8949SOL     OW38482   4.039   1.314  16.829 -0.1845 -0.0784 -0.1355
 8949SOL    HW138483   4.019   1.301  16.737  2.2952  0.1066 -0.7001
 8949SOL    HW238484   4.116   1.258  16.836  0.8481  1.0711 -2.3842
 8950SOL     OW38485   0.465   2.196   2.869 -0.3161  0.2287 -0.1908
 8950SOL    HW138486   0.390   2.197   2.928 -1.4943  1.5262 -1.7226
 8950SOL    HW238487   0.534   2.176   2.933 -0.9040  3.9143  1.5736
 8951SOL     OW38488   2.626   3.423   8.342  0.1765 -0.4000 -0.1029
 8951SOL    HW138489   2.633   3.455   8.252 -0.4063  1.0478  0.3535
 8951SOL    HW238490   2.616   3.331   8.318 -1.0939 -1.0891  3.1374
 8952SOL     OW38491   0.671   4.594   3.794 -0.1560 -0.1799 -0.4795
 8952SOL    HW138492   0.594   4.558   3.751  1.0356 -0.4347 -2.4206
 8952SOL    HW238493   0.689   4.513   3.842 -2.2709  0.4728  1.3851
 8953SOL     OW38494   1.986   4.081  17.465  0.3696  0.0565  0.2332
 8953SOL    HW138495   1.948   4.158  17.423  0.1552  1.0507  2.2479
 8953SOL    HW238496   1.927   4.075  17.540 -1.9774 -1.5921 -1.7327
 8954SOL     OW38497   4.667   4.354  11.385 -0.0969 -0.0055  0.0385
 8954SOL    HW138498   4.580   4.315  11.372 -1.1817  2.5304 -0.2867
 8954SOL    HW238499   4.722   4.278  11.403 -1.3800 -1.6000 -2.6195
 8955SOL     OW38500   4.279   2.208   2.976  0.9550  0.4338 -0.0581
 8955SOL    HW138501   4.276   2.301   2.996  0.3621 -0.2716  3.1118
 8955SOL    HW238502   4.215   2.196   2.906 -1.3461 -0.6898  2.2209
 8956SOL     OW38503   2.405   1.621   3.100 -0.0092 -0.4219  0.1057
 8956SOL    HW138504   2.413   1.577   3.015 -0.5158  1.1077 -0.7467
 8956SOL    HW238505   2.320   1.588   3.128  0.7055 -1.6790  0.8066
 8957SOL     OW38506   1.483   0.799   8.834 -0.8201 -0.0500  0.2081
 8957SOL    HW138507   1.553   0.738   8.810 -0.6278  0.7565 -1.2833
 8957SOL    HW238508   1.461   0.832   8.747 -2.4631 -1.7875 -0.0666
 8958SOL     OW38509   4.113   3.551   0.112 -0.4926  0.4581  0.0567
 8958SOL    HW138510   4.206   3.570   0.118 -0.6154  0.4266  2.0855
 8958SOL    HW238511   4.108   3.464   0.152 -1.5831 -0.8034 -2.8213
 8959SOL     OW38512   2.320   4.210   7.057 -0.4355 -0.1904  0.3663
 8959SOL    HW138513   2.377   4.285   7.068  0.4841 -1.2200  2.4845
 8959SOL    HW238514   2.330   4.200   6.962  1.6272 -0.0378  0.5875
 8960SOL     OW38515   0.353   1.169   6.856  0.0856 -0.0958  0.5352
 8960SOL    HW138516   0.418   1.101   6.836  1.3066  1.0919  0.5062
 8960SOL    HW238517   0.373   1.189   6.948 -1.7570  1.8676  0.4935
 8961SOL     OW38518   4.385   2.624   8.608 -0.4825 -0.3071 -0.1998
 8961SOL    HW138519   4.312   2.680   8.635 -0.0892  1.0319 -1.9334
 8961SOL    HW238520   4.444   2.698   8.591 -1.0812  0.1507 -0.2774
 8962SOL     OW38521   0.161   2.201   8.852 -0.4178  0.1759  0.0266
 8962SOL    HW138522   0.157   2.296   8.841  0.3287  0.0102 -1.5990
 8962SOL    HW238523   0.094   2.170   8.791 -1.7644  0.7496  1.1911
 8963SOL     OW38524   1.623   4.079   2.836  0.8743  0.2166 -0.1862
 8963SOL    HW138525   1.547   4.088   2.895  1.9962  2.4444  0.9192
 8963SOL    HW238526   1.666   4.165   2.833 -0.3365  0.7444 -2.6140
 8964SOL     OW38527   1.644   3.854  10.005 -0.0112 -0.2177  0.3351
 8964SOL    HW138528   1.619   3.836   9.914 -1.2886  3.3952 -0.0258
 8964SOL    HW238529   1.662   3.769  10.045  0.0489 -0.6035 -0.5175
 8965SOL     OW38530   2.618   4.317   8.043  0.1106 -0.0233  0.3088
 8965SOL    HW138531   2.696   4.366   8.017  1.0762 -1.3242  0.7572
 8965SOL    HW238532   2.552   4.387   8.041 -2.2474 -2.2357  0.7242
 8966SOL     OW38533   0.156   1.761   6.129 -0.5165 -0.1596 -0.1121
 8966SOL    HW138534   0.162   1.740   6.222 -0.2563  0.3090 -0.0231
 8966SOL    HW238535   0.214   1.709   6.074 -1.2978 -2.8159  1.5530
 8967SOL     OW38536   0.143   2.705   7.229 -0.8107  0.0055 -0.4244
 8967SOL    HW138537   0.126   2.747   7.146  2.7157 -0.5618 -1.4493
 8967SOL    HW238538   0.064   2.725   7.280 -0.5577 -0.9990  0.3772
 8968SOL     OW38539   1.377   2.056   4.099 -0.0112 -0.1961 -0.0039
 8968SOL    HW138540   1.360   1.962   4.100 -0.4770 -0.1438 -2.3360
 8968SOL    HW238541   1.457   2.070   4.151 -1.6430 -0.1830  2.4821
 8969SOL     OW38542   0.474   4.066   9.273  0.2936 -0.1555 -0.0120
 8969SOL    HW138543   0.505   4.072   9.183 -1.8160 -0.3018 -0.7435
 8969SOL    HW238544   0.417   4.143   9.274 -1.1257 -1.2062  0.4925
 8970SOL     OW38545   1.388   1.457   0.520 -0.2559 -0.1992  0.0147
 8970SOL    HW138546   1.344   1.540   0.535 -0.8359  0.1490 -3.5112
 8970SOL    HW238547   1.471   1.473   0.475 -1.2015  0.6081 -1.4350
 8971SOL     OW38548   2.558   0.999   3.214  0.1951  0.1214  0.3386
 8971SOL    HW138549   2.467   0.973   3.228  0.4621 -1.1423 -0.2666
 8971SOL    HW238550   2.599   0.912   3.213  0.7439  0.3644  1.2262
 8972SOL     OW38551   0.666   1.663   1.913  0.1203 -0.5786 -0.2626
 8972SOL    HW138552   0.711   1.600   1.970  2.7603  2.1433  0.6787
 8972SOL    HW238553   0.683   1.740   1.967  2.2795  0.0779 -1.8477
 8973SOL     OW38554   2.115   3.992   5.688  0.4225 -0.3083 -0.0455
 8973SOL    HW138555   2.136   4.044   5.611 -2.2780  1.3216  0.2894
 8973SOL    HW238556   2.061   3.927   5.644  1.3847  0.0979 -1.8329
 8974SOL     OW38557   1.263   3.937   1.322 -0.0708  0.2178  0.2960
 8974SOL    HW138558   1.310   3.857   1.298 -2.0989 -0.8448 -0.1485
 8974SOL    HW238559   1.246   3.977   1.237  0.4494 -0.0498  0.0650
 8975SOL     OW38560   4.183   2.498  16.179 -0.0771 -0.4899 -0.1093
 8975SOL    HW138561   4.268   2.521  16.217  0.2694 -1.7287 -0.1123
 8975SOL    HW238562   4.163   2.579  16.133  0.4560  2.4727  4.8822
 8976SOL     OW38563   0.936   1.589   6.879 -0.6413  0.1665 -0.1230
 8976SOL    HW138564   0.982   1.644   6.817 -1.0675  1.4149  0.6646
 8976SOL    HW238565   0.863   1.648   6.899  0.7909  3.2788 -4.2267
 8977SOL     OW38566   4.701   0.219   6.584 -0.2837 -0.1261  0.1142
 8977SOL    HW138567   4.659   0.297   6.618  0.2334 -0.4366  1.4756
 8977SOL    HW238568   4.653   0.153   6.635  0.4147 -0.1632  0.7236
 8978SOL     OW38569   0.582   0.901   3.875 -0.2302 -0.0518 -0.2374
 8978SOL    HW138570   0.584   0.930   3.966  0.9015  2.1734 -0.9876
 8978SOL    HW238571   0.500   0.943   3.849  0.5088  0.3263 -1.9346
 8979SOL     OW38572   0.812   1.473   7.383  0.4037 -0.3081  0.5054
 8979SOL    HW138573   0.749   1.469   7.455 -0.8440 -1.1785 -0.6317
 8979SOL    HW238574   0.805   1.565   7.356 -0.5244 -0.9884 -1.5925
 8980SOL     OW38575   3.492   0.690   7.479 -0.1579 -0.4615 -0.2030
 8980SOL    HW138576   3.500   0.714   7.571 -0.9936  0.1889 -0.2906
 8980SOL    HW238577   3.464   0.600   7.494 -2.2071  0.2505  0.2939
 8981SOL     OW38578   1.909   1.013   6.320 -0.1513  0.5068  0.2613
 8981SOL    HW138579   1.868   1.050   6.398  1.4758 -0.0027  1.3541
 8981SOL    HW238580   1.966   1.083   6.291  0.6357 -0.2074  0.0753
 8982SOL     OW38581   3.770   4.070   3.319 -0.5147 -0.1106  0.3764
 8982SOL    HW138582   3.720   4.046   3.241  1.6646 -1.1821 -0.6735
 8982SOL    HW238583   3.816   3.990   3.343 -0.3416 -0.4132 -0.9731
 8983SOL     OW38584   4.018   0.612  13.535  0.1247  0.0920  0.2895
 8983SOL    HW138585   3.993   0.530  13.492 -0.7580  0.2690  0.4494
 8983SOL    HW238586   3.990   0.603  13.626 -0.5588  0.0551  0.0807
 8984SOL     OW38587   4.732   4.164   2.666  0.1477  0.5474 -0.2822
 8984SOL    HW138588   4.727   4.095   2.600  0.0371 -1.6608  2.0431
 8984SOL    HW238589   4.640   4.185   2.679  0.1685  0.5204 -0.0913
 8985SOL     OW38590   4.042   4.179   2.584 -0.8579  0.3435  1.1291
 8985SOL    HW138591   4.113   4.150   2.526 -0.5342  0.1626  1.6160
 8985SOL    HW238592   4.016   4.093   2.615  0.9317 -0.2049  1.1264
 8986SOL     OW38593   3.974   1.761  11.937  0.9123  0.1599 -0.6176
 8986SOL    HW138594   3.904   1.704  11.968  1.3632 -0.1636 -0.1940
 8986SOL    HW238595   3.927   1.833  11.895  0.3133 -1.0801 -2.0713
 8987SOL     OW38596   0.115   3.114   1.966 -0.2638 -0.2221  0.0632
 8987SOL    HW138597   0.195   3.155   1.934 -0.5776  0.1284 -0.2735
 8987SOL    HW238598   0.051   3.183   1.948 -1.0667 -1.2982 -1.2144
 8988SOL     OW38599   1.350   3.665   6.749  0.6783  0.6088 -0.3934
 8988SOL    HW138600   1.438   3.695   6.773  1.0976  0.4506 -1.7550
 8988SOL    HW238601   1.361   3.571   6.733 -2.4368  0.2773 -0.5786
 8989SOL     OW38602   4.247   2.937   4.366  0.0433 -0.8835  0.0075
 8989SOL    HW138603   4.217   2.861   4.417 -0.3689 -1.0957 -0.5487
 8989SOL    HW238604   4.173   2.998   4.360  0.8520  0.0685 -0.2241
 8990SOL     OW38605   3.773   1.479   7.738  0.4049  0.1588  0.2437
 8990SOL    HW138606   3.721   1.555   7.761 -1.1847 -0.4393 -1.3229
 8990SOL    HW238607   3.843   1.470   7.803  1.6007 -0.4725 -1.1219
 8991SOL     OW38608   1.546   4.358   3.675  0.1415  0.3124  0.1721
 8991SOL    HW138609   1.559   4.266   3.698  0.8094  0.9692  2.3668
 8991SOL    HW238610   1.634   4.370   3.641 -0.4485  2.3269 -0.6505
 8992SOL     OW38611   3.909   1.481  13.094 -0.3252 -1.2365  0.6384
 8992SOL    HW138612   3.821   1.454  13.122 -1.1252  0.1353 -0.5418
 8992SOL    HW238613   3.936   1.547  13.157  0.2007 -2.4659  1.6931
 8993SOL     OW38614   2.665   1.415   1.945  0.3534 -0.1771  0.0953
 8993SOL    HW138615   2.682   1.340   2.002  0.2067 -0.0616  0.2907
 8993SOL    HW238616   2.732   1.469   1.987 -0.8862  0.4969  1.1922
 8994SOL     OW38617   3.656   1.483   4.030 -0.3077 -0.4920  0.0136
 8994SOL    HW138618   3.735   1.530   4.056 -0.6033 -0.2775  0.5255
 8994SOL    HW238619   3.669   1.393   4.059 -0.3406 -0.5378 -0.1105
 8995SOL     OW38620   1.945   1.786   6.143  0.2730 -0.0456  0.0936
 8995SOL    HW138621   1.915   1.696   6.136 -0.3257  0.1970 -0.4985
 8995SOL    HW238622   1.923   1.805   6.234 -1.1110  0.2297 -0.2966
 8996SOL     OW38623   1.815   2.015   8.616 -0.4010  0.1962  0.3059
 8996SOL    HW138624   1.778   2.065   8.688  2.1090  0.9954  1.0365
 8996SOL    HW238625   1.890   2.073   8.607  0.5234 -0.5980  3.0125
 8997SOL     OW38626   3.871   1.407   5.263 -0.0069  0.0429 -0.0356
 8997SOL    HW138627   3.877   1.316   5.232 -1.3208 -0.0091 -0.1407
 8997SOL    HW238628   3.879   1.463   5.186  1.1517 -0.5515 -0.3480
 8998SOL     OW38629   3.522   0.740   5.375  0.4122  0.2314  0.2467
 8998SOL    HW138630   3.486   0.815   5.327 -0.7073 -0.8243 -0.5583
 8998SOL    HW238631   3.440   0.693   5.387  0.0913  1.4480  2.7902
 8999SOL     OW38632   2.833   2.627   8.951 -0.1086 -0.7012 -0.1617
 8999SOL    HW138633   2.775   2.573   9.004  0.4669 -0.9449  0.2239
 8999SOL    HW238634   2.915   2.577   8.948  0.2973 -0.0153 -0.6015
 9000SOL     OW38635   0.553   2.403  11.468 -0.0747  0.0399 -0.7439
 9000SOL    HW138636   0.552   2.437  11.379  1.6205  0.2369 -0.6992
 9000SOL    HW238637   0.553   2.310  11.446 -0.8033 -0.0148 -0.5023
 9001SOL     OW38638   0.576   4.317   7.173 -0.2887  0.2672  0.0979
 9001SOL    HW138639   0.659   4.320   7.125  0.0305 -1.8075  0.5016
 9001SOL    HW238640   0.542   4.406   7.168 -0.3432  0.2145 -0.4211
 9002SOL     OW38641   2.998   4.181   7.318  0.2863 -0.1037 -0.3406
 9002SOL    HW138642   3.005   4.269   7.356 -0.5510  0.3752 -1.3101
 9002SOL    HW238643   2.928   4.139   7.369 -0.7086  0.4215 -1.2897
 9003SOL     OW38644   4.609   2.398  13.468  0.2816 -0.3477  0.3832
 9003SOL    HW138645   4.622   2.468  13.532 -1.3528  1.5208 -1.3052
 9003SOL    HW238646   4.574   2.453  13.398 -2.1955 -1.3797  0.7805
 9004SOL     OW38647   2.309   1.637   4.240  0.1561 -0.0328 -0.1381
 9004SOL    HW138648   2.282   1.725   4.213 -1.5932 -0.3380  0.6754
 9004SOL    HW238649   2.381   1.663   4.299 -1.0015  0.4333  1.0796
 9005SOL     OW38650   2.679   1.855  15.537 -0.3946  0.1136  0.3635
 9005SOL    HW138651   2.631   1.931  15.568  1.1839  1.1916  0.1852
 9005SOL    HW238652   2.622   1.785  15.568 -1.1705  0.9986  0.9108
 9006SOL     OW38653   1.629   4.294   5.352  0.4912 -0.0841  0.8992
 9006SOL    HW138654   1.586   4.362   5.300  0.0298 -0.4619  0.7882
 9006SOL    HW238655   1.598   4.212   5.313  0.0821 -0.5886  2.2867
 9007SOL     OW38656   4.403   2.857   0.978  0.4153  0.4223  0.0042
 9007SOL    HW138657   4.486   2.898   1.002  1.3138  0.4299 -3.0421
 9007SOL    HW238658   4.396   2.789   1.045 -1.3664  0.2889 -0.3360
 9008SOL     OW38659   1.509   4.506   5.230 -0.4187 -0.5985 -0.1302
 9008SOL    HW138660   1.511   4.519   5.135  0.2113  0.2272 -0.0076
 9008SOL    HW238661   1.514   4.598   5.257 -1.2190 -0.3290 -0.9020
 9009SOL     OW38662   4.177   4.570   9.274  0.6128  0.1370  0.7491
 9009SOL    HW138663   4.248   4.625   9.305  2.7349 -1.4153 -1.2839
 9009SOL    HW238664   4.154   4.622   9.197  0.0109  1.8048  2.0674
 9010SOL     OW38665   2.875   1.760   5.008 -0.0739  0.7278 -0.9733
 9010SOL    HW138666   2.940   1.831   5.010  0.9108 -0.1762 -1.1949
 9010SOL    HW238667   2.789   1.798   4.992 -1.0522 -0.0685  2.2527
 9011SOL     OW38668   0.657   2.723   9.032 -0.2891 -0.2448 -0.1248
 9011SOL    HW138669   0.587   2.712   9.096  0.3309 -2.4176  0.1687
 9011SOL    HW238670   0.741   2.712   9.078  0.3287  0.9442 -0.9648
 9012SOL     OW38671   3.385   0.619   0.327  0.4696 -0.4250 -0.5156
 9012SOL    HW138672   3.436   0.540   0.309  0.0500 -0.9226  0.4305
 9012SOL    HW238673   3.425   0.683   0.269 -1.3215  2.9705  1.9644
 9013SOL     OW38674   2.793   1.514   3.807 -0.1719  0.0649 -0.2826
 9013SOL    HW138675   2.733   1.498   3.879  2.0172  0.5682  1.6816
 9013SOL    HW238676   2.867   1.552   3.857 -0.1224 -0.5193  0.0853
 9014SOL     OW38677   0.691   4.094   7.682  0.0712 -0.0813  0.4443
 9014SOL    HW138678   0.650   4.172   7.719  0.4784  1.6429 -2.8206
 9014SOL    HW238679   0.666   4.087   7.590 -1.3525  0.1650  0.8109
 9015SOL     OW38680   1.723   1.191   9.464 -0.4593  0.6083 -0.2125
 9015SOL    HW138681   1.677   1.111   9.490  0.5308  0.4044  0.9454
 9015SOL    HW238682   1.812   1.157   9.454 -1.1804 -1.9844  2.0274
 9016SOL     OW38683   1.580   1.674   4.793 -0.1454 -1.2301 -0.0728
 9016SOL    HW138684   1.498   1.661   4.744 -1.2181 -2.0431  1.9223
 9016SOL    HW238685   1.622   1.734   4.731 -2.8022  0.0464 -0.6667
 9017SOL     OW38686   2.672   1.914   6.785 -0.2476 -0.3021  0.1800
 9017SOL    HW138687   2.633   1.981   6.841 -1.0344 -0.0580 -0.6626
 9017SOL    HW238688   2.702   1.849   6.849  0.6126 -0.7547 -0.6815
 9018SOL     OW38689   4.081   3.639   3.372 -0.2204  0.3330 -0.0957
 9018SOL    HW138690   4.141   3.588   3.426 -1.1690 -0.8214 -0.1192
 9018SOL    HW238691   4.054   3.577   3.304  0.9292 -0.3000  0.0308
 9019SOL     OW38692   1.150   3.947   8.106  0.3482  0.1371  0.0132
 9019SOL    HW138693   1.217   4.011   8.082 -0.9106  2.3948  2.4967
 9019SOL    HW238694   1.104   3.994   8.175 -1.5818 -0.6818 -0.6983
 9020SOL     OW38695   3.472   4.194   9.469  0.0832  0.1944 -0.3443
 9020SOL    HW138696   3.390   4.238   9.490 -0.8779 -1.7086 -0.1272
 9020SOL    HW238697   3.539   4.250   9.508 -1.4531  1.2177  0.8401
 9021SOL     OW38698   3.568   1.861  13.401 -0.3702  1.2282  0.3232
 9021SOL    HW138699   3.479   1.829  13.385  0.0489  0.6576 -0.8278
 9021SOL    HW238700   3.614   1.838  13.320 -0.3835 -1.2474  1.0221
 9022SOL     OW38701   0.378   0.226   7.595 -0.6079  0.5640 -0.0377
 9022SOL    HW138702   0.453   0.252   7.649  0.5676  0.4594 -1.6481
 9022SOL    HW238703   0.311   0.254   7.658  2.8244  1.2443  3.2931
 9023SOL     OW38704   1.966   4.445  16.283 -0.8053  0.5229 -0.3919
 9023SOL    HW138705   1.884   4.413  16.246 -1.0811  1.5200 -0.6275
 9023SOL    HW238706   1.994   4.501  16.211  0.5819  0.2120 -0.1020
 9024SOL     OW38707   2.715   1.317   3.589 -0.0014 -0.1393 -0.0830
 9024SOL    HW138708   2.779   1.248   3.606  1.2430  1.3167  1.0937
 9024SOL    HW238709   2.734   1.374   3.663 -0.6634  1.0850 -0.8614
 9025SOL     OW38710   2.943   0.989   4.520  0.4202 -0.6139 -0.0636
 9025SOL    HW138711   3.013   1.043   4.484  0.4875 -0.0423  0.9241
 9025SOL    HW238712   2.863   1.032   4.489  1.1205  1.0899  0.5111
 9026SOL     OW38713   1.619   1.252   8.156 -0.6574  0.2457  0.4119
 9026SOL    HW138714   1.707   1.260   8.117 -1.3957  1.5558 -0.9924
 9026SOL    HW238715   1.571   1.286   8.081  1.8062 -1.2433 -1.8502
 9027SOL     OW38716   3.720   3.816  13.103  0.0837 -0.3180 -0.3090
 9027SOL    HW138717   3.775   3.773  13.168  2.0650  0.5725 -1.4016
 9027SOL    HW238718   3.761   3.807  13.017 -0.1195  0.1821 -0.4572
 9028SOL     OW38719   2.993   1.726   5.461 -0.5244 -0.3448  0.4029
 9028SOL    HW138720   3.079   1.738   5.420 -1.2860  1.3256 -0.6825
 9028SOL    HW238721   2.966   1.642   5.423  1.4676 -0.5627 -0.5478
 9029SOL     OW38722   2.983   3.670   6.220 -0.2210  0.1022 -0.3664
 9029SOL    HW138723   2.993   3.756   6.261  2.9226  0.0805 -1.1188
 9029SOL    HW238724   2.889   3.654   6.210 -0.7515  1.8266  1.6120
 9030SOL     OW38725   4.342   0.786   4.949  0.6099  0.1827  0.0224
 9030SOL    HW138726   4.333   0.806   4.856 -2.4358  4.3598  1.1956
 9030SOL    HW238727   4.417   0.727   4.953  0.9863  0.7948  1.9457
 9031SOL     OW38728   4.422   1.176   0.344  0.7484 -0.4899  0.2193
 9031SOL    HW138729   4.443   1.125   0.423  0.9883  0.3986  0.7248
 9031SOL    HW238730   4.507   1.217   0.326  0.5695 -0.4839 -0.6042
 9032SOL     OW38731   4.245   2.865  17.663 -0.4706  0.0974  0.6787
 9032SOL    HW138732   4.252   2.851   0.023  1.3145 -1.0644  0.3682
 9032SOL    HW238733   4.181   2.937  17.660 -3.6654 -2.6713  1.8554
 9033SOL     OW38734   4.547   1.608  17.683 -0.1170 -0.6739 -0.1463
 9033SOL    HW138735   4.539   1.683   0.009  2.1910 -1.0089  0.5834
 9033SOL    HW238736   4.564   1.648  17.598 -0.2387  0.2054  0.2397
 9034SOL     OW38737   1.651   0.155  14.754 -0.1206 -0.0178  0.0588
 9034SOL    HW138738   1.681   0.179  14.841  0.7465 -2.4944  0.4454
 9034SOL    HW238739   1.735   0.149  14.708  0.0675  2.0160  0.1372
 9035SOL     OW38740   3.526   4.440   7.767  0.1107 -0.2930  0.2111
 9035SOL    HW138741   3.579   4.519   7.758 -0.3792 -0.2058 -1.9581
 9035SOL    HW238742   3.592   4.385   7.810  0.8714 -0.9823 -1.8380
 9036SOL     OW38743   2.290   3.724   2.856  0.1277  0.1646 -0.5053
 9036SOL    HW138744   2.337   3.654   2.902  1.9650  1.0251 -1.0732
 9036SOL    HW238745   2.234   3.766   2.922 -0.0634 -1.5942  0.4389
 9037SOL     OW38746   4.639   1.572   7.606 -0.0264 -0.6121 -0.1011
 9037SOL    HW138747   4.604   1.515   7.675  0.4828 -1.1354 -0.2733
 9037SOL    HW238748   4.630   1.659   7.645  2.5379 -0.8147  0.9672
 9038SOL     OW38749   1.701   0.025   3.646  0.6874 -0.5628 -0.0525
 9038SOL    HW138750   1.608   0.018   3.627  0.4898  1.2079  0.2704
 9038SOL    HW238751   1.704   0.073   3.728  0.5511 -0.0944 -0.3215
 9039SOL     OW38752   4.292   1.675   8.822  0.4948  0.6112 -0.2995
 9039SOL    HW138753   4.367   1.616   8.816 -0.5637 -0.7909  0.2202
 9039SOL    HW238754   4.273   1.667   8.915  0.0763  1.9854 -0.2787
 9040SOL     OW38755   0.184   1.943   3.624  0.2788 -0.5339 -0.2720
 9040SOL    HW138756   0.229   1.940   3.540  0.7756  0.4831 -0.0347
 9040SOL    HW238757   0.158   2.035   3.628  4.3115  0.5241  1.7722
 9041SOL     OW38758   0.639   0.345   4.634 -0.3345 -0.0838 -0.0762
 9041SOL    HW138759   0.544   0.353   4.623  0.1209  3.8651 -0.9211
 9041SOL    HW238760   0.672   0.426   4.673 -2.0083 -0.1391  1.4655
 9042SOL     OW38761   2.146   0.027   7.472 -0.1522 -0.2579 -0.2877
 9042SOL    HW138762   2.059   4.733   7.443 -0.6861 -1.0369  1.9825
 9042SOL    HW238763   2.132   0.059   7.561 -3.0714 -0.0390 -0.8477
 9043SOL     OW38764   2.238   0.659   3.280  0.0181  0.1953  0.5441
 9043SOL    HW138765   2.232   0.649   3.375  2.0743 -0.8990  0.5662
 9043SOL    HW238766   2.280   0.578   3.250  0.9014 -0.8151  4.4526
 9044SOL     OW38767   2.596   0.733   8.090 -0.4510 -0.1862  0.3156
 9044SOL    HW138768   2.575   0.797   8.158 -0.7346 -1.1483  1.1336
 9044SOL    HW238769   2.552   0.776   8.016  1.8544  2.3506  0.4547
 9045SOL     OW38770   2.449   1.732  16.952  0.2337 -0.0228 -0.4164
 9045SOL    HW138771   2.424   1.639  16.945  0.2801 -0.2540  2.7068
 9045SOL    HW238772   2.408   1.761  16.870 -0.4717  0.1424 -0.0036
 9046SOL     OW38773   4.075   2.081   7.098  0.2002  0.0310 -0.8389
 9046SOL    HW138774   4.077   2.154   7.160 -1.2558 -1.8764  1.4715
 9046SOL    HW238775   4.112   2.120   7.019  1.3757 -2.6186 -1.6148
 9047SOL     OW38776   1.834   3.033   2.013  0.1970  0.4274 -0.3971
 9047SOL    HW138777   1.831   2.939   1.996 -1.9735  0.1740  1.4352
 9047SOL    HW238778   1.759   3.058   1.959 -1.8130 -2.0234  1.2507
 9048SOL     OW38779   2.302   3.876  16.482  0.6175  0.4818 -0.0923
 9048SOL    HW138780   2.362   3.806  16.506 -1.3862 -1.1755  0.0487
 9048SOL    HW238781   2.286   3.840  16.395  0.0150 -1.2960  0.7594
 9049SOL     OW38782   2.379   3.632   5.645  0.5385 -0.0765 -0.2433
 9049SOL    HW138783   2.417   3.685   5.715  1.5098 -0.2927 -0.6056
 9049SOL    HW238784   2.426   3.659   5.566 -0.6391  0.0338 -0.9118
 9050SOL     OW38785   0.648   1.608  11.258 -0.6401 -0.1096 -0.2779
 9050SOL    HW138786   0.669   1.700  11.274  1.9998 -1.1454  2.2858
 9050SOL    HW238787   0.626   1.615  11.165  2.3509 -2.4276 -1.1591
 9051SOL     OW38788   0.534   3.521  17.260  0.0248  0.5956 -0.3760
 9051SOL    HW138789   0.454   3.571  17.274 -0.2400 -0.2119  1.0309
 9051SOL    HW238790   0.552   3.487  17.347  1.1307  0.8705 -0.5041
 9052SOL     OW38791   1.269   3.531   7.061 -0.1816  1.0113 -0.5944
 9052SOL    HW138792   1.260   3.563   7.151 -1.8249  1.1307 -0.8173
 9052SOL    HW238793   1.221   3.448   7.066  2.4097 -0.3699  2.0011
 9053SOL     OW38794   1.316   4.351  12.009  0.0871  0.0003 -0.7962
 9053SOL    HW138795   1.405   4.376  12.031  0.2162 -0.5338 -0.6988
 9053SOL    HW238796   1.317   4.274  12.066  0.3441 -0.5919 -1.5877
 9054SOL     OW38797   4.438   0.109   3.452 -0.4402 -0.0862  0.7262
 9054SOL    HW138798   4.465   0.142   3.538 -0.5820  0.0219  0.7291
 9054SOL    HW238799   4.372   0.047   3.484 -0.3865 -0.3057  0.4087
 9055SOL     OW38800   4.273   3.333   1.818 -0.2127  0.1364 -0.2795
 9055SOL    HW138801   4.239   3.244   1.821 -0.6867  0.2960 -0.7205
 9055SOL    HW238802   4.278   3.342   1.913 -2.5226  2.2206 -0.3477
 9056SOL     OW38803   3.952   3.523  14.031 -0.1774  0.4281 -0.1322
 9056SOL    HW138804   3.871   3.475  14.050  0.4002 -0.4742  0.0164
 9056SOL    HW238805   3.930   3.616  14.042 -0.5511  0.1668  1.2537
 9057SOL     OW38806   2.941   2.405   7.751  0.2587 -0.1228  0.8033
 9057SOL    HW138807   2.878   2.351   7.798  0.0393 -1.0212 -0.5103
 9057SOL    HW238808   2.884   2.457   7.695  0.5692 -0.4898  0.1346
 9058SOL     OW38809   3.567   0.239  13.586 -0.4457 -0.6340  0.2504
 9058SOL    HW138810   3.654   0.254  13.549 -0.7252 -0.0551 -0.1752
 9058SOL    HW238811   3.544   0.158  13.539  0.1564  0.2991 -1.6730
 9059SOL     OW38812   3.986   2.849  11.842  0.3498 -0.0056 -0.0424
 9059SOL    HW138813   4.050   2.892  11.899  0.3833 -1.5865  1.1243
 9059SOL    HW238814   4.019   2.758  11.844  2.2408  0.6871  0.4625
 9060SOL     OW38815   1.685   2.064   6.235 -0.2869  0.1587  0.1940
 9060SOL    HW138816   1.754   2.103   6.181  0.7508 -1.6493  0.2227
 9060SOL    HW238817   1.610   2.062   6.175 -0.3040 -0.6902  0.2510
 9061SOL     OW38818   3.366   3.369   4.989  0.4176  0.3022  0.4407
 9061SOL    HW138819   3.381   3.453   5.032 -0.2940  0.5497  0.2077
 9061SOL    HW238820   3.351   3.314   5.067  0.8928 -0.9222 -0.3296
 9062SOL     OW38821   0.632   0.068   3.460 -0.9632  0.4434 -0.8609
 9062SOL    HW138822   0.672   4.719   3.486  0.8480  1.3849 -0.6148
 9062SOL    HW238823   0.693   0.130   3.501  0.7078 -1.5563 -0.3312
 9063SOL     OW38824   3.863   0.254   7.789 -0.1053 -0.0223  0.1451
 9063SOL    HW138825   3.940   0.251   7.733 -0.2530 -1.9444  0.0168
 9063SOL    HW238826   3.886   0.328   7.845 -2.8344  1.2461 -0.3966
 9064SOL     OW38827   1.909   0.593   3.634  0.2673 -0.2956  0.1728
 9064SOL    HW138828   1.880   0.669   3.685 -2.0547 -1.8169  1.1319
 9064SOL    HW238829   1.863   0.525   3.683  0.9303 -1.0991 -0.3228
 9065SOL     OW38830   1.823   1.392   7.953 -0.4469  0.2076 -0.2876
 9065SOL    HW138831   1.744   1.444   7.937  0.3509  1.0008 -1.6795
 9065SOL    HW238832   1.895   1.453   7.938 -0.7439  0.6090 -0.0763
 9066SOL     OW38833   2.700   4.727   3.165  0.6353 -0.1936  0.0121
 9066SOL    HW138834   2.702   4.716   3.260 -1.3445  1.6762  0.2701
 9066SOL    HW238835   2.793   4.720   3.146  0.7785  4.3944 -1.1611
 9067SOL     OW38836   2.180   4.410   5.473 -0.3603 -0.0309 -0.0754
 9067SOL    HW138837   2.108   4.474   5.476  0.1297  0.4268  1.7332
 9067SOL    HW238838   2.129   4.331   5.455 -1.3389  0.4659  0.5065
 9068SOL     OW38839   0.622   0.288  15.197  0.0900 -0.4326  0.0638
 9068SOL    HW138840   0.694   0.255  15.144  0.5700 -0.7747  0.9219
 9068SOL    HW238841   0.671   0.285  15.280  0.3043 -0.4080 -0.0628
 9069SOL     OW38842   2.977   1.556   8.038 -0.1963  0.5637 -0.4550
 9069SOL    HW138843   2.910   1.492   8.015  2.0900 -1.2192 -2.0276
 9069SOL    HW238844   3.037   1.499   8.085  1.6501  2.9603  0.1272
 9070SOL     OW38845   2.510   1.229   4.830  0.0311  0.1597 -0.6469
 9070SOL    HW138846   2.587   1.216   4.776  1.5985  0.6598  1.4656
 9070SOL    HW238847   2.547   1.300   4.882 -3.1351  0.4739  1.1979
 9071SOL     OW38848   2.223   4.534   4.198 -0.3774  0.8026  0.0694
 9071SOL    HW138849   2.254   4.580   4.276 -0.5008  0.1617  0.4982
 9071SOL    HW238850   2.183   4.612   4.160  0.5684  1.0827 -0.3470
 9072SOL     OW38851   1.430   2.980   8.331 -0.3796  0.6257 -0.2868
 9072SOL    HW138852   1.486   2.910   8.298  0.0165  1.0353 -0.4958
 9072SOL    HW238853   1.423   3.036   8.253  1.6027  0.1386 -0.8084
 9073SOL     OW38854   1.448   4.399   7.494  0.0429  0.2087  0.5451
 9073SOL    HW138855   1.393   4.466   7.535  2.0367  0.4793  2.7712
 9073SOL    HW238856   1.526   4.403   7.549  0.7908 -2.8802 -0.3142
 9074SOL     OW38857   4.733   4.692  15.856  0.0296  0.2143 -0.2590
 9074SOL    HW138858   4.714   4.607  15.815 -1.4111  0.5314 -0.2250
 9074SOL    HW238859   0.078   4.661  15.900  0.0596  1.2146  0.3990
 9075SOL     OW38860   1.030   1.752   8.644 -0.5411  0.0359 -0.1631
 9075SOL    HW138861   0.997   1.840   8.630 -2.3832 -0.5433  0.5084
 9075SOL    HW238862   0.971   1.703   8.586  1.3209 -1.8465 -0.4681
 9076SOL     OW38863   1.004   3.926   6.749 -0.0106  0.1065  0.7107
 9076SOL    HW138864   1.065   3.868   6.796 -0.9453 -0.0541  1.7181
 9076SOL    HW238865   1.068   3.948   6.682  1.0726 -2.0574  1.0181
 9077SOL     OW38866   4.149   3.778  16.632 -0.1269  0.3896 -0.2132
 9077SOL    HW138867   4.211   3.709  16.607  1.2477  1.6700 -0.3166
 9077SOL    HW238868   4.079   3.735  16.681  1.8235 -0.0488  2.1786
 9078SOL     OW38869   2.256   0.370  16.524  0.2630  0.3440 -0.4385
 9078SOL    HW138870   2.292   0.393  16.438 -0.5349 -0.2271 -0.9345
 9078SOL    HW238871   2.311   0.295  16.549 -1.3952 -0.7992 -0.2390
 9079SOL     OW38872   2.548   4.528   3.093  0.2599  0.0318 -0.3281
 9079SOL    HW138873   2.602   4.597   3.131  3.5418 -1.1701 -2.7792
 9079SOL    HW238874   2.495   4.515   3.171  0.1396  0.3720 -0.3568
 9080SOL     OW38875   3.898   4.315  12.860 -0.6366 -0.1727  0.1391
 9080SOL    HW138876   3.954   4.356  12.794  1.5227  1.5657  3.0410
 9080SOL    HW238877   3.864   4.400  12.889  1.9701  1.1918 -0.7628
 9081SOL     OW38878   1.943   0.105  10.737 -0.4891  0.4707  0.1640
 9081SOL    HW138879   1.929   0.011  10.747 -0.2842  0.4966  0.6668
 9081SOL    HW238880   2.037   0.112  10.758 -0.4495 -0.4350  0.2620
 9082SOL     OW38881   4.254   3.953  11.165 -0.3928  0.3830  0.2222
 9082SOL    HW138882   4.334   3.988  11.204 -0.3312  1.0564 -0.4967
 9082SOL    HW238883   4.298   3.905  11.094 -0.2157 -1.1558  1.3709
 9083SOL     OW38884   3.970   0.703   6.157 -0.3462 -0.2424  0.2113
 9083SOL    HW138885   3.877   0.711   6.137  0.2218  0.1263 -2.3693
 9083SOL    HW238886   3.986   0.639   6.088  1.0412 -1.3376  1.5655
 9084SOL     OW38887   2.927   4.177   8.730  0.2216 -0.1001 -0.2004
 9084SOL    HW138888   2.938   4.101   8.673  2.6719 -0.1362  0.2810
 9084SOL    HW238889   2.941   4.249   8.669 -0.0896  0.4383  0.3647
 9085SOL     OW38890   0.528   0.668   1.029  0.3589  0.3843  0.6469
 9085SOL    HW138891   0.485   0.726   0.966  1.4260  0.7432  0.2304
 9085SOL    HW238892   0.602   0.727   1.045 -0.5417  1.6361  0.1358
 9086SOL     OW38893   1.831   0.548  10.478 -0.3276 -0.1707 -0.2833
 9086SOL    HW138894   1.792   0.591  10.402  0.4893  2.2260  0.6814
 9086SOL    HW238895   1.923   0.528  10.458 -0.1231  0.8147 -0.2962
 9087SOL     OW38896   3.529   2.697  14.476 -0.8609  0.5311  0.7681
 9087SOL    HW138897   3.516   2.783  14.437  1.6150  0.9749  0.8682
 9087SOL    HW238898   3.482   2.628  14.429  0.0410  1.3100 -1.2671
 9088SOL     OW38899   3.996   0.979   8.716  0.0536 -0.1611  0.4512
 9088SOL    HW138900   4.000   1.074   8.703  0.0481  0.2169  3.1821
 9088SOL    HW238901   3.900   0.976   8.715 -0.0097  1.6383  0.5027
 9089SOL     OW38902   4.461   1.021  11.891 -0.0175  0.1259 -0.0251
 9089SOL    HW138903   4.387   1.059  11.842  1.0799  1.0893 -0.9287
 9089SOL    HW238904   4.446   1.053  11.980 -0.2888 -1.2486  0.4190
 9090SOL     OW38905   0.428   4.174   8.918  0.5825  0.4285  0.4484
 9090SOL    HW138906   0.459   4.086   8.940  1.2438  0.6335  0.3362
 9090SOL    HW238907   0.483   4.224   8.980  1.0421 -1.1319  1.2924
 9091SOL     OW38908   3.627   4.241   2.161  0.2144  0.3155  0.0929
 9091SOL    HW138909   3.661   4.165   2.113 -1.2839 -0.2057 -0.1578
 9091SOL    HW238910   3.659   4.215   2.247 -0.3795  0.7732  0.4474
 9092SOL     OW38911   2.923   1.434  10.021 -0.7789  0.0334 -0.2432
 9092SOL    HW138912   2.940   1.385   9.941  0.4214 -2.4861  1.5637
 9092SOL    HW238913   2.915   1.367  10.089  1.2025 -0.9005 -0.9220
 9093SOL     OW38914   2.989   3.802  10.554  0.0590  0.4366 -0.4719
 9093SOL    HW138915   3.021   3.725  10.507  0.7277  2.1290 -2.7447
 9093SOL    HW238916   3.071   3.833  10.592 -1.5918  0.7867  2.7510
 9094SOL     OW38917   0.862   3.291  10.037 -0.6150  0.4196 -0.1317
 9094SOL    HW138918   0.778   3.250  10.018 -0.0056 -1.3902  1.0070
 9094SOL    HW238919   0.890   3.330   9.954  2.6130  1.3943  1.4104
 9095SOL     OW38920   3.944   0.194   1.469  0.4286 -0.3444 -0.2687
 9095SOL    HW138921   4.012   0.192   1.537  1.8841 -0.4574 -1.7319
 9095SOL    HW238922   3.875   0.202   1.535 -0.4239 -0.9110 -1.0940
 9096SOL     OW38923   3.647   0.445   4.083  0.2312 -0.4775 -0.1831
 9096SOL    HW138924   3.711   0.432   4.013  0.1867  2.0671 -0.7008
 9096SOL    HW238925   3.596   0.521   4.052 -0.3405 -0.6941  0.2255
 9097SOL     OW38926   0.462   2.521  14.963 -0.3024 -0.3840 -0.0328
 9097SOL    HW138927   0.426   2.609  14.968  1.5646  0.2487  1.8433
 9097SOL    HW238928   0.477   2.519  14.868 -0.0369 -3.0360  0.0599
 9098SOL     OW38929   2.773   1.382   4.700 -0.1963  0.9511 -0.2138
 9098SOL    HW138930   2.698   1.368   4.641 -0.3733 -2.2002  0.7840
 9098SOL    HW238931   2.775   1.477   4.713  0.9276  0.9880 -0.6851
 9099SOL     OW38932   2.472   4.669  16.388  0.2794  0.2058  0.5347
 9099SOL    HW138933   2.526   4.605  16.341  2.2060  0.8070  1.9418
 9099SOL    HW238934   2.387   4.628  16.373 -0.8878  1.8631  2.6707
 9100SOL     OW38935   1.641   3.485   6.190  0.6307  0.2588 -0.3957
 9100SOL    HW138936   1.619   3.563   6.242 -1.9921  0.0026 -1.0945
 9100SOL    HW238937   1.733   3.480   6.215  0.9720 -2.2773 -2.2867
 9101SOL     OW38938   2.532   1.005  14.223  0.2217  0.1011  0.6530
 9101SOL    HW138939   2.438   1.020  14.238 -0.6594 -3.4890 -1.1513
 9101SOL    HW238940   2.538   1.060  14.145 -0.1485  2.3220  2.1850
 9102SOL     OW38941   4.052   3.398   3.747  0.6803 -0.0625  0.3610
 9102SOL    HW138942   4.124   3.336   3.759 -0.1653 -1.2684 -0.7092
 9102SOL    HW238943   4.042   3.439   3.833 -2.0121 -1.6214  0.7963
 9103SOL     OW38944   2.780   0.214   1.769 -0.0578 -0.3123 -0.3076
 9103SOL    HW138945   2.731   0.294   1.750 -0.0544 -0.5770 -1.3976
 9103SOL    HW238946   2.713   0.149   1.747  0.1733 -0.9166  0.7458
 9104SOL     OW38947   2.197   3.825   4.445 -0.4372 -0.0277 -0.5059
 9104SOL    HW138948   2.283   3.868   4.448  0.1084 -1.0343 -1.6040
 9104SOL    HW238949   2.139   3.900   4.459  1.0479  1.2537 -1.2063
 9105SOL     OW38950   4.610   2.750   7.329  0.4378  0.1249  0.4921
 9105SOL    HW138951   4.529   2.780   7.286 -0.7851 -1.0089  1.9892
 9105SOL    HW238952   4.593   2.656   7.336 -1.3086  0.3329 -0.8284
 9106SOL     OW38953   4.415   4.659  14.661 -0.5681 -0.3707 -0.3939
 9106SOL    HW138954   4.335   4.656  14.714 -0.4121 -3.1750 -0.3395
 9106SOL    HW238955   4.424   4.568  14.635 -3.0242 -1.1305  1.4023
 9107SOL     OW38956   0.807   0.106   3.843  0.2851 -0.3062  0.5763
 9107SOL    HW138957   0.809   0.114   3.939 -2.3466  0.4737  0.5575
 9107SOL    HW238958   0.800   0.012   3.822 -0.9826  0.4823 -2.4424
 9108SOL     OW38959   4.467   4.579   2.279 -0.5170 -0.4455  0.4990
 9108SOL    HW138960   4.520   4.623   2.213 -3.2566 -1.4755 -2.4004
 9108SOL    HW238961   4.417   4.643   2.330 -1.9272  0.3801 -1.8898
 9109SOL     OW38962   0.037   1.222  14.678 -0.0314 -0.2302  0.3774
 9109SOL    HW138963   0.032   1.128  14.695 -0.7592  0.1872  2.5430
 9109SOL    HW238964   4.709   1.220  14.605 -0.1853 -1.3130  0.5342
 9110SOL     OW38965   2.870   0.014  14.972  0.0762 -0.3592  0.3077
 9110SOL    HW138966   2.953   0.050  14.940  0.2682 -0.0880  1.1238
 9110SOL    HW238967   2.911   4.681  15.026  0.9638 -0.5751 -0.6309
 9111SOL     OW38968   0.327   4.291  14.105 -0.6844  0.2224  0.0737
 9111SOL    HW138969   0.240   4.281  14.144 -0.7007  0.0345 -0.0080
 9111SOL    HW238970   0.304   4.351  14.034 -0.0207  0.4429  0.0472
 9112SOL     OW38971   2.270   3.065   4.942 -0.0923  0.3613 -0.0732
 9112SOL    HW138972   2.247   2.992   4.999 -0.9859  0.7802  0.1032
 9112SOL    HW238973   2.184   3.105   4.927 -0.0360  0.1058 -1.1176
 9113SOL     OW38974   3.478   1.615  10.754  0.6516  0.2915 -0.0818
 9113SOL    HW138975   3.401   1.646  10.802  2.2444  1.7995  1.5166
 9113SOL    HW238976   3.535   1.681  10.794  1.5745  0.7737 -2.1907
 9114SOL     OW38977   2.049   3.946  17.717  0.0286 -0.3867 -0.4473
 9114SOL    HW138978   1.961   3.925  17.685 -1.1381 -0.1861  2.6257
 9114SOL    HW238979   2.102   3.912  17.645  0.6638  1.4538 -0.8626
 9115SOL     OW38980   0.911   0.254   5.457 -0.1456  0.1339 -0.3748
 9115SOL    HW138981   1.006   0.269   5.463 -0.0022 -0.7754 -0.5085
 9115SOL    HW238982   0.891   0.239   5.365 -0.9445  0.1747 -0.2078
 9116SOL     OW38983   1.194   3.708   4.122  0.2550  0.1663 -0.0445
 9116SOL    HW138984   1.250   3.631   4.105  1.4034  0.8077  0.8531
 9116SOL    HW238985   1.109   3.666   4.130 -0.6555  2.1336  0.4429
 9117SOL     OW38986   4.139   3.964   4.770 -0.3072 -0.3709 -0.5063
 9117SOL    HW138987   4.071   4.012   4.723  1.6727  2.5699 -0.3231
 9117SOL    HW238988   4.168   3.915   4.693 -0.7244 -0.6299 -0.4998
 9118SOL     OW38989   4.111   4.718  14.692  0.2785 -0.1678  0.4225
 9118SOL    HW138990   4.141   0.061  14.739 -1.6174  1.6967 -1.4390
 9118SOL    HW238991   4.064   0.028  14.621 -1.2167 -0.4245  1.2616
 9119SOL     OW38992   1.556   1.336   6.773 -0.4888  0.0384 -0.5204
 9119SOL    HW138993   1.513   1.253   6.793  1.4182 -0.5045  1.3834
 9119SOL    HW238994   1.625   1.333   6.839  0.2286  2.6926 -1.1655
 9120SOL     OW38995   0.124   0.634   9.858 -0.3356 -0.2678  0.5188
 9120SOL    HW138996   0.122   0.575   9.783  0.7610 -0.7137  0.8427
 9120SOL    HW238997   0.119   0.569   9.929  0.3482 -0.7356  0.1347
 9121SOL     OW38998   1.053   3.521   6.481 -0.2192  0.1540  0.2166
 9121SOL    HW138999   1.093   3.483   6.560 -1.2459  0.1819  0.7531
 9121SOL    HW239000   1.107   3.598   6.461  0.6836 -0.4575  0.2630
 9122SOL     OW39001   2.745   3.289   2.986  0.1069  0.4794 -0.0001
 9122SOL    HW139002   2.839   3.270   2.981  0.0184  0.0105  0.1743
 9122SOL    HW239003   2.721   3.271   3.077  0.5042  0.2190  0.0550
 9123SOL     OW39004   0.159   2.341  10.439  0.5421 -0.2414 -0.1946
 9123SOL    HW139005   0.224   2.406  10.467 -0.8365  0.4128  1.4956
 9123SOL    HW239006   0.145   2.306  10.527 -2.8145  1.6894  0.0255
 9124SOL     OW39007   4.022   3.849  10.234 -0.0107 -0.3218 -0.5716
 9124SOL    HW139008   4.045   3.844  10.142 -1.4208 -3.0667 -0.7561
 9124SOL    HW239009   4.081   3.903  10.288  2.1881 -1.5826 -1.7109
 9125SOL     OW39010   0.562   4.085   6.963 -0.0277 -0.0169  0.1732
 9125SOL    HW139011   0.539   3.999   6.999  1.0940 -0.1660  0.5112
 9125SOL    HW239012   0.634   4.075   6.902  0.0571 -1.9306  0.5712
 9126SOL     OW39013   2.013   3.746  13.440  0.0139  0.5177  0.0944
 9126SOL    HW139014   2.021   3.760  13.534 -1.0655  0.1111  0.2468
 9126SOL    HW239015   1.928   3.702  13.437 -0.0191  0.5224  1.2352
 9127SOL     OW39016   0.244   3.744  10.948 -0.3363 -0.6331 -0.8260
 9127SOL    HW139017   0.207   3.695  11.022  1.5724 -0.2214  0.4237
 9127SOL    HW239018   0.315   3.797  10.985 -1.3550 -0.2667  0.6024
 9128SOL     OW39019   0.959   3.252   2.318 -0.8402 -0.5000  0.0958
 9128SOL    HW139020   0.981   3.231   2.228 -0.1451  2.0366 -0.3217
 9128SOL    HW239021   1.029   3.204   2.364 -0.0423 -1.6271 -2.2931
 9129SOL     OW39022   2.873   3.873   7.234 -0.0439  0.2523 -0.1924
 9129SOL    HW139023   2.820   3.938   7.282  0.3173  0.5376 -0.1779
 9129SOL    HW239024   2.890   3.915   7.150  0.8970  0.3209  0.0336
 9130SOL     OW39025   0.054   2.224   4.087 -0.3966  0.6420 -0.1654
 9130SOL    HW139026   4.723   2.192   4.150  1.2466  0.1725  1.3197
 9130SOL    HW239027   0.028   2.169   4.014  0.4174 -0.3385  0.2799
 9131SOL     OW39028   4.442   1.155   4.449  0.1271 -0.2220 -0.2602
 9131SOL    HW139029   4.505   1.200   4.393 -0.6497  2.3112  0.8958
 9131SOL    HW239030   4.388   1.126   4.375  0.9515  0.6619 -1.2072
 9132SOL     OW39031   3.392   1.747   1.626  0.2606  0.6025  0.4655
 9132SOL    HW139032   3.452   1.800   1.678  0.3419  0.1652  0.8255
 9132SOL    HW239033   3.406   1.775   1.536 -0.9195 -1.8990 -0.5184
 9133SOL     OW39034   2.741   0.521   5.748  0.1630  0.1027 -0.0722
 9133SOL    HW139035   2.826   0.547   5.785 -0.5504 -0.9231  2.3037
 9133SOL    HW239036   2.754   0.431   5.781  1.3872  0.7865  1.3511
 9134SOL     OW39037   1.248   0.093   6.301 -0.0569  0.0135  0.2243
 9134SOL    HW139038   1.294   0.177   6.306 -1.0288  0.5034  1.0001
 9134SOL    HW239039   1.276   0.055   6.218  0.4683  0.2273  0.3053
 9135SOL     OW39040   0.324   0.575   7.301 -0.6436  0.1106 -0.3639
 9135SOL    HW139041   0.391   0.586   7.369  0.0232 -0.1712 -0.9650
 9135SOL    HW239042   0.277   0.658   7.310  2.2493  1.7209  0.0544
 9136SOL     OW39043   3.986   0.134  15.720  0.1990 -0.0607 -0.2574
 9136SOL    HW139044   4.062   0.174  15.761  0.2795  1.8135 -2.2027
 9136SOL    HW239045   3.931   0.159  15.794  1.6809  1.4521  0.3438
 9137SOL     OW39046   0.625   1.125   2.958 -0.1788 -0.2192 -0.2148
 9137SOL    HW139047   0.531   1.135   2.947  0.1630  3.0520  0.0206
 9137SOL    HW239048   0.643   1.032   2.945 -0.9810 -0.0618 -2.3925
 9138SOL     OW39049   1.842   1.630   2.335 -0.2844  0.9351 -0.0632
 9138SOL    HW139050   1.851   1.718   2.299 -0.1139  1.0819  0.3263
 9138SOL    HW239051   1.755   1.634   2.375  0.2428 -1.3838  1.3054
 9139SOL     OW39052   0.478   2.096   3.882 -0.8164 -0.5945 -0.0336
 9139SOL    HW139053   0.508   2.152   3.810 -0.9254 -0.2460  0.1931
 9139SOL    HW239054   0.456   2.165   3.945 -0.1236  0.2544 -0.7190
 9140SOL     OW39055   0.105   1.124   3.794 -0.2247  0.1108  0.0057
 9140SOL    HW139056   0.030   1.105   3.738  0.4917 -0.5176 -0.7397
 9140SOL    HW239057   0.083   1.058   3.860  1.2385 -0.7668 -0.3863
 9141SOL     OW39058   4.205   3.870   5.529  0.2134 -0.4994 -0.0157
 9141SOL    HW139059   4.182   3.961   5.514  1.1938 -0.0498  1.2022
 9141SOL    HW239060   4.291   3.874   5.571  1.0307  0.8846 -1.8336
 9142SOL     OW39061   1.269   4.504   7.702  0.2844 -0.3555  0.2114
 9142SOL    HW139062   1.219   4.426   7.677 -0.4822  0.0572  0.4602
 9142SOL    HW239063   1.321   4.463   7.771  2.2361  1.3697 -0.2396
 9143SOL     OW39064   3.399   2.392  10.863  0.2810  0.3969  0.0760
 9143SOL    HW139065   3.344   2.315  10.849  0.2391  0.7014 -1.3927
 9143SOL    HW239066   3.399   2.419  10.771 -1.5767  0.5699  0.1206
 9144SOL     OW39067   1.655   0.474   7.426  0.2266  0.2028 -0.4274
 9144SOL    HW139068   1.575   0.524   7.412  0.7375  1.4941  1.2259
 9144SOL    HW239069   1.716   0.532   7.380  1.0979 -1.8616 -1.8345
 9145SOL     OW39070   3.092   2.263   2.525 -0.1841 -0.0182 -0.2095
 9145SOL    HW139071   3.170   2.245   2.577 -0.8863  0.2783  0.9295
 9145SOL    HW239072   3.137   2.294   2.446 -0.8876 -1.7448 -1.2874
 9146SOL     OW39073   3.884   0.798   3.371 -0.3608 -0.3784  0.1692
 9146SOL    HW139074   3.804   0.847   3.351 -2.1242 -2.5814  1.7845
 9146SOL    HW239075   3.852   0.707   3.377  1.6564 -1.1389 -0.6030
 9147SOL     OW39076   1.141   0.634   2.658 -0.1820 -0.4295 -0.1613
 9147SOL    HW139077   1.051   0.656   2.636  0.4204  0.8960 -1.3149
 9147SOL    HW239078   1.134   0.554   2.711  1.6781  0.9416  2.1915
 9148SOL     OW39079   2.292   0.709   3.840 -0.2191 -0.0690 -0.0181
 9148SOL    HW139080   2.232   0.636   3.830  0.7381 -0.9607  0.8326
 9148SOL    HW239081   2.239   0.753   3.906 -1.8228  0.4504 -1.6466
 9149SOL     OW39082   4.340   4.120   5.158 -0.8351  0.2319 -0.7119
 9149SOL    HW139083   4.277   4.144   5.090 -1.3089 -0.3663 -0.4845
 9149SOL    HW239084   4.367   4.030   5.143 -0.8892  0.3102 -1.2733
 9150SOL     OW39085   3.055   4.543  16.386 -0.4953 -0.6447  0.0715
 9150SOL    HW139086   3.137   4.588  16.366 -0.4661 -0.0189  1.5467
 9150SOL    HW239087   2.984   4.592  16.345  0.0900  1.3047  1.3699
 9151SOL     OW39088   2.082   4.601   6.110  0.4816 -0.2086  0.2084
 9151SOL    HW139089   2.012   4.549   6.152  0.7817 -1.6640 -1.0840
 9151SOL    HW239090   2.062   4.598   6.016  1.0367  0.0783  0.0850
 9152SOL     OW39091   3.923   2.166   5.135 -0.5063 -0.0642  0.8056
 9152SOL    HW139092   3.833   2.153   5.165 -0.6427 -0.0759  0.3991
 9152SOL    HW239093   3.959   2.081   5.163  1.8613 -0.2638 -2.7744
 9153SOL     OW39094   0.216   4.574   2.359 -0.3503  0.0653 -0.2082
 9153SOL    HW139095   0.210   4.548   2.450 -0.1564  3.0835  0.6753
 9153SOL    HW239096   0.139   4.626   2.335 -0.0871 -0.5430 -2.3739
 9154SOL     OW39097   0.000   2.361  10.204  0.4510  0.3524 -0.0684
 9154SOL    HW139098   0.057   2.342  10.278  0.7315 -0.2256 -0.4315
 9154SOL    HW239099   0.018   2.280  10.157 -0.3734 -0.1058  0.4136
 9155SOL     OW39100   3.091   1.040  15.840  0.1106 -0.2320 -0.6490
 9155SOL    HW139101   3.115   0.966  15.784 -0.3878 -0.5585 -0.4375
 9155SOL    HW239102   3.179   1.075  15.829 -0.4285  1.2370 -0.2351
 9156SOL     OW39103   2.065   1.240   1.471 -0.7294  0.4830 -0.7545
 9156SOL    HW139104   2.079   1.294   1.393  1.1409  0.9513 -0.0842
 9156SOL    HW239105   2.148   1.249   1.516 -0.4388 -0.9674 -1.0104
 9157SOL     OW39106   4.383   1.377   9.118  0.1048  0.9987 -0.2117
 9157SOL    HW139107   4.415   1.291   9.146 -0.0918  0.9847 -0.0276
 9157SOL    HW239108   4.425   1.440   9.176  1.3373 -0.5518  0.5674
 9158SOL     OW39109   1.692   3.273   7.214  0.5220 -0.4109  0.1880
 9158SOL    HW139110   1.654   3.222   7.285 -0.8838 -1.8648 -1.6151
 9158SOL    HW239111   1.616   3.304   7.164  1.0480 -0.3914 -0.6022
 9159SOL     OW39112   3.357   4.271   8.100  0.1857 -0.3145  0.1220
 9159SOL    HW139113   3.394   4.310   8.021 -2.1013 -1.2867 -1.4095
 9159SOL    HW239114   3.350   4.179   8.076  1.7060 -0.4002 -0.0006
 9160SOL     OW39115   3.026   0.601   9.113  0.3357 -0.4807  0.2904
 9160SOL    HW139116   3.028   0.543   9.190  0.4326 -0.2633  0.4516
 9160SOL    HW239117   2.984   0.676   9.156  0.6896 -0.4020  0.5010
 9161SOL     OW39118   1.451   3.348  15.908  0.1899 -0.5110 -0.5141
 9161SOL    HW139119   1.366   3.316  15.876  0.1355  0.0566 -0.9264
 9161SOL    HW239120   1.508   3.309  15.843  1.1447  2.9637 -1.7409
 9162SOL     OW39121   0.038   1.133  13.468 -0.5342  1.2169  0.6634
 9162SOL    HW139122   0.063   1.060  13.410 -3.2666  1.6201 -1.0241
 9162SOL    HW239123   4.727   1.098  13.544  1.1721 -1.9638  0.2088
 9163SOL     OW39124   2.047   3.537   2.707 -0.2217 -0.0511  0.1921
 9163SOL    HW139125   2.011   3.450   2.725 -0.9894  0.1161 -0.5775
 9163SOL    HW239126   2.027   3.593   2.782 -0.8272 -0.5580  0.4112
 9164SOL     OW39127   3.864   2.797   3.392 -0.0849 -0.3796 -0.3190
 9164SOL    HW139128   3.805   2.872   3.394 -1.1330 -1.1881 -0.7050
 9164SOL    HW239129   3.813   2.723   3.425  3.4214 -2.8082 -0.3265
 9165SOL     OW39130   4.407   1.849  12.359  0.3428  0.0907  0.5271
 9165SOL    HW139131   4.335   1.899  12.321 -0.2222  0.0428  1.5183
 9165SOL    HW239132   4.423   1.784  12.290 -0.3571  1.3606 -0.8237
 9166SOL     OW39133   3.521   3.309   2.786 -0.0417 -0.7128 -0.4755
 9166SOL    HW139134   3.597   3.298   2.730 -0.4736 -1.5402 -0.9118
 9166SOL    HW239135   3.568   3.356   2.854 -1.2399 -1.0385  0.5864
 9167SOL     OW39136   1.428   2.930   5.034  0.4981 -0.2198 -0.4324
 9167SOL    HW139137   1.378   2.940   4.953 -0.6330 -1.5214  0.0973
 9167SOL    HW239138   1.430   2.839   5.065  1.7310 -0.0820 -0.1205
 9168SOL     OW39139   1.485   4.455   3.926  0.4509 -0.3644 -0.2360
 9168SOL    HW139140   1.454   4.545   3.921 -0.8437 -0.7961 -0.0578
 9168SOL    HW239141   1.517   4.440   3.837 -1.1445 -1.8248 -0.5758
 9169SOL     OW39142   0.530   4.319   9.134 -0.2157  0.4679  0.0735
 9169SOL    HW139143   0.581   4.353   9.207  1.0675 -1.2408 -0.0444
 9169SOL    HW239144   0.438   4.338   9.153 -0.5289  1.8078 -2.7410
 9170SOL     OW39145   1.486   0.279   5.998  0.3421 -0.1994 -0.4865
 9170SOL    HW139146   1.476   0.362   6.044  3.2043 -0.4946  0.6803
 9170SOL    HW239147   1.569   0.244   6.029  0.3390 -0.3074 -0.6024
 9171SOL     OW39148   4.095   1.707   4.406 -0.1504  0.1843  0.1413
 9171SOL    HW139149   4.129   1.750   4.328 -0.9052 -1.6102 -1.1842
 9171SOL    HW239150   4.097   1.787   4.459 -0.2693  0.6171 -0.5128
 9172SOL     OW39151   2.045   0.846   3.088 -0.2719  0.3271 -0.2994
 9172SOL    HW139152   1.980   0.887   3.032 -0.1792 -1.1948 -1.5180
 9172SOL    HW239153   1.996   0.811   3.162  0.9997 -1.0466 -0.1030
 9173SOL     OW39154   1.305   4.190   4.344 -0.5148  0.0000 -1.0829
 9173SOL    HW139155   1.359   4.242   4.403 -1.3351 -1.0102  0.5506
 9173SOL    HW239156   1.271   4.261   4.289 -1.6132 -0.1913 -0.6487
 9174SOL     OW39157   3.822   1.260   3.795 -0.6060  0.3855  0.1308
 9174SOL    HW139158   3.858   1.349   3.787  1.5224 -0.3776  1.2757
 9174SOL    HW239159   3.773   1.261   3.713 -0.1375 -0.1535 -0.1488
 9175SOL     OW39160   4.548   2.647   2.544  0.2596 -0.5160 -0.1517
 9175SOL    HW139161   4.483   2.588   2.504  0.6401 -1.0923  0.0887
 9175SOL    HW239162   4.627   2.629   2.493  0.3182  0.6419 -0.4652
 9176SOL     OW39163   2.906   1.037   2.597 -0.2237 -0.1810 -0.9690
 9176SOL    HW139164   2.888   1.072   2.510 -0.3042  0.2009 -0.7984
 9176SOL    HW239165   2.990   1.079   2.611  0.1352 -0.7977 -1.2981
 9177SOL     OW39166   4.140   1.576   5.996 -0.1597  0.5156  0.0877
 9177SOL    HW139167   4.108   1.611   6.079  0.5734 -1.7901  1.3493
 9177SOL    HW239168   4.233   1.559   6.013  0.0033 -1.5283 -2.8419
 9178SOL     OW39169   3.158   2.110  13.772 -0.0024  0.4159 -0.3088
 9178SOL    HW139170   3.163   2.054  13.695 -0.9636 -2.0925  1.4179
 9178SOL    HW239171   3.249   2.106  13.800  0.6427 -2.5167 -2.8592
 9179SOL     OW39172   1.375   2.270   8.457 -0.3096 -0.1365  0.1729
 9179SOL    HW139173   1.302   2.317   8.498 -0.1364 -0.6400  1.0455
 9179SOL    HW239174   1.343   2.180   8.456  1.8211 -0.8551 -0.8755
 9180SOL     OW39175   3.606   4.395   7.012 -0.1101 -0.1382  0.2230
 9180SOL    HW139176   3.674   4.389   6.944 -0.4033  0.5556 -0.1348
 9180SOL    HW239177   3.611   4.308   7.051 -1.4068 -0.8313 -1.1780
 9181SOL     OW39178   2.539   4.347   7.017  0.4948 -0.3669 -0.2412
 9181SOL    HW139179   2.616   4.304   7.055 -0.0167  1.3239  2.6743
 9181SOL    HW239180   2.538   4.425   7.072  0.4102 -0.2158 -0.4555
 9182SOL     OW39181   4.191   0.082  13.220 -0.0726  0.7842  0.5659
 9182SOL    HW139182   4.257   0.076  13.151 -0.1550 -0.1184  0.5631
 9182SOL    HW239183   4.223   0.162  13.262 -1.2245  1.7842 -0.4716
 9183SOL     OW39184   0.423   2.315   0.219  0.1484  0.0072 -0.3477
 9183SOL    HW139185   0.406   2.409   0.211  1.4888  0.2706  0.0178
 9183SOL    HW239186   0.346   2.278   0.262 -0.9281 -0.5708 -2.7588
 9184SOL     OW39187   0.711   4.444   9.312  0.4018  0.2958 -0.3500
 9184SOL    HW139188   0.733   4.529   9.273 -0.2779  0.9858  0.7772
 9184SOL    HW239189   0.682   4.489   9.392  0.7651 -0.6045  0.2858
 9185SOL     OW39190   1.755   3.428   9.464 -0.5560 -0.1212 -0.2331
 9185SOL    HW139191   1.830   3.482   9.492 -1.3571  0.4666  0.7890
 9185SOL    HW239192   1.798   3.370   9.402 -1.4641 -2.5190  1.4185
 9186SOL     OW39193   1.432   0.947   8.631  0.1739  0.1253  0.0226
 9186SOL    HW139194   1.476   0.927   8.549 -1.2409  0.4428 -0.8227
 9186SOL    HW239195   1.462   1.038   8.631  0.6142 -0.0281  1.0223
 9187SOL     OW39196   4.132   3.185   8.870  0.0330  0.1083 -0.0408
 9187SOL    HW139197   4.209   3.159   8.922  0.4787  2.5676  0.5490
 9187SOL    HW239198   4.123   3.276   8.898  0.3016  0.5022 -1.2537
 9188SOL     OW39199   2.212   4.299   9.568 -0.3155  0.4121 -0.0154
 9188SOL    HW139200   2.256   4.341   9.642 -1.4007 -1.2952  1.5997
 9188SOL    HW239201   2.118   4.309   9.580 -0.4741  0.9015 -1.6049
 9189SOL     OW39202   2.802   2.673   1.244  0.3527  0.0473  0.0835
 9189SOL    HW139203   2.802   2.769   1.234 -2.0557  0.0984  0.6137
 9189SOL    HW239204   2.887   2.645   1.278  0.4274  1.2774  0.9258
 9190SOL     OW39205   3.862   0.114   3.194  0.2220  0.0208 -0.3154
 9190SOL    HW139206   3.809   0.037   3.176 -1.4748  1.0776  0.1398
 9190SOL    HW239207   3.808   0.179   3.147 -1.4068 -0.6999  0.5760
 9191SOL     OW39208   1.661   1.647  12.643  0.4278 -0.0077 -0.1783
 9191SOL    HW139209   1.732   1.636  12.707 -0.1742  1.0468  0.6713
 9191SOL    HW239210   1.670   1.565  12.594 -0.4160 -1.1619  1.5796
 9192SOL     OW39211   1.411   0.099   9.022 -0.2038  0.4232 -0.1293
 9192SOL    HW139212   1.388   0.126   8.934  1.4364  3.2507  0.2700
 9192SOL    HW239213   1.435   0.182   9.065  0.9371  0.9425 -1.7671
 9193SOL     OW39214   2.681   1.547  12.571 -0.8349 -0.3916  0.1040
 9193SOL    HW139215   2.767   1.588  12.562 -1.0583  0.4647  1.8621
 9193SOL    HW239216   2.666   1.525  12.479  2.0119 -0.7653 -0.2643
 9194SOL     OW39217   1.612   2.172   6.792 -0.4681 -0.3127  0.5473
 9194SOL    HW139218   1.552   2.175   6.866 -1.1243  2.1180 -0.0686
 9194SOL    HW239219   1.618   2.259   6.752  0.4614  0.6070  2.7051
 9195SOL     OW39220   1.205   1.251   1.847  0.6010 -0.2656  0.8145
 9195SOL    HW139221   1.244   1.329   1.808 -0.9857 -0.4190 -1.0561
 9195SOL    HW239222   1.281   1.229   1.900 -0.3072 -0.2101  2.1384
 9196SOL     OW39223   1.206   3.584   7.865 -0.2112 -0.3043  0.2286
 9196SOL    HW139224   1.230   3.492   7.852  0.5852 -0.3121  1.7697
 9196SOL    HW239225   1.135   3.584   7.801 -0.0227 -1.8294  0.0196
 9197SOL     OW39226   0.231   1.255   4.186  0.0405  0.1182 -1.0019
 9197SOL    HW139227   0.287   1.306   4.243 -1.8978  2.0701 -0.8466
 9197SOL    HW239228   0.302   1.246   4.122  3.5165  0.4855  2.8239
 9198SOL     OW39229   4.131   0.452   2.199  0.3111 -0.0836 -0.3601
 9198SOL    HW139230   4.053   0.489   2.240 -0.6000 -0.0049 -2.1978
 9198SOL    HW239231   4.187   0.530   2.198  0.9482 -0.5238  0.6877
 9199SOL     OW39232   2.035   4.362   1.014  0.5255  0.6730  0.3548
 9199SOL    HW139233   2.083   4.394   1.090 -2.0547  2.6832  1.1473
 9199SOL    HW239234   1.950   4.391   1.047  0.4844  1.7278 -0.6744
 9200SOL     OW39235   2.641   0.544   6.771 -0.0905  0.6001 -0.0093
 9200SOL    HW139236   2.624   0.635   6.749 -0.5455  0.3920 -0.5322
 9200SOL    HW239237   2.583   0.500   6.709  1.0500 -0.0281 -0.6249
 9201SOL     OW39238   0.045   2.219  14.754 -0.1381 -0.0172  0.0528
 9201SOL    HW139239   0.091   2.281  14.698 -1.3448 -0.3536 -1.2915
 9201SOL    HW239240   4.704   2.275  14.774 -0.0698 -0.0506  0.4094
 9202SOL     OW39241   4.349   0.321   6.232 -0.1964 -0.2668  0.3808
 9202SOL    HW139242   4.405   0.250   6.265 -1.1100 -0.0590  2.3383
 9202SOL    HW239243   4.308   0.285   6.153  1.2602  0.4265 -0.6843
 9203SOL     OW39244   0.471   3.901   1.643  0.7737 -1.0392 -0.0661
 9203SOL    HW139245   0.472   3.997   1.640 -2.8851 -1.0062 -0.3861
 9203SOL    HW239246   0.380   3.878   1.627  1.5097 -1.4495 -3.7610
 9204SOL     OW39247   2.098   0.121  16.328  0.2663  0.4330  0.2457
 9204SOL    HW139248   2.049   0.045  16.358  3.6114 -0.8709  2.4597
 9204SOL    HW239249   2.073   0.185  16.395 -0.0754  0.9034 -0.3304
 9205SOL     OW39250   4.196   3.976  10.730  0.3381  0.1826  0.0509
 9205SOL    HW139251   4.194   3.929  10.813 -0.8143 -0.3529 -0.2814
 9205SOL    HW239252   4.213   3.913  10.660 -1.5202 -0.9328  0.6045
 9206SOL     OW39253   3.157   1.416   8.275  0.6136  0.3855  0.5623
 9206SOL    HW139254   3.067   1.386   8.288  1.4269 -1.5647  1.5740
 9206SOL    HW239255   3.199   1.370   8.347 -0.9557 -0.0274  1.2021
 9207SOL     OW39256   3.698   2.453   7.934  0.2682 -0.0341 -0.0040
 9207SOL    HW139257   3.713   2.395   8.009  0.4240 -0.1738 -0.1414
 9207SOL    HW239258   3.611   2.490   7.948  0.6407  0.3630  1.2610
 9208SOL     OW39259   4.019   1.568  11.058  0.6369 -1.0894 -0.1565
 9208SOL    HW139260   3.987   1.640  11.004  0.4213  1.0444  2.7519
 9208SOL    HW239261   3.951   1.562  11.125 -0.5016  0.3111 -1.1948
 9209SOL     OW39262   3.225   1.719   3.635  0.2953 -0.1078 -0.6509
 9209SOL    HW139263   3.313   1.750   3.656  1.1629 -2.8902 -0.2324
 9209SOL    HW239264   3.210   1.644   3.692  0.9469 -0.7402 -1.3069
 9210SOL     OW39265   3.973   4.720   8.328  0.2379 -0.0211 -0.1082
 9210SOL    HW139266   3.984   0.008   8.235  0.5262 -1.4722 -0.4023
 9210SOL    HW239267   3.897   4.662   8.337  0.2558  0.1500  1.1219
 9211SOL     OW39268   0.736   2.630   3.793  0.1031 -0.2547  0.4864
 9211SOL    HW139269   0.657   2.684   3.785  0.1659 -0.5522 -2.1506
 9211SOL    HW239270   0.743   2.608   3.700  2.7601  0.5392  0.5174
 9212SOL     OW39271   4.105   0.163   8.846 -0.3411  0.5941 -0.2885
 9212SOL    HW139272   4.014   0.174   8.817  1.1957  3.6098 -3.8348
 9212SOL    HW239273   4.136   0.237   8.794 -1.1695  1.2992  0.2146
 9213SOL     OW39274   2.348   3.872   8.722 -0.4634 -0.1457  0.6633
 9213SOL    HW139275   2.321   3.782   8.703  0.3026  0.0315 -1.2477
 9213SOL    HW239276   2.442   3.865   8.741 -1.0930 -1.5103  3.3290
 9214SOL     OW39277   0.990   3.346   7.000 -0.0774  0.1492 -0.7337
 9214SOL    HW139278   0.951   3.432   6.985 -1.1487 -0.0903  0.6395
 9214SOL    HW239279   0.955   3.341   7.089 -0.2242 -2.8979 -0.9494
 9215SOL     OW39280   2.141   3.544   3.150  0.0474 -0.4711  0.4406
 9215SOL    HW139281   2.199   3.617   3.127 -1.5554  0.8557  0.5947
 9215SOL    HW239282   2.189   3.479   3.098 -1.2680 -1.2218  0.1579
 9216SOL     OW39283   1.647   0.300   7.014  0.0619  0.4003 -0.4711
 9216SOL    HW139284   1.563   0.345   7.006 -0.3841 -1.1951 -4.4700
 9216SOL    HW239285   1.631   0.221   6.962  0.0736 -1.3176  2.1313
 9217SOL     OW39286   4.139   0.189   2.271  0.7752  0.2602 -0.3267
 9217SOL    HW139287   4.043   0.189   2.279  0.8609 -0.2680  0.7500
 9217SOL    HW239288   4.154   0.283   2.267  1.9767 -0.0810 -3.6910
 9218SOL     OW39289   3.523   3.114  11.952  0.4054 -0.2959 -0.5642
 9218SOL    HW139290   3.602   3.126  12.005  0.3379  1.8102 -0.9494
 9218SOL    HW239291   3.489   3.040  12.002  2.2731  0.1083  1.3327
 9219SOL     OW39292   3.140   1.061   0.540  0.2756 -0.0436 -0.4921
 9219SOL    HW139293   3.127   1.117   0.617  0.5331  1.1459 -1.3058
 9219SOL    HW239294   3.163   0.973   0.570  2.3281  0.3616 -0.9059
 9220SOL     OW39295   1.931   4.280  10.018 -0.0689 -0.3315  0.2131
 9220SOL    HW139296   1.842   4.297  10.050  1.1282 -0.0980  3.3655
 9220SOL    HW239297   1.917   4.268   9.924 -0.6009 -3.5955  0.6929
 9221SOL     OW39298   2.646   2.066  10.293 -0.2009  0.7908 -0.5852
 9221SOL    HW139299   2.607   2.081  10.207 -1.0828 -2.0062 -0.6428
 9221SOL    HW239300   2.689   1.983  10.274 -0.2173  0.6044  0.1936
 9222SOL     OW39301   0.702   0.558   3.494  0.2177  0.1207 -0.3479
 9222SOL    HW139302   0.687   0.471   3.458 -1.0370 -0.4029  1.4831
 9222SOL    HW239303   0.794   0.570   3.469 -0.0188  0.9111 -0.8531
 9223SOL     OW39304   0.061   1.702  14.948 -0.0231  1.2823  0.1913
 9223SOL    HW139305   0.118   1.636  14.909 -0.2570  0.9231  0.4616
 9223SOL    HW239306   0.064   1.780  14.893 -0.2866  2.3188  1.6478
 9224SOL     OW39307   2.207   2.480   2.611  0.0170 -0.3735 -0.6492
 9224SOL    HW139308   2.249   2.492   2.696  0.3727 -0.7198 -0.7752
 9224SOL    HW239309   2.196   2.572   2.591  1.4742 -0.0256  0.1398
 9225SOL     OW39310   1.144   1.466  12.126 -0.1858 -0.2507 -0.2684
 9225SOL    HW139311   1.119   1.374  12.123 -2.0252  0.2074  1.0536
 9225SOL    HW239312   1.223   1.468  12.179  0.3479  1.0638 -1.1068
 9226SOL     OW39313   3.361   3.706  13.342 -0.2590 -0.3017  0.0159
 9226SOL    HW139314   3.356   3.696  13.437 -0.1594  0.7572  0.1293
 9226SOL    HW239315   3.434   3.645  13.333  1.0273  1.7239 -2.9196
 9227SOL     OW39316   2.179   3.427   1.510 -0.4124  0.2883 -0.9575
 9227SOL    HW139317   2.249   3.407   1.571 -0.1243  1.3245 -0.9485
 9227SOL    HW239318   2.174   3.345   1.461 -0.1020 -1.1089  1.3453
 9228SOL     OW39319   1.582   0.368   6.587  0.0234  0.1666 -0.6072
 9228SOL    HW139320   1.618   0.355   6.499 -0.5868  0.3605 -0.8781
 9228SOL    HW239321   1.516   0.436   6.576 -0.8872 -0.5050  0.6634
 9229SOL     OW39322   2.188   3.832   1.957 -0.0391 -0.1648 -0.0349
 9229SOL    HW139323   2.237   3.815   2.038 -0.1381  2.3327  0.5390
 9229SOL    HW239324   2.109   3.873   1.994  0.4162  0.3641  0.3474
 9230SOL     OW39325   4.552   1.285   6.569  0.2503 -0.4798  0.0531
 9230SOL    HW139326   4.544   1.262   6.662 -0.2729 -0.1113  0.1001
 9230SOL    HW239327   4.639   1.246   6.564  0.3940 -0.3536  1.4748
 9231SOL     OW39328   3.458   4.559   7.170 -0.0209  0.0455  0.3382
 9231SOL    HW139329   3.517   4.506   7.117 -0.4379 -1.0091  0.9129
 9231SOL    HW239330   3.385   4.497   7.182  0.8680 -1.5047 -2.3547
 9232SOL     OW39331   4.419   2.686   7.879  0.0107 -0.0610 -0.4311
 9232SOL    HW139332   4.363   2.743   7.932 -1.9305 -3.4569  1.1397
 9232SOL    HW239333   4.391   2.598   7.905  0.1011 -0.7948 -2.7885
 9233SOL     OW39334   0.835   3.216   4.141  0.0748 -0.0671  0.8442
 9233SOL    HW139335   0.800   3.303   4.120 -0.7856 -0.7523 -0.5948
 9233SOL    HW239336   0.920   3.219   4.098 -0.1301  1.1221  0.5248
 9234SOL     OW39337   3.758   4.074   2.378 -0.2067  0.1096  0.6387
 9234SOL    HW139338   3.677   4.038   2.417  0.1843  1.1507  2.4113
 9234SOL    HW239339   3.820   4.004   2.398 -1.4905 -0.9436  0.9449
 9235SOL     OW39340   2.961   1.230  11.904 -0.0957 -0.0705  0.1632
 9235SOL    HW139341   2.971   1.325  11.898  0.3658 -0.0341  1.4205
 9235SOL    HW239342   3.014   1.204  11.829  1.6579 -0.3695  1.4799
 9236SOL     OW39343   4.117   4.131  11.320  0.2886  0.0248 -0.0099
 9236SOL    HW139344   4.032   4.087  11.316  1.6143 -2.5701  0.1807
 9236SOL    HW239345   4.160   4.052  11.287 -1.6622 -0.4684 -1.3809
 9237SOL     OW39346   4.076   1.114   3.486 -0.3347  0.1972  0.2622
 9237SOL    HW139347   4.105   1.032   3.445  1.5038  1.7142 -1.4849
 9237SOL    HW239348   4.040   1.153   3.407 -0.1585  0.5856  0.3752
 9238SOL     OW39349   2.042   0.870   4.440 -0.3244  0.0392 -0.3103
 9238SOL    HW139350   2.137   0.865   4.447 -0.4271 -0.7753  0.5010
 9238SOL    HW239351   2.020   0.892   4.530  0.0136 -0.4919 -0.0936
 9239SOL     OW39352   0.057   1.222   7.893  0.2861 -0.1027  0.1443
 9239SOL    HW139353   4.704   1.212   7.932 -0.1884 -2.1828 -1.4158
 9239SOL    HW239354   0.041   1.215   7.799 -0.4483 -0.6087  0.3122
 9240SOL     OW39355   2.412   4.091   3.189 -0.6951 -0.3324 -0.2451
 9240SOL    HW139356   2.328   4.124   3.221 -0.3277 -1.1128  1.5243
 9240SOL    HW239357   2.427   4.161   3.126  0.8811  0.3931  0.9274
 9241SOL     OW39358   4.492   4.533   3.388 -0.0483 -0.5414  0.1444
 9241SOL    HW139359   4.493   4.588   3.309 -0.6217 -1.4215 -0.4808
 9241SOL    HW239360   4.484   4.441   3.363  1.1223 -0.2159 -1.4339
 9242SOL     OW39361   0.007   1.787   1.756  0.1645 -0.0595 -0.3354
 9242SOL    HW139362   0.073   1.728   1.717  2.6132  2.1411  0.4955
 9242SOL    HW239363   0.002   1.746   1.842  2.3501 -2.2233 -1.2217
 9243SOL     OW39364   3.769   4.157   5.386 -0.2028  0.5058 -0.1415
 9243SOL    HW139365   3.717   4.184   5.310  0.3477  1.7370 -0.0669
 9243SOL    HW239366   3.827   4.098   5.337 -0.4091  0.4547 -0.3225
 9244SOL     OW39367   0.973   1.962  14.107 -0.3449  0.1253  0.4244
 9244SOL    HW139368   1.016   2.034  14.061  1.3871 -1.9044 -1.1360
 9244SOL    HW239369   1.024   1.896  14.059 -2.2570 -0.5132 -0.7111
 9245SOL     OW39370   4.378   2.333   1.871  0.2331 -0.0041 -0.5118
 9245SOL    HW139371   4.395   2.408   1.814 -0.3504 -0.6191 -1.5029
 9245SOL    HW239372   4.397   2.373   1.956  1.1690 -0.9070 -0.2968
 9246SOL     OW39373   3.537   4.487   3.021  0.2343 -0.5241  0.0906
 9246SOL    HW139374   3.496   4.401   3.027  0.0905 -0.5504 -1.2610
 9246SOL    HW239375   3.558   4.489   2.927 -1.5529 -1.8952 -0.3277
 9247SOL     OW39376   4.618   2.931   3.431  0.0358  0.0362  0.1470
 9247SOL    HW139377   4.523   2.930   3.449  0.1880 -1.0430  0.9450
 9247SOL    HW239378   4.655   2.918   3.518 -0.4318 -2.0869  0.0535
 9248SOL     OW39379   2.976   2.862  16.418  0.2377 -0.4531  0.1409
 9248SOL    HW139380   3.009   2.951  16.433  0.2021 -0.5987  1.0699
 9248SOL    HW239381   2.933   2.843  16.502 -0.0196  0.3664  0.1992
 9249SOL     OW39382   4.386   1.379   6.861 -0.2478  0.5691  0.6771
 9249SOL    HW139383   4.310   1.335   6.897 -0.0768 -1.0095 -0.8992
 9249SOL    HW239384   4.455   1.313   6.862 -1.6009 -0.8320  0.7638
 9250SOL     OW39385   1.720   3.689  10.936  0.8227 -0.8534  0.1770
 9250SOL    HW139386   1.664   3.748  10.886  0.4210 -0.6520  0.8631
 9250SOL    HW239387   1.686   3.707  11.024 -1.0163  0.3783 -0.7928
 9251SOL     OW39388   1.501   2.330   4.006 -0.5750  0.0511 -0.3806
 9251SOL    HW139389   1.501   2.238   3.981  1.1279  0.1548 -0.8186
 9251SOL    HW239390   1.409   2.352   4.018 -0.8333 -1.0684 -0.3378
 9252SOL     OW39391   0.163   3.620   4.510 -0.0532  0.5283 -0.0207
 9252SOL    HW139392   0.197   3.535   4.537 -0.0903  0.4033 -0.3769
 9252SOL    HW239393   0.080   3.615   4.559  0.3545 -3.9882  0.1614
 9253SOL     OW39394   3.717   4.231   7.806 -0.3032 -0.1492  0.5141
 9253SOL    HW139395   3.755   4.190   7.729  2.7990 -0.0935  2.0164
 9253SOL    HW239396   3.688   4.159   7.862  0.4157 -2.5516 -2.2149
 9254SOL     OW39397   3.642   4.472  11.493  0.5602 -0.2549  0.3511
 9254SOL    HW139398   3.605   4.559  11.506  0.0180 -0.2579 -1.2778
 9254SOL    HW239399   3.737   4.484  11.487  0.7184 -1.2900  0.6454
 9255SOL     OW39400   1.372   0.713   2.102 -0.5963  0.2017  0.2297
 9255SOL    HW139401   1.386   0.671   2.018 -0.4117  0.8841 -0.0780
 9255SOL    HW239402   1.351   0.804   2.080 -0.6874  0.4553  1.3497
 9256SOL     OW39403   2.047   3.246   5.562 -0.1699  0.2340 -0.0719
 9256SOL    HW139404   1.971   3.224   5.508  0.1336  0.5340 -0.6229
 9256SOL    HW239405   2.058   3.164   5.610  0.5607 -0.0757 -0.7730
 9257SOL     OW39406   0.332   3.601   2.186 -0.6362 -0.2649  0.0828
 9257SOL    HW139407   0.322   3.507   2.176 -0.0935 -0.0653 -2.2225
 9257SOL    HW239408   0.258   3.623   2.130 -0.0070  1.4198 -0.0952
 9258SOL     OW39409   0.468   1.028   1.199  0.4483 -0.8179 -0.2909
 9258SOL    HW139410   0.433   0.967   1.264  0.1469  0.4928  0.7716
 9258SOL    HW239411   0.533   0.971   1.158  0.3635 -0.5719 -0.7652
 9259SOL     OW39412   0.189   2.385  17.125  0.7432  0.0838  0.4684
 9259SOL    HW139413   0.125   2.400  17.195  1.0279 -0.5105  0.8574
 9259SOL    HW239414   0.205   2.291  17.136 -0.7720 -0.3049 -0.6384
 9260SOL     OW39415   1.800   3.616   6.913 -0.3819 -0.3563 -0.0689
 9260SOL    HW139416   1.710   3.642   6.895  0.1018  0.5684 -1.1302
 9260SOL    HW239417   1.841   3.648   6.833 -0.8444 -1.3637 -0.6925
 9261SOL     OW39418   1.223   4.160   2.604  0.0509  0.2034 -0.5147
 9261SOL    HW139419   1.151   4.222   2.592 -1.3292 -1.6951 -1.9233
 9261SOL    HW239420   1.189   4.073   2.583  1.7584 -0.4675 -0.4983
 9262SOL     OW39421   2.338   1.519   7.044  0.3038 -0.1113  1.0811
 9262SOL    HW139422   2.243   1.515   7.051  0.2441 -0.9145 -0.1377
 9262SOL    HW239423   2.356   1.597   6.992 -0.9480 -1.4767 -1.4002
 9263SOL     OW39424   1.147   0.999   6.504  0.0141  0.1814 -0.2452
 9263SOL    HW139425   1.061   1.040   6.500  0.0042  0.3935  1.8752
 9263SOL    HW239426   1.204   1.049   6.446 -0.6036  0.6715 -0.4194
 9264SOL     OW39427   4.599   1.595   3.937 -0.3867 -0.6680  0.0698
 9264SOL    HW139428   4.666   1.640   3.885  1.0425 -0.5751  2.0160
 9264SOL    HW239429   4.632   1.611   4.025 -1.1888 -0.8027  0.3881
 9265SOL     OW39430   1.209   2.423   0.640  0.1052 -0.0718  0.7540
 9265SOL    HW139431   1.157   2.496   0.608  1.4418  0.2510 -0.6607
 9265SOL    HW239432   1.195   2.425   0.735 -3.1974 -0.6653  0.2816
 9266SOL     OW39433   0.597   2.664   3.131 -0.0271 -0.2432 -0.0155
 9266SOL    HW139434   0.514   2.672   3.084 -0.1896  1.0616  0.4906
 9266SOL    HW239435   0.631   2.747   3.098 -0.4334 -0.4943 -1.0708
 9267SOL     OW39436   1.685   2.519   1.681  0.1321 -0.3053  0.0163
 9267SOL    HW139437   1.632   2.440   1.673 -1.5885  0.8163  0.0931
 9267SOL    HW239438   1.678   2.551   1.590  3.0708  2.5114  0.7767
 9268SOL     OW39439   2.722   4.045   7.372  0.5408 -0.6271  0.0559
 9268SOL    HW139440   2.710   4.002   7.457 -1.7412  0.8176  0.4566
 9268SOL    HW239441   2.633   4.079   7.375  1.0471  0.6029  1.4291
 9269SOL     OW39442   3.131   2.587   0.077 -0.2094 -0.1034  0.1796
 9269SOL    HW139443   3.178   2.514   0.118  2.0107  1.4791  0.4372
 9269SOL    HW239444   3.191   2.604   0.004  0.7861  0.5230  1.1444
 9270SOL     OW39445   4.180   2.141  11.847 -0.2623 -0.5836  0.0066
 9270SOL    HW139446   4.210   2.215  11.900 -0.2277 -1.8164  1.7153
 9270SOL    HW239447   4.204   2.174  11.760 -0.3913 -0.2040  0.1145
 9271SOL     OW39448   0.794   1.661   5.956  0.4182 -0.0182  0.2051
 9271SOL    HW139449   0.785   1.585   6.014 -0.3424  0.6059  0.9161
 9271SOL    HW239450   0.868   1.635   5.901  0.8071  1.2747  0.1254
 9272SOL     OW39451   4.629   1.526   6.174  0.2596  0.5750  0.3415
 9272SOL    HW139452   4.703   1.470   6.192 -0.7197 -0.1686  2.0860
 9272SOL    HW239453   4.648   1.598   6.235  0.5128  0.5540  0.2872
 9273SOL     OW39454   1.831   0.250   4.202 -0.0857 -0.4208 -0.1987
 9273SOL    HW139455   1.865   0.259   4.114  0.8832  0.7688  0.3010
 9273SOL    HW239456   1.913   0.229   4.246  2.4622 -0.3202 -4.9570
 9274SOL     OW39457   4.720   3.564   2.431  0.7711 -0.6799  0.8503
 9274SOL    HW139458   0.047   3.501   2.468 -0.3715 -1.0283  2.1345
 9274SOL    HW239459   4.689   3.519   2.353  2.9747  2.5410 -1.8632
 9275SOL     OW39460   3.930   1.167   9.091  0.2803 -0.0509  0.0140
 9275SOL    HW139461   3.944   1.199   9.180  0.2795 -2.9632  1.0655
 9275SOL    HW239462   4.017   1.140   9.064 -0.5420 -1.5312 -1.1827
 9276SOL     OW39463   1.776   1.968   8.341  0.3746  0.1715 -0.2421
 9276SOL    HW139464   1.771   2.012   8.426 -0.0338  0.1995 -0.2805
 9276SOL    HW239465   1.706   1.903   8.347 -0.6816  1.3534  0.2880
 9277SOL     OW39466   4.153   0.065  16.008 -0.7192 -0.1176 -0.1757
 9277SOL    HW139467   4.130   4.711  15.978  0.4250 -0.2829 -0.5535
 9277SOL    HW239468   4.083   0.072  16.073  0.0823 -0.8545  0.7719
 9278SOL     OW39469   1.266   1.727   8.539  0.0169 -0.3757  0.9088
 9278SOL    HW139470   1.181   1.744   8.580 -0.5191  0.5242 -0.5802
 9278SOL    HW239471   1.236   1.650   8.490  1.6640  1.3499 -2.7971
 9279SOL     OW39472   0.311   2.927   4.041 -0.3132  0.0388  0.5243
 9279SOL    HW139473   0.351   3.014   4.048 -1.4830  0.6088  0.2154
 9279SOL    HW239474   0.233   2.932   4.096 -0.2991 -0.5074  0.5836
 9280SOL     OW39475   1.811   3.373   1.852 -0.1406 -0.3069 -0.4441
 9280SOL    HW139476   1.891   3.333   1.886 -0.4689  1.6291  2.6375
 9280SOL    HW239477   1.831   3.388   1.760 -1.3506  1.6230 -0.4079
 9281SOL     OW39478   0.332   0.634   4.733  0.3426 -0.4339  0.1578
 9281SOL    HW139479   0.380   0.671   4.659  1.8839 -1.6190  0.5673
 9281SOL    HW239480   0.262   0.586   4.690  0.8004 -1.5695  0.6896
 9282SOL     OW39481   2.133   0.110   8.081  0.4463  0.2815 -0.4123
 9282SOL    HW139482   2.078   0.033   8.073 -0.2882  0.8559 -0.9501
 9282SOL    HW239483   2.089   0.146   8.158 -0.7769  0.1866 -1.0661
 9283SOL     OW39484   4.504   4.511   2.020 -0.0719  0.2826 -0.4254
 9283SOL    HW139485   4.440   4.495   2.090 -0.8257  0.0645 -1.1677
 9283SOL    HW239486   4.477   4.441   1.961 -0.5524  1.2478 -1.3397
 9284SOL     OW39487   4.153   3.230   6.121 -0.3658 -0.1345  0.0740
 9284SOL    HW139488   4.205   3.150   6.131 -1.0230 -0.6532 -0.6493
 9284SOL    HW239489   4.102   3.198   6.047  1.5252  1.9537 -2.1335
 9285SOL     OW39490   2.441   4.423   3.343 -0.2562  0.0671  0.0890
 9285SOL    HW139491   2.516   4.370   3.370 -2.3314 -3.0441 -0.1859
 9285SOL    HW239492   2.378   4.360   3.307  1.0422 -0.4261 -1.3092
 9286SOL     OW39493   3.152   0.561   8.408  0.6775  0.0278  0.0766
 9286SOL    HW139494   3.095   0.573   8.332  0.3389 -0.8282  0.1901
 9286SOL    HW239495   3.189   0.475   8.388  0.4635 -0.3359  1.2375
 9287SOL     OW39496   2.117   0.689   7.458 -0.6559 -0.0955 -0.1522
 9287SOL    HW139497   2.196   0.661   7.505  0.6201  2.5465 -0.6847
 9287SOL    HW239498   2.151   0.679   7.369  1.4023 -0.0249  0.6180
 9288SOL     OW39499   1.410   2.237   1.761  0.0461 -0.1139  0.4627
 9288SOL    HW139500   1.450   2.152   1.779  2.2216  0.5463 -1.1327
 9288SOL    HW239501   1.458   2.265   1.683  0.8374  0.8984  1.3173
 9289SOL     OW39502   0.558   0.646   2.846  0.0098 -0.2357 -0.5906
 9289SOL    HW139503   0.482   0.669   2.900 -1.5121 -1.2763 -2.3119
 9289SOL    HW239504   0.612   0.724   2.857  0.6132 -0.9598  1.6526
 9290SOL     OW39505   1.847   1.559   3.602  0.5601  0.0742 -0.1648
 9290SOL    HW139506   1.941   1.544   3.615  0.1947 -1.5325  0.7267
 9290SOL    HW239507   1.850   1.626   3.534  1.9273  1.1348  0.9203
 9291SOL     OW39508   2.413   1.916   5.641  0.3824  0.5504  0.1194
 9291SOL    HW139509   2.421   1.828   5.679  3.1728  0.4028 -0.8096
 9291SOL    HW239510   2.508   1.923   5.631  0.7157 -2.4138  0.9050
 9292SOL     OW39511   3.047   1.990   4.927 -0.0546  0.2663 -0.1773
 9292SOL    HW139512   3.075   2.055   4.990 -0.2915  1.4007 -1.2441
 9292SOL    HW239513   2.979   2.042   4.884 -1.5259 -1.7914 -0.3369
 9293SOL     OW39514   2.155   3.614   4.636 -0.3298  0.0004  0.5851
 9293SOL    HW139515   2.133   3.658   4.719 -2.0171 -0.8542  0.6011
 9293SOL    HW239516   2.169   3.685   4.575 -2.2082 -0.8708 -0.8488
 9294SOL     OW39517   0.518   0.690   5.376  0.2770 -0.3124  0.8445
 9294SOL    HW139518   0.457   0.764   5.383  0.1731 -0.2411 -0.6710
 9294SOL    HW239519   0.528   0.685   5.281 -4.0881 -1.3297  0.4182
 9295SOL     OW39520   4.365   1.218   5.230 -0.1841  0.5315 -0.1069
 9295SOL    HW139521   4.403   1.151   5.173  1.7425  2.6716 -1.3249
 9295SOL    HW239522   4.438   1.279   5.239 -1.0093  1.6414 -1.0034
 9296SOL     OW39523   2.058   2.549   1.830  0.4422 -0.1479 -0.9315
 9296SOL    HW139524   2.112   2.621   1.862 -0.0199 -1.5338  3.0052
 9296SOL    HW239525   2.088   2.477   1.885  1.5494  0.1436 -1.1527
 9297SOL     OW39526   3.688   0.473   7.274  0.6637 -0.0106 -0.2076
 9297SOL    HW139527   3.695   0.457   7.180 -0.6863  1.4663 -0.5608
 9297SOL    HW239528   3.776   0.450   7.302  0.8316  0.9167  0.0222
 9298SOL     OW39529   0.408   1.458  12.718 -0.2798 -0.2604  0.3845
 9298SOL    HW139530   0.503   1.457  12.732 -0.1367  0.9526 -0.4329
 9298SOL    HW239531   0.407   1.412  12.634 -0.3053  0.3641  0.0439
 9299SOL     OW39532   4.548   3.172   7.192 -0.0594  0.6005  0.2739
 9299SOL    HW139533   4.568   3.257   7.232 -1.1598 -0.2086  2.5277
 9299SOL    HW239534   4.602   3.119   7.249 -1.3266  0.1074  1.0196
 9300SOL     OW39535   0.808   1.121   8.867 -0.7211  0.0561  0.0748
 9300SOL    HW139536   0.753   1.053   8.908  0.0323 -0.3498  0.4178
 9300SOL    HW239537   0.880   1.132   8.929 -0.7869  1.2593 -0.0729
 9301SOL     OW39538   3.386   3.207   5.201  0.0871 -0.3411 -0.0160
 9301SOL    HW139539   3.349   3.179   5.284  1.1553 -0.6251  0.3662
 9301SOL    HW239540   3.481   3.204   5.211  0.3768 -0.7371 -2.6307
 9302SOL     OW39541   1.959   1.161   7.226 -0.5030 -0.3754 -0.2379
 9302SOL    HW139542   2.033   1.217   7.248  0.7862 -1.2895 -2.2211
 9302SOL    HW239543   1.922   1.150   7.314  0.9317 -1.5638  0.1984
 9303SOL     OW39544   3.509   2.955  14.408 -0.0979  0.7697 -0.0572
 9303SOL    HW139545   3.453   3.022  14.369 -1.4589 -0.6749 -0.5991
 9303SOL    HW239546   3.567   2.955  14.332  2.0991  0.0581  1.6199
 9304SOL     OW39547   0.881   2.980   2.963 -0.1513  0.2461 -0.3977
 9304SOL    HW139548   0.972   2.950   2.955 -0.3619 -0.4110 -0.2832
 9304SOL    HW239549   0.856   2.975   3.055 -0.7729  0.8447 -0.5356
 9305SOL     OW39550   2.742   3.603   5.164  0.1378  0.2587 -0.1800
 9305SOL    HW139551   2.693   3.548   5.225 -0.8778  0.1293 -1.1164
 9305SOL    HW239552   2.792   3.542   5.109  1.2588 -1.1043  2.3644
 9306SOL     OW39553   2.735   0.866  14.076 -0.5652  0.4242  0.1631
 9306SOL    HW139554   2.711   0.871  13.983  0.5141  1.4608 -0.0674
 9306SOL    HW239555   2.667   0.927  14.104  0.4485  0.4332  2.5844
 9307SOL     OW39556   1.559   2.074   6.007  0.0458 -0.2317 -0.1801
 9307SOL    HW139557   1.553   2.167   5.985  1.0944 -0.0572  0.2978
 9307SOL    HW239558   1.470   2.051   5.979  0.0899 -2.1887  1.2849
 9308SOL     OW39559   2.935   0.053  14.344 -0.1448 -0.1565  0.2940
 9308SOL    HW139560   2.922   0.117  14.274  1.9390  2.6873  2.4974
 9308SOL    HW239561   2.977   0.106  14.412 -1.1175 -0.5576  1.2063
 9309SOL     OW39562   0.175   0.900   9.951 -0.2268  0.1386  0.3518
 9309SOL    HW139563   0.161   0.809   9.926  0.1550 -0.2819  1.7116
 9309SOL    HW239564   0.205   0.892  10.041  0.1631  3.6716  0.5592
 9310SOL     OW39565   4.050   4.186   6.927  0.0729 -0.0767  0.4750
 9310SOL    HW139566   4.087   4.161   6.842 -1.7689 -2.8815  0.4740
 9310SOL    HW239567   4.072   4.105   6.972 -1.2864  0.2611  1.7262
 9311SOL     OW39568   2.505   3.193  10.691 -0.4397 -0.3116  0.0703
 9311SOL    HW139569   2.515   3.140  10.770  1.0162 -0.2111 -0.0462
 9311SOL    HW239570   2.412   3.180  10.670 -0.7802  2.6843 -0.3452
 9312SOL     OW39571   0.149   1.091   4.598 -0.2363  0.0216 -0.1171
 9312SOL    HW139572   0.104   1.019   4.641 -0.7476 -0.6495 -1.7719
 9312SOL    HW239573   0.185   1.147   4.666 -2.5581 -1.1010  2.0191
 9313SOL     OW39574   0.398   1.177   4.466  0.3234 -0.2139  0.6837
 9313SOL    HW139575   0.306   1.150   4.468  0.2473 -0.0575 -0.6868
 9313SOL    HW239576   0.388   1.264   4.429 -1.6781 -0.5982  0.3238
 9314SOL     OW39577   0.737   2.606   5.218 -0.2535  0.0423  0.7008
 9314SOL    HW139578   0.741   2.662   5.141 -3.1342  1.6203  1.7167
 9314SOL    HW239579   0.753   2.518   5.183 -1.3727  0.0519  0.1638
 9315SOL     OW39580   0.674   3.822  10.960 -0.1990  0.5418  0.1280
 9315SOL    HW139581   0.730   3.752  10.995  0.0535  1.5644  1.7879
 9315SOL    HW239582   0.736   3.894  10.967 -0.8188  0.9413  1.4500
 9316SOL     OW39583   3.303   3.092   4.045  0.7503  0.1373  0.2526
 9316SOL    HW139584   3.253   3.164   4.083  0.1998  0.2477 -0.6652
 9316SOL    HW239585   3.276   3.013   4.092 -0.9944 -0.7457 -2.1809
 9317SOL     OW39586   2.310   2.734   3.995  0.2143 -0.3232 -0.1044
 9317SOL    HW139587   2.403   2.712   4.001  0.2589 -0.2080 -0.3702
 9317SOL    HW239588   2.325   2.816   3.949 -0.1418 -0.8400 -1.1444
 9318SOL     OW39589   4.102   1.789   8.214  0.1572  0.1393  0.0783
 9318SOL    HW139590   4.126   1.830   8.297  2.8857  0.6337 -0.9647
 9318SOL    HW239591   4.167   1.825   8.154  0.1664 -2.3613 -1.4222
 9319SOL     OW39592   4.197   4.717   5.877  0.9891  0.7731 -0.2822
 9319SOL    HW139593   4.286   4.682   5.881  1.3782  1.8362  0.1987
 9319SOL    HW239594   4.199   0.036   5.956 -0.8996 -1.4851  1.2925
 9320SOL     OW39595   1.761   1.149   6.528  0.5094 -0.2814 -0.3687
 9320SOL    HW139596   1.731   1.237   6.506  1.5356 -0.1853 -1.3604
 9320SOL    HW239597   1.816   1.160   6.606 -1.1976 -2.4981  1.1745
 9321SOL     OW39598   0.753   3.215   3.295 -0.5049 -0.4641 -0.4069
 9321SOL    HW139599   0.796   3.206   3.381 -0.6799  1.0977 -0.1544
 9321SOL    HW239600   0.834   3.230   3.246 -0.8413  1.4871 -0.3834
 9322SOL     OW39601   3.190   3.009  14.117  0.1716 -0.2741 -0.0590
 9322SOL    HW139602   3.202   2.982  14.026  1.3043  1.4857 -0.4320
 9322SOL    HW239603   3.100   3.038  14.129 -0.7703 -2.5875 -1.6599
 9323SOL     OW39604   1.227   0.568  10.142 -0.0939 -0.5472  0.5354
 9323SOL    HW139605   1.256   0.654  10.111  0.2494 -0.5889  0.7358
 9323SOL    HW239606   1.310   0.524  10.163  0.6245  0.8629  0.6449
 9324SOL     OW39607   0.817   3.549   6.631 -0.4034 -0.1293 -0.1510
 9324SOL    HW139608   0.903   3.532   6.593 -0.5918 -1.5020  0.0202
 9324SOL    HW239609   0.766   3.549   6.550  0.6834  0.0068 -0.8346
 9325SOL     OW39610   3.117   4.289   3.486 -0.0198 -0.5014 -0.4345
 9325SOL    HW139611   3.203   4.303   3.524 -0.9604  1.3483  0.9700
 9325SOL    HW239612   3.130   4.351   3.414 -1.3380 -0.5626 -0.7245
 9326SOL     OW39613   0.004   4.408  13.799  0.0559 -0.1287  0.1204
 9326SOL    HW139614   4.708   4.331  13.848  0.5899 -0.6106 -0.3099
 9326SOL    HW239615   0.082   4.430  13.848  0.8638 -3.1288  0.2110
 9327SOL     OW39616   3.388   0.053  13.215  0.1414  0.1836  0.2656
 9327SOL    HW139617   3.400   0.054  13.120  1.4504  0.1586  0.4192
 9327SOL    HW239618   3.332   4.711  13.203  1.0082 -0.2271 -1.2151
 9328SOL     OW39619   2.986   3.281   3.651 -0.3543 -0.2859  0.3399
 9328SOL    HW139620   2.990   3.298   3.745 -0.9058  2.3471 -0.1088
 9328SOL    HW239621   3.014   3.190   3.645  3.2316  0.9128 -1.2391
 9329SOL     OW39622   4.204   3.507  10.919 -0.3798  0.6127  0.5116
 9329SOL    HW139623   4.287   3.464  10.939  0.7429  4.5034  3.9941
 9329SOL    HW239624   4.189   3.465  10.834  2.8345  2.1274 -0.7918
 9330SOL     OW39625   1.900   3.536  14.108 -0.0253 -0.1966  0.1195
 9330SOL    HW139626   1.977   3.487  14.138 -1.2155 -0.4968  2.6623
 9330SOL    HW239627   1.847   3.553  14.186  1.6085  1.2979  0.8960
 9331SOL     OW39628   1.673   2.390  13.543 -0.8532  0.0731  0.3366
 9331SOL    HW139629   1.710   2.302  13.544 -0.3666  0.2897  1.0688
 9331SOL    HW239630   1.589   2.368  13.501 -0.8992  1.7659 -0.4616
 9332SOL     OW39631   2.407   3.620  16.525 -0.1575  0.5842  0.0655
 9332SOL    HW139632   2.354   3.540  16.532  2.0038 -0.6974  2.2946
 9332SOL    HW239633   2.478   3.602  16.587 -2.4631 -0.9336  2.3241
 9333SOL     OW39634   1.640   1.415   1.704 -0.2596 -0.2550 -0.4865
 9333SOL    HW139635   1.629   1.359   1.781 -1.3973  0.8076  0.1345
 9333SOL    HW239636   1.725   1.384   1.672  1.4853  3.3729  0.6509
 9334SOL     OW39637   2.765   0.032   3.671 -0.4137 -0.3978 -0.0028
 9334SOL    HW139638   2.800   0.115   3.704 -1.0320  0.2735 -1.0387
 9334SOL    HW239639   2.768   4.716   3.753 -1.7817 -0.4780 -0.0085
 9335SOL     OW39640   2.298   2.159  10.803  0.1333  0.1104 -0.2760
 9335SOL    HW139641   2.276   2.076  10.762 -0.0969 -0.8602  1.7886
 9335SOL    HW239642   2.211   2.200  10.808  1.5680  3.2689 -1.5496
 9336SOL     OW39643   2.515   2.029   4.464  0.2957 -0.0100 -0.0320
 9336SOL    HW139644   2.503   1.995   4.552 -0.5249  0.2834 -0.0315
 9336SOL    HW239645   2.523   2.121   4.492  0.6995  0.2286 -0.9274
 9337SOL     OW39646   0.251   2.360  15.588  0.2610 -0.2057 -0.2473
 9337SOL    HW139647   0.181   2.425  15.595 -0.7600 -1.0701 -2.4805
 9337SOL    HW239648   0.220   2.287  15.640 -0.8094  2.1017  2.3594
 9338SOL     OW39649   1.932   3.861  14.111  0.0764  0.1078  0.4384
 9338SOL    HW139650   1.985   3.893  14.038  1.1524 -0.8256  0.8039
 9338SOL    HW239651   1.880   3.792  14.069  0.6219 -1.5171  2.4005
 9339SOL     OW39652   0.000   2.700   2.800  0.4040 -0.5229 -0.1022
 9339SOL    HW139653   4.707   2.614   2.832  1.4719  0.8007  4.3083
 9339SOL    HW239654   4.695   2.691   2.713  2.2839  0.1330 -1.0086
 9340SOL     OW39655   3.164   0.174   6.251 -0.0753 -0.3397 -0.0963
 9340SOL    HW139656   3.183   0.180   6.344  1.2611  0.2454 -0.4179
 9340SOL    HW239657   3.074   0.140   6.260  0.7210 -2.0792  1.3858
 9341SOL     OW39658   2.852   3.946   1.096 -0.2654  0.3564 -0.5843
 9341SOL    HW139659   2.787   4.009   1.064 -1.9354 -1.2306 -0.3107
 9341SOL    HW239660   2.826   3.947   1.188  1.6904 -0.3914 -0.0311
 9342SOL     OW39661   2.858   0.563   8.582  0.1950 -0.0124  0.2515
 9342SOL    HW139662   2.798   0.496   8.550 -0.3343  0.8844 -0.6272
 9342SOL    HW239663   2.852   0.551   8.677 -1.2132  1.4004  0.3390
 9343SOL     OW39664   0.969   4.074   8.901  0.0860 -0.4060  0.2430
 9343SOL    HW139665   0.958   4.023   8.982  1.7491 -0.9025  0.1493
 9343SOL    HW239666   0.958   3.998   8.844 -0.5214 -0.4419  0.4047
 9344SOL     OW39667   0.014   1.391   4.106 -0.1191 -0.4622 -0.8402
 9344SOL    HW139668   0.041   1.402   4.015  1.7164 -0.4042 -0.2839
 9344SOL    HW239669   0.089   1.356   4.154 -0.7207 -2.4526 -1.3505
 9345SOL     OW39670   2.335   4.530   5.021  0.0193  0.5932 -0.5610
 9345SOL    HW139671   2.340   4.435   5.023  1.1266  0.6804  0.8478
 9345SOL    HW239672   2.245   4.553   4.999 -0.3648  1.1735  1.5695
 9346SOL     OW39673   2.625   3.523   8.087  0.3910  0.1932 -0.1347
 9346SOL    HW139674   2.632   3.618   8.095 -0.7998 -0.0593  4.2563
 9346SOL    HW239675   2.593   3.510   7.998 -1.7976  0.4319  0.6328
 9347SOL     OW39676   3.941   0.656   2.585 -0.0043 -0.4639 -0.4773
 9347SOL    HW139677   4.024   0.703   2.575  0.5378 -1.3034  0.0908
 9347SOL    HW239678   3.913   0.651   2.493  1.5149  0.6298 -1.0035
 9348SOL     OW39679   2.993   1.189   7.020 -0.3058  0.4118 -0.4799
 9348SOL    HW139680   2.987   1.097   6.995 -0.3304 -0.2699  2.0630
 9348SOL    HW239681   2.914   1.215   7.067  0.2796 -0.2689  0.8712
 9349SOL     OW39682   2.672   1.630   2.588  0.1675  0.5769 -0.2685
 9349SOL    HW139683   2.717   1.600   2.667 -1.7772  1.0802  1.0407
 9349SOL    HW239684   2.742   1.656   2.529 -1.2678  1.3153 -1.6364
 9350SOL     OW39685   3.717   1.463   8.408 -0.2191 -0.1321  0.2960
 9350SOL    HW139686   3.644   1.497   8.460  0.0039 -2.6888  2.2476
 9350SOL    HW239687   3.697   1.370   8.419  2.0366 -0.4500  1.6963
 9351SOL     OW39688   1.477   4.426   2.225  0.5546  0.2079  0.1431
 9351SOL    HW139689   1.507   4.430   2.316 -1.1845 -0.8437  0.7553
 9351SOL    HW239690   1.489   4.517   2.196 -0.8290  0.3759  0.0741
 9352SOL     OW39691   0.475   1.651  13.318 -0.2855 -0.0285  0.2055
 9352SOL    HW139692   0.514   1.604  13.391 -0.9219  1.8473  1.7523
 9352SOL    HW239693   0.552   1.666  13.263  0.5153  0.1704  1.3810
 9353SOL     OW39694   1.561   0.780   5.680 -0.0811 -0.1253  0.4547
 9353SOL    HW139695   1.643   0.732   5.685 -1.1604 -1.7994  1.9060
 9353SOL    HW239696   1.508   0.701   5.672 -0.8439  0.3017  1.2753
 9354SOL     OW39697   0.012   4.417  15.802  0.3609 -0.0948  0.3537
 9354SOL    HW139698   0.106   4.419  15.820  0.4628 -0.6332 -0.0995
 9354SOL    HW239699   0.011   4.350  15.734  0.3913 -0.0014  0.2607
 9355SOL     OW39700   0.776   2.824   2.774 -0.4137  0.4734  0.5428
 9355SOL    HW139701   0.821   2.855   2.853  0.5100 -1.5052  0.7960
 9355SOL    HW239702   0.848   2.814   2.712 -0.9378 -0.7052  0.1154
 9356SOL     OW39703   3.156   3.984   1.945  0.0066 -0.4811 -0.1157
 9356SOL    HW139704   3.168   4.078   1.960 -0.4530 -0.5865  0.8731
 9356SOL    HW239705   3.062   3.974   1.933  0.0503  0.1468 -0.9676
 9357SOL     OW39706   0.184   0.171   5.753  0.5185  0.4510  0.3894
 9357SOL    HW139707   0.159   0.157   5.844 -0.6291 -0.3983 -0.0463
 9357SOL    HW239708   0.239   0.093   5.741  1.1903  0.9504  0.2442
 9358SOL     OW39709   4.307   3.679  15.697  0.5277 -0.0473  0.1464
 9358SOL    HW139710   4.376   3.649  15.639 -0.3208 -1.8210  0.0634
 9358SOL    HW239711   4.251   3.602  15.706  0.6555 -0.1751 -0.1788
 9359SOL     OW39712   3.707   1.633  11.405  0.3523 -0.1924  0.0449
 9359SOL    HW139713   3.752   1.665  11.483 -0.6029 -0.2912  0.6379
 9359SOL    HW239714   3.665   1.715  11.376  2.8423  0.8926 -0.4780
 9360SOL     OW39715   0.960   1.123   6.342 -0.4427  0.1722 -0.1842
 9360SOL    HW139716   0.903   1.052   6.372  0.3446 -1.0355 -1.5409
 9360SOL    HW239717   0.991   1.088   6.258 -0.7462  0.5741 -0.4682
 9361SOL     OW39718   3.386   4.198   5.876 -0.0154 -0.2373 -0.0453
 9361SOL    HW139719   3.472   4.156   5.876 -0.8676 -1.9609 -1.4052
 9361SOL    HW239720   3.391   4.246   5.793 -0.3161 -1.9461 -1.0437
 9362SOL     OW39721   4.383   2.704   6.071 -0.5674  0.3084  0.3539
 9362SOL    HW139722   4.454   2.746   6.119 -0.7883 -4.3514  4.7687
 9362SOL    HW239723   4.358   2.638   6.136 -1.0413 -1.5614 -1.7324
 9363SOL     OW39724   2.681   1.102   5.476 -0.1465 -0.0132  0.3919
 9363SOL    HW139725   2.629   1.022   5.483  0.4879 -0.3829  0.8443
 9363SOL    HW239726   2.641   1.161   5.540  0.7343  1.2008 -0.1646
 9364SOL     OW39727   4.458   2.085  12.999  1.0284  0.4880  0.6244
 9364SOL    HW139728   4.422   2.138  13.070  0.1788 -0.5605  0.9713
 9364SOL    HW239729   4.408   2.005  13.009 -2.2222  2.1554 -2.3771
 9365SOL     OW39730   2.485   4.665   3.452  0.2171  0.1775  0.4970
 9365SOL    HW139731   2.475   4.588   3.397  0.7176 -0.1165  0.8182
 9365SOL    HW239732   2.485   4.637   3.544  1.1504  0.2647  0.5209
 9366SOL     OW39733   2.993   0.540   7.130 -0.4789 -0.3420 -0.2177
 9366SOL    HW139734   2.904   0.521   7.159 -0.3053 -0.5213  0.1811
 9366SOL    HW239735   2.982   0.567   7.038 -1.4471 -0.4102 -0.1294
 9367SOL     OW39736   1.687   4.584   6.754 -0.0284  0.2366  0.2764
 9367SOL    HW139737   1.679   4.559   6.846 -0.6021  0.8125  0.3822
 9367SOL    HW239738   1.746   4.659   6.749 -0.9128  0.8167 -1.6055
 9368SOL     OW39739   0.531   1.120   6.257  0.0342 -0.6235  0.4727
 9368SOL    HW139740   0.485   1.036   6.253 -0.4769 -0.2633 -1.3034
 9368SOL    HW239741   0.504   1.155   6.172 -0.6751  0.4871  1.1499
 9369SOL     OW39742   3.242   0.572   8.038  0.3652 -0.5252 -0.1810
 9369SOL    HW139743   3.240   0.662   8.006  1.5321 -1.2388 -2.2312
 9369SOL    HW239744   3.192   0.570   8.120  1.6462  0.3594  0.6269
 9370SOL     OW39745   3.202   0.192   5.103  0.1322  0.3274  0.4500
 9370SOL    HW139746   3.160   0.107   5.095  0.3086  0.6229 -3.4269
 9370SOL    HW239747   3.152   0.224   5.178 -0.7799  1.0989 -0.4743
 9371SOL     OW39748   4.218   3.526   3.573  0.0409 -0.2091  0.3158
 9371SOL    HW139749   4.166   3.467   3.627  1.0835 -1.0838  0.3639
 9371SOL    HW239750   4.244   3.579   3.648 -0.4474 -1.1731  1.1593
 9372SOL     OW39751   0.139   0.475   3.090  0.5243  0.6533 -0.0810
 9372SOL    HW139752   0.157   0.416   3.163 -3.4895  0.4023  0.7226
 9372SOL    HW239753   0.229   0.495   3.065  0.8554 -0.2905  0.3543
 9373SOL     OW39754   0.840   0.563  12.623  0.1815  0.4401 -0.0482
 9373SOL    HW139755   0.817   0.561  12.716  0.1726  0.9195 -0.0419
 9373SOL    HW239756   0.935   0.571  12.632  0.2839 -0.5395 -0.2960
 9374SOL     OW39757   1.637   4.174  15.881 -0.0525  0.0781 -0.6251
 9374SOL    HW139758   1.699   4.235  15.841 -0.9688  1.5759  0.2514
 9374SOL    HW239759   1.620   4.120  15.804  1.6042 -3.3719  1.3804
 9375SOL     OW39760   2.891   3.359   6.926  0.0818 -0.0687  0.0503
 9375SOL    HW139761   2.873   3.272   6.889  1.3697 -0.6202  0.7116
 9375SOL    HW239762   2.975   3.383   6.887  0.1760 -0.9605 -0.2881
 9376SOL     OW39763   2.664   4.194  11.414 -0.6266  0.2532  0.0743
 9376SOL    HW139764   2.639   4.240  11.335  0.5719 -0.0471 -0.4783
 9376SOL    HW239765   2.689   4.277  11.454  2.7201 -0.5687 -0.3209
 9377SOL     OW39766   1.213   0.802   9.253 -0.0302  0.3695 -0.2077
 9377SOL    HW139767   1.263   0.868   9.302  1.5663  1.2417 -2.9991
 9377SOL    HW239768   1.185   0.859   9.182 -0.6364 -1.6125 -1.5760
 9378SOL     OW39769   0.291   2.323   8.155  0.0538  0.0964 -0.1279
 9378SOL    HW139770   0.353   2.300   8.223 -0.4015 -2.0864 -0.4668
 9378SOL    HW239771   0.218   2.261   8.163  1.0720 -0.7609  2.4313
 9379SOL     OW39772   1.640   2.239  15.928  0.0186  0.0287  0.2473
 9379SOL    HW139773   1.720   2.288  15.911  0.1742  0.9759  3.6995
 9379SOL    HW239774   1.630   2.203  15.840 -1.3640  1.1643 -0.0724
 9380SOL     OW39775   1.016   4.319   2.621 -0.1769  0.0317  0.0441
 9380SOL    HW139776   0.948   4.329   2.554 -0.8138 -0.6356  0.5872
 9380SOL    HW239777   0.964   4.346   2.697  0.5097  0.4485  0.3603
 9381SOL     OW39778   3.842   4.642  15.617 -0.2636  0.3161 -0.3552
 9381SOL    HW139779   3.888   4.664  15.536  1.5544 -0.1576  0.5572
 9381SOL    HW239780   3.868   4.713  15.675  2.5320  0.4307 -1.7410
 9382SOL     OW39781   3.381   4.591   3.206 -0.2149  0.4855  0.3175
 9382SOL    HW139782   3.407   4.526   3.272  0.5251  0.4769  0.0112
 9382SOL    HW239783   3.447   4.579   3.139 -0.9716  0.6503 -0.4518
 9383SOL     OW39784   1.444   3.688   3.811  0.2236 -0.0227 -0.1971
 9383SOL    HW139785   1.453   3.767   3.865  0.1009  1.4886 -2.4180
 9383SOL    HW239786   1.425   3.622   3.878  0.7620 -1.5121 -1.5363
 9384SOL     OW39787   1.764   1.308  12.627  0.3633 -0.0881  0.2870
 9384SOL    HW139788   1.811   1.345  12.552 -0.6612  1.5280  0.4313
 9384SOL    HW239789   1.818   1.313  12.706  1.6692 -0.9381 -0.5515
 9385SOL     OW39790   2.719   0.729   8.926 -0.3865  0.2254 -0.1370
 9385SOL    HW139791   2.661   0.738   8.851 -0.6965  0.4497  0.1279
 9385SOL    HW239792   2.783   0.799   8.911 -0.0613 -0.0402  0.0110
 9386SOL     OW39793   2.750   1.586   5.165  0.0130  0.2347 -0.0910
 9386SOL    HW139794   2.792   1.555   5.245  0.8715  0.3255 -0.5072
 9386SOL    HW239795   2.808   1.654   5.132 -0.5148  0.8215  0.1988
 9387SOL     OW39796   0.696   0.623   8.608 -0.5681  0.5590  0.5661
 9387SOL    HW139797   0.738   0.546   8.571 -0.4489  1.4199 -1.1192
 9387SOL    HW239798   0.711   0.605   8.701  0.3466  0.3257  0.3710
 9388SOL     OW39799   4.492   3.957  16.996 -0.0905  0.1798 -0.0831
 9388SOL    HW139800   4.466   3.866  17.011  2.1908 -0.2683  1.1353
 9388SOL    HW239801   4.467   3.967  16.904 -0.0558 -2.0753 -0.3443
 9389SOL     OW39802   1.981   3.325  17.301  0.3037  0.1596 -0.0488
 9389SOL    HW139803   1.894   3.318  17.262 -0.1256  0.8422  0.7936
 9389SOL    HW239804   1.969   3.395  17.365  0.0705  0.4674 -0.4297
 9390SOL     OW39805   1.219   2.620   3.235 -0.2684  0.1506 -0.1810
 9390SOL    HW139806   1.187   2.553   3.294  0.5129  0.7567  0.9367
 9390SOL    HW239807   1.144   2.668   3.199 -0.0980  1.1814  0.8594
 9391SOL     OW39808   0.588   4.052   6.083 -0.3671 -0.1168  0.3109
 9391SOL    HW139809   0.499   4.042   6.116 -0.6716 -2.8153 -1.3174
 9391SOL    HW239810   0.625   3.966   6.100 -2.7441 -1.1570  0.1640
 9392SOL     OW39811   0.047   4.665  13.207  0.1102  0.2277  0.0547
 9392SOL    HW139812   0.131   4.697  13.240 -0.2908 -0.3711  1.6690
 9392SOL    HW239813   0.067   4.575  13.184 -1.7400  0.0312 -0.7326
 9393SOL     OW39814   3.814   0.985   3.875  0.3284 -0.0316  0.0582
 9393SOL    HW139815   3.815   1.078   3.853 -2.3955 -0.5144 -2.0058
 9393SOL    HW239816   3.846   0.945   3.794 -0.4971 -2.2133  0.8129
 9394SOL     OW39817   1.288   1.410   4.575  0.1544 -0.2394 -0.3591
 9394SOL    HW139818   1.228   1.339   4.599 -0.1170  0.2465  0.3780
 9394SOL    HW239819   1.336   1.380   4.497  0.7215  0.8240 -0.4183
 9395SOL     OW39820   2.833   4.341   2.474 -0.4110 -0.2860  0.2539
 9395SOL    HW139821   2.757   4.352   2.531 -0.3364  4.8134 -0.6358
 9395SOL    HW239822   2.892   4.390   2.531  1.3495  1.1499 -2.7760
 9396SOL     OW39823   0.048   0.475   7.535 -0.3189  0.1457  0.1897
 9396SOL    HW139824   0.135   0.495   7.569 -0.3394  1.2824 -0.4366
 9396SOL    HW239825   0.040   0.380   7.548  0.3998  0.2957  1.7438
 9397SOL     OW39826   0.717   1.284   7.897  0.5229  0.3137  0.3551
 9397SOL    HW139827   0.798   1.335   7.896  0.8523 -0.2060  0.5446
 9397SOL    HW239828   0.675   1.336   7.966 -0.3170  0.2248 -0.0823
 9398SOL     OW39829   1.062   1.091   3.955  0.1196  0.2798  0.0571
 9398SOL    HW139830   0.968   1.106   3.970  0.1199  0.0001  0.3423
 9398SOL    HW239831   1.060   1.014   4.011  1.1659 -0.8174 -1.4266
 9399SOL     OW39832   0.346   0.715  15.777 -0.1571  0.1865  0.1056
 9399SOL    HW139833   0.419   0.727  15.716  0.8822 -1.0557  1.0889
 9399SOL    HW239834   0.296   0.795  15.761 -1.2565 -0.6586 -0.5603
 9400SOL     OW39835   4.261   2.111   3.703 -0.0129  0.2173  0.4015
 9400SOL    HW139836   4.287   2.035   3.650  0.5324  1.5912 -1.3237
 9400SOL    HW239837   4.305   2.099   3.787  2.3245  1.5433 -0.6287
 9401SOL     OW39838   0.456   3.736   8.961 -0.2248 -0.5446 -0.1449
 9401SOL    HW139839   0.372   3.779   8.976 -0.9331 -1.9997  0.1013
 9401SOL    HW239840   0.434   3.644   8.950  0.0800 -0.4600 -1.4584
 9402SOL     OW39841   0.862   1.300   0.728  0.5895  0.3430  0.3991
 9402SOL    HW139842   0.885   1.299   0.821 -1.5466  0.2696  0.9285
 9402SOL    HW239843   0.832   1.389   0.711 -0.0191  0.0968  0.2020
 9403SOL     OW39844   0.547   0.689   5.797 -0.0544 -0.5227 -0.0818
 9403SOL    HW139845   0.462   0.653   5.774 -0.0224  0.5319 -1.8565
 9403SOL    HW239846   0.599   0.614   5.767  0.3452  0.0687 -0.8799
 9404SOL     OW39847   1.027   4.113   7.329 -0.5167 -0.4088  0.2840
 9404SOL    HW139848   1.102   4.135   7.274 -0.2573 -0.1125  0.7557
 9404SOL    HW239849   0.964   4.134   7.260  1.7558  2.6790 -0.8162
 9405SOL     OW39850   4.621   2.121  14.435 -0.2435  0.2476 -0.3613
 9405SOL    HW139851   4.713   2.148  14.433  0.2607 -1.4712 -0.3254
 9405SOL    HW239852   4.630   2.034  14.395 -0.2512  1.0188 -2.0660
 9406SOL     OW39853   2.598   1.804  10.570 -0.3465  0.3466  0.2227
 9406SOL    HW139854   2.650   1.758  10.636 -3.0516 -2.2139  0.5410
 9406SOL    HW239855   2.560   1.727  10.530 -0.4835 -0.6611  2.2731
 9407SOL     OW39856   4.033   2.330   3.296 -0.2414 -0.0753  0.0617
 9407SOL    HW139857   3.962   2.374   3.343 -1.4627  0.2737 -2.1288
 9407SOL    HW239858   4.112   2.341   3.349 -0.2720 -0.5720  0.2148
 9408SOL     OW39859   2.465   2.631  14.639 -0.0296 -0.5874  0.5607
 9408SOL    HW139860   2.448   2.708  14.584 -0.2969 -0.8974  0.2087
 9408SOL    HW239861   2.478   2.565  14.571  1.6517  1.6278 -1.3031
 9409SOL     OW39862   4.118   2.612   6.867  0.0822  0.0225 -0.2459
 9409SOL    HW139863   4.101   2.636   6.958 -2.4293 -1.9633 -0.1927
 9409SOL    HW239864   4.084   2.690   6.822 -1.9308 -1.4149 -1.2225
 9410SOL     OW39865   2.735   2.559   7.651 -0.0760  0.5147  0.2809
 9410SOL    HW139866   2.694   2.511   7.723  0.2161 -0.9523 -0.5391
 9410SOL    HW239867   2.713   2.650   7.672 -0.6347  0.5961 -0.6589
 9411SOL     OW39868   3.767   1.191   8.030  0.4624 -0.2823  0.2821
 9411SOL    HW139869   3.676   1.204   8.001  0.6331 -0.7821 -0.4560
 9411SOL    HW239870   3.793   1.152   7.947  2.9206  1.1915  0.3717
 9412SOL     OW39871   3.654   1.976   0.429  0.7643 -0.6145 -0.4561
 9412SOL    HW139872   3.615   1.953   0.344  2.2815  0.8892 -1.5523
 9412SOL    HW239873   3.682   2.066   0.415 -1.5205 -0.1287 -2.0313
 9413SOL     OW39874   1.760   1.792   5.298 -0.0412 -0.4271  0.1930
 9413SOL    HW139875   1.710   1.737   5.358 -0.7941 -0.6126 -0.6160
 9413SOL    HW239876   1.722   1.762   5.216 -1.2469 -2.2417  1.4179
 9414SOL     OW39877   1.988   4.602   8.045  0.1566 -0.7776  0.5614
 9414SOL    HW139878   2.016   4.551   7.968  0.9500  2.6235 -1.4231
 9414SOL    HW239879   1.925   4.540   8.082 -2.9113  0.7869 -2.0309
 9415SOL     OW39880   2.686   0.846  12.601  0.0952 -0.3902 -0.0807
 9415SOL    HW139881   2.726   0.920  12.646  2.1399 -2.0321  0.8670
 9415SOL    HW239882   2.654   0.792  12.673  2.7090 -2.0283 -0.1258
 9416SOL     OW39883   2.976   4.474   2.102 -0.0349 -0.7292 -0.3668
 9416SOL    HW139884   2.902   4.534   2.116  0.2563 -0.0292 -1.7887
 9416SOL    HW239885   3.032   4.521   2.040 -0.4007  0.4953  0.2253
 9417SOL     OW39886   0.115   2.714  15.370  0.0344  0.0072 -0.2560
 9417SOL    HW139887   0.075   2.633  15.399 -2.4894  1.2609 -0.2786
 9417SOL    HW239888   0.086   2.722  15.279  3.2074 -0.9724 -1.3793
 9418SOL     OW39889   0.932   3.237   9.710 -0.6336  0.3898  0.1724
 9418SOL    HW139890   0.958   3.309   9.652 -2.0843 -0.4923 -1.5636
 9418SOL    HW239891   1.018   3.223   9.751  0.3243  1.5087 -1.4341
 9419SOL     OW39892   4.388   1.466   6.084  0.1145 -0.5515 -0.1385
 9419SOL    HW139893   4.338   1.416   6.148 -1.2678  0.3062 -0.5338
 9419SOL    HW239894   4.465   1.492   6.134 -1.4193 -0.3309  2.0806
 9420SOL     OW39895   3.348   4.527   9.255 -0.4183 -0.2194  0.3962
 9420SOL    HW139896   3.391   4.580   9.323 -0.9083  1.4599 -0.6005
 9420SOL    HW239897   3.315   4.454   9.307  1.4705 -1.5341 -0.2419
 9421SOL     OW39898   2.150   4.582   3.809  0.2911  0.1316  0.0101
 9421SOL    HW139899   2.149   4.623   3.896  0.7847  1.3969 -0.5687
 9421SOL    HW239900   2.066   4.610   3.773 -0.0959  2.4210  2.6825
 9422SOL     OW39901   1.905   1.541   6.383 -0.7198 -0.4709  0.0984
 9422SOL    HW139902   1.900   1.630   6.418 -2.0926 -0.7144  0.5068
 9422SOL    HW239903   1.822   1.507   6.416 -0.9242 -0.5887 -0.5361
 9423SOL     OW39904   0.492   2.289   8.384 -0.0900  0.2607  0.0563
 9423SOL    HW139905   0.531   2.219   8.436  0.9277  1.1613  0.5340
 9423SOL    HW239906   0.442   2.337   8.449 -2.7446 -0.0281 -1.7873
 9424SOL     OW39907   3.361   3.462  17.423  0.0336  0.4500 -0.6402
 9424SOL    HW139908   3.385   3.549  17.456 -0.6203 -0.2344  1.6964
 9424SOL    HW239909   3.319   3.430  17.503  0.3425 -0.0434 -0.6742
 9425SOL     OW39910   2.629   2.082  10.577 -0.3389  0.3154 -0.2071
 9425SOL    HW139911   2.621   1.987  10.581  1.6950 -0.0041 -3.6437
 9425SOL    HW239912   2.624   2.092  10.482 -1.9077 -3.9154 -0.5909
 9426SOL     OW39913   4.223   3.869   4.015 -0.2110  0.1765  0.8846
 9426SOL    HW139914   4.164   3.944   4.006 -0.5495 -0.1995  0.0086
 9426SOL    HW239915   4.305   3.906   4.049  1.8252 -2.2756 -1.4245
 9427SOL     OW39916   1.427   2.804   2.223  0.2434  0.3590 -0.3476
 9427SOL    HW139917   1.419   2.887   2.176 -0.8886  1.0304  1.0013
 9427SOL    HW239918   1.416   2.834   2.313 -0.1602 -1.3426  0.1715
 9428SOL     OW39919   1.121   0.254  15.424  0.3377  0.0364 -0.0125
 9428SOL    HW139920   1.152   0.245  15.334 -0.9622  1.2078 -0.5791
 9428SOL    HW239921   1.142   0.346  15.439 -0.6974  0.5160 -1.4614
 9429SOL     OW39922   0.114   2.393   9.179 -0.1263  0.0260  0.3636
 9429SOL    HW139923   0.139   2.423   9.091  0.5859 -1.0693  0.1940
 9429SOL    HW239924   0.021   2.369   9.171 -0.6887  2.2091  0.2755
 9430SOL     OW39925   0.120   0.652   5.408  1.1211  0.1210 -0.2104
 9430SOL    HW139926   0.103   0.558   5.402 -1.1016  0.5069  0.1848
 9430SOL    HW239927   0.110   0.657   5.503  1.5782  0.2202 -0.1668
 9431SOL     OW39928   2.788   1.518  16.175 -0.1365  0.4422 -0.1046
 9431SOL    HW139929   2.777   1.548  16.265  0.4946 -1.2758  0.5460
 9431SOL    HW239930   2.874   1.559  16.160  0.5808 -1.3991 -0.9717
 9432SOL     OW39931   3.562   1.763  17.686 -0.3427  0.5519 -0.3672
 9432SOL    HW139932   3.594   1.740  17.598  0.6663  3.0846 -0.6762
 9432SOL    HW239933   3.474   1.728  17.670  0.1639 -0.6421 -0.5620
 9433SOL     OW39934   0.242   2.728  15.782 -0.9199 -0.0478 -0.5118
 9433SOL    HW139935   0.334   2.704  15.786 -1.0524 -0.5543 -0.5610
 9433SOL    HW239936   0.208   2.661  15.840  2.5205 -1.6838 -0.3986
 9434SOL     OW39937   4.161   4.153   6.421  0.2901  0.2692 -0.1686
 9434SOL    HW139938   4.132   4.093   6.352  0.2173 -2.1053  1.9261
 9434SOL    HW239939   4.249   4.116   6.429  0.7465  1.5597  0.7507
 9435SOL     OW39940   3.546   0.315  13.263  0.2372 -0.3201  0.5622
 9435SOL    HW139941   3.467   0.353  13.302  1.0433  2.2680 -0.2835
 9435SOL    HW239942   3.506   0.248  13.207 -1.1862  0.6814  0.3678
 9436SOL     OW39943   4.321   0.431   1.701  0.0665 -0.3716  0.2156
 9436SOL    HW139944   4.319   0.526   1.710  2.7685 -0.1901 -1.1189
 9436SOL    HW239945   4.259   0.406   1.769 -0.4763 -1.9333 -0.8256
 9437SOL     OW39946   2.345   2.770  16.214  0.0819 -0.1552  0.3058
 9437SOL    HW139947   2.374   2.849  16.260  2.3559 -1.4120  1.0627
 9437SOL    HW239948   2.366   2.793  16.124 -0.1074 -1.3662 -0.0468
 9438SOL     OW39949   2.709   2.913   6.406  0.5309 -0.0706 -0.1001
 9438SOL    HW139950   2.728   2.822   6.381  1.5048 -0.2434  1.2872
 9438SOL    HW239951   2.706   2.953   6.319  0.9460  1.8244  0.7688
 9439SOL     OW39952   0.019   0.396   8.786 -0.2759  0.2261 -0.2433
 9439SOL    HW139953   0.078   0.442   8.727  0.1303  0.9956  0.7573
 9439SOL    HW239954   4.665   0.426   8.760 -0.8913  0.5318  2.2003
 9440SOL     OW39955   4.518   0.421   7.983  0.1733 -0.6346 -0.7878
 9440SOL    HW139956   4.566   0.475   7.921 -1.9009  0.4051 -1.5057
 9440SOL    HW239957   4.427   0.442   7.963  0.7422  2.0201 -0.5357
 9441SOL     OW39958   2.257   2.129   0.884 -0.2920 -0.1927  0.1821
 9441SOL    HW139959   2.341   2.086   0.900 -0.3256 -0.9752 -1.7091
 9441SOL    HW239960   2.277   2.213   0.844  1.1861 -0.0737  1.1884
 9442SOL     OW39961   3.299   3.389   5.499 -0.7274  0.2688  0.1632
 9442SOL    HW139962   3.245   3.467   5.500 -0.3586  0.5317 -0.4036
 9442SOL    HW239963   3.256   3.352   5.576  0.2701  1.1663  1.1511
 9443SOL     OW39964   2.545   2.136   7.813 -0.1098 -0.2461 -0.1996
 9443SOL    HW139965   2.470   2.103   7.862 -2.2468  2.4706 -1.6827
 9443SOL    HW239966   2.533   2.081   7.735 -0.8069 -4.2354  2.7065
 9444SOL     OW39967   2.796   2.258   6.786 -0.0055 -0.2989 -0.7194
 9444SOL    HW139968   2.856   2.290   6.854 -2.9512  1.8598  0.8323
 9444SOL    HW239969   2.737   2.214   6.847 -0.9860 -0.1938 -1.5977
 9445SOL     OW39970   3.022   1.410  12.209  0.1730  0.3631 -0.2073
 9445SOL    HW139971   3.103   1.454  12.235  0.6140 -1.2055  1.0984
 9445SOL    HW239972   3.043   1.320  12.234  0.7711  0.2126 -1.2391
 9446SOL     OW39973   1.511   2.969   6.459  0.4332  0.8046 -0.3376
 9446SOL    HW139974   1.418   2.992   6.456  0.5805  1.4524  0.0170
 9446SOL    HW239975   1.498   2.878   6.433 -0.1646  0.8245 -0.1016
 9447SOL     OW39976   0.807   2.459   2.658 -0.0422  0.3275  0.2133
 9447SOL    HW139977   0.860   2.382   2.638  0.7826  1.3143 -1.3821
 9447SOL    HW239978   0.838   2.480   2.747  3.0805 -0.6963 -0.6151
 9448SOL     OW39979   4.651   0.905   5.005 -0.3059  0.1779  0.3466
 9448SOL    HW139980   4.698   0.845   5.063  1.3788  0.5228 -0.6443
 9448SOL    HW239981   4.579   0.927   5.064 -1.9590 -1.0487 -1.1913
 9449SOL     OW39982   3.837   0.540   3.432  0.2914 -0.6167  0.2090
 9449SOL    HW139983   3.892   0.485   3.376  2.0350  2.8147 -1.5002
 9449SOL    HW239984   3.766   0.480   3.454  0.3651 -0.2077  1.5414
 9450SOL     OW39985   4.283   4.404   3.169 -0.1727 -0.5344 -0.8740
 9450SOL    HW139986   4.311   4.495   3.179 -0.0941 -0.4923 -1.4698
 9450SOL    HW239987   4.287   4.401   3.073 -0.1270  0.9198 -0.9120
 9451SOL     OW39988   4.014   1.944   5.221  0.3911 -0.5526 -0.1762
 9451SOL    HW139989   3.995   1.855   5.192 -0.5225  0.0754 -1.5103
 9451SOL    HW239990   3.942   1.961   5.283  0.7674  2.9894 -0.6911
 9452SOL     OW39991   3.979   2.607   5.720 -0.3438  0.1885  0.0433
 9452SOL    HW139992   4.055   2.560   5.756 -0.6318 -0.3772 -0.0735
 9452SOL    HW239993   3.923   2.532   5.699 -0.8036  1.1034 -2.0668
 9453SOL     OW39994   4.294   2.439   9.779  0.1575  0.7037 -0.5011
 9453SOL    HW139995   4.267   2.456   9.869  0.1214 -0.1371 -0.3504
 9453SOL    HW239996   4.208   2.430   9.737 -0.2166  0.0748  0.4150
 9454SOL     OW39997   4.577   0.237   2.582 -0.0169  0.5916 -0.1078
 9454SOL    HW139998   4.609   0.148   2.593  0.0289  0.4411 -1.4682
 9454SOL    HW239999   4.648   0.279   2.629 -0.7522  0.2763  1.2865
 9455SOL     OW40000   0.066   0.906   7.861 -0.0646 -0.7977  0.4290
 9455SOL    HW140001   0.106   0.939   7.781  1.3053 -1.3965  0.8713
 9455SOL    HW240002   0.030   0.986   7.899 -0.6341  0.4600 -2.7894
 9456SOL     OW40003   3.535   1.488   4.595 -0.1658 -0.0772 -0.0128
 9456SOL    HW140004   3.574   1.572   4.570 -0.2869 -0.5180 -1.6124
 9456SOL    HW240005   3.448   1.487   4.554 -0.7866 -0.2407  1.3016
 9457SOL     OW40006   3.209   1.492   8.592  0.5659 -0.4284  0.0864
 9457SOL    HW140007   3.120   1.495   8.556 -0.4293  0.0257  2.5871
 9457SOL    HW240008   3.205   1.543   8.672 -0.6237  1.0969 -0.9513
 9458SOL     OW40009   4.295   4.040  11.675  0.3327  0.5321  0.2262
 9458SOL    HW140010   4.347   4.068  11.600  0.3988  0.7010  0.3342
 9458SOL    HW240011   4.359   4.019  11.743 -1.0944  1.9552  2.0124
 9459SOL     OW40012   4.094   0.015   4.495  0.2704 -0.3151  0.5361
 9459SOL    HW140013   4.080   0.105   4.526  0.4496  0.2920 -1.1578
 9459SOL    HW240014   4.002   4.723   4.498  0.0105  0.5340 -0.0278
 9460SOL     OW40015   4.437   2.118  10.741 -0.4155  0.9909 -0.5333
 9460SOL    HW140016   4.361   2.092  10.690  0.6077 -1.9175 -0.5680
 9460SOL    HW240017   4.435   2.207  10.706 -0.7109  0.9350 -0.6552
 9461SOL     OW40018   4.023   2.781   6.404 -0.0860 -0.2379  0.0221
 9461SOL    HW140019   3.960   2.762   6.335  1.0805 -1.5917 -0.6758
 9461SOL    HW240020   3.960   2.801   6.473  0.2476  0.3038  0.1730
 9462SOL     OW40021   1.131   2.182   6.704  0.6269 -0.3323 -0.7652
 9462SOL    HW140022   1.082   2.175   6.622  1.0294 -0.7922 -0.9667
 9462SOL    HW240023   1.088   2.255   6.749  1.6479 -0.1408 -0.0896
 9463SOL     OW40024   1.068   2.201  14.401 -0.9724 -0.7074 -0.8996
 9463SOL    HW140025   1.121   2.207  14.481 -2.6840  3.0332 -0.0057
 9463SOL    HW240026   1.082   2.286  14.359 -1.2180  0.7364  1.9177
 9464SOL     OW40027   0.636   2.770   4.291  0.4186  0.3382  0.3690
 9464SOL    HW140028   0.613   2.721   4.212 -0.7029  3.2846 -1.1235
 9464SOL    HW240029   0.649   2.697   4.351 -1.7166 -0.8680 -0.6380
 9465SOL     OW40030   0.298   1.074   3.482  0.3689 -0.9616 -0.2819
 9465SOL    HW140031   0.244   0.996   3.491  1.2183 -1.4547  0.5543
 9465SOL    HW240032   0.378   1.038   3.444  2.7844 -0.3301  4.1456
 9466SOL     OW40033   2.933   2.306   1.380  0.4171  0.4216 -0.4806
 9466SOL    HW140034   2.957   2.272   1.293 -1.1286 -1.3124 -0.2342
 9466SOL    HW240035   3.012   2.353   1.406  0.5593  0.3497 -0.7796
 9467SOL     OW40036   0.807   4.540   8.929 -1.1355  0.4505 -0.2692
 9467SOL    HW140037   0.869   4.470   8.949 -1.2340 -0.0353 -1.6284
 9467SOL    HW240038   0.723   4.495   8.930 -2.3422  2.6943  0.2219
 9468SOL     OW40039   0.825   4.121   6.830  0.7415  0.0489  0.4366
 9468SOL    HW140040   0.803   4.120   6.737 -1.9126  0.9662  1.0450
 9468SOL    HW240041   0.883   4.047   6.814 -0.8022 -0.9357 -0.5796
 9469SOL     OW40042   3.778   3.496   6.795 -0.7722  0.3476 -0.0857
 9469SOL    HW140043   3.731   3.540   6.724 -2.3383 -0.9361  0.1454
 9469SOL    HW240044   3.824   3.422   6.755  0.5632  1.5932 -0.8734
 9470SOL     OW40045   1.904   4.574   9.292  0.1152 -0.3211 -0.3559
 9470SOL    HW140046   1.948   4.611   9.368  0.9944  0.2509 -1.1499
 9470SOL    HW240047   1.872   4.659   9.263  1.8274  0.3478 -0.3022
 9471SOL     OW40048   2.639   0.207   6.855  0.3895 -0.3364 -0.5662
 9471SOL    HW140049   2.689   0.285   6.831 -0.6435  0.4680 -0.1582
 9471SOL    HW240050   2.646   0.185   6.948  1.4424 -0.4278 -0.6757
 9472SOL     OW40051   0.125   4.663   7.664  0.4330 -0.3478  0.5480
 9472SOL    HW140052   0.074   0.008   7.646  1.3554 -0.1906 -1.3021
 9472SOL    HW240053   0.068   4.627   7.732  0.4290 -0.1216  0.6654
 9473SOL     OW40054   0.381   2.511  10.480  0.0229  0.2473 -0.1661
 9473SOL    HW140055   0.428   2.592  10.461  1.2113 -0.7834 -1.6819
 9473SOL    HW240056   0.447   2.456  10.522 -0.0973 -0.3831 -0.7910
 9474SOL     OW40057   0.149   2.593   5.285  0.2650 -0.8131  0.2243
 9474SOL    HW140058   0.098   2.671   5.262 -0.6058 -1.4719 -0.1045
 9474SOL    HW240059   0.183   2.560   5.202 -1.7483 -1.9973 -0.1435
 9475SOL     OW40060   3.243   0.135   1.422  0.1053 -0.3499  0.4450
 9475SOL    HW140061   3.202   0.096   1.500  1.7112  1.3594  2.1416
 9475SOL    HW240062   3.167   0.132   1.364 -0.5792 -6.0170  1.5813
 9476SOL     OW40063   4.010   4.014  13.856  0.4355  0.1567  0.0443
 9476SOL    HW140064   3.977   4.056  13.777 -1.3261  0.6719  1.0525
 9476SOL    HW240065   3.957   4.062  13.920 -2.0350 -0.2121 -1.6985
 9477SOL     OW40066   1.598   0.265   8.775 -0.4753  0.0824 -0.6947
 9477SOL    HW140067   1.510   0.273   8.812  0.0731 -1.0035  0.8355
 9477SOL    HW240068   1.594   0.286   8.682 -1.2625  1.3683 -0.3780
 9478SOL     OW40069   1.199   0.910   4.349 -0.4863  0.1340  0.4233
 9478SOL    HW140070   1.156   0.878   4.270 -0.4534  1.8003 -0.2706
 9478SOL    HW240071   1.130   0.897   4.413 -0.4100  1.2502  0.7273
 9479SOL     OW40072   2.336   2.250  11.567  0.3471 -0.1218  0.2240
 9479SOL    HW140073   2.278   2.326  11.559 -1.0725 -1.2617 -0.2016
 9479SOL    HW240074   2.316   2.212  11.652  0.9437  0.8856  0.8029
 9480SOL     OW40075   3.672   1.568   6.222  0.2075  0.5985  0.2091
 9480SOL    HW140076   3.719   1.486   6.207  0.1876  0.1547  2.5291
 9480SOL    HW240077   3.682   1.587   6.316  0.6904 -0.2658  0.3346
 9481SOL     OW40078   2.584   2.157   3.982 -0.4653  0.0408 -0.0231
 9481SOL    HW140079   2.616   2.067   3.986  2.6199  1.1579  0.7952
 9481SOL    HW240080   2.620   2.191   3.900  2.4240  1.4007  1.8069
 9482SOL     OW40081   0.466   0.797  17.393  0.2839 -0.2670  0.3311
 9482SOL    HW140082   0.514   0.769  17.471 -0.8375 -0.1867  1.0404
 9482SOL    HW240083   0.533   0.847  17.345 -1.5209 -0.5887 -2.5550
 9483SOL     OW40084   3.758   2.249   8.115  0.0045  0.2550  0.4507
 9483SOL    HW140085   3.843   2.287   8.139  1.1920 -2.2298  0.1205
 9483SOL    HW240086   3.733   2.216   8.202 -2.3051  0.6340 -0.0598
 9484SOL     OW40087   2.944   1.033   3.024  0.1897  0.4305  0.1957
 9484SOL    HW140088   2.941   1.007   3.116 -1.2601 -2.3928 -0.6446
 9484SOL    HW240089   2.869   1.093   3.020 -1.2528 -1.3483  0.4871
 9485SOL     OW40090   2.620   0.272   4.915 -0.2462  0.0652  0.0017
 9485SOL    HW140091   2.686   0.208   4.888 -1.6217 -1.0372 -0.7319
 9485SOL    HW240092   2.628   0.268   5.011  0.0271  0.2254 -0.0135
 9486SOL     OW40093   3.640   1.532   1.533 -0.4549 -0.1866 -0.4273
 9486SOL    HW140094   3.607   1.602   1.477 -2.2956 -0.3436  0.4886
 9486SOL    HW240095   3.577   1.463   1.515 -0.7282 -0.3895  1.2708
 9487SOL     OW40096   4.631   2.541  13.932 -0.4761 -0.2121  0.6003
 9487SOL    HW140097   4.649   2.477  14.001 -2.8629 -2.1288 -0.5453
 9487SOL    HW240098   4.536   2.533  13.927 -0.3228  0.4462 -3.1252
 9488SOL     OW40099   3.706   4.462  10.350  0.4350  0.6369  0.2855
 9488SOL    HW140100   3.622   4.505  10.337 -0.2937 -0.6294  0.7466
 9488SOL    HW240101   3.746   4.518  10.416 -1.3639  1.0501  1.0294
 9489SOL     OW40102   2.924   0.212  14.121  0.4565 -0.1139  0.4220
 9489SOL    HW140103   2.919   0.155  14.045  1.2147 -1.0127  1.0477
 9489SOL    HW240104   2.992   0.271  14.089 -0.6888  0.9357 -0.0680
 9490SOL     OW40105   1.839   1.445   2.131  0.2701  0.0513  0.1254
 9490SOL    HW140106   1.855   1.497   2.053 -2.6652  2.3579  1.0550
 9490SOL    HW240107   1.833   1.511   2.201 -1.9461  0.0735 -0.0869
 9491SOL     OW40108   4.425   3.760   8.941 -0.0180  0.1650 -0.0598
 9491SOL    HW140109   4.408   3.851   8.917 -0.1952 -0.3673 -1.9526
 9491SOL    HW240110   4.481   3.742   8.865 -0.6933  1.4664 -0.8808
 9492SOL     OW40111   2.540   2.776   6.025  0.2159 -0.0401  0.2742
 9492SOL    HW140112   2.591   2.700   6.051  0.2426  0.2645  1.1339
 9492SOL    HW240113   2.486   2.795   6.102  0.6199  1.1503  0.2637
 9493SOL     OW40114   0.879   4.296   4.777 -0.2032  0.6285 -0.8055
 9493SOL    HW140115   0.910   4.206   4.791  1.0058  1.2725  0.6466
 9493SOL    HW240116   0.824   4.302   4.855  0.8138  0.3742 -0.0601
 9494SOL     OW40117   0.706   0.799   7.038  0.3486  0.3327  0.3391
 9494SOL    HW140118   0.780   0.755   7.079 -0.3853 -0.3231  0.9487
 9494SOL    HW240119   0.664   0.849   7.108 -1.3728 -0.9731  0.2394
 9495SOL     OW40120   0.741   3.703   7.583  0.0703 -0.0605 -0.4191
 9495SOL    HW140121   0.727   3.765   7.512  1.4622 -0.3669 -0.9566
 9495SOL    HW240122   0.710   3.754   7.658  2.8800  1.3600 -0.2428
 9496SOL     OW40123   4.343   4.460   3.710 -0.0964  0.0307 -0.0133
 9496SOL    HW140124   4.310   4.415   3.787  0.4650  1.9287  1.3329
 9496SOL    HW240125   4.329   4.398   3.638 -0.7228  0.5822 -0.3623
 9497SOL     OW40126   0.126   2.465   4.736 -0.0674 -0.0929 -0.2749
 9497SOL    HW140127   0.221   2.462   4.723 -0.2736 -0.0414 -1.7582
 9497SOL    HW240128   0.107   2.552   4.772 -0.3616 -1.0074  1.7661
 9498SOL     OW40129   2.754   0.871   7.039  0.1949 -0.8485 -0.5697
 9498SOL    HW140130   2.714   0.786   7.059  0.2941 -0.9626 -0.8522
 9498SOL    HW240131   2.685   0.929   7.070  0.6238 -0.3488 -0.5604
 9499SOL     OW40132   0.666   1.170   3.224  0.6122  0.2062 -0.0228
 9499SOL    HW140133   0.677   1.144   3.133 -0.2988  2.3056 -0.7346
 9499SOL    HW240134   0.623   1.089   3.251  1.9702 -0.2576  0.7524
 9500SOL     OW40135   1.015   3.974   7.576 -0.3444 -0.1526 -0.1591
 9500SOL    HW140136   1.083   3.919   7.537 -0.4280  0.8594 -1.7504
 9500SOL    HW240137   0.985   4.012   7.493 -0.9989  1.5107  0.8661
 9501SOL     OW40138   3.137   3.178   3.251  0.3699 -0.2324 -0.4739
 9501SOL    HW140139   3.116   3.238   3.323 -3.4794 -3.0546  0.7268
 9501SOL    HW240140   3.230   3.198   3.241 -0.0169  1.0332 -1.6025
 9502SOL     OW40141   3.037   3.122  16.972 -0.1356 -0.2855 -0.0540
 9502SOL    HW140142   3.093   3.063  16.921 -0.6292 -0.6095 -0.2126
 9502SOL    HW240143   3.005   3.182  16.905  0.1389 -0.9127 -0.7416
 9503SOL     OW40144   2.080   1.514   7.078 -0.1311 -0.6519 -0.2974
 9503SOL    HW140145   2.013   1.479   7.136 -0.4754  0.9686  0.2678
 9503SOL    HW240146   2.038   1.593   7.046 -2.6063 -1.1064  1.8632
 9504SOL     OW40147   1.825   2.474   5.841 -0.3598  0.2302  0.5844
 9504SOL    HW140148   1.838   2.379   5.840 -0.2905  0.1982  3.0428
 9504SOL    HW240149   1.896   2.489   5.779 -1.2585  1.7879 -0.0642
 9505SOL     OW40150   0.702   2.975   8.021  0.4076 -0.0891 -0.1670
 9505SOL    HW140151   0.720   2.910   8.090  2.6787  0.9437  0.1976
 9505SOL    HW240152   0.614   2.957   7.986  0.6983 -0.9547 -0.4566
 9506SOL     OW40153   0.100   3.658   8.574  0.1183 -0.3161  1.0954
 9506SOL    HW140154   0.189   3.643   8.604  0.2573 -0.8862  0.3928
 9506SOL    HW240155   0.081   3.581   8.519  1.3795 -0.2142  0.5235
 9507SOL     OW40156   4.024   3.993   1.671 -0.4086 -0.1884 -0.5524
 9507SOL    HW140157   4.065   3.953   1.594 -1.1177  3.2167 -2.6934
 9507SOL    HW240158   3.932   4.004   1.645 -0.1641  0.8948 -0.9719
 9508SOL     OW40159   2.429   4.402   0.836  0.1829 -0.2960 -0.3424
 9508SOL    HW140160   2.405   4.463   0.767 -1.1134 -2.9160 -2.2400
 9508SOL    HW240161   2.398   4.446   0.915 -1.7432  3.2014 -3.0721
 9509SOL     OW40162   1.866   2.200   5.799  0.0976  0.1299  0.3504
 9509SOL    HW140163   1.813   2.133   5.841  1.4536 -0.5448  0.9774
 9509SOL    HW240164   1.949   2.154   5.811  0.0740 -0.4948 -1.8807
 9510SOL     OW40165   4.102   1.784  16.780  0.1389 -0.5688  0.0657
 9510SOL    HW140166   4.185   1.831  16.778 -2.0665  3.3059 -1.9139
 9510SOL    HW240167   4.128   1.702  16.821  0.6270  0.1639  1.2279
 9511SOL     OW40168   3.897   2.073   5.471  0.0635  0.2955 -0.2791
 9511SOL    HW140169   3.975   2.126   5.488 -0.6641  1.6898 -1.2599
 9511SOL    HW240170   3.864   2.071   5.561  1.1916  0.2350  0.1329
 9512SOL     OW40171   0.068   2.605  10.112  0.0973  0.3469 -0.0152
 9512SOL    HW140172   0.085   2.578  10.022 -1.7918  0.7190 -0.4964
 9512SOL    HW240173   0.050   2.521  10.152 -1.6829  0.5874 -0.3110
 9513SOL     OW40174   2.566   0.164   9.337  0.0509  0.1391 -0.1178
 9513SOL    HW140175   2.515   0.162   9.256 -1.2304 -0.4131  0.7118
 9513SOL    HW240176   2.650   0.141   9.298 -1.2599  0.1834 -2.9600
 9514SOL     OW40177   0.488   0.871   1.851 -0.2215 -0.3375 -0.0095
 9514SOL    HW140178   0.419   0.805   1.860  1.2199 -1.8110  0.2442
 9514SOL    HW240179   0.557   0.819   1.892  1.0689  0.6680 -0.8816
 9515SOL     OW40180   2.628   4.611  15.206 -0.4829  0.0338  0.2275
 9515SOL    HW140181   2.630   4.612  15.302 -0.3240 -2.8687  0.2543
 9515SOL    HW240182   2.690   4.543  15.181 -1.0263 -0.5981  0.6024
 9516SOL     OW40183   2.895   2.872  17.014 -0.4155 -0.1445 -0.3454
 9516SOL    HW140184   2.942   2.955  17.004  0.0339 -0.1843  1.5332
 9516SOL    HW240185   2.930   2.828  17.091 -2.2229  0.0948  0.6039
 9517SOL     OW40186   3.197   2.977  13.834  0.0827  0.1515 -0.2169
 9517SOL    HW140187   3.217   2.970  13.740 -0.3338 -2.6385 -0.0881
 9517SOL    HW240188   3.183   3.072  13.834 -0.5779  0.0487  1.4102
 9518SOL     OW40189   1.277   0.923   3.645 -0.1079  0.0584 -0.3418
 9518SOL    HW140190   1.359   0.940   3.691 -0.3566  0.7202 -0.1375
 9518SOL    HW240191   1.215   0.978   3.694 -0.6704  0.0418 -1.0338
 9519SOL     OW40192   2.531   2.978   9.209 -0.3602  0.4316  0.2653
 9519SOL    HW140193   2.446   2.989   9.166 -0.7993  0.3126  1.1010
 9519SOL    HW240194   2.514   3.029   9.288  1.7531  0.6994  0.5481
 9520SOL     OW40195   0.284   4.507  14.356 -0.5127  0.0869  0.2155
 9520SOL    HW140196   0.356   4.456  14.318 -0.9732  0.8288 -1.6543
 9520SOL    HW240197   0.207   4.465  14.317  0.8289 -2.1408 -0.0140
 9521SOL     OW40198   4.328   0.439   6.727  0.1445  0.3453 -0.1455
 9521SOL    HW140199   4.356   0.465   6.639 -0.9903  1.2552 -0.2225
 9521SOL    HW240200   4.379   0.358   6.739  0.2546  0.3985 -0.2545
 9522SOL     OW40201   4.479   3.870  16.480 -0.0293  0.0774 -0.0384
 9522SOL    HW140202   4.451   3.957  16.455  0.1814  0.6334  1.6628
 9522SOL    HW240203   4.540   3.847  16.410 -1.6697 -2.5970 -0.5754
 9523SOL     OW40204   1.249   3.875   2.426  0.4306  0.7018  0.0817
 9523SOL    HW140205   1.210   3.868   2.339  2.5698 -1.0977 -0.7362
 9523SOL    HW240206   1.172   3.916   2.464  0.5337 -0.4577  1.5108
 9524SOL     OW40207   0.787   1.100   6.699 -0.5610  0.3368 -0.0863
 9524SOL    HW140208   0.729   1.153   6.645 -2.0535 -3.5719 -2.3803
 9524SOL    HW240209   0.818   1.035   6.635  0.9722  1.8569 -0.8890
 9525SOL     OW40210   0.540   3.628   6.020  0.2644  0.0860 -0.2511
 9525SOL    HW140211   0.568   3.692   6.085 -0.4678  0.4416 -0.2794
 9525SOL    HW240212   0.529   3.678   5.939 -2.6573 -0.1049  0.0148
 9526SOL     OW40213   3.576   1.188   2.705  0.2434 -0.0286  0.9168
 9526SOL    HW140214   3.628   1.122   2.750  0.7841  0.7912  1.4933
 9526SOL    HW240215   3.488   1.158   2.728  0.0894 -0.7851 -0.6497
 9527SOL     OW40216   0.377   0.795   7.684 -0.4476 -0.3753  0.2524
 9527SOL    HW140217   0.292   0.835   7.665  0.2939  0.7182 -0.7791
 9527SOL    HW240218   0.394   0.830   7.771 -1.4380  0.6276  0.0424
 9528SOL     OW40219   2.034   2.724   3.448 -0.1557 -0.0744 -0.4248
 9528SOL    HW140220   2.089   2.713   3.370 -0.0816  0.5604 -0.4579
 9528SOL    HW240221   2.014   2.816   3.437 -1.9730 -0.3091  0.9222
 9529SOL     OW40222   4.192   2.236  17.647  0.4476  0.2055  0.4348
 9529SOL    HW140223   4.233   2.186  17.577 -0.6543 -1.2829  0.8697
 9529SOL    HW240224   4.201   2.319  17.599  2.1029 -0.0335  0.3365
 9530SOL     OW40225   0.761   4.188  12.566 -0.2430 -0.0344 -0.0321
 9530SOL    HW140226   0.792   4.102  12.596  0.7255  1.2875  2.7270
 9530SOL    HW240227   0.731   4.176  12.476 -0.1432  1.2321 -0.2380
 9531SOL     OW40228   0.949   2.901  16.663 -0.2509 -0.4672  0.4489
 9531SOL    HW140229   0.905   2.816  16.660  0.5588 -0.8411 -0.8451
 9531SOL    HW240230   0.877   2.954  16.628  0.1995 -0.1990 -0.0687
 9532SOL     OW40231   3.164   3.922   6.080 -0.0300  0.4069 -0.7717
 9532SOL    HW140232   3.108   3.981   6.029 -0.8075 -1.1168 -1.6703
 9532SOL    HW240233   3.109   3.845   6.092 -2.2761  1.8991 -1.6548
 9533SOL     OW40234   3.606   0.908   8.397  0.1503 -0.0572  0.2404
 9533SOL    HW140235   3.628   0.949   8.480 -1.4033 -0.3932  0.8105
 9533SOL    HW240236   3.531   0.855   8.424 -0.8420  1.3609  0.2386
 9534SOL     OW40237   2.603   0.845  13.839 -0.1897 -0.1400  0.1223
 9534SOL    HW140238   2.517   0.888  13.844 -0.6129 -1.1056  1.1597
 9534SOL    HW240239   2.636   0.867  13.752  1.7387  1.3061  1.2073
 9535SOL     OW40240   0.469   2.828  16.104 -0.8176  0.3245  0.1782
 9535SOL    HW140241   0.526   2.898  16.074 -1.7155  0.6518 -0.7511
 9535SOL    HW240242   0.384   2.858  16.070 -0.2376  0.7736 -0.8675
 9536SOL     OW40243   4.685   2.041  16.220  0.4526 -0.3589  0.7554
 9536SOL    HW140244   4.590   2.030  16.215  0.2168  1.6578  0.8194
 9536SOL    HW240245   4.710   2.028  16.128  0.1517 -0.0578  0.6329
 9537SOL     OW40246   1.940   2.583   2.162 -0.2056 -0.5692 -0.2799
 9537SOL    HW140247   1.851   2.608   2.137 -0.2497 -0.4486  0.0028
 9537SOL    HW240248   1.954   2.503   2.110  2.3043  0.1657 -0.7512
 9538SOL     OW40249   2.375   2.713   5.251 -0.3257  0.0831  0.1948
 9538SOL    HW140250   2.404   2.753   5.333  1.0376  0.2314 -0.3616
 9538SOL    HW240251   2.447   2.744   5.197  0.8481 -2.1154  0.5016
 9539SOL     OW40252   2.237   3.753  12.349 -0.5788  0.1059  0.4367
 9539SOL    HW140253   2.200   3.822  12.404 -0.4432 -2.1080  3.3108
 9539SOL    HW240254   2.325   3.762  12.387  0.2580  0.5452 -1.5762
 9540SOL     OW40255   3.445   0.897   5.691  0.6171  0.2160 -0.0797
 9540SOL    HW140256   3.523   0.861   5.734 -0.5595 -0.1702  1.7520
 9540SOL    HW240257   3.453   0.990   5.713 -0.3198  0.4516 -0.7584
 9541SOL     OW40258   0.919   0.215  16.540  0.6458  0.2234  0.2210
 9541SOL    HW140259   0.942   0.307  16.552  2.4542 -0.2872  0.5668
 9541SOL    HW240260   0.926   0.188  16.631  1.2984 -2.8775 -0.7464
 9542SOL     OW40261   0.862   2.646   3.436  0.3242  0.5598 -0.4852
 9542SOL    HW140262   0.842   2.738   3.445  1.3918  0.9687 -2.1086
 9542SOL    HW240263   0.781   2.610   3.471  0.2383 -0.7045 -1.9810
 9543SOL     OW40264   3.456   3.546   4.653  0.0548 -0.2052  0.0027
 9543SOL    HW140265   3.378   3.508   4.692  1.1426 -0.6073  1.7676
 9543SOL    HW240266   3.434   3.597   4.575  2.2927  2.9155  1.3931
 9544SOL     OW40267   4.611   4.537   6.861  0.0337 -0.3711 -0.1630
 9544SOL    HW140268   4.525   4.547   6.822 -0.5603  1.6534  1.6376
 9544SOL    HW240269   4.623   4.612   6.920  0.7221 -1.7234  1.4386
 9545SOL     OW40270   1.073   0.067   5.788  0.4493 -0.4566 -0.1795
 9545SOL    HW140271   1.000   0.117   5.823 -0.4333 -1.2521 -0.8800
 9545SOL    HW240272   1.059   4.721   5.838 -1.3248  0.1721  0.3061
 9546SOL     OW40273   2.933   0.570   4.454  0.0752  0.1688  0.2580
 9546SOL    HW140274   2.865   0.574   4.522  0.6352 -0.8687  0.8887
 9546SOL    HW240275   2.963   0.480   4.463 -1.3777 -0.2063  1.4074
 9547SOL     OW40276   3.633   2.242  10.784  0.2433 -0.1575  0.1099
 9547SOL    HW140277   3.582   2.303  10.837  1.1270 -0.5250  1.3798
 9547SOL    HW240278   3.683   2.201  10.855 -0.4840 -0.8903  0.1958
 9548SOL     OW40279   4.586   2.314   9.172  0.3646 -0.1108 -0.1641
 9548SOL    HW140280   4.537   2.320   9.254  0.2641  3.7831 -0.5264
 9548SOL    HW240281   4.535   2.377   9.120 -0.8291 -0.9693 -0.0510
 9549SOL     OW40282   0.273   2.042  16.810 -0.3527  0.1308  0.1353
 9549SOL    HW140283   0.292   2.036  16.716  1.1695  0.6079  0.4094
 9549SOL    HW240284   0.198   1.983  16.809 -2.3789  2.7034 -0.0283
 9550SOL     OW40285   3.777   1.685  10.376 -0.1081  0.2775 -0.9147
 9550SOL    HW140286   3.847   1.746  10.353  0.1557  0.1061 -0.5672
 9550SOL    HW240287   3.773   1.687  10.471 -0.0284  2.3460 -0.9744
 9551SOL     OW40288   1.649   3.327   2.200  0.2516 -0.3478 -0.6122
 9551SOL    HW140289   1.616   3.322   2.110  0.9198  0.9014 -0.9303
 9551SOL    HW240290   1.727   3.380   2.183 -0.1220  0.7460  1.1153
 9552SOL     OW40291   4.214   2.573   3.823 -0.4923 -0.0380  0.3669
 9552SOL    HW140292   4.158   2.588   3.747 -0.9208 -0.9329  0.5137
 9552SOL    HW240293   4.163   2.602   3.899  1.2651  0.9411  1.1732
 9553SOL     OW40294   2.853   2.210  15.565  0.1327 -0.0396  0.4928
 9553SOL    HW140295   2.850   2.292  15.516  1.3162  0.2742  0.9465
 9553SOL    HW240296   2.946   2.200  15.586 -0.1053 -0.8952  1.1610
 9554SOL     OW40297   3.469   1.615   4.171  0.0781 -0.5537 -0.3794
 9554SOL    HW140298   3.409   1.604   4.097  2.5570 -2.6781 -2.1042
 9554SOL    HW240299   3.542   1.580   4.120 -0.6554 -2.0912 -0.3765
 9555SOL     OW40300   3.568   2.919   4.435  0.4707  0.1810  0.7472
 9555SOL    HW140301   3.501   2.984   4.455  0.2279  0.2437 -0.2706
 9555SOL    HW240302   3.528   2.835   4.413  1.3585 -0.3644  1.2400
 9556SOL     OW40303   2.234   3.626   4.239  0.3814 -0.2827  0.0614
 9556SOL    HW140304   2.144   3.600   4.221  0.5049 -0.7689  0.1406
 9556SOL    HW240305   2.235   3.639   4.334  0.5962  1.7476 -0.2267
 9557SOL     OW40306   0.456   2.737   5.154  0.7037 -0.3284  0.7031
 9557SOL    HW140307   0.464   2.642   5.149  1.9637 -0.0568 -2.4508
 9557SOL    HW240308   0.537   2.765   5.113  0.4569 -0.4079  0.1597
 9558SOL     OW40309   1.296   0.578   8.662 -0.5771  0.3403 -0.7738
 9558SOL    HW140310   1.251   0.499   8.689  0.8350 -0.2524 -0.1646
 9558SOL    HW240311   1.243   0.650   8.697 -0.6382 -0.6679  1.1967
 9559SOL     OW40312   3.977   2.427   2.854  0.3510  0.5875  0.1335
 9559SOL    HW140313   3.998   2.502   2.798  0.3755 -0.8599 -1.8137
 9559SOL    HW240314   4.003   2.462   2.939  3.2124 -3.5266  0.9729
 9560SOL     OW40315   2.954   2.233   1.117  0.3519  0.3538 -0.0318
 9560SOL    HW140316   2.907   2.179   1.053  0.3754  0.6071 -0.2610
 9560SOL    HW240317   3.046   2.215   1.099  0.2623 -1.0282  0.9240
 9561SOL     OW40318   4.046   3.179   4.414 -0.0884  0.7150  0.5658
 9561SOL    HW140319   3.957   3.213   4.415  0.0022  0.9688  0.0088
 9561SOL    HW240320   4.072   3.214   4.329 -1.6989 -0.0913 -0.2535
 9562SOL     OW40321   2.717   3.910   2.494 -0.0835 -0.2868 -0.3740
 9562SOL    HW140322   2.785   3.843   2.503 -0.1047 -0.4831 -1.6082
 9562SOL    HW240323   2.662   3.880   2.566 -0.4690  0.2203 -0.4565
 9563SOL     OW40324   2.252   2.119  16.054  0.0169 -0.1676  0.4522
 9563SOL    HW140325   2.322   2.106  15.990 -0.5707 -1.1499  0.0121
 9563SOL    HW240326   2.221   2.029  16.060  2.0880 -0.8350  1.4593
 9564SOL     OW40327   0.370   2.210  16.195 -0.2650  0.1265  0.0404
 9564SOL    HW140328   0.293   2.187  16.248  0.1817 -0.3154  0.5046
 9564SOL    HW240329   0.371   2.300  16.226  2.7433  0.8324 -2.1826
 9565SOL     OW40330   4.310   4.327   6.803 -0.0663 -0.0759  0.6121
 9565SOL    HW140331   4.360   4.248   6.822  0.8858  0.1384 -0.9633
 9565SOL    HW240332   4.273   4.355   6.886 -2.9191  0.1547 -0.7279
 9566SOL     OW40333   2.904   3.754   2.237  0.2819  0.0113  0.0946
 9566SOL    HW140334   2.968   3.820   2.263  2.4113 -2.0180 -0.0859
 9566SOL    HW240335   2.901   3.710   2.321  0.6925 -0.2545 -0.0349
 9567SOL     OW40336   0.819   0.485  16.464 -0.2930 -0.3550  0.4391
 9567SOL    HW140337   0.895   0.484  16.523  0.2108  0.8926 -0.2009
 9567SOL    HW240338   0.857   0.474  16.377  0.2281 -1.5196  0.8063
 9568SOL     OW40339   1.921   4.556   5.454  0.6039  0.6386  0.0357
 9568SOL    HW140340   1.884   4.559   5.366 -1.3808 -0.1222  0.8313
 9568SOL    HW240341   1.848   4.526   5.509  2.6765 -2.6238  1.0009
 9569SOL     OW40342   1.865   2.793   1.911 -0.2610 -0.4267  0.2801
 9569SOL    HW140343   1.871   2.782   1.816 -0.1866  0.3193  0.1983
 9569SOL    HW240344   1.956   2.796   1.940 -0.1123  0.5182 -0.2949
   4.73384   4.73384  17.73454
