Membrane in water
40344
    1TMC1    C1    1   0.973   0.162  11.271  0.0802 -0.9930  0.2373
    1TMC1    C2    2   1.006   0.291  11.324  0.0205 -0.4497 -0.0615
    1TMC1    C3    3   1.108   0.367  11.270  0.1317  0.0870 -0.0750
    1TMC1    C4    4   1.044   0.120  11.164 -0.4324 -0.8729  0.7687
    1TMC1    C5    5   1.138   0.199  11.109  0.4261  0.6902  0.1246
    1TMC1    C6    6   1.166   0.326  11.153  0.2362 -0.3943  0.6229
    1TMC1     C    7   0.868   0.077  11.333  0.4789 -1.0208  0.8099
    1TMC1     O    8   0.836   0.108  11.446  0.4024 -0.4415 -0.1851
    1TMC1     H    9   0.956   0.327  11.413  1.5795  0.7953  0.2868
    1TMC1    H1   10   1.029   0.019  11.127 -0.4526 -0.5912  0.0124
    1TMC1    H2   11   1.256   0.374  11.116 -1.0335  1.1299 -0.5177
    1TMC1    C7   12   1.205   0.149  10.986  0.4347  0.0029 -0.0937
    1TMC1    C8   13   1.146   0.490  11.331 -0.1629 -0.0261  0.1126
    1TMC1    O1   14   1.147   0.068  10.909 -0.2538  0.2741  0.3697
    1TMC1    O2   15   1.208   0.567  11.263 -0.1076  0.1499 -0.2034
    1TMC1    O3   16   1.335   0.169  11.009  0.3277 -0.6329  0.3045
    1TMC1    H3   17   1.348   0.213  11.096 -0.2083  0.6809 -0.2790
    1TMC1    O5   18   1.168   0.471  11.460 -0.0179 -0.4706  0.5816
    1TMC1    H5   19   1.123   0.391  11.496 -0.0009 -1.0060 -0.5656
    2MPD2     C   20   0.545   4.413  11.338 -0.6342  0.6175 -0.8304
    2MPD2    C1   21   0.561   4.511  11.432  0.3232 -0.1559  0.5033
    2MPD2    C2   22   0.653   4.613  11.403  0.3097 -0.1342  0.1426
    2MPD2    C3   23   0.724   4.615  11.284  0.2968 -0.2185  0.8427
    2MPD2    C4   24   0.712   4.509  11.194  0.1472  0.0199 -0.2270
    2MPD2    C5   25   0.617   4.412  11.217 -1.2984 -0.5384 -0.4450
    2MPD2     H   26   0.659   4.698  11.470  1.6024  0.7091 -1.0333
    2MPD2    H1   27   0.774   4.501  11.106 -0.2387  0.3563 -0.5263
    2MPD2    H2   28   0.473   4.333  11.353 -0.3519  0.6157  0.5132
    2MPD2    H3   29   0.607   4.321  11.159  0.6945  0.0357 -1.6692
    2MPD2     N   30   0.823   4.714  11.247 -0.4636 -0.0342  0.0320
    2MPD2    H5   31   0.850   4.710  11.150 -3.0709 -0.4689 -0.6756
    2MPD2    N1   32   0.481   4.522  11.545  0.3803  0.1918  0.5672
    2MPD2    H7   33   0.498   4.607  11.598 -0.1282  0.2171  0.6840
    3TMC1    C1   34   4.671   0.780  10.643 -0.1409  0.1073  1.0085
    3TMC1    C2   35   0.019   0.677  10.632  0.1107 -0.0947  0.7046
    3TMC1    C3   36   0.119   0.695  10.541 -0.3729 -0.6212 -0.0935
    3TMC1    C4   37   4.677   0.898  10.572 -0.9698 -0.4125 -0.4324
    3TMC1    C5   38   0.035   0.903  10.479 -0.1431 -0.1597 -0.4989
    3TMC1    C6   39   0.126   0.809  10.465 -0.3682  0.0389  0.2601
    3TMC1     C   40   4.579   0.782  10.757  0.2241 -0.7438  0.0129
    3TMC1     O   41   4.577   0.676  10.815  0.3172 -0.4191 -0.0267
    3TMC1     H   42   0.030   0.598  10.705 -1.8748 -0.8974  0.1383
    3TMC1    H1   43   4.602   0.976  10.577  0.1473  0.6518 -0.3175
    3TMC1    H2   44   0.209   0.829  10.398 -1.1300  0.8628 -0.4313
    3TMC1    C7   45   0.005   0.974  10.354 -0.8149 -0.2677  0.0421
    3TMC1    C8   46   0.245   0.618  10.556  0.3887  0.3940  0.4057
    3TMC1    O1   47   4.664   1.069  10.341  0.1696  0.3696 -0.1029
    3TMC1    O2   48   0.291   0.580  10.660  0.0290  0.6327  0.2456
    3TMC1    O3   49   0.034   0.886  10.252 -0.4924 -0.0359 -0.1212
    3TMC1    H3   50   0.078   0.800  10.267 -1.0896 -0.4616 -0.8716
    3TMC1    O5   51   0.284   0.590  10.431 -0.1070  0.2226 -0.5385
    3TMC1    H5   52   0.214   0.608  10.365  0.1576 -1.6182 -1.3208
    4MPD2     C   53   4.326   1.008  11.140  0.6746  0.7807 -0.3721
    4MPD2    C1   54   4.361   1.101  11.047 -0.4279  0.1648  0.3296
    4MPD2    C2   55   4.425   1.074  10.930  0.1218  0.0391  0.7608
    4MPD2    C3   56   4.460   0.942  10.903  0.8815  0.1393 -0.1024
    4MPD2    C4   57   4.429   0.846  11.000 -0.6397  0.2423  0.1761
    4MPD2    C5   58   4.363   0.881  11.109  0.2157 -0.0673 -0.0179
    4MPD2     H   59   4.445   1.152  10.857 -1.2696 -1.4711 -1.2275
    4MPD2    H1   60   4.463   0.743  10.994  0.3063  0.5173  0.9218
    4MPD2    H2   61   4.275   1.017  11.235  0.5111 -1.8101 -0.2095
    4MPD2    H3   62   4.340   0.803  11.181  0.9118  0.0339  0.3160
    4MPD2     N   63   4.541   0.906  10.794 -0.4613 -0.5320  0.2020
    4MPD2    H5   64   4.577   0.987  10.744 -0.8117 -0.9793 -0.7763
    4MPD2    N1   65   4.335   1.239  11.074 -0.4131  0.7809  0.1496
    4MPD2    H7   66   4.359   1.306  11.002 -1.2284  1.6449  0.6805
    5TCq1    O1   67   4.069   2.629  11.137 -0.3718  0.0525 -0.3632
    5TCq1    C1   68   4.128   2.525  11.070 -0.4397 -0.0774  0.3324
    5TCq1    O2   69   4.198   2.443  11.128 -0.4056  0.2126 -0.2177
    5TCq1    C2   70   4.154   2.563  10.934 -0.4447  0.3469 -0.2895
    5TCq1    C3   71   4.085   2.673  10.877 -0.0446 -0.4813  0.8824
    5TCq1    C4   72   4.152   2.739  10.775  0.1449  0.6975 -0.5948
    5TCq1    C5   73   4.281   2.712  10.738 -0.1690 -0.1191  0.0471
    5TCq1    C6   74   4.350   2.616  10.808  0.2486  0.1718  0.0510
    5TCq1    C7   75   4.286   2.538  10.900  0.5182 -0.7640  0.0765
    5TCq1    C8   76   4.476   2.572  10.753 -0.5795  1.1718  0.3956
    5TCq1    O4   77   4.492   2.449  10.761  0.0842 -0.1563 -0.0876
    5TCq1    C9   78   4.073   2.841  10.699 -0.4942 -0.9750  0.5268
    5TCq1    O5   79   3.948   2.837  10.711  0.5504 -0.2545  0.0550
    5TCq1    O6   80   4.132   2.893  10.598  0.3858 -0.1296 -0.1183
    5TCq1    H1   81   4.050   2.702  11.073  1.0098  0.1958 -0.6152
    5TCq1    H2   82   3.977   2.676  10.889 -0.4610  1.1359 -3.3294
    5TCq1    H3   83   4.337   2.769  10.665  1.0512 -0.7215  0.5241
    5TCq1    H4   84   4.342   2.467  10.960  0.2310 -1.2161 -0.1885
    6MPD2     C   85   0.027   2.790  10.667 -0.3323 -0.7398  0.0299
    6MPD2    C1   86   4.699   2.675  10.682  0.0416  0.0061  0.3785
    6MPD2    C2   87   0.038   2.562  10.672  0.4776 -0.1397 -0.0267
    6MPD2    C3   88   0.170   2.558  10.644  0.7178  0.0602 -0.5778
    6MPD2    C4   89   0.232   2.677  10.620 -0.4980  0.4617  0.1710
    6MPD2    C5   90   0.163   2.791  10.637 -0.3676  0.5085  0.3365
    6MPD2     H   91   4.728   2.466  10.658  0.7839 -0.2088 -0.6082
    6MPD2    H1   92   0.335   2.691  10.591 -0.7404  0.1146 -0.8741
    6MPD2    H2   93   4.719   2.887  10.686 -0.7022 -0.7932 -0.6186
    6MPD2    H3   94   0.213   2.886  10.627  0.9078  0.0737  2.5774
    6MPD2     N   95   0.236   2.435  10.621 -0.2053 -0.3214 -0.0427
    6MPD2    H5   96   0.196   2.352  10.664 -0.9497 -1.0688 -2.1760
    6MPD2    N1   97   4.558   2.679  10.716  0.1176  0.0328 -0.0950
    6MPD2    H7   98   4.518   2.769  10.740  0.9607  0.7109 -1.2277
    7TCq1    O1   99   2.128   1.810  13.735  0.3697  0.7067 -0.0266
    7TCq1    C1  100   2.216   1.817  13.635 -0.7289 -0.2899 -0.1467
    7TCq1    O2  101   2.326   1.874  13.646 -0.0735 -0.3117  0.0992
    7TCq1    C2  102   2.198   1.697  13.570 -0.1670 -0.0168 -0.1862
    7TCq1    C3  103   2.070   1.658  13.538 -0.5494  0.8234 -0.4283
    7TCq1    C4  104   2.053   1.533  13.492 -0.1121  1.3390  0.4738
    7TCq1    C5  105   2.160   1.448  13.471 -0.4149  0.7725 -0.2932
    7TCq1    C6  106   2.281   1.495  13.510  0.0609  0.2103 -0.2371
    7TCq1    C7  107   2.300   1.617  13.570  0.2092  0.3264  0.0700
    7TCq1    C8  108   2.393   1.410  13.492  0.6759 -0.2229  0.0430
    7TCq1    O4  109   2.377   1.288  13.511  0.6374  0.7209  0.7016
    7TCq1    C9  110   1.918   1.495  13.465  0.5745  0.7823 -0.0757
    7TCq1    O5  111   1.834   1.588  13.479  0.0480  0.2780  0.2466
    7TCq1    O6  112   1.896   1.384  13.414 -0.1634 -0.2760  0.2103
    7TCq1    H1  113   2.066   1.734  13.727 -0.8627  1.5100  2.1859
    7TCq1    H2  114   1.987   1.724  13.563  0.1369  0.6570  2.2418
    7TCq1    H3  115   2.139   1.350  13.427 -1.0107  1.0739 -0.6907
    7TCq1    H4  116   2.393   1.649  13.616 -0.2419  0.6460  0.7614
    8MPD2     C  117   2.907   1.359  13.502 -0.2619 -0.0168 -0.2094
    8MPD2    C1  118   2.807   1.267  13.509 -0.7293  0.1311 -0.0095
    8MPD2    C2  119   2.674   1.304  13.496 -0.6167  0.1614  0.1092
    8MPD2    C3  120   2.639   1.439  13.470  0.1700  1.2283  0.5292
    8MPD2    C4  121   2.738   1.527  13.441  0.1266  0.1929  0.3441
    8MPD2    C5  122   2.866   1.486  13.455  0.4295 -0.0990  0.1322
    8MPD2     H  123   2.598   1.230  13.522  0.9831 -1.6733 -0.4697
    8MPD2    H1  124   2.717   1.632  13.424 -1.3215  0.1884  2.1176
    8MPD2    H2  125   3.012   1.333  13.510  0.2461  1.6496 -1.4032
    8MPD2    H3  126   2.943   1.560  13.436  0.6849 -0.1683  0.9058
    8MPD2     N  127   2.504   1.487  13.473 -0.6299  0.1551 -0.0294
    8MPD2    H5  128   2.488   1.584  13.449 -0.2870  0.6268  1.6372
    8MPD2    N1  129   2.852   1.137  13.529  0.4084 -0.1789  0.4374
    8MPD2    H7  130   2.952   1.126  13.544  0.9404  2.3770 -1.1734
    9TMC1    C1  131   0.522   0.677  11.049 -1.3792  0.0547 -0.5225
    9TMC1    C2  132   0.410   0.609  11.091 -0.5521  0.1254 -0.9535
    9TMC1    C3  133   0.365   0.504  11.007  1.0360  0.9816 -0.8726
    9TMC1    C4  134   0.589   0.637  10.932 -0.1352  0.1278  0.4533
    9TMC1    C5  135   0.540   0.530  10.861  0.5132 -0.4803 -0.9764
    9TMC1    C6  136   0.430   0.465  10.893 -0.3456  0.7228  0.6323
    9TMC1     C  137   0.563   0.800  11.114 -0.0629 -0.0643 -0.0241
    9TMC1     O  138   0.634   0.878  11.050  0.1147 -0.5071  0.1089
    9TMC1     H  139   0.339   0.642  11.166 -0.1153 -0.6061 -0.2108
    9TMC1    H1  140   0.691   0.669  10.911  0.3063 -1.6251 -0.0828
    9TMC1    H2  141   0.377   0.395  10.829 -1.4632  1.8741  0.3090
    9TMC1    C7  142   0.609   0.485  10.748  0.7677 -0.7626 -0.1466
    9TMC1    C8  143   0.227   0.466  11.028  0.6939  0.1257 -0.0166
    9TMC1    O1  144   0.593   0.376  10.692  0.3227 -0.2922  0.1150
    9TMC1    O2  145   0.186   0.429  11.133  0.5362  0.3277  0.0738
    9TMC1    O3  146   0.646   0.595  10.673  0.0911 -0.1162 -0.2609
    9TMC1    H3  147   0.640   0.684  10.715  0.1892  0.1950 -0.9163
    9TMC1    O5  148   0.165   0.468  10.905  0.1128  0.6797  0.3296
    9TMC1    H5  149   0.227   0.522  10.851  1.6485 -1.3879  0.0572
   10MPD2     C  150   0.598   1.026  11.286 -0.1320  0.4013  0.4994
   10MPD2    C1  151   0.526   0.916  11.329  0.3979  0.5835  0.3413
   10MPD2    C2  152   0.469   0.911  11.458 -0.3849 -0.1927 -0.7262
   10MPD2    C3  153   0.506   1.014  11.548  0.1486  1.4209 -0.4504
   10MPD2    C4  154   0.585   1.119  11.506  0.3047  0.1104 -1.0689
   10MPD2    C5  155   0.627   1.126  11.381  0.4698  0.4073  0.0751
   10MPD2     H  156   0.407   0.826  11.485 -2.1638  1.0759 -0.8928
   10MPD2    H1  157   0.595   1.198  11.580 -0.0657 -0.0100 -0.8908
   10MPD2    H2  158   0.632   1.040  11.184 -0.4345 -0.5624  0.2631
   10MPD2    H3  159   0.691   1.210  11.355 -0.3603  0.7411 -0.9083
   10MPD2     N  160   0.455   1.012  11.680 -0.6515 -0.0942  0.4049
   10MPD2    H5  161   0.489   1.077  11.751 -2.5829 -0.8690  2.0654
   10MPD2    N1  162   0.504   0.811  11.237  0.4181 -0.5233 -0.9360
   10MPD2    H7  163   0.436   0.742  11.270 -0.8708  1.9977  1.7213
   11TCq1    O1  164   1.500   0.305  14.344 -0.2123 -0.1759  0.1030
   11TCq1    C1  165   1.518   0.397  14.436  1.0105  0.0091 -0.4111
   11TCq1    O2  166   1.569   0.379  14.541 -0.1369  0.4727  0.1275
   11TCq1    C2  167   1.553   0.518  14.355 -0.6079 -0.7368 -0.0361
   11TCq1    C3  168   1.684   0.556  14.352 -0.0511  0.2583 -0.6377
   11TCq1    C4  169   1.722   0.644  14.255 -0.0064  0.5431 -0.3127
   11TCq1    C5  170   1.631   0.689  14.163  0.4050  0.2215  0.5038
   11TCq1    C6  171   1.498   0.654  14.176 -0.1269 -0.1775  0.3163
   11TCq1    C7  172   1.460   0.569  14.273 -0.1000 -0.3799 -0.5511
   11TCq1    C8  173   1.407   0.682  14.063 -0.6939 -0.6473  0.0403
   11TCq1    O4  174   1.427   0.784  13.997 -0.0999  0.5743  0.3763
   11TCq1    C9  175   1.861   0.682  14.238  0.2234 -0.6170 -0.6925
   11TCq1    O5  176   1.887   0.736  14.127  0.2677 -0.1483 -0.1037
   11TCq1    O6  177   1.939   0.663  14.335 -0.0192  0.0516  0.9396
   11TCq1    H1  178   1.483   0.324  14.249 -3.2476 -0.5695  0.5664
   11TCq1    H2  179   1.756   0.521  14.425 -1.4389  1.4314  1.3183
   11TCq1    H3  180   1.658   0.749  14.078  1.5329  1.9325  2.0815
   11TCq1    H4  181   1.354   0.551  14.285 -0.1175 -0.6078 -1.0170
   12MPD2     C  182   1.180   0.696  13.861  0.0578  0.4091 -0.6544
   12MPD2    C1  183   1.225   0.584  13.923 -0.4236 -0.1285 -0.6092
   12MPD2    C2  184   1.171   0.465  13.882  0.8152 -0.2877 -0.2461
   12MPD2    C3  185   1.086   0.459  13.772 -0.1043 -0.1731  0.0950
   12MPD2    C4  186   1.043   0.576  13.710 -0.5993 -0.8627  0.1768
   12MPD2    C5  187   1.092   0.693  13.759 -0.1915 -0.4232  0.1471
   12MPD2     H  188   1.199   0.374  13.933 -0.4135 -0.1469  0.6988
   12MPD2    H1  189   0.969   0.577  13.630 -0.9937  0.2553  0.5512
   12MPD2    H2  190   1.219   0.794  13.886  0.3570 -0.1151  0.9694
   12MPD2    H3  191   1.078   0.788  13.709  0.7883  0.4955  1.6034
   12MPD2     N  192   1.023   0.333  13.728 -0.0156  1.2347 -0.4058
   12MPD2    H5  193   0.953   0.348  13.657 -1.1702  1.3630  0.7454
   12MPD2    N1  194   1.326   0.579  14.028  0.1476  0.1215 -0.4492
   12MPD2    H7  195   1.347   0.484  14.057 -0.4484 -0.0421 -0.5410
   13TCq1    O1  196   4.652   4.718  10.165 -0.3636  0.3043  0.5973
   13TCq1    C1  197   4.643   0.105  10.110 -0.7835  0.3387 -0.0187
   13TCq1    O2  198   4.633   0.133   9.992 -0.7392 -0.4664  0.0934
   13TCq1    C2  199   4.682   0.199  10.205 -0.1864  0.3837  0.4919
   13TCq1    C3  200   4.715   0.326  10.156  0.8596  0.4493 -0.2871
   13TCq1    C4  201   4.731   0.429  10.239 -0.2361  0.8235  0.1592
   13TCq1    C5  202   4.733   0.414  10.372  0.3089 -0.3522  0.3169
   13TCq1    C6  203   4.702   0.294  10.420 -1.0338 -0.9095 -0.1333
   13TCq1    C7  204   4.673   0.187  10.344  0.1439 -0.2014  0.1517
   13TCq1    C8  205   4.695   0.285  10.563  0.4694 -0.0753 -0.0349
   13TCq1    O4  206   4.685   0.383  10.633 -0.0861 -0.0691  0.3175
   13TCq1    C9  207   0.020   0.560  10.188 -0.5621  0.7437 -0.2997
   13TCq1    O5  208   0.085   0.634  10.265 -0.1490 -0.2849  0.2369
   13TCq1    O6  209   4.734   0.583  10.065 -0.0911 -0.1533 -0.2894
   13TCq1    H1  210   4.679   4.727  10.259  0.6268 -1.1353  0.4476
   13TCq1    H2  211   4.705   0.346  10.050  2.0351  0.1567 -0.4501
   13TCq1    H3  212   0.006   0.499  10.437 -2.2243 -0.8786  1.4358
   13TCq1    H4  213   4.611   0.106  10.382 -1.3121  1.2601  0.8991
   14MPD2     C  214   0.000   4.708  10.751  1.4608 -0.2372  0.0056
   14MPD2    C1  215   4.704   0.104  10.733 -0.3564  0.4870  0.6215
   14MPD2    C2  216   4.676   0.176  10.846  0.8963  0.3320 -0.6810
   14MPD2    C3  217   4.684   0.124  10.971  0.4965  0.4444 -1.0590
   14MPD2    C4  218   4.729   4.734  10.985  0.2514  0.1944  0.3945
   14MPD2    C5  219   0.010   4.658  10.881  0.0483 -0.6769 -0.5249
   14MPD2     H  220   4.653   0.282  10.845  0.2631  0.2287  1.3588
   14MPD2    H1  221   0.013   4.690  11.081  1.9659  4.2766  1.8522
   14MPD2    H2  222   0.033   4.648  10.667 -0.4713 -0.6335 -0.4636
   14MPD2    H3  223   0.037   4.554  10.895  0.8539 -0.2236  1.4246
   14MPD2     N  224   4.659   0.201  11.082 -0.5390 -0.2495  0.2818
   14MPD2    H5  225   4.647   0.302  11.077  0.4830 -0.0651  1.7504
   14MPD2    N1  226   4.694   0.149  10.604 -0.4002  0.4369  0.6733
   14MPD2    H7  227   4.720   0.086  10.529 -1.7036  1.1553 -0.3836
   15TCq1    O1  228   1.443   4.429   1.400 -0.3047  0.1017  0.1608
   15TCq1    C1  229   1.534   4.406   1.300  0.8171 -0.3396 -0.0538
   15TCq1    O2  230   1.615   4.489   1.265 -0.4103  0.2564  0.1248
   15TCq1    C2  231   1.508   4.284   1.231 -0.0997  0.0222 -0.1618
   15TCq1    C3  232   1.381   4.236   1.227 -0.2564 -0.2391  0.7584
   15TCq1    C4  233   1.353   4.115   1.164  0.2154  0.7875  0.6050
   15TCq1    C5  234   1.459   4.034   1.120  0.2386 -0.1745 -0.0799
   15TCq1    C6  235   1.587   4.080   1.127  0.2842  0.4574  0.5835
   15TCq1    C7  236   1.609   4.211   1.173 -0.1132  0.0330  0.1342
   15TCq1    C8  237   1.699   4.011   1.066  0.1306  0.0085  0.7705
   15TCq1    O4  238   1.808   4.047   1.091 -0.3733  0.9289  0.4303
   15TCq1    C9  239   1.216   4.079   1.141 -0.6099  0.2362  0.3228
   15TCq1    O5  240   1.120   4.155   1.161 -0.0010 -1.0164  0.6445
   15TCq1    O6  241   1.195   3.957   1.126  0.0529 -0.3410  0.0108
   15TCq1    H1  242   1.397   4.347   1.428  0.4238 -0.0490  0.9300
   15TCq1    H2  243   1.295   4.294   1.259 -0.0353 -0.3547  1.5727
   15TCq1    H3  244   1.433   3.940   1.073 -3.3508  1.3449 -1.1090
   15TCq1    H4  245   1.711   4.249   1.171  0.2032 -0.8028  0.1670
   16MPD2     C  246   1.695   3.812   0.751 -0.1671  0.3157  0.4150
   16MPD2    C1  247   1.743   3.867   0.865 -0.0579 -0.4654  0.0480
   16MPD2    C2  248   1.873   3.848   0.891  0.8831 -0.1642  0.1488
   16MPD2    C3  249   1.960   3.779   0.805  0.1788 -0.6615  0.3989
   16MPD2    C4  250   1.911   3.730   0.679  0.2136 -0.5692  0.4287
   16MPD2    C5  251   1.783   3.761   0.660  0.6452  0.5635  0.3279
   16MPD2     H  252   1.920   3.900   0.974  0.5567 -0.4404  0.5078
   16MPD2    H1  253   1.976   3.685   0.605  0.3630  0.9979 -0.3752
   16MPD2    H2  254   1.591   3.817   0.722 -0.3069 -0.6808  0.7315
   16MPD2    H3  255   1.731   3.725   0.572 -1.2503  2.1841  0.7864
   16MPD2     N  256   2.097   3.764   0.846  0.1119 -0.3912  0.0017
   16MPD2    H5  257   2.122   3.814   0.931  0.0766  0.2751 -0.3746
   16MPD2    N1  258   1.657   3.930   0.964  0.1206  0.3637 -0.2307
   16MPD2    H7  259   1.557   3.940   0.949 -0.2657 -0.2801  1.9526
   17TMC1    C1  260   4.474   4.528  11.833  0.1658  0.2743  0.2510
   17TMC1    C2  261   4.468   4.459  11.958 -0.5850  0.0734 -0.1627
   17TMC1    C3  262   4.378   4.358  11.965 -0.0718  0.3690  1.0895
   17TMC1    C4  263   4.400   4.504  11.723  0.0705 -0.2751 -0.1041
   17TMC1    C5  264   4.302   4.413  11.746  0.3853 -0.3853  0.0681
   17TMC1    C6  265   4.294   4.333  11.857 -0.3326  0.2063 -0.3247
   17TMC1     C  266   4.578   4.634  11.831  0.4240  0.2733  0.4351
   17TMC1     O  267   4.630   4.662  11.936  0.5218  0.3912 -0.4383
   17TMC1     H  268   4.529   4.478  12.046 -0.8606  0.5761 -0.0786
   17TMC1    H1  269   4.414   4.551  11.626  0.6338  1.2983  0.7436
   17TMC1    H2  270   4.212   4.263  11.867  0.3114 -0.1468  2.4707
   17TMC1    C7  271   4.276   4.332  11.630 -0.3387  0.0153  0.0001
   17TMC1    C8  272   4.331   4.329  12.094  0.0605  0.6703  0.1776
   17TMC1    O1  273   4.262   4.215  11.646 -0.1844  0.1692 -0.5048
   17TMC1    O2  274   4.360   4.406  12.186  0.0828  0.2007 -0.0210
   17TMC1    O3  275   4.170   4.404  11.584 -0.5665  0.0859  0.1313
   17TMC1    H3  276   4.192   4.498  11.597  2.0457 -0.2356 -2.1046
   17TMC1    O5  277   4.298   4.196  12.096 -0.3319  0.0589 -0.6911
   17TMC1    H5  278   4.317   4.154  12.009  1.3463  0.2815 -0.4313
   18MPD2     C  279   4.705   0.146  11.736  0.3893 -0.1746 -0.3560
   18MPD2    C1  280   4.703   0.031  11.668  0.7841 -0.4944  0.2048
   18MPD2    C2  281   0.042   0.018  11.557 -0.5999 -0.9686  0.2813
   18MPD2    C3  282   0.130   0.120  11.520  0.1192 -0.0602 -0.7598
   18MPD2    C4  283   0.142   0.234  11.599  0.2346 -0.9001 -0.2506
   18MPD2    C5  284   0.058   0.249  11.711 -0.1794  0.1941 -0.8026
   18MPD2     H  285   0.026   4.673  11.489 -0.9239  0.4989 -1.4283
   18MPD2    H1  286   0.212   0.312  11.572 -0.5075 -0.1657 -0.0517
   18MPD2    H2  287   4.628   0.161  11.811 -0.6495 -1.6535 -1.1065
   18MPD2    H3  288   0.064   0.342  11.766  0.3829 -0.5581  0.3906
   18MPD2     N  289   0.226   0.116  11.411 -0.1258 -0.4298  0.4287
   18MPD2    H5  290   0.269   0.199  11.373 -0.2771 -0.7878 -0.5420
   18MPD2    N1  291   4.622   4.655  11.698  0.3572 -0.1570  0.5347
   18MPD2    H7  292   4.607   4.590  11.622 -2.2270 -0.1485  1.0591
   19TMC2    C1  293   2.244   0.104  14.096 -0.1971  0.3778 -0.0233
   19TMC2    C2  294   2.159   0.215  14.098  0.1626 -0.3303 -0.1232
   19TMC2    C3  295   2.027   0.195  14.075 -0.0856  0.0068 -0.2348
   19TMC2    C4  296   2.199   4.715  14.088  0.0764  0.5749  0.1700
   19TMC2    C5  297   2.065   4.700  14.059 -0.4032 -0.2086  0.6166
   19TMC2    C6  298   1.984   0.070  14.030 -0.6650 -0.0158 -0.0543
   19TMC2     C  299   2.384   0.144  14.118 -0.1043 -0.6560  0.0678
   19TMC2     O  300   2.422   0.250  14.077  0.0339  0.3661 -0.1671
   19TMC2     H  301   2.192   0.318  14.107 -4.1845  1.1318 -0.8185
   19TMC2    H1  302   2.271   4.634  14.086  0.0717  0.5151  1.8563
   19TMC2    H2  303   1.879   0.058  14.003 -0.2638  1.2370 -2.1534
   19TMC2    C7  304   2.000   4.568  14.061  0.1271 -0.4361  0.5851
   19TMC2    C8  305   1.944   0.310  14.060  0.1675 -0.0411 -0.0892
   19TMC2    O1  306   1.881   4.566  14.028  0.2557 -0.0208 -0.5582
   19TMC2    O2  307   1.974   0.408  13.999  0.0145  0.8604  0.2153
   19TMC2    O5  308   1.812   0.268  14.085  0.1181  0.1476  0.6263
   19TMC2    H5  309   1.825   0.186  14.137  0.2128 -0.8203 -0.9100
   20MPD2     C  310   2.681   0.134  14.111  0.5556 -0.0090 -0.3834
   20MPD2    C1  311   2.604   0.044  14.189 -0.0716 -1.2490  0.0700
   20MPD2    C2  312   2.669   4.688  14.270 -0.3952 -0.9338  0.5392
   20MPD2    C3  313   2.807   4.668  14.261 -0.4524 -0.4640 -0.0503
   20MPD2    C4  314   2.881   0.030  14.193  0.3133  0.2053 -0.1245
   20MPD2    C5  315   2.812   0.128  14.124  0.0960  0.2974 -0.2219
   20MPD2     H  316   2.610   4.620  14.330 -3.9222  2.2365  0.6712
   20MPD2    H1  317   2.989   0.026  14.187  0.4449  3.9368 -0.3334
   20MPD2    H2  318   2.639   0.210  14.046 -0.4977 -0.3469 -0.1024
   20MPD2    H3  319   2.868   0.191  14.056 -0.5163  1.3065  0.2031
   20MPD2     N  320   2.885   4.573  14.331 -0.2586  0.2542 -0.4070
   20MPD2    H5  321   2.986   4.585  14.322 -0.3455  1.0459 -0.3350
   20MPD2    N1  322   2.461   0.047  14.179  0.5067  0.2717  0.2167
   20MPD2    H7  323   2.416   4.704  14.221  0.3978  0.1370 -0.1535
   21TMC2    C1  324   0.087   0.544  14.075  0.0841 -0.1784 -0.1996
   21TMC2    C2  325   0.151   0.426  14.050 -0.6034 -0.8952  0.4117
   21TMC2    C3  326   0.116   0.329  14.135  0.3969 -0.3287 -0.9327
   21TMC2    C4  327   4.714   0.559  14.151  0.2474 -0.3397  0.3131
   21TMC2    C5  328   4.665   0.450  14.221  0.3331  0.5048 -0.0991
   21TMC2    C6  329   0.006   0.332  14.214  0.3116  0.4787  0.1631
   21TMC2     C  330   0.179   0.660  14.056  0.3788 -0.1122  0.6607
   21TMC2     O  331   0.280   0.640  13.992  0.1337  0.0912  0.0303
   21TMC2     H  332   0.234   0.419  13.981  0.6675  1.3278  1.7271
   21TMC2    H1  333   4.664   0.654  14.166  1.0885  0.1210  0.1796
   21TMC2    H2  334   4.724   0.249  14.281 -0.6413 -0.2075 -0.9801
   21TMC2    C7  335   4.569   0.466  14.332 -0.0649 -0.2333 -0.3067
   21TMC2    C8  336   0.196   0.208  14.138  0.1172  0.0499 -0.1223
   21TMC2    O1  337   4.564   0.381  14.422  0.2545 -0.3451 -0.1417
   21TMC2    O2  338   0.269   0.184  14.041  0.2555 -0.6561  0.1126
   21TMC2    O5  339   0.210   0.163  14.258  0.0374 -0.0871  0.1176
   21TMC2    H5  340   0.152   0.209  14.322  1.6442  0.5308  1.1185
   22MPD2     C  341   0.413   1.099  14.199  0.0038  0.6234 -0.1296
   22MPD2    C1  342   0.463   0.982  14.145 -0.0388  0.1588 -0.0665
   22MPD2    C2  343   0.381   0.879  14.111 -0.1169  0.4920 -0.0087
   22MPD2    C3  344   0.248   0.880  14.152 -0.0266 -0.0206  0.3631
   22MPD2    C4  345   0.199   0.994  14.209 -0.0565  0.3288 -0.0441
   22MPD2    C5  346   0.281   1.097  14.234  0.4867 -0.3274 -0.0692
   22MPD2     H  347   0.429   0.797  14.058  0.4898  0.9350 -0.1499
   22MPD2    H1  348   0.092   1.006  14.222  0.2950  0.9023  2.4908
   22MPD2    H2  349   0.476   1.183  14.224 -1.1173  1.2677  0.5169
   22MPD2    H3  350   0.242   1.197  14.252  0.0267 -0.2998 -1.2676
   22MPD2     N  351   0.148   0.773  14.134 -0.3101 -0.1550 -0.3531
   22MPD2    H5  352   0.057   0.782  14.179 -0.3115 -1.4920 -0.0990
   22MPD2    N1  353   0.599   0.973  14.127  0.0103 -0.3567  0.2199
   22MPD2    H7  354   0.640   0.912  14.057  2.1932 -1.7209  2.6589
   23TMC2    C1  355   1.166   1.889  14.867 -0.1517 -0.3867  0.3288
   23TMC2    C2  356   1.096   1.985  14.934  0.7350 -0.7912 -0.4975
   23TMC2    C3  357   0.966   2.008  14.910  0.8711 -0.1696  0.2448
   23TMC2    C4  358   1.112   1.837  14.755 -0.7796 -0.1268 -0.1264
   23TMC2    C5  359   0.973   1.854  14.731 -0.0765  0.1021  0.0362
   23TMC2    C6  360   0.898   1.946  14.805  0.3099  0.2852  0.2391
   23TMC2     C  361   1.290   1.845  14.912 -0.6051  0.2340 -0.2045
   23TMC2     O  362   1.316   1.729  14.878  0.1912  0.0306  0.2236
   23TMC2     H  363   1.135   2.030  15.025  2.1412 -1.0987 -0.9514
   23TMC2    H1  364   1.162   1.757  14.702  0.8205 -0.1183  1.3505
   23TMC2    H2  365   0.791   1.952  14.788  0.6108  1.3623 -1.2555
   23TMC2    C7  366   0.907   1.746  14.657  0.7599 -0.6135  0.3313
   23TMC2    C8  367   0.888   2.056  15.023  0.4491  0.6979 -0.3414
   23TMC2    O1  368   0.985   1.687  14.584 -0.2397  0.3734  0.4224
   23TMC2    O2  369   0.927   2.060  15.138  0.5337  0.2723  0.0813
   23TMC2    O5  370   0.779   2.122  14.980 -0.2039 -0.2298 -0.2020
   23TMC2    H5  371   0.767   2.136  14.884  1.2261  0.7189 -0.2535
   24MPD2     C  372   1.684   1.884  15.210 -0.0772  0.5354 -0.0238
   24MPD2    C1  373   1.612   1.770  15.179  0.1926  0.5082 -0.3191
   24MPD2    C2  374   1.510   1.789  15.089  0.1659  0.0351  0.4909
   24MPD2    C3  375   1.483   1.914  15.035 -0.6025 -0.3862  0.0289
   24MPD2    C4  376   1.561   2.022  15.069 -0.2615  1.2042  0.7740
   24MPD2    C5  377   1.660   2.007  15.160  0.7788  0.4661 -0.0408
   24MPD2     H  378   1.432   1.714  15.080 -0.7920  0.7230  2.9548
   24MPD2    H1  379   1.530   2.123  15.043 -0.2789  1.7067  2.7608
   24MPD2    H2  380   1.773   1.871  15.272  0.6429  1.1271 -0.9321
   24MPD2    H3  381   1.718   2.096  15.185  0.1354  1.1097 -0.8527
   24MPD2     N  382   1.361   1.944  14.971  0.0087  0.7832  0.0206
   24MPD2    H5  383   1.323   2.038  14.963 -0.3607  0.3751 -3.2100
   24MPD2    N1  384   1.629   1.642  15.235 -0.3451  0.0510 -0.1191
   24MPD2    H7  385   1.568   1.564  15.212 -1.7001  0.5781  1.6528
   25TMC2    C1  386   0.016   3.944  11.395 -0.6376  0.3418 -0.3103
   25TMC2    C2  387   0.010   4.079  11.393 -0.1831 -0.5222  0.3988
   25TMC2    C3  388   4.692   4.135  11.503  0.4626  0.1498  0.0192
   25TMC2    C4  389   4.718   3.860  11.498 -0.0621  0.4836 -0.3758
   25TMC2    C5  390   4.676   3.924  11.610 -0.1467  0.0387 -0.7219
   25TMC2    C6  391   4.659   4.063  11.610 -0.2307  0.6892 -0.9635
   25TMC2     C  392   0.005   3.890  11.262  0.0668  0.2664 -0.2522
   25TMC2     O  393   0.065   3.950  11.175 -0.3480 -0.4536  0.3096
   25TMC2     H  394   0.029   4.145  11.309  0.9617  0.3473  1.3342
   25TMC2    H1  395   0.006   3.755  11.498  0.2299  0.5541 -1.3434
   25TMC2    H2  396   4.630   4.112  11.702  0.6354 -0.1537 -0.2439
   25TMC2    C7  397   4.643   3.847  11.726 -0.2511  0.9667 -0.4517
   25TMC2    C8  398   4.635   4.264  11.493 -0.0627  0.3698 -0.3036
   25TMC2    O1  399   4.563   3.896  11.804  0.3536 -0.6224  0.6068
   25TMC2    O2  400   4.619   4.318  11.385  0.0164 -0.3995  0.2117
   25TMC2    O5  401   4.650   4.330  11.614  0.2722  0.3691 -0.4930
   25TMC2    H5  402   4.700   4.281  11.683  1.8172  1.1514 -1.0727
   26MPD2     C  403   4.541   3.591  10.902 -0.0737  0.2454 -0.1387
   26MPD2    C1  404   4.447   3.605  11.005  0.6297  0.2603 -0.3702
   26MPD2    C2  405   4.475   3.679  11.120 -0.5421  0.2151  0.1041
   26MPD2    C3  406   4.596   3.734  11.136 -0.8080  0.1715  0.2991
   26MPD2    C4  407   4.689   3.712  11.038 -0.5759  0.4749  0.2885
   26MPD2    C5  408   4.671   3.629  10.930 -0.4316  0.7146  0.7200
   26MPD2     H  409   4.404   3.694  11.201  1.3439  1.7519  1.4804
   26MPD2    H1  410   0.049   3.757  11.046 -1.6092  2.4731  1.4859
   26MPD2    H2  411   4.518   3.536  10.812 -0.6388  0.3251 -0.0418
   26MPD2    H3  412   0.010   3.612  10.855 -1.7663 -1.4787 -0.1546
   26MPD2     N  413   4.642   3.795  11.254  0.1674  0.0761 -0.9952
   26MPD2    H5  414   4.579   3.800  11.333 -0.0479  1.8995 -1.2795
   26MPD2    N1  415   4.316   3.554  10.981 -0.9130  0.1363  0.2102
   26MPD2    H7  416   4.300   3.509  10.892  0.9027 -1.5772  0.7451
   27TMC2    C1  417   4.110   1.477  12.282 -0.1971 -0.3909  0.2313
   27TMC2    C2  418   4.137   1.611  12.280  0.0743  0.3022 -0.9748
   27TMC2    C3  419   4.161   1.676  12.400  1.0166 -0.2021 -0.8207
   27TMC2    C4  420   4.108   1.404  12.401  0.1806 -0.0251 -0.4119
   27TMC2    C5  421   4.127   1.467  12.519  0.4621  0.3107  0.4736
   27TMC2    C6  422   4.147   1.603  12.521  0.5398  0.1271 -0.4187
   27TMC2     C  423   4.027   1.427  12.171  0.1864 -0.0118  0.5316
   27TMC2     O  424   4.044   1.473  12.057 -0.3916 -0.5839 -0.5720
   27TMC2     H  425   4.132   1.669  12.188  2.1536  0.8576 -0.7358
   27TMC2    H1  426   4.091   1.297  12.395  1.4022 -0.2977  1.3454
   27TMC2    H2  427   4.147   1.666  12.609 -0.3189  0.7396 -0.8578
   27TMC2    C7  428   4.052   1.415  12.631 -0.3598 -0.1930  0.4758
   27TMC2    C8  429   4.117   1.813  12.402  0.2878 -0.4283  0.7316
   27TMC2    O1  430   3.999   1.308  12.615 -0.1968 -0.0884  0.2793
   27TMC2    O2  431   4.065   1.864  12.501  0.4612 -0.2936 -0.1626
   27TMC2    O5  432   4.194   1.873  12.305 -0.1268 -0.5373 -0.1892
   27TMC2    H5  433   4.258   1.807  12.269  2.0945  1.5230 -0.0463
   28MPD2     C  434   3.558   1.258  12.036 -0.5396 -0.7501  0.1376
   28MPD2    C1  435   3.562   1.261  12.175 -0.1984  0.0378 -0.6410
   28MPD2    C2  436   3.685   1.294  12.233 -0.1565  0.1178 -0.0399
   28MPD2    C3  437   3.800   1.322  12.155  0.2587 -0.0673 -0.0985
   28MPD2    C4  438   3.786   1.326  12.013  0.2788 -0.0493  0.6987
   28MPD2    C5  439   3.669   1.285  11.955  0.1972 -0.2927  0.3969
   28MPD2     H  440   3.696   1.301  12.341  1.0846  0.8575 -0.2076
   28MPD2    H1  441   3.867   1.349  11.946 -1.0317  0.7350 -0.6140
   28MPD2    H2  442   3.470   1.237  11.977 -0.6195  0.7360 -0.2620
   28MPD2    H3  443   3.657   1.278  11.847  1.2395  1.5387  0.1540
   28MPD2     N  444   3.920   1.353  12.221  0.5763 -0.2423 -0.1240
   28MPD2    H5  445   3.906   1.351  12.322  0.6437  2.0842 -0.0652
   28MPD2    N1  446   3.444   1.240  12.255  0.2679  0.0578  0.8783
   28MPD2    H7  447   3.364   1.229  12.194 -0.4890  1.5870  1.5933
   29TMC2    C1  448   3.584   3.435  13.978  0.3057 -0.1772  0.0789
   29TMC2    C2  449   3.673   3.390  14.071 -0.1909  0.4868  0.3185
   29TMC2    C3  450   3.734   3.494  14.138 -0.1096 -0.2526 -0.0910
   29TMC2    C4  451   3.571   3.563  13.939 -0.0546 -0.2831  0.1125
   29TMC2    C5  452   3.637   3.661  14.000  0.5789 -0.2859  0.2559
   29TMC2    C6  453   3.725   3.624  14.107  0.0146 -0.2981 -0.2587
   29TMC2     C  454   3.506   3.331  13.907  0.9638  0.1733 -0.6608
   29TMC2     O  455   3.428   3.387  13.832  0.3387 -0.2833  0.2335
   29TMC2     H  456   3.688   3.286  14.100 -0.8369 -0.1631 -1.6594
   29TMC2    H1  457   3.484   3.595  13.883 -0.9281 -1.6605  0.6995
   29TMC2    H2  458   3.777   3.707  14.154  0.1354 -1.4493  1.6249
   29TMC2    C7  459   3.593   3.799  13.974 -0.2718 -0.1858 -0.5257
   29TMC2    C8  460   3.828   3.471  14.246  0.3817  0.1344  1.3933
   29TMC2    O1  461   3.494   3.823  13.907  0.2558 -0.3344  0.1712
   29TMC2    O2  462   3.912   3.551  14.282  0.3751 -0.7236  0.1881
   29TMC2    O5  463   3.750   3.414  14.342 -0.0985 -0.5250 -0.1765
   29TMC2    H5  464   3.664   3.381  14.311 -0.1036 -0.7198  0.0465
   30MPD2     C  465   3.248   2.892  13.854 -0.2274 -0.1389  0.4398
   30MPD2    C1  466   3.341   2.878  13.957  0.0363 -0.7276 -0.1078
   30MPD2    C2  467   3.436   2.977  13.976  0.0224 -0.0964  0.0855
   30MPD2    C3  468   3.432   3.095  13.908  0.0270 -0.5833  0.0557
   30MPD2    C4  469   3.331   3.105  13.810 -0.0026  0.4026 -0.0818
   30MPD2    C5  470   3.241   3.010  13.784 -0.1858  0.1300 -1.5116
   30MPD2     H  471   3.510   2.970  14.055  0.1923 -0.0475 -0.0709
   30MPD2    H1  472   3.320   3.196  13.751 -1.0727  0.3934  0.1023
   30MPD2    H2  473   3.182   2.810  13.826 -0.3585 -1.0786  3.4194
   30MPD2    H3  474   3.167   3.017  13.705 -1.3383 -3.1411 -0.7473
   30MPD2     N  475   3.516   3.197  13.955  0.1980  0.0231 -0.4332
   30MPD2    H5  476   3.586   3.168  14.023 -1.7236 -1.3977  0.9441
   30MPD2    N1  477   3.353   2.765  14.037 -0.0916 -0.9362 -0.0189
   30MPD2    H7  478   3.437   2.766  14.094  1.3309 -0.5561 -2.1470
   31TMC2    C1  479   1.354   2.485  15.101  0.2887 -0.1550 -0.5652
   31TMC2    C2  480   1.264   2.584  15.103  0.0571  0.4230  0.2582
   31TMC2    C3  481   1.179   2.581  15.211 -0.6434  0.6039  0.0359
   31TMC2    C4  482   1.343   2.374  15.178  0.1330  0.5637 -0.1950
   31TMC2    C5  483   1.243   2.361  15.267  0.2306  0.2592  0.1155
   31TMC2    C6  484   1.170   2.471  15.298  0.1003  0.2701 -0.3178
   31TMC2     C  485   1.430   2.478  14.978 -0.0744 -0.6927  0.6930
   31TMC2     O  486   1.390   2.558  14.893 -0.5169 -0.2125 -0.1567
   31TMC2     H  487   1.287   2.674  15.046  1.2042  1.0640  1.7392
   31TMC2    H1  488   1.413   2.292  15.163  0.2111  0.3943  1.0856
   31TMC2    H2  489   1.091   2.471  15.373  0.7885 -0.1325  0.4069
   31TMC2    C7  490   1.244   2.241  15.353 -0.3802  0.6244 -0.6862
   31TMC2    C8  491   1.075   2.681  15.192 -0.8757 -0.5555  0.5356
   31TMC2    O1  492   1.323   2.151  15.346 -0.2328  0.0166 -0.2611
   31TMC2    O2  493   1.058   2.738  15.082  0.1173 -0.1325  0.0461
   31TMC2    O5  494   1.021   2.725  15.312  0.6888 -0.1871 -0.1603
   31TMC2    H5  495   1.048   2.670  15.389 -0.4556 -2.1082 -1.1477
   32MPD2     C  496   1.843   2.320  14.710  0.3724  0.1784  0.2648
   32MPD2    C1  497   1.728   2.375  14.664  0.0603  0.3429 -0.3272
   32MPD2    C2  498   1.628   2.407  14.753 -0.5590 -0.5302 -0.3294
   32MPD2    C3  499   1.648   2.384  14.893 -0.1235  0.2383 -0.8220
   32MPD2    C4  500   1.769   2.324  14.935 -0.4942  0.2270  0.1880
   32MPD2    C5  501   1.865   2.287  14.845 -0.0264 -0.1635  0.1376
   32MPD2     H  502   1.537   2.459  14.727 -1.4943 -3.0163 -1.9792
   32MPD2    H1  503   1.792   2.312  15.040  0.4862  1.5109  0.1112
   32MPD2    H2  504   1.926   2.312  14.642 -1.4563 -1.9092 -1.7289
   32MPD2    H3  505   1.964   2.254  14.872  0.5052  0.6985 -0.7357
   32MPD2     N  506   1.549   2.414  14.991 -0.2988 -0.8086  0.4628
   32MPD2    H5  507   1.576   2.411  15.088  1.5152  2.9355  0.0596
   32MPD2    N1  508   1.718   2.424  14.535  0.8927  0.2899  0.4268
   32MPD2    H7  509   1.804   2.452  14.488 -0.4943  1.2913 -1.5101
   33TMC2    C1  510   1.099   0.581  10.792  0.2239  0.1119  0.7600
   33TMC2    C2  511   1.184   0.492  10.737 -0.5323 -0.2385 -0.1249
   33TMC2    C3  512   1.284   0.539  10.651  0.7266  0.0681  0.3080
   33TMC2    C4  513   1.084   0.708  10.748 -0.1692 -0.2904  0.5403
   33TMC2    C5  514   1.162   0.736  10.639 -0.0838 -1.0070 -0.0299
   33TMC2    C6  515   1.264   0.666  10.592 -0.3819 -0.2596  0.0445
   33TMC2     C  516   1.006   0.525  10.891  0.3374 -0.0392  0.2330
   33TMC2     O  517   0.946   0.428  10.847 -0.2264 -0.0012 -0.0899
   33TMC2     H  518   1.197   0.398  10.790  0.9470  1.3588  2.3562
   33TMC2    H1  519   0.999   0.772  10.771  0.4822  0.2718  1.3718
   33TMC2    H2  520   1.335   0.716  10.526  1.2144 -1.6530  0.7036
   33TMC2    C7  521   1.147   0.867  10.580 -0.6374  0.0024  0.2713
   33TMC2    C8  522   1.389   0.451  10.601  0.6651  0.5015 -0.4241
   33TMC2    O1  523   1.245   0.927  10.547 -0.4471 -0.1946  0.0684
   33TMC2    O2  524   1.484   0.487  10.536  0.1008 -0.7051 -0.5444
   33TMC2    O5  525   1.333   0.326  10.607  0.0188  0.1274  0.0011
   33TMC2    H5  526   1.236   0.331  10.623  0.7984  0.1588  4.4759
   34MPD2     C  527   0.712   0.511  11.319  0.4086  0.1330  0.5912
   34MPD2    C1  528   0.711   0.429  11.208  0.8692 -0.4100 -0.6415
   34MPD2    C2  529   0.797   0.466  11.103 -1.4588  0.0580  0.6971
   34MPD2    C3  530   0.875   0.578  11.100 -0.7774  0.1408  0.2020
   34MPD2    C4  531   0.870   0.657  11.214  0.1635  0.4129  0.8103
   34MPD2    C5  532   0.787   0.624  11.322 -0.0395  0.3089 -0.7806
   34MPD2     H  533   0.790   0.415  11.008 -2.1177  1.7741 -0.1896
   34MPD2    H1  534   0.935   0.743  11.227  0.3643  0.2866  0.6454
   34MPD2    H2  535   0.658   0.487  11.410 -0.2126 -0.9829 -0.0629
   34MPD2    H3  536   0.790   0.686  11.411 -0.2077  0.2152 -0.7106
   34MPD2     N  537   0.972   0.605  10.997  0.1876  0.5968 -0.4950
   34MPD2    H5  538   1.020   0.694  11.013  0.8945  0.2463 -0.6571
   34MPD2    N1  539   0.623   0.318  11.211 -0.2784 -0.1396 -0.4285
   34MPD2    H7  540   0.558   0.299  11.287  0.2679 -0.0811  0.0559
   35TMC2    C1  541   1.472   1.455  11.203  0.4283  0.3368  0.0413
   35TMC2    C2  542   1.383   1.548  11.166  0.8040 -0.4484  0.6237
   35TMC2    C3  543   1.248   1.522  11.176 -0.3332 -0.8817 -0.9169
   35TMC2    C4  544   1.434   1.335  11.253  0.2110 -0.7870  0.5401
   35TMC2    C5  545   1.302   1.309  11.257  0.6156 -0.4931  0.4471
   35TMC2    C6  546   1.202   1.399  11.224 -0.1298  0.7418 -0.2695
   35TMC2     C  547   1.602   1.500  11.250 -0.4891  0.3558 -0.0902
   35TMC2     O  548   1.616   1.621  11.257 -0.0776  0.0067  0.3497
   35TMC2     H  549   1.414   1.643  11.124 -0.8183  0.5797  1.7473
   35TMC2    H1  550   1.508   1.257  11.269  2.8637  1.6685  0.1187
   35TMC2    H2  551   1.097   1.372  11.231  1.0710 -4.2680 -1.2365
   35TMC2    C7  552   1.280   1.179  11.330 -0.5766 -0.0138  0.6023
   35TMC2    C8  553   1.164   1.616  11.108 -0.2833 -0.0090  0.1718
   35TMC2    O1  554   1.379   1.122  11.374 -0.0623 -0.3832 -0.3221
   35TMC2    O2  555   1.201   1.708  11.031  0.5409  0.2626  0.3100
   35TMC2    O5  556   1.040   1.579  11.121 -0.4074 -0.0826 -0.6020
   35TMC2    H5  557   1.024   1.522  11.200  0.4044 -0.3581 -0.6276
   36MPD2     C  558   2.058   1.423  11.456 -0.3429  1.3018  0.3421
   36MPD2    C1  559   2.027   1.309  11.389  0.0777 -0.1603 -0.7041
   36MPD2    C2  560   1.902   1.296  11.326  0.7322  0.9620 -0.5133
   36MPD2    C3  561   1.812   1.406  11.334  1.2406 -0.0999  0.7468
   36MPD2    C4  562   1.844   1.520  11.408 -0.3062  0.6962  0.1614
   36MPD2    C5  563   1.965   1.526  11.468  0.3496  0.2407  0.0309
   36MPD2     H  564   1.872   1.207  11.270  0.1029  0.6502  0.3027
   36MPD2    H1  565   1.765   1.593  11.425 -1.0939 -0.0222 -0.3946
   36MPD2    H2  566   2.156   1.436  11.502 -0.5338 -0.5009  1.2555
   36MPD2    H3  567   1.994   1.616  11.520  1.7669  0.9686 -2.0109
   36MPD2     N  568   1.690   1.398  11.270  0.6323  0.3169  0.2077
   36MPD2    H5  569   1.664   1.309  11.228 -0.7126  1.1339 -0.6780
   36MPD2    N1  570   2.118   1.203  11.382  1.2974 -0.0895 -0.5171
   36MPD2    H7  571   2.080   1.122  11.333  0.4818  0.3795 -0.6596
   37TMC2    C1  572   4.480   1.443  11.931 -0.0619  0.5165 -0.2125
   37TMC2    C2  573   4.350   1.446  11.880  0.5804 -0.0285 -0.0891
   37TMC2    C3  574   4.319   1.504  11.757  0.5942 -1.1661 -0.7027
   37TMC2    C4  575   4.582   1.492  11.855 -0.3622  0.0163 -0.1252
   37TMC2    C5  576   4.552   1.535  11.724 -0.2112  0.4732 -0.3622
   37TMC2    C6  577   4.418   1.557  11.678  0.5477 -0.0366 -0.2217
   37TMC2     C  578   4.481   1.428  12.078 -0.5305 -0.1824  0.3440
   37TMC2     O  579   4.375   1.404  12.137 -0.3745 -0.3243 -0.2458
   37TMC2     H  580   4.271   1.389  11.927 -0.7460  0.6604 -1.4610
   37TMC2    H1  581   4.686   1.496  11.885  0.0420  1.7978 -1.8163
   37TMC2    H2  582   4.397   1.607  11.584  1.1827 -0.1087 -0.4038
   37TMC2    C7  583   4.664   1.588  11.651 -0.0131 -0.4140  0.2750
   37TMC2    C8  584   4.182   1.524  11.697  0.5737 -0.6746 -1.1300
   37TMC2    O1  585   0.030   1.621  11.712  0.3834  0.0786 -0.2664
   37TMC2    O2  586   4.162   1.536  11.576  0.0789  0.7630  0.2693
   37TMC2    O5  587   4.085   1.527  11.798 -0.2273 -0.0116 -0.2783
   37TMC2    H5  588   4.107   1.520  11.893 -0.8021 -0.8759 -0.2070
   38MPD2     C  589   4.733   1.501  12.522 -0.6559 -0.5808  0.1067
   38MPD2    C1  590   0.082   1.517  12.416  0.3130  0.2670  0.0237
   38MPD2    C2  591   0.037   1.488  12.291 -0.4329 -1.0720 -0.2821
   38MPD2    C3  592   4.644   1.467  12.265 -0.1990  0.1464  0.6769
   38MPD2    C4  593   4.557   1.466  12.370 -0.0003 -0.0596  0.0770
   38MPD2    C5  594   4.601   1.473  12.499 -0.9070  0.3539  0.6447
   38MPD2     H  595   0.105   1.501  12.208 -1.6449 -2.5321 -1.5044
   38MPD2    H1  596   4.450   1.460  12.357  0.2224  0.1606 -1.8145
   38MPD2    H2  597   0.026   1.518  12.624  0.5356  1.2575 -0.5689
   38MPD2    H3  598   4.538   1.470  12.587 -1.9993 -1.3066 -0.2149
   38MPD2     N  599   4.605   1.451  12.131 -0.1983 -0.2733 -0.0433
   38MPD2    H5  600   4.679   1.457  12.061  0.1119  0.9399  0.3959
   38MPD2    N1  601   0.221   1.543  12.431 -0.3404  0.3013  0.3657
   38MPD2    H7  602   0.279   1.549  12.348 -0.1009  0.7287  0.5620
   39TMC2    C1  603   2.767   3.604   1.339  0.5392 -0.3561 -0.5146
   39TMC2    C2  604   2.717   3.705   1.407 -0.3933  0.0059 -0.0222
   39TMC2    C3  605   2.803   3.764   1.501 -0.7421  0.0732  0.4530
   39TMC2    C4  606   2.900   3.574   1.334 -0.0192 -0.2436  1.0248
   39TMC2    C5  607   2.980   3.642   1.415  0.4369  0.8701 -0.2719
   39TMC2    C6  608   2.932   3.730   1.512 -0.8947 -0.4283 -0.0123
   39TMC2     C  609   2.677   3.500   1.295  0.0867  0.3382  0.5445
   39TMC2     O  610   2.561   3.532   1.272 -0.5323  0.0597  0.1447
   39TMC2     H  611   2.610   3.726   1.409 -0.6468 -1.3415  0.2133
   39TMC2    H1  612   2.941   3.507   1.259 -1.1752  0.4088 -0.1914
   39TMC2    H2  613   2.983   3.749   1.606 -0.1568  0.8133 -0.6600
   39TMC2    C7  614   3.120   3.602   1.416 -0.3383 -0.5999 -0.1702
   39TMC2    C8  615   2.746   3.866   1.591 -0.3445  0.2248 -0.4354
   39TMC2    O1  616   3.143   3.502   1.347 -0.2368 -1.0104  0.3751
   39TMC2    O2  617   2.627   3.890   1.595  0.5074 -0.0898 -1.0150
   39TMC2    O5  618   2.839   3.958   1.631 -0.6126  0.1580 -0.2169
   39TMC2    H5  619   2.933   3.933   1.617 -1.3026 -1.3471 -2.0631
   40MPD2     C  620   2.726   3.134   1.267  1.0108  0.1711  0.0020
   40MPD2    C1  621   2.662   3.253   1.257 -0.5773 -0.3830 -0.3845
   40MPD2    C2  622   2.537   3.259   1.197  0.3703  0.3917  0.1716
   40MPD2    C3  623   2.488   3.148   1.139 -0.2091 -0.3746 -0.4024
   40MPD2    C4  624   2.564   3.035   1.128  0.0876 -0.8533  0.7942
   40MPD2    C5  625   2.670   3.022   1.208 -0.3977 -0.4565  0.1224
   40MPD2     H  626   2.474   3.347   1.195  1.8075  1.3800 -1.5746
   40MPD2    H1  627   2.527   2.948   1.075 -1.0773  0.1148 -0.0028
   40MPD2    H2  628   2.820   3.117   1.318  0.1133  1.0334  1.9479
   40MPD2    H3  629   2.714   2.924   1.220  0.0662 -0.0698  1.5951
   40MPD2     N  630   2.357   3.148   1.076  0.4417  0.4389 -0.1825
   40MPD2    H5  631   2.329   3.064   1.026 -1.2917  1.9132 -1.7052
   40MPD2    N1  632   2.733   3.372   1.302  0.2745 -0.0297 -0.1435
   40MPD2    H7  633   2.827   3.353   1.333  0.1909 -0.9270 -0.4383
   41TMC2    C1  634   1.918   1.065  13.318 -0.7269 -0.0017 -0.8097
   41TMC2    C2  635   1.812   1.155  13.295  0.6492 -0.7812  0.6060
   41TMC2    C3  636   1.797   1.187  13.166  1.1038 -0.8789 -0.3865
   41TMC2    C4  637   2.008   1.023  13.221  0.0340 -0.7236 -0.0336
   41TMC2    C5  638   1.973   1.057  13.093 -0.6590 -0.7068  0.1058
   41TMC2    C6  639   1.861   1.132  13.065  0.9607 -0.3357 -0.1139
   41TMC2     C  640   1.951   1.027  13.451  0.3623  0.7074  0.3340
   41TMC2     O  641   1.995   0.915  13.474  0.0937 -0.0432 -0.5641
   41TMC2     H  642   1.737   1.180  13.369 -1.4147  1.5037 -2.2425
   41TMC2    H1  643   2.103   0.975  13.241 -0.8639 -1.8344  1.5534
   41TMC2    H2  644   1.825   1.160  12.967  3.7871 -0.8628 -1.2957
   41TMC2    C7  645   2.073   1.041  12.989 -0.4814 -0.0356  0.6416
   41TMC2    C8  646   1.710   1.299  13.130 -0.6610  0.2287  0.2084
   41TMC2    O1  647   2.181   0.983  13.021 -0.0394 -0.2153 -0.0529
   41TMC2    O2  648   1.634   1.295  13.035  0.4620  0.2978 -0.1406
   41TMC2    O5  649   1.703   1.383  13.242  0.1846  0.2014 -0.3493
   41TMC2    H5  650   1.778   1.378  13.305 -0.5256  2.0884  0.6564
   42MPD2     C  651   1.914   1.015  13.741 -0.2569  0.2197  0.4830
   42MPD2    C1  652   1.927   1.136  13.675  0.5333  0.0024 -0.1858
   42MPD2    C2  653   1.937   1.260  13.744 -1.1227  0.3839  0.5604
   42MPD2    C3  654   1.914   1.257  13.887  0.0198 -0.0936  0.3425
   42MPD2    C4  655   1.907   1.135  13.952  0.0557 -0.4680 -0.1416
   42MPD2    C5  656   1.891   1.013  13.878 -0.2226  0.2114 -0.2000
   42MPD2     H  657   1.942   1.347  13.681 -3.1085  1.2447  1.5943
   42MPD2    H1  658   1.891   1.133  14.059  0.8320  0.9865  0.0053
   42MPD2    H2  659   1.913   0.920  13.689  1.5451 -1.4855  3.6003
   42MPD2    H3  660   1.887   0.914  13.923 -0.1303  0.3400  0.0860
   42MPD2     N  661   1.922   1.374  13.972  0.3447 -1.2956  0.7264
   42MPD2    H5  662   1.887   1.365  14.067 -0.6895 -2.5760  0.2185
   42MPD2    N1  663   1.929   1.134  13.535  0.4096 -0.2442 -0.6142
   42MPD2    H7  664   1.919   1.221  13.485 -1.1807 -1.5338 -2.5504
   43TMC2    C1  665   3.158   0.007   0.635  0.5137 -0.5732 -0.0663
   43TMC2    C2  666   3.050   4.689   0.695  0.2817 -0.5178  0.1609
   43TMC2    C3  667   3.014   0.007   0.813  0.0973 -0.0522 -0.0165
   43TMC2    C4  668   3.219   0.120   0.684 -0.4986  0.8180  0.0334
   43TMC2    C5  669   3.189   0.156   0.809 -0.3046 -0.4612 -0.0899
   43TMC2    C6  670   3.083   0.108   0.873  0.7276  0.8353 -0.1969
   43TMC2     C  671   3.211   4.685   0.515  0.7840  0.4090  0.1343
   43TMC2     O  672   3.221   4.564   0.506 -0.8014 -0.0668 -0.0814
   43TMC2     H  673   2.988   4.617   0.643 -1.4198  0.8272  0.3406
   43TMC2    H1  674   3.310   0.149   0.634 -1.7088  0.6007 -2.3055
   43TMC2    H2  675   3.050   0.129   0.974 -0.5032 -2.0099 -0.0094
   43TMC2    C7  676   3.281   0.244   0.880 -0.0199 -0.5291  0.5324
   43TMC2    C8  677   2.889   4.710   0.879  0.3187  0.4685 -0.3432
   43TMC2    O1  678   3.354   0.319   0.826  0.4482  0.9307  0.0038
   43TMC2    O2  679   2.830   0.061   0.936 -0.0928  0.8020  0.0807
   43TMC2    O5  680   2.875   4.573   0.887 -0.1995  0.8489 -0.0003
   43TMC2    H5  681   2.946   4.523   0.841 -0.4564  1.2471 -0.8373
   44MPD2     C  682   3.547   0.005   0.130  0.0524 -1.3330  0.1448
   44MPD2    C1  683   3.528   4.646   0.234 -0.9310 -0.0640  0.5616
   44MPD2    C2  684   3.423   4.655   0.318  0.6644 -0.0356  0.1789
   44MPD2    C3  685   3.342   0.028   0.318 -0.0729 -0.7764 -0.2508
   44MPD2    C4  686   3.361   0.125   0.224 -1.1392  0.6572  0.3525
   44MPD2    C5  687   3.464   0.110   0.132  0.1055 -0.2813 -0.3203
   44MPD2     H  688   3.407   4.576   0.391 -0.7227 -1.3673 -1.5846
   44MPD2    H1  689   3.306   0.218   0.213  2.7100  2.8661 -0.1590
   44MPD2    H2  690   3.640   0.011   0.076  0.4984  1.0944  1.1919
   44MPD2    H3  691   3.467   0.190   0.059 -2.9292  1.8996  1.8958
   44MPD2     N  692   3.244   0.043   0.418 -0.4094  0.4228 -0.3809
   44MPD2    H5  693   3.196   0.132   0.425 -0.2272  0.3343  1.9957
   44MPD2    N1  694   3.620   4.538   0.258 -0.2838  0.5714  0.9273
   44MPD2    H7  695   3.597   4.491   0.345 -0.3845 -0.0888  0.5407
   45TMC2    C1  696   3.888   1.668   9.462 -0.2658 -0.2462  0.1192
   45TMC2    C2  697   4.020   1.626   9.448 -0.0697  0.1423 -0.1749
   45TMC2    C3  698   4.119   1.711   9.485 -0.0014 -0.4742 -0.1375
   45TMC2    C4  699   3.856   1.796   9.511 -0.5195  0.9614 -0.0243
   45TMC2    C5  700   3.959   1.879   9.545 -0.7204 -0.2341 -0.4080
   45TMC2    C6  701   4.089   1.838   9.525 -0.6833  0.9765 -0.2270
   45TMC2     C  702   3.776   1.578   9.421 -0.4495 -0.0220 -0.1852
   45TMC2     O  703   3.800   1.457   9.427  0.5813 -0.5383  0.1430
   45TMC2     H  704   4.049   1.528   9.412 -0.3936  0.2592 -0.7485
   45TMC2    H1  705   3.753   1.827   9.529 -0.6662  0.8941 -0.7410
   45TMC2    H2  706   4.175   1.899   9.548 -0.1675  0.3603 -0.5228
   45TMC2    C7  707   3.935   2.016   9.600 -0.2386  0.6156  0.9106
   45TMC2    C8  708   4.251   1.672   9.482  0.0598  0.2235  0.4836
   45TMC2    O1  709   4.032   2.070   9.649 -0.9942 -0.4927  0.1187
   45TMC2    O2  710   4.288   1.586   9.403 -0.1525 -0.2710 -0.2933
   45TMC2    O5  711   4.306   1.718   9.599 -0.2439 -0.4112  0.3408
   45TMC2    H5  712   4.252   1.770   9.661 -1.0451 -0.2168 -0.5262
   46MPD2     C  713   3.534   1.468   9.290  0.4647 -0.2152  0.7609
   46MPD2    C1  714   3.551   1.598   9.317 -0.0060 -0.1115  0.7090
   46MPD2    C2  715   3.438   1.673   9.297  0.2858  0.1463  0.2007
   46MPD2    C3  716   3.317   1.622   9.254 -0.2355  0.0096  0.0759
   46MPD2    C4  717   3.308   1.488   9.227  0.5921  0.0067 -0.1611
   46MPD2    C5  718   3.416   1.407   9.243  0.5562 -1.3305 -0.1398
   46MPD2     H  719   3.451   1.779   9.316  1.0351  0.3388 -1.4011
   46MPD2    H1  720   3.222   1.430   9.193  0.1078  2.2591 -2.7484
   46MPD2    H2  721   3.622   1.405   9.297  0.5133 -0.4407 -1.8246
   46MPD2    H3  722   3.418   1.300   9.227  0.0499 -1.4676  0.6755
   46MPD2     N  723   3.207   1.712   9.246 -0.2224 -0.0637 -0.6382
   46MPD2    H5  724   3.220   1.813   9.243 -2.1378  0.2306  0.9241
   46MPD2    N1  725   3.669   1.654   9.380  0.7364  0.3520  0.0655
   46MPD2    H7  726   3.665   1.753   9.405  0.7826  0.8884 -2.0114
   47TMC2    C1  727   0.429   2.397   9.193  0.2741 -0.8215 -0.3874
   47TMC2    C2  728   0.509   2.374   9.087  0.1494 -0.0735  0.5831
   47TMC2    C3  729   0.457   2.304   8.985 -0.2201 -0.2732  0.3984
   47TMC2    C4  730   0.302   2.348   9.199 -0.4046 -0.8018 -0.5501
   47TMC2    C5  731   0.250   2.276   9.096  0.1213 -0.0319 -0.4009
   47TMC2    C6  732   0.334   2.252   8.988  0.2665 -0.3202  0.6293
   47TMC2     C  733   0.473   2.482   9.299  0.3282 -0.8707  0.2455
   47TMC2     O  734   0.393   2.493   9.389 -0.6059  0.7680 -0.1836
   47TMC2     H  735   0.592   2.438   9.063  0.5240 -0.3410  1.1502
   47TMC2    H1  736   0.236   2.386   9.276  1.3595 -1.9200  1.4684
   47TMC2    H2  737   0.292   2.218   8.895  0.9746  0.4909  0.0130
   47TMC2    C7  738   0.116   2.236   9.084 -0.9658  0.4676 -1.1274
   47TMC2    C8  739   0.519   2.314   8.852  0.0989  0.3844  0.2393
   47TMC2    O1  740   0.075   2.166   8.989  0.4003  0.5582 -0.7148
   47TMC2    O2  741   0.455   2.306   8.749 -0.4241  0.3378  0.6292
   47TMC2    O5  742   0.649   2.336   8.871 -0.3743  0.1746  0.2547
   47TMC2    H5  743   0.686   2.313   8.959 -0.9669 -0.0559  0.4465
   48MPD2     C  744   0.644   2.611   9.508  0.0382  0.6677  0.3179
   48MPD2    C1  745   0.693   2.549   9.392  0.4652  0.2029 -0.1229
   48MPD2    C2  746   0.831   2.534   9.380  0.2195 -0.7783 -0.5288
   48MPD2    C3  747   0.921   2.582   9.472 -0.1055  0.5653 -0.2333
   48MPD2    C4  748   0.870   2.645   9.577 -0.3514 -0.3878  0.4569
   48MPD2    C5  749   0.733   2.656   9.601  0.4330 -0.5549 -0.7553
   48MPD2     H  750   0.858   2.483   9.288  1.3023 -1.3959  0.1366
   48MPD2    H1  751   0.935   2.683   9.655  1.1584  1.3330 -1.6515
   48MPD2    H2  752   0.540   2.613   9.537  0.1236  2.2927  0.5152
   48MPD2    H3  753   0.690   2.692   9.694  0.9549  0.9172 -1.0727
   48MPD2     N  754   1.053   2.541   9.464  0.2175 -0.4396  0.6547
   48MPD2    H5  755   1.078   2.486   9.382  0.6218 -0.9970  1.1501
   48MPD2    N1  756   0.609   2.494   9.293  1.1461 -0.6162  0.1137
   48MPD2    H7  757   0.655   2.456   9.210 -2.0858 -2.5170 -0.7978
   49TMC2    C1  758   0.312   4.369  10.177 -0.3925  0.4850 -0.7640
   49TMC2    C2  759   0.408   4.434  10.110 -0.6005 -0.4687  0.1845
   49TMC2    C3  760   0.422   4.422   9.976 -0.1816 -0.2307  0.0820
   49TMC2    C4  761   0.223   4.283  10.118 -0.2664  0.0828  0.3625
   49TMC2    C5  762   0.238   4.285   9.975  0.0588  0.3209 -0.8470
   49TMC2    C6  763   0.338   4.348   9.908  0.2239  0.4401  0.1469
   49TMC2     C  764   0.327   4.375  10.326  0.2139 -0.8209 -0.0312
   49TMC2     O  765   0.436   4.400  10.379  1.1448 -0.4172 -0.2914
   49TMC2     H  766   0.457   4.510  10.171 -2.6293  1.3493 -0.4307
   49TMC2    H1  767   0.150   4.235  10.183  0.9761 -0.4895  1.3450
   49TMC2    H2  768   0.354   4.338   9.802 -0.0645  3.1097 -0.1388
   49TMC2    C7  769   0.129   4.252   9.891  0.6306  0.5264 -0.0812
   49TMC2    C8  770   0.517   4.507   9.896  0.2491 -0.3129  0.1300
   49TMC2    O1  771   0.132   4.295   9.774 -0.3847 -0.3750  0.0161
   49TMC2    O2  772   0.482   4.556   9.789  0.1712  0.8539 -0.0921
   49TMC2    O5  773   0.639   4.502   9.945 -0.2025  0.4181  0.0504
   49TMC2    H5  774   0.643   4.458  10.033  0.3078 -0.9794 -0.6765
   50MPD2     C  775   0.290   4.318  10.613 -0.2060  0.7888  0.3717
   50MPD2    C1  776   0.184   4.339  10.525 -0.4497  0.6047  0.0973
   50MPD2    C2  777   0.055   4.334  10.578  0.1790  0.1388  0.3561
   50MPD2    C3  778   0.036   4.303  10.713  0.3836  0.0465  0.3978
   50MPD2    C4  779   0.142   4.279  10.798  0.3775 -0.1062 -0.5988
   50MPD2    C5  780   0.273   4.288  10.746 -0.5497  0.2869  0.3573
   50MPD2     H  781   4.705   4.358  10.520  1.1481 -0.5986 -1.3996
   50MPD2    H1  782   0.111   4.253  10.899  3.0236  0.3318  0.3177
   50MPD2    H2  783   0.393   4.310  10.581 -0.8029 -2.5644 -0.7701
   50MPD2    H3  784   0.358   4.274  10.812  0.0033  0.6275 -0.2850
   50MPD2     N  785   4.647   4.295  10.776  0.8501  0.6671  0.1152
   50MPD2    H5  786   4.645   4.258  10.870 -0.0140 -0.2477 -0.2554
   50MPD2    N1  787   0.200   4.361  10.384  0.0274 -0.2725  0.1269
   50MPD2    H7  788   0.114   4.375  10.332  0.1115 -0.7430 -0.1342
   51TMC2    C1  789   4.633   1.874   0.539 -0.4662 -0.5902  0.3739
   51TMC2    C2  790   4.528   1.862   0.456  0.4722 -0.2543  0.3961
   51TMC2    C3  791   4.453   1.975   0.431  0.2787  0.0699 -0.3702
   51TMC2    C4  792   4.652   1.988   0.615 -0.4987 -0.4381  0.0605
   51TMC2    C5  793   4.567   2.097   0.602  0.4648  0.9269 -0.4476
   51TMC2    C6  794   4.471   2.093   0.506 -0.1181  0.3095  0.4670
   51TMC2     C  795   4.729   1.767   0.539 -0.1383  0.8067  0.2428
   51TMC2     O  796   0.099   1.799   0.587 -0.0614 -0.0926  0.5513
   51TMC2     H  797   4.519   1.773   0.394 -0.3127  0.9171 -1.1727
   51TMC2    H1  798   4.734   2.000   0.685 -0.4228  0.5154 -0.1974
   51TMC2    H2  799   4.411   2.181   0.487 -0.3849 -0.3670 -1.7939
   51TMC2    C7  800   4.613   2.221   0.672  0.4889  0.7263  0.1593
   51TMC2    C8  801   4.334   1.988   0.348  0.3147  0.8568  0.2459
   51TMC2    O1  802   4.720   2.217   0.734 -0.3097  0.1650 -0.1947
   51TMC2    O2  803   4.257   2.082   0.360 -0.0269  0.5846 -0.0119
   51TMC2    O5  804   4.363   1.947   0.222  0.1727  0.0345  0.3121
   51TMC2    H5  805   4.429   1.876   0.208  0.7213  0.8170 -1.0031
   52MPD2     C  806   0.180   1.308   0.470  0.0522 -0.1142 -0.2163
   52MPD2    C1  807   0.227   1.416   0.545  0.0614 -0.1652 -0.2699
   52MPD2    C2  808   0.146   1.520   0.565 -0.0331 -0.6017  0.4330
   52MPD2    C3  809   0.022   1.529   0.499 -0.2424  0.2718  0.6268
   52MPD2    C4  810   4.707   1.422   0.422  1.1921 -0.8361 -0.2900
   52MPD2    C5  811   0.057   1.319   0.404 -0.1372  0.4075  0.1375
   52MPD2     H  812   0.174   1.601   0.632  1.4595  2.2515 -3.5974
   52MPD2    H1  813   4.608   1.431   0.380  1.2981  0.0359 -0.3679
   52MPD2    H2  814   0.231   1.220   0.432 -0.6073 -0.0826 -1.1969
   52MPD2    H3  815   0.035   1.244   0.329  0.5852 -0.1717  0.5002
   52MPD2     N  816   4.677   1.644   0.507  0.2223 -0.0978 -0.6124
   52MPD2    H5  817   4.580   1.632   0.482 -0.7933 -1.4923  4.0021
   52MPD2    N1  818   0.351   1.424   0.601 -0.0189 -0.1375  0.6534
   52MPD2    H7  819   0.374   1.511   0.648  0.3373 -1.0086  2.0865
   53TMC2    C1  820   0.497   1.905  11.388 -0.3614 -0.3739 -0.4735
   53TMC2    C2  821   0.620   1.848  11.356 -0.0505 -0.0556 -0.4139
   53TMC2    C3  822   0.719   1.863  11.452 -0.3837 -0.4424  0.7375
   53TMC2    C4  823   0.463   1.937  11.517 -0.6213 -0.5270  0.3863
   53TMC2    C5  824   0.565   1.935  11.607 -0.7051  0.2467  0.4507
   53TMC2    C6  825   0.700   1.904  11.580 -0.2450  0.1424 -0.4661
   53TMC2     C  826   0.399   1.845  11.309 -0.2525  0.6990 -0.1226
   53TMC2     O  827   0.418   1.821  11.193  0.0304 -0.3106  0.3491
   53TMC2     H  828   0.629   1.798  11.260  0.5872  0.5262 -0.6562
   53TMC2    H1  829   0.362   1.960  11.548  0.1614 -1.1143  3.3245
   53TMC2    H2  830   0.772   1.912  11.660 -0.7076 -0.5872  0.0289
   53TMC2    C7  831   0.515   1.932  11.743 -0.4730 -0.0985  0.2361
   53TMC2    C8  832   0.856   1.822  11.421 -0.2287  0.3712  0.0449
   53TMC2    O1  833   0.393   1.929  11.752 -0.1424 -0.2677 -0.2862
   53TMC2    O2  834   0.946   1.804  11.506 -0.0973  0.0764  0.0489
   53TMC2    O5  835   0.885   1.839  11.293  0.1582 -0.1935 -0.0838
   53TMC2    H5  836   0.815   1.883  11.240  0.2446 -2.2129 -1.8807
   54MPD2     C  837   0.142   1.709  11.210 -0.3356  0.3357  0.2341
   54MPD2    C1  838   0.169   1.744  11.342  0.8057 -0.2465 -0.2377
   54MPD2    C2  839   0.085   1.718  11.444 -0.2111 -1.1658  0.1500
   54MPD2    C3  840   4.717   1.631  11.414 -0.8999 -0.3407  1.0066
   54MPD2    C4  841   4.687   1.598  11.284  0.7776  0.2383  0.3975
   54MPD2    C5  842   0.031   1.644  11.182 -0.4855  0.1388  0.1521
   54MPD2     H  843   0.112   1.755  11.542 -0.1063  0.5175 -0.5222
   54MPD2    H1  844   4.612   1.525  11.256 -0.7982  1.4633  1.4448
   54MPD2    H2  845   0.208   1.725  11.126  0.8611  0.2641  1.1535
   54MPD2    H3  846   0.007   1.616  11.080  1.9704  2.6405 -1.1034
   54MPD2     N  847   4.634   1.578  11.512 -0.1944  0.0436 -0.0021
   54MPD2    H5  848   4.552   1.532  11.475 -1.2082  0.6907  1.4068
   54MPD2    N1  849   0.293   1.801  11.387  0.1359 -0.1804  0.6946
   54MPD2    H7  850   0.316   1.800  11.486  0.8993  1.4182  0.5261
   55TMC2    C1  851   1.353   4.325   0.037  0.5825  0.1518 -0.5218
   55TMC2    C2  852   1.454   4.349  17.694  0.4382  0.1767  0.8565
   55TMC2    C3  853   1.524   4.244  17.649 -0.3051  0.0395 -0.1910
   55TMC2    C4  854   1.330   4.197   0.082 -0.0096  0.3648  0.3445
   55TMC2    C5  855   1.402   4.095   0.029  1.0790  0.2303 -0.5785
   55TMC2    C6  856   1.494   4.115  17.682 -0.1021 -0.2894 -0.5306
   55TMC2     C  857   1.250   4.423   0.071  1.2518  0.0220  0.8880
   55TMC2     O  858   1.158   4.388   0.141 -0.5304 -0.1154  0.8609
   55TMC2     H  859   1.469   4.455  17.674  1.3118 -0.3252 -1.0967
   55TMC2    H1  860   1.255   4.179   0.158 -0.3675  1.4517  0.2583
   55TMC2    H2  861   1.563   4.041  17.645 -0.5632 -0.1929 -1.5711
   55TMC2    C7  862   1.368   3.958   0.057 -0.2618 -0.1666 -0.3708
   55TMC2    C8  863   1.610   4.269  17.540 -0.4703 -0.0171 -0.3781
   55TMC2    O1  864   1.445   3.870   0.019 -0.2387  0.1707 -0.0913
   55TMC2    O2  865   1.677   4.373  17.519 -0.2321  0.8262  0.3488
   55TMC2    O5  866   1.561   4.196  17.439  0.3239 -0.7790  0.0018
   55TMC2    H5  867   1.481   4.141  17.450  0.7843 -1.4557  0.0438
   56MPD2     C  868   1.277   0.060   0.084 -0.5075  0.1375 -0.1172
   56MPD2    C1  869   1.222   4.672   0.092 -0.1779  0.2494 -0.0419
   56MPD2    C2  870   1.085   4.664   0.115 -0.5702  0.0491 -0.4110
   56MPD2    C3  871   1.014   0.035   0.160  0.0739 -0.4104  0.7515
   56MPD2    C4  872   1.072   0.160   0.154  0.1478  0.1685 -0.1500
   56MPD2    C5  873   1.201   0.170   0.112  0.1227 -0.6674  0.1482
   56MPD2     H  874   1.034   4.570   0.100  1.0362 -0.9553  0.3540
   56MPD2    H1  875   1.018   0.249   0.184  1.8818  0.3383  2.4650
   56MPD2    H2  876   1.378   0.083   0.052 -0.0946 -2.0500 -0.3534
   56MPD2    H3  877   1.250   0.266   0.106  0.0561 -0.6701 -0.4527
   56MPD2     N  878   0.876   0.015   0.177  0.2861  0.1305 -0.3445
   56MPD2    H5  879   0.846   4.656   0.172  1.1055 -0.1539  0.2717
   56MPD2    N1  880   1.301   4.555   0.055  0.5733  0.4512 -0.2293
   56MPD2    H7  881   1.400   4.569   0.039  0.4872  0.9643 -0.3176
   57TMC2    C1  882   0.519   0.813  12.954 -0.0651  1.0046  0.3117
   57TMC2    C2  883   0.475   0.862  12.836 -0.5954 -0.3304  0.6745
   57TMC2    C3  884   0.560   0.956  12.783 -0.6718 -0.1636  0.3731
   57TMC2    C4  885   0.634   0.850  13.019  0.4800 -0.0055  0.0721
   57TMC2    C5  886   0.717   0.939  12.957  0.0372  0.6292 -0.0240
   57TMC2    C6  887   0.682   0.991  12.838  0.5325 -0.1160  0.4780
   57TMC2     C  888   0.451   0.704  13.024 -0.2245 -0.2048 -0.9006
   57TMC2     O  889   0.485   0.680  13.138 -0.4987  0.3052  0.0249
   57TMC2     H  890   0.381   0.838  12.788  0.8895 -1.0896 -1.8593
   57TMC2    H1  891   0.665   0.800  13.110 -0.9116  0.1095  0.5961
   57TMC2    H2  892   0.746   1.070  12.799  0.6719 -0.9732 -1.0248
   57TMC2    C7  893   0.864   0.917  12.973  0.1203  0.4721  0.3621
   57TMC2    C8  894   0.545   0.970  12.639 -0.5175  0.1988 -0.4403
   57TMC2    O1  895   0.936   1.016  12.965  0.1774 -0.1153 -0.4947
   57TMC2    O2  896   0.445   0.929  12.577  0.1110 -0.2605  0.2248
   57TMC2    O5  897   0.647   1.037  12.575 -0.4948 -0.5359  0.2691
   57TMC2    H5  898   0.736   1.050  12.613  0.5173  2.1141 -2.9318
   58MPD2     C  899   0.041   0.419  13.059 -0.3819  0.8672 -0.1500
   58MPD2    C1  900   0.115   0.484  13.151 -0.0835 -0.3951  0.0866
   58MPD2    C2  901   0.231   0.547  13.116 -0.4456  0.8177 -0.1769
   58MPD2    C3  902   0.259   0.561  12.983 -0.4511  0.3078  0.2991
   58MPD2    C4  903   0.183   0.498  12.887  1.3309  0.2798 -0.2235
   58MPD2    C5  904   0.068   0.425  12.924  0.0089 -0.0366 -0.3722
   58MPD2     H  905   0.284   0.608  13.189 -1.0940 -0.6580  1.5302
   58MPD2    H1  906   0.209   0.500  12.782  2.0138 -1.7167 -0.1056
   58MPD2    H2  907   4.690   0.365  13.088 -1.6744  1.2691 -3.3932
   58MPD2    H3  908   4.725   0.394  12.860  1.9910 -1.4157 -2.1946
   58MPD2     N  909   0.370   0.634  12.935  0.3382 -0.2139  0.0923
   58MPD2    H5  910   0.390   0.650  12.837 -0.2949 -2.3720 -0.3757
   58MPD2    N1  911   0.081   0.494  13.290  0.1928  0.1002 -0.5134
   58MPD2    H7  912   0.144   0.544  13.351 -1.4107  0.1580  1.0687
   59TMC2    C1  913   2.701   0.678  12.524  0.7874 -0.5617  1.5355
   59TMC2    C2  914   2.830   0.700  12.482 -0.0737  0.0381  0.0015
   59TMC2    C3  915   2.855   0.699  12.353  0.1055 -0.7630  0.2761
   59TMC2    C4  916   2.604   0.646  12.434  0.0401 -0.1157  0.1068
   59TMC2    C5  917   2.633   0.645  12.304 -0.3329  0.1885 -0.4238
   59TMC2    C6  918   2.759   0.672  12.259 -1.0029 -0.0483  0.4765
   59TMC2     C  919   2.667   0.719  12.662 -0.3508  0.0829 -1.2460
   59TMC2     O  920   2.575   0.801  12.666 -0.1560  0.4171 -0.2336
   59TMC2     H  921   2.912   0.725  12.549 -0.0606 -0.0330  0.0122
   59TMC2    H1  922   2.503   0.659  12.469  0.9157 -2.0308  3.4472
   59TMC2    H2  923   2.780   0.688  12.154  2.9786  1.4409  1.5011
   59TMC2    C7  924   2.515   0.624  12.218 -0.4401 -0.0119  0.3654
   59TMC2    C8  925   2.992   0.726  12.309  0.2801 -0.5851  0.1344
   59TMC2    O1  926   2.433   0.556  12.282 -0.2555  0.1167  0.1599
   59TMC2    O2  927   3.030   0.696  12.195  0.1862 -0.0700  0.2451
   59TMC2    O5  928   3.064   0.799  12.397 -0.0976  0.0016  0.3740
   59TMC2    H5  929   3.006   0.827  12.471  2.1691  1.1186  1.7232
   60MPD2     C  930   2.673   0.814  12.940 -0.7357 -0.6019  0.1886
   60MPD2    C1  931   2.780   0.752  12.882 -0.1211 -0.3849 -0.6466
   60MPD2    C2  932   2.899   0.750  12.949  0.2160 -0.1500 -0.5934
   60MPD2    C3  933   2.918   0.817  13.071 -0.5978  0.2336 -0.1704
   60MPD2    C4  934   2.811   0.883  13.126 -0.4918 -0.0961 -0.1098
   60MPD2    C5  935   2.691   0.879  13.062 -0.1357 -0.3608 -0.8275
   60MPD2     H  936   2.990   0.702  12.913  0.4457 -0.3894  0.3001
   60MPD2    H1  937   2.828   0.927  13.223 -1.9734  1.1434 -0.4155
   60MPD2    H2  938   2.577   0.792  12.893  0.1060 -1.5205 -1.0988
   60MPD2    H3  939   2.597   0.918  13.100 -0.1767 -1.4427  0.1856
   60MPD2     N  940   3.052   0.821  13.122 -0.2483 -0.2556 -0.1138
   60MPD2    H5  941   3.117   0.758  13.077 -0.1935  0.4824 -1.0863
   60MPD2    N1  942   2.771   0.697  12.750  0.0844  0.1195  0.1008
   60MPD2    H7  943   2.853   0.646  12.717  0.6952  0.0176  1.7489
   61TMC2    C1  944   2.263   2.259  15.549 -0.8588 -0.3912  0.5701
   61TMC2    C2  945   2.217   2.196  15.657  0.2377 -0.3507 -0.2585
   61TMC2    C3  946   2.196   2.272  15.768  0.1334  0.3710 -0.2976
   61TMC2    C4  947   2.282   2.395  15.534 -0.5137  0.2866  0.3276
   61TMC2    C5  948   2.240   2.465  15.640  0.0713  0.5036  0.6713
   61TMC2    C6  949   2.196   2.410  15.759 -0.4115  0.0710 -0.0270
   61TMC2     C  950   2.287   2.174  15.430  0.1781  0.2722 -0.3690
   61TMC2     O  951   2.244   2.063  15.452 -0.1427 -0.0296  0.2701
   61TMC2     H  952   2.200   2.089  15.668 -0.2716 -0.2490 -0.0525
   61TMC2    H1  953   2.322   2.437  15.442  0.1468 -0.7757  0.1289
   61TMC2    H2  954   2.168   2.471  15.844 -0.8838 -0.0356 -0.1094
   61TMC2    C7  955   2.257   2.610  15.619  0.0051 -0.4115  0.1455
   61TMC2    C8  956   2.168   2.206  15.895 -0.2571 -0.2167 -0.5441
   61TMC2    O1  957   2.270   2.643  15.501  0.1489 -0.4682 -0.7776
   61TMC2    O2  958   2.183   2.085  15.903  0.5546  0.1614 -0.3902
   61TMC2    O5  959   2.067   2.276  15.956 -0.0011 -0.0794 -0.0655
   61TMC2    H5  960   2.057   2.372  15.937  0.5180 -0.0669 -0.2675
   62MPD2     C  961   2.369   2.020  15.199 -0.4425  0.2813 -0.1980
   62MPD2    C1  962   2.402   2.151  15.209 -0.1336 -0.3229 -0.5781
   62MPD2    C2  963   2.484   2.205  15.106 -0.6593  0.2838 -0.0628
   62MPD2    C3  964   2.517   2.131  14.994  0.0650  0.5289 -0.2874
   62MPD2    C4  965   2.480   2.003  14.991  0.1376  0.1623 -0.3791
   62MPD2    C5  966   2.414   1.940  15.095 -0.1394 -0.4973 -0.0475
   62MPD2     H  967   2.519   2.307  15.120 -0.0870  0.2487 -1.2584
   62MPD2    H1  968   2.523   1.941  14.913  1.8988 -1.2748  1.7152
   62MPD2    H2  969   2.313   1.958  15.269  0.5910 -0.9199 -0.4348
   62MPD2    H3  970   2.396   1.833  15.093  2.5398 -0.9611  0.2694
   62MPD2     N  971   2.585   2.182  14.880  0.5071  0.3855  0.0612
   62MPD2    H5  972   2.593   2.121  14.799  2.1976  2.1179 -1.0492
   62MPD2    N1  973   2.370   2.221  15.328 -0.4983  0.1342  0.2473
   62MPD2    H7  974   2.389   2.320  15.317  1.0341 -0.1715  0.1547
   63TMC2    C1  975   1.666   2.400  10.339 -0.0956  0.4260 -0.3356
   63TMC2    C2  976   1.773   2.330  10.383 -0.0240  0.5633 -0.1582
   63TMC2    C3  977   1.901   2.370  10.340  0.8206 -0.4819 -0.5722
   63TMC2    C4  978   1.682   2.498  10.240 -0.1977  0.8562 -0.0308
   63TMC2    C5  979   1.810   2.531  10.197  0.0183 -0.1739 -0.1225
   63TMC2    C6  980   1.920   2.476  10.256 -0.1463 -0.2164  0.3034
   63TMC2     C  981   1.533   2.339  10.348  0.0508 -0.6301 -0.5223
   63TMC2     O  982   1.449   2.386  10.271 -0.6293  0.3264 -0.0747
   63TMC2     H  983   1.764   2.261  10.467  1.7133  0.6723  0.1254
   63TMC2    H1  984   1.603   2.532  10.174  1.2861  0.7397 -1.8892
   63TMC2    H2  985   2.018   2.518  10.235  0.8773 -2.2302  0.9562
   63TMC2    C7  986   1.824   2.649  10.109 -0.2391  0.0473  0.2219
   63TMC2    C8  987   2.016   2.318  10.415  0.6641  0.3822 -0.1730
   63TMC2    O1  988   1.724   2.670  10.039  0.1354 -0.0284 -0.6748
   63TMC2    O2  989   1.997   2.252  10.516  0.5959 -0.4727 -0.1293
   63TMC2    O5  990   2.134   2.353  10.359 -0.1988 -0.2348 -0.0615
   63TMC2    H5  991   2.133   2.364  10.262  3.6795 -2.8833 -0.4158
   64MPD2     C  992   1.281   1.893  10.428 -0.8985 -0.6439  0.4430
   64MPD2    C1  993   1.358   1.922  10.532 -0.2507  0.1732 -0.6114
   64MPD2    C2  994   1.439   2.031  10.535 -0.6449  0.9114  0.4573
   64MPD2    C3  995   1.447   2.117  10.424 -0.6227  0.3098 -0.7061
   64MPD2    C4  996   1.358   2.095  10.321 -0.6101  0.4592  0.1526
   64MPD2    C5  997   1.281   1.979  10.324  0.3021  0.2746  0.6113
   64MPD2     H  998   1.497   2.061  10.621  0.4411 -0.0100  0.0452
   64MPD2    H1  999   1.345   2.167  10.241  1.3426 -0.8997 -1.4138
   64MPD2    H2 1000   1.224   1.801  10.417 -3.7117  1.4149 -1.9979
   64MPD2    H3 1001   1.218   1.964  10.237 -1.8599  1.3530  1.9941
   64MPD2     N 1002   1.534   2.227  10.433  0.2642  0.5819  0.4306
   64MPD2    H5 1003   1.603   2.228  10.507 -0.5697 -1.7007  1.2414
   64MPD2    N1 1004   1.374   1.836  10.637 -0.6307  0.0399 -1.0025
   64MPD2    H7 1005   1.445   1.860  10.705  0.2085 -2.3845 -1.0345
   65TMC2    C1 1006   3.431   1.821  15.269  0.9766 -0.6938 -0.0448
   65TMC2    C2 1007   3.440   1.755  15.152 -0.5740 -0.7551 -0.4453
   65TMC2    C3 1008   3.437   1.836  15.044 -0.5915  0.1721  0.4740
   65TMC2    C4 1009   3.411   1.957  15.282  0.3270 -0.6807 -0.0154
   65TMC2    C5 1010   3.404   2.024  15.166 -0.7142  0.2624 -0.3923
   65TMC2    C6 1011   3.418   1.971  15.046  0.7896  0.1149  0.4469
   65TMC2     C 1012   3.449   1.741  15.390  0.7964 -0.1622  0.2683
   65TMC2     O 1013   3.472   1.815  15.485  0.3482 -0.2360  0.1718
   65TMC2     H 1014   3.465   1.651  15.134  2.2152  0.0849 -1.4449
   65TMC2    H1 1015   3.409   2.006  15.379  1.1394  0.9898 -0.8343
   65TMC2    H2 1016   3.389   2.022  14.954  1.7057 -3.0447 -1.6128
   65TMC2    C7 1017   3.347   2.153  15.176 -0.3997 -0.3156 -0.1175
   65TMC2    C8 1018   3.380   1.788  14.922  0.5338  0.1188  0.8412
   65TMC2    O1 1019   3.399   2.246  15.116  0.0924  0.1067 -0.0201
   65TMC2    O2 1020   3.324   1.675  14.924 -0.3056 -0.4427 -0.8150
   65TMC2    O5 1021   3.459   1.835  14.821 -0.0320 -0.2899 -0.3894
   65TMC2    H5 1022   3.510   1.915  14.847  0.6069 -0.4783 -1.0727
   66MPD2     C 1023   3.467   1.550  15.609  0.4049  0.1771 -0.6284
   66MPD2    C1 1024   3.442   1.512  15.481  0.5297 -0.3114 -0.2882
   66MPD2    C2 1025   3.416   1.379  15.455 -0.0765 -0.2889  0.0818
   66MPD2    C3 1026   3.396   1.285  15.554 -0.0138  0.5624  0.7473
   66MPD2    C4 1027   3.397   1.341  15.683 -0.3351  0.7470 -0.2120
   66MPD2    C5 1028   3.444   1.469  15.712  0.6629  0.5741  0.0391
   66MPD2     H 1029   3.400   1.357  15.350 -3.4468 -2.3591  1.0084
   66MPD2    H1 1030   3.370   1.273  15.764  1.4676 -1.8525 -1.7840
   66MPD2    H2 1031   3.516   1.642  15.639  1.9865 -0.8722  0.0131
   66MPD2    H3 1032   3.459   1.494  15.817 -0.7393 -2.3183  0.9530
   66MPD2     N 1033   3.351   1.157  15.532  0.1556 -0.2961  0.4029
   66MPD2    H5 1034   3.315   1.112  15.615 -2.6010 -1.2549 -1.2913
   66MPD2    N1 1035   3.435   1.604  15.375 -0.4095  0.0152 -0.5893
   66MPD2    H7 1036   3.399   1.582  15.282  0.1750  1.0231 -1.0485
   67TMC2    C1 1037   3.215   0.800  14.223  0.6812 -0.2534 -0.8312
   67TMC2    C2 1038   3.143   0.907  14.266  0.4229 -0.1342 -0.5676
   67TMC2    C3 1039   3.192   0.981  14.373  0.0622 -0.3361  0.5065
   67TMC2    C4 1040   3.332   0.766  14.298  0.3802 -0.7569  0.4332
   67TMC2    C5 1041   3.371   0.837  14.407 -1.1598  0.1105 -0.1028
   67TMC2    C6 1042   3.299   0.944  14.449 -0.0401 -0.3067 -1.3447
   67TMC2     C 1043   3.157   0.703  14.137  0.4164 -0.1069 -0.7532
   67TMC2     O 1044   3.207   0.592  14.124 -0.0601 -0.6342 -0.0961
   67TMC2     H 1045   3.060   0.948  14.211  0.1619 -0.7011 -0.5913
   67TMC2    H1 1046   3.398   0.687  14.263  0.9119 -0.4996  0.8587
   67TMC2    H2 1047   3.334   0.992  14.540 -3.3080 -2.5157  1.0897
   67TMC2    C7 1048   3.500   0.818  14.464 -0.1389 -0.3118 -0.0134
   67TMC2    C8 1049   3.121   1.091  14.428  0.5554  0.5397 -0.2653
   67TMC2    O1 1050   3.595   0.791  14.393  0.1157  0.0072 -0.1819
   67TMC2    O2 1051   3.174   1.174  14.500  0.8310  0.1820 -0.6109
   67TMC2    O5 1052   2.998   1.099  14.377 -0.2524 -0.7619 -0.3657
   67TMC2    H5 1053   2.976   1.015  14.333 -1.0074 -0.4852 -0.5224
   68MPD2     C 1054   2.984   0.557  13.940  0.1290  0.0775 -0.4430
   68MPD2    C1 1055   2.952   0.675  14.005  0.6583  0.8165  0.6269
   68MPD2    C2 1056   2.836   0.736  13.973  0.0955 -0.0512 -0.3365
   68MPD2    C3 1057   2.750   0.671  13.886  0.8781  0.0425 -0.2855
   68MPD2    C4 1058   2.781   0.545  13.832  0.0800 -0.0923  0.1837
   68MPD2    C5 1059   2.895   0.480  13.869 -0.1666 -0.3589  0.1989
   68MPD2     H 1060   2.811   0.834  14.010  0.2594  0.4344 -1.5332
   68MPD2    H1 1061   2.714   0.503  13.758  0.1794 -2.3571  1.3711
   68MPD2    H2 1062   3.083   0.513  13.945  0.0697 -0.1395 -1.2463
   68MPD2    H3 1063   2.921   0.383  13.829 -2.1321 -0.8743  0.1895
   68MPD2     N 1064   2.644   0.731  13.828  0.1892 -0.2012 -0.4799
   68MPD2    H5 1065   2.582   0.668  13.777 -1.5308  1.9967 -1.0868
   68MPD2    N1 1066   3.028   0.744  14.097 -0.8609  0.2221 -0.8450
   68MPD2    H7 1067   2.990   0.832  14.130  2.1172  0.8307  1.0188
   69TMC2    C1 1068   0.365   2.290  12.181 -0.6747 -0.0596  0.1948
   69TMC2    C2 1069   0.242   2.271  12.135  0.6461 -0.1479 -0.4561
   69TMC2    C3 1070   0.223   2.216  12.011  0.1960 -0.4538 -0.1453
   69TMC2    C4 1071   0.484   2.276  12.104  0.2977  0.4285  0.3158
   69TMC2    C5 1072   0.447   2.263  11.974 -0.3980 -0.5415 -0.9807
   69TMC2    C6 1073   0.325   2.216  11.933  0.0286 -0.0008  0.0436
   69TMC2     C 1074   0.367   2.260  12.326 -0.3460  0.5425  0.8386
   69TMC2     O 1075   0.279   2.185  12.373 -0.3295 -0.1009 -0.0684
   69TMC2     H 1076   0.156   2.270  12.202  0.1061 -0.1088 -1.1428
   69TMC2    H1 1077   0.582   2.304  12.142  0.4220  0.7255 -0.2246
   69TMC2    H2 1078   0.310   2.166  11.837  0.1171 -1.1039  0.6048
   69TMC2    C7 1079   0.548   2.276  11.874 -0.5849 -0.2211 -0.4551
   69TMC2    C8 1080   0.108   2.137  11.993 -0.4030 -0.8897 -0.0528
   69TMC2    O1 1081   0.657   2.311  11.915  0.1334 -0.2446  0.2407
   69TMC2    O2 1082   0.082   2.055  12.078 -0.0174 -0.1686  0.4150
   69TMC2    O5 1083   0.078   2.130  11.858  0.3758  0.2573  0.4187
   69TMC2    H5 1084   0.116   2.207  11.811 -1.3302  1.0794  0.3762
   70MPD2     C 1085   0.628   2.364  12.561  0.3029 -0.2626 -0.1754
   70MPD2    C1 1086   0.529   2.284  12.516  0.0455 -0.0847  0.3719
   70MPD2    C2 1087   0.498   2.171  12.588 -0.1917 -0.2391  0.1716
   70MPD2    C3 1088   0.563   2.143  12.705 -0.8246  0.0674 -0.3461
   70MPD2    C4 1089   0.670   2.225  12.748 -0.3604 -0.5291  0.5714
   70MPD2    C5 1090   0.694   2.343  12.680  0.0478  0.3130 -0.1787
   70MPD2     H 1091   0.423   2.108  12.541 -0.7401  0.6345 -0.1288
   70MPD2    H1 1092   0.726   2.201  12.837 -0.3006  0.6068  0.8378
   70MPD2    H2 1093   0.654   2.455  12.509 -1.0723  1.9170  2.9288
   70MPD2    H3 1094   0.770   2.413  12.713 -1.2000  2.5471 -2.0847
   70MPD2     N 1095   0.537   2.022  12.773 -0.2806 -0.2400 -0.3076
   70MPD2    H5 1096   0.607   1.996  12.842 -0.3176 -0.2593 -0.2774
   70MPD2    N1 1097   0.477   2.313  12.388  0.3733 -0.7506 -0.2803
   70MPD2    H7 1098   0.524   2.387  12.336  0.0092  0.4387  1.0686
   71TMC2    C1 1099   2.571   1.910   1.498  0.4271  1.0261 -0.1867
   71TMC2    C2 1100   2.660   1.884   1.602 -0.0266  0.0676 -0.3007
   71TMC2    C3 1101   2.616   1.804   1.704 -0.2681 -0.2217 -0.7061
   71TMC2    C4 1102   2.442   1.874   1.509  0.6648 -0.4487  0.2698
   71TMC2    C5 1103   2.397   1.804   1.614  0.3426  0.2757 -0.0896
   71TMC2    C6 1104   2.484   1.765   1.715 -0.0719 -0.0387 -0.0508
   71TMC2     C 1105   2.613   1.981   1.374 -0.1299 -0.6574  0.4418
   71TMC2     O 1106   2.529   2.004   1.288  0.1329 -0.1738  0.1694
   71TMC2     H 1107   2.763   1.917   1.607 -0.0762  0.1553  0.1790
   71TMC2    H1 1108   2.381   1.893   1.421  0.4052 -1.8393  0.1420
   71TMC2    H2 1109   2.464   1.684   1.783 -1.4027  0.4973  0.2076
   71TMC2    C7 1110   2.259   1.770   1.627  0.1299 -0.2171  0.6677
   71TMC2    C8 1111   2.704   1.712   1.772  0.0811 -0.9382 -0.1953
   71TMC2    O1 1112   2.224   1.686   1.709 -0.5352  0.2060  0.0353
   71TMC2    O2 1113   2.672   1.602   1.809  0.2893 -0.3219 -0.4694
   71TMC2    O5 1114   2.826   1.766   1.794 -0.3118 -0.2680 -0.3598
   71TMC2    H5 1115   2.826   1.864   1.795  0.9302 -0.2604 -0.3709
   72MPD2     C 1116   2.981   2.249   1.133  0.1160 -0.3857  0.1366
   72MPD2    C1 1117   2.844   2.235   1.110 -0.5884  0.0834  0.1378
   72MPD2    C2 1118   2.763   2.154   1.184  0.1121  0.8418 -0.2825
   72MPD2    C3 1119   2.825   2.085   1.290 -0.5032 -0.0764 -0.3379
   72MPD2    C4 1120   2.964   2.091   1.306 -0.2336  0.0984  0.1578
   72MPD2    C5 1121   3.037   2.177   1.233  0.0524 -0.1634 -0.3855
   72MPD2     H 1122   2.658   2.150   1.157 -0.5778  0.4043  2.4657
   72MPD2    H1 1123   3.013   2.030   1.381 -0.8607  0.4105  0.8250
   72MPD2    H2 1124   3.045   2.307   1.068 -0.6335 -0.0127 -0.2721
   72MPD2    H3 1125   3.144   2.180   1.251 -0.1640  1.9251  0.5825
   72MPD2     N 1126   2.748   2.001   1.371 -0.3245 -0.3183 -0.1842
   72MPD2    H5 1127   2.814   1.949   1.429 -0.3941  1.1394  1.2111
   72MPD2    N1 1128   2.781   2.305   1.004  0.1350 -0.7429 -0.7661
   72MPD2    H7 1129   2.682   2.283   0.992 -0.1340 -0.5431  1.0522
   73TMC2    C1 1130   2.601   3.996  14.127 -0.2385  0.7935  0.2252
   73TMC2    C2 1131   2.553   3.982  14.259  0.3094  0.4143 -0.4579
   73TMC2    C3 1132   2.651   3.973  14.359  0.7986  0.2970 -0.4457
   73TMC2    C4 1133   2.730   3.996  14.106 -0.2971  0.9803  0.0797
   73TMC2    C5 1134   2.826   4.009  14.204  0.0766 -0.5954 -0.1326
   73TMC2    C6 1135   2.781   3.999  14.332 -0.1132  0.0673 -0.5062
   73TMC2     C 1136   2.529   4.071  14.033 -0.7075 -0.4672 -0.4841
   73TMC2     O 1137   2.596   4.151  13.966 -0.0198 -0.0091 -0.6219
   73TMC2     H 1138   2.447   3.983  14.279  0.3730  1.5057 -0.1484
   73TMC2    H1 1139   2.758   4.006  14.001 -1.3293 -0.2825 -0.3127
   73TMC2    H2 1140   2.861   3.994  14.405 -0.9625  2.3108  0.5735
   73TMC2    C7 1141   2.913   4.119  14.179 -0.1271  0.2018 -0.6116
   73TMC2    C8 1142   2.620   3.994  14.498  0.0090  0.6681 -0.6708
   73TMC2    O1 1143   3.028   4.117  14.208 -0.4468 -0.3226  0.4241
   73TMC2    O2 1144   2.675   4.086  14.562  0.1663 -0.1305  0.3488
   73TMC2    O5 1145   2.486   3.969  14.510 -0.2824 -0.4304 -0.5292
   73TMC2    H5 1146   2.472   3.875  14.485  0.6066 -0.4794 -0.8522
   74MPD2     C 1147   2.108   4.286  13.854 -0.4169 -0.0167  0.1730
   74MPD2    C1 1148   2.239   4.340  13.856  0.6416 -0.2317 -1.0704
   74MPD2    C2 1149   2.338   4.253  13.918  0.5597  0.5222 -0.4257
   74MPD2    C3 1150   2.306   4.129  13.971 -0.4549 -0.2672 -0.5663
   74MPD2    C4 1151   2.175   4.085  13.970  0.3804  0.1812 -0.1434
   74MPD2    C5 1152   2.080   4.164  13.913 -0.0721  0.1244 -0.4191
   74MPD2     H 1153   2.435   4.299  13.933  1.4982 -1.6611  0.2950
   74MPD2    H1 1154   2.150   3.984  13.999  2.1711 -0.0882  0.4621
   74MPD2    H2 1155   2.020   4.343  13.828 -0.3022 -1.5972 -3.6245
   74MPD2    H3 1156   1.977   4.132  13.913  0.4154 -1.4924  1.9292
   74MPD2     N 1157   2.397   4.046  14.032 -0.1811  0.3949 -0.6623
   74MPD2    H5 1158   2.354   3.968  14.081 -0.3822 -0.5953 -2.3997
   74MPD2    N1 1159   2.265   4.460  13.797  0.0880 -0.0051  0.2141
   74MPD2    H7 1160   2.198   4.487  13.726  1.4042 -0.1168 -1.0864
   75TMC2    C1 1161   2.476   0.895  13.783  0.2013 -0.3075 -0.2578
   75TMC2    C2 1162   2.392   0.979  13.848 -0.6578 -0.0495  0.1424
   75TMC2    C3 1163   2.292   1.044  13.783  0.0237  0.7566 -0.0395
   75TMC2    C4 1164   2.458   0.858  13.652  0.2497 -0.3667 -0.0628
   75TMC2    C5 1165   2.352   0.923  13.591  0.0954  0.3669 -0.0892
   75TMC2    C6 1166   2.278   1.021  13.650 -0.0842  0.2098  0.2848
   75TMC2     C 1167   2.589   0.852  13.861  0.1201  0.2650 -0.9015
   75TMC2     O 1168   2.624   0.937  13.939  0.0595  0.7685 -0.0648
   75TMC2     H 1169   2.407   1.000  13.953 -0.5421  1.0764 -0.1030
   75TMC2    H1 1170   2.524   0.791  13.597 -2.2817 -0.6812 -2.7247
   75TMC2    H2 1171   2.199   1.064  13.590  0.4047  0.7247  0.0094
   75TMC2    C7 1172   2.325   0.881  13.458 -0.0597 -0.0535 -0.3009
   75TMC2    C8 1173   2.246   1.167  13.848  0.5079  0.0904 -0.0660
   75TMC2    O1 1174   2.274   0.958  13.377  0.0150 -0.5213  0.4567
   75TMC2    O2 1175   2.268   1.171  13.969  0.3905  0.5262  0.1927
   75TMC2    O5 1176   2.277   1.266  13.766  0.3496  0.1351  0.0590
   75TMC2    H5 1177   2.315   1.231  13.683 -0.5043 -1.0593  0.1778
   76TMC2    C1 1178   1.072   1.195  11.723 -0.0786  0.2517  0.3975
   76TMC2    C2 1179   0.951   1.214  11.778  0.8806  0.6166  0.9437
   76TMC2    C3 1180   0.908   1.128  11.876  0.3084  0.2991 -0.2269
   76TMC2    C4 1181   1.156   1.091  11.757  0.0110 -0.5617 -0.2646
   76TMC2    C5 1182   1.117   1.013  11.865  0.5514  0.1379  0.2771
   76TMC2    C6 1183   0.988   1.032  11.925  0.4956 -0.4917 -0.3109
   76TMC2     C 1184   1.119   1.302  11.642  0.1345 -1.0367  0.6507
   76TMC2     O 1185   1.032   1.373  11.592  0.2173 -0.0937 -0.0900
   76TMC2     H 1186   0.892   1.300  11.750 -0.3969 -0.0535  1.5599
   76TMC2    H1 1187   1.251   1.080  11.706  1.5883  1.7696  2.1717
   76TMC2    H2 1188   0.953   0.974  12.009 -0.7001 -0.2559 -0.6389
   76TMC2    C7 1189   1.204   0.904  11.898  0.1005  0.8411  0.8260
   76TMC2    C8 1190   0.780   1.155  11.942  0.5309  0.8530  1.1231
   76TMC2    O1 1191   1.153   0.811  11.964  0.6456  0.1290 -0.2520
   76TMC2    O2 1192   0.687   1.206  11.879  0.2632  0.2066  0.9992
   76TMC2    O5 1193   0.782   1.122  12.071 -0.0071  0.0730 -0.1129
   76TMC2    H5 1194   0.869   1.094  12.107  0.4407 -1.6072 -2.4732
   77MPD2     C 1195   1.441   1.668  11.513  0.3921  0.2052  0.0127
   77MPD2    C1 1196   1.306   1.670  11.504 -0.7115 -0.5214  0.0032
   77MPD2    C2 1197   1.230   1.567  11.565 -0.1764  0.3146  0.7269
   77MPD2    C3 1198   1.303   1.456  11.616  0.2881 -0.6284 -0.3779
   77MPD2    C4 1199   1.436   1.458  11.619  1.4042 -0.8972  0.6057
   77MPD2    C5 1200   1.506   1.571  11.579 -0.9444 -0.2252 -0.3516
   77MPD2     H 1201   1.124   1.581  11.578 -0.2316 -1.1117  1.7193
   77MPD2    H1 1202   1.481   1.376  11.673  0.0724 -1.1658  1.3189
   77MPD2    H2 1203   1.492   1.756  11.479 -0.8859  0.7633 -0.4665
   77MPD2    H3 1204   1.612   1.580  11.600 -0.4644  0.4093 -2.9660
   77MPD2     N 1205   1.248   1.335  11.663 -0.3133  0.0368 -0.2145
   77MPD2    H5 1206   1.316   1.273  11.706 -1.0266 -2.1697 -2.2794
   77MPD2    N1 1207   1.237   1.781  11.453 -0.0803  0.1189 -0.0791
   77MPD2    H7 1208   1.137   1.791  11.469 -0.2345 -0.9245 -0.3811
   78TMC2    C1 1209   1.932   1.485   1.142  0.0357  0.7884  0.0601
   78TMC2    C2 1210   1.845   1.586   1.102  0.7411 -0.2087 -0.3766
   78TMC2    C3 1211   1.899   1.708   1.089 -0.6839  0.8732 -0.3377
   78TMC2    C4 1212   2.057   1.506   1.171 -0.1399 -1.2987  0.3194
   78TMC2    C5 1213   2.114   1.630   1.139  0.2172  0.0115 -0.3955
   78TMC2    C6 1214   2.036   1.732   1.102 -0.2896  0.3934 -0.6574
   78TMC2     C 1215   1.883   1.346   1.127  0.3585  0.2735  0.0781
   78TMC2     O 1216   1.952   1.265   1.186  0.1987 -0.1185 -0.3333
   78TMC2     H 1217   1.737   1.579   1.097  0.5775  1.4449  1.0138
   78TMC2    H1 1218   2.127   1.427   1.198  2.0858  0.4364 -0.3762
   78TMC2    H2 1219   2.088   1.827   1.101  0.3209  0.0514 -1.5331
   78TMC2    C7 1220   2.247   1.665   1.180 -0.1061 -0.5059 -0.3909
   78TMC2    C8 1221   1.796   1.809   1.076 -0.2585  0.3175 -0.1481
   78TMC2    O1 1222   2.298   1.757   1.118  0.3565  0.2496  0.0885
   78TMC2    O2 1223   1.674   1.802   1.098 -0.4212  0.3250  0.9948
   78TMC2    O5 1224   1.850   1.926   1.037  0.1319  0.4999  0.2408
   78TMC2    H5 1225   1.944   1.927   1.009 -0.7494  0.4143 -2.7640
   79MPD1     C 1226   1.509   0.992   1.092 -0.3173  0.0348  0.5305
   79MPD1    C1 1227   1.640   0.980   1.137 -0.1867  0.7584  0.3170
   79MPD1    C2 1228   1.724   1.094   1.146  0.3995  0.8095 -0.0636
   79MPD1    C3 1229   1.675   1.218   1.101  0.1787 -0.2225  0.9626
   79MPD1    C4 1230   1.547   1.225   1.051 -0.2664  0.1756  0.1519
   79MPD1    C5 1231   1.467   1.112   1.037  0.0907 -0.0358  0.4016
   79MPD1     H 1232   1.823   1.076   1.187 -0.2799 -2.3535  0.2218
   79MPD1    H1 1233   1.510   1.322   1.019  1.7704  0.3328 -1.7001
   79MPD1    H2 1234   1.439   0.909   1.084 -1.0850  0.9792 -2.8662
   79MPD1    H3 1235   1.368   1.120   0.994  0.3029 -1.8513 -0.4303
   79MPD1     N 1236   1.749   1.339   1.102  0.3521 -0.2049  0.9240
   79MPD1    H5 1237   1.696   1.424   1.088  1.9561  0.7703  0.8194
   79MPD1    N1 1238   1.682   0.857   1.170 -0.1499  0.1175 -0.0781
   79MPD1    H6 1239   1.775   0.871   1.208  1.0196  0.1698 -3.0218
   79MPD1    H7 1240   1.617   0.788   1.206  0.6973 -0.6991 -0.1329
   80TMC2    C1 1241   0.445   1.500  11.477 -0.1435 -0.4404  0.0755
   80TMC2    C2 1242   0.446   1.486  11.337 -0.9641 -0.5561 -0.7879
   80TMC2    C3 1243   0.351   1.400  11.276  0.5601 -0.2676  0.8743
   80TMC2    C4 1244   0.364   1.412  11.554 -0.1895  0.1881 -0.0040
   80TMC2    C5 1245   0.279   1.326  11.485 -0.3483 -0.2346 -0.2139
   80TMC2    C6 1246   0.264   1.329  11.349 -0.7462 -1.0228 -0.1432
   80TMC2     C 1247   0.571   1.542  11.522 -0.2702 -0.1125  0.2148
   80TMC2     O 1248   0.667   1.544  11.448 -0.7426 -0.5539 -0.2308
   80TMC2     H 1249   0.524   1.545  11.291 -0.5815  0.5722  1.2700
   80TMC2    H1 1250   0.360   1.404  11.662  1.3554  0.2753  0.0637
   80TMC2    H2 1251   0.192   1.276  11.286  0.0750 -0.2281 -1.7582
   80TMC2    C7 1252   0.159   1.266  11.542 -0.0991 -0.4094  0.1589
   80TMC2    C8 1253   0.358   1.376  11.132  0.0340  0.2910 -0.0553
   80TMC2    O1 1254   0.067   1.236  11.461  0.1741 -0.1114  0.4196
   80TMC2    O2 1255   0.267   1.307  11.081  0.0860  0.0841 -0.0138
   80TMC2    O5 1256   0.490   1.359  11.112  0.3687 -0.0871  0.0427
   80TMC2    H5 1257   0.550   1.412  11.168  1.7125 -1.8986  0.3260
   81MPD2     C 1258   0.805   1.597  11.711  0.2188 -0.6021 -0.0472
   81MPD2    C1 1259   0.676   1.574  11.754 -0.1943 -0.4046 -0.8737
   81MPD2    C2 1260   0.649   1.558  11.885  0.0049 -0.4313 -0.8685
   81MPD2    C3 1261   0.746   1.561  11.985 -0.1867  1.6520  0.4257
   81MPD2    C4 1262   0.876   1.595  11.938 -0.7545 -0.2823  0.1377
   81MPD2    C5 1263   0.899   1.617  11.807 -0.0520 -0.1432  0.5831
   81MPD2     H 1264   0.548   1.530  11.912 -0.1607  1.3655  0.3735
   81MPD2    H1 1265   0.947   1.619  12.017 -0.0510 -0.5071 -0.4332
   81MPD2    H2 1266   0.841   1.594  11.609 -0.0144 -1.9610 -0.0870
   81MPD2    H3 1267   0.995   1.646  11.766 -0.3105 -1.7006 -1.1512
   81MPD2     N 1268   0.713   1.540  12.124  0.7555 -0.2870 -0.4360
   81MPD2    H5 1269   0.784   1.547  12.196 -0.8253 -2.3849  1.3429
   81MPD2    N1 1270   0.566   1.551  11.662  0.0228  0.5387  0.2443
   81MPD2    H7 1271   0.474   1.551  11.704  0.5676 -1.1376  1.4351
   82TMC2    C1 1272   3.299   0.105  10.782  0.3002 -0.2277 -0.5568
   82TMC2    C2 1273   3.387   0.137  10.888 -0.6233 -0.3667 -0.1563
   82TMC2    C3 1274   3.358   0.082  11.011  0.7113 -0.5232 -0.1150
   82TMC2    C4 1275   3.195   0.020  10.788  0.5084 -0.2116 -0.7261
   82TMC2    C5 1276   3.179   4.701  10.909 -0.4484 -0.6552 -0.5601
   82TMC2    C6 1277   3.251   4.736  11.023  0.4722 -0.1571  0.0422
   82TMC2     C 1278   3.303   0.186  10.661 -0.7850 -0.1194 -0.1238
   82TMC2     O 1279   3.214   0.162  10.584 -0.4192 -0.0289  0.5121
   82TMC2     H 1280   3.477   0.197  10.876  0.7020 -2.7310 -2.2259
   82TMC2    H1 1281   3.112   0.017  10.718  0.2342 -0.3540 -0.3924
   82TMC2    H2 1282   3.241   4.682  11.116 -0.1005 -2.0765 -1.1065
   82TMC2    C7 1283   3.068   4.604  10.940 -0.0469  0.0122  0.0180
   82TMC2    C8 1284   3.453   0.084  11.121  0.3765  0.1971 -0.2658
   82TMC2    O1 1285   3.050   4.596  11.061  0.0669 -0.4470 -0.3375
   82TMC2    O2 1286   3.490   4.723  11.184 -0.4110  0.0165  0.4908
   82TMC2    O5 1287   3.507   0.208  11.137 -0.4791 -0.1929  0.4220
   82TMC2    H5 1288   3.456   0.268  11.078  0.0192 -1.1214 -0.9726
   83MPD2     C 1289   3.409   0.600  10.377 -0.3434 -0.9204 -0.7116
   83MPD2    C1 1290   3.293   0.541  10.402  0.1150  0.4072 -0.2100
   83MPD2    C2 1291   3.295   0.428  10.482 -0.1383 -0.3517 -0.8691
   83MPD2    C3 1292   3.408   0.386  10.547  0.6419 -0.3707 -0.4873
   83MPD2    C4 1293   3.529   0.447  10.520  0.6606  0.4897 -0.5921
   83MPD2    C5 1294   3.526   0.555  10.439  0.1379 -0.4283  0.3874
   83MPD2     H 1295   3.206   0.375  10.515 -0.2734  0.6337  0.3647
   83MPD2    H1 1296   3.620   0.405  10.560  1.6745  2.6007 -0.6405
   83MPD2    H2 1297   3.415   0.689  10.316  0.4335 -0.9952 -0.7496
   83MPD2    H3 1298   3.619   0.610  10.432 -0.4660  0.6802  0.9131
   83MPD2     N 1299   3.404   0.281  10.646 -0.9959  0.3127 -0.1876
   83MPD2    H5 1300   3.484   0.280  10.709 -0.6049 -1.5756 -0.7128
   83MPD2    N1 1301   3.180   0.595  10.337 -0.0552 -0.2331  0.4552
   83MPD2    H7 1302   3.188   0.692  10.308  3.6030 -0.3206  1.1782
   84TMC2    C1 1303   4.361   4.535  10.985 -0.3699 -0.5810  0.5415
   84TMC2    C2 1304   4.349   4.434  11.077  0.4093  0.0319  0.3699
   84TMC2    C3 1305   4.363   4.302  11.034  0.6076 -0.9275 -0.1435
   84TMC2    C4 1306   4.411   4.513  10.861  0.0410  0.0847  0.2087
   84TMC2    C5 1307   4.431   4.381  10.825 -0.1785  1.5258  0.6653
   84TMC2    C6 1308   4.410   4.274  10.911  0.6067 -0.2015  0.1150
   84TMC2     C 1309   4.312   4.669  11.020  0.5051  0.1856 -0.2046
   84TMC2     O 1310   4.243   4.665  11.122 -0.5945 -0.8878 -0.1790
   84TMC2     H 1311   4.341   4.457  11.183 -1.2532  3.8039 -0.5790
   84TMC2    H1 1312   4.415   4.586  10.781  1.1139  1.1207  1.2034
   84TMC2    H2 1313   4.439   4.174  10.882  0.2805  0.1493 -1.4335
   84TMC2    C7 1314   4.533   4.348  10.726 -0.5289 -0.1703  0.8365
   84TMC2    C8 1315   4.390   4.201  11.130  0.1336  0.1405  0.5538
   84TMC2    O1 1316   4.515   4.399  10.616  0.3476  0.0306 -0.7633
   84TMC2    O2 1317   4.469   4.106  11.120  0.7741 -0.0744  0.2880
   84TMC2    O5 1318   4.297   4.201  11.223 -0.4656  0.1630  0.5665
   84TMC2    H5 1319   4.246   4.284  11.235 -0.6482 -0.0852  1.5320
   85TMC2    C1 1320   0.555   2.853  16.208 -0.2680 -0.2093 -0.7332
   85TMC2    C2 1321   0.576   2.984  16.238 -0.9780 -0.0941 -0.2320
   85TMC2    C3 1322   0.580   3.075  16.137 -0.2683  0.1446  0.0352
   85TMC2    C4 1323   0.556   2.818  16.075  0.4785 -0.4034  0.2693
   85TMC2    C5 1324   0.570   2.903  15.969  0.0443  0.4990 -0.3819
   85TMC2    C6 1325   0.580   3.038  16.006  0.2669 -0.4553 -0.2760
   85TMC2     C 1326   0.522   2.765  16.313 -0.3910 -0.4401 -0.2939
   85TMC2     O 1327   0.543   2.808  16.426  0.1640 -0.5797  0.0248
   85TMC2     H 1328   0.566   3.024  16.338 -0.8028  1.8825 -0.9957
   85TMC2    H1 1329   0.571   2.714  16.049 -1.8053 -0.4476 -0.8347
   85TMC2    H2 1330   0.570   3.117  15.932  0.3530 -0.0639  0.1313
   85TMC2    C7 1331   0.579   2.862  15.833  0.1305 -0.5309  0.5846
   85TMC2    C8 1332   0.609   3.214  16.170  0.6607  0.3653 -0.3536
   85TMC2    O1 1333   0.531   2.749  15.820 -0.2345 -0.1802  0.1874
   85TMC2    O2 1334   0.592   3.297  16.081  0.0750  0.5164 -0.0345
   85TMC2    O5 1335   0.713   3.217  16.251  0.8772  0.0129 -0.2522
   85TMC2    H5 1336   0.733   3.135  16.301 -0.9056 -0.9188 -1.0556
   86MPD2     C 1337   0.321   2.340  16.525  0.1811 -0.4341  0.2576
   86MPD2    C1 1338   0.333   2.314  16.390  0.6160 -0.0640 -0.1899
   86MPD2    C2 1339   0.378   2.417  16.314 -0.0225  0.6547  0.2405
   86MPD2    C3 1340   0.421   2.542  16.371 -1.1419  0.1330 -0.1309
   86MPD2    C4 1341   0.409   2.561  16.513  0.2410  0.0211  0.2926
   86MPD2    C5 1342   0.359   2.459  16.587  0.3587 -0.8476  0.9742
   86MPD2     H 1343   0.397   2.400  16.208 -1.7520  0.8441 -0.0981
   86MPD2    H1 1344   0.431   2.654  16.565 -1.5527 -0.7695  2.4831
   86MPD2    H2 1345   0.279   2.259  16.583 -0.1578 -0.5001 -0.0815
   86MPD2    H3 1346   0.335   2.460  16.692 -1.6053  1.4190  0.5167
   86MPD2     N 1347   0.477   2.643  16.285 -0.3902 -0.6146 -0.1563
   86MPD2    H5 1348   0.465   2.622  16.186  0.2298 -0.9104 -0.1639
   86MPD2    N1 1349   0.299   2.188  16.325  0.3849 -0.0745  0.3322
   86MPD2    H7 1350   0.300   2.189  16.223  1.7230  1.3869  0.3643
   87TMC2    C1 1351   2.741   0.642   0.623 -0.0320  0.1673 -0.5628
   87TMC2    C2 1352   2.725   0.558   0.726  0.3626  0.5609  0.5541
   87TMC2    C3 1353   2.751   0.615   0.843  0.4277  0.4232  0.9395
   87TMC2    C4 1354   2.789   0.766   0.639 -0.4103  0.2505 -0.0774
   87TMC2    C5 1355   2.848   0.811   0.756  0.8338 -0.0036  0.1734
   87TMC2    C6 1356   2.812   0.733   0.860 -0.2168 -0.1685  0.8607
   87TMC2     C 1357   2.755   0.586   0.493  0.4350 -0.2590  0.1197
   87TMC2     O 1358   2.837   0.644   0.419  0.2494 -0.0634 -0.1992
   87TMC2     H 1359   2.685   0.458   0.723  1.2537  0.2026  0.6455
   87TMC2    H1 1360   2.815   0.819   0.549 -0.0739 -1.0359 -0.7452
   87TMC2    H2 1361   2.852   0.770   0.953 -0.4108 -0.6617  1.1395
   87TMC2    C7 1362   2.836   0.953   0.780 -0.3955  0.1896 -0.1637
   87TMC2    C8 1363   2.728   0.532   0.952  0.4711 -0.5049 -0.1502
   87TMC2    O1 1364   2.796   1.027   0.687 -0.2379  0.0019 -0.6317
   87TMC2    O2 1365   2.734   0.411   0.941 -0.3595 -0.1716 -0.4106
   87TMC2    O5 1366   2.639   0.599   1.036 -0.4448 -0.4578  0.0374
   87TMC2    H5 1367   2.619   0.690   1.006  0.5394 -0.2268  0.0925
   88MPD2     C 1368   2.948   1.142   1.058  0.8234 -0.2192  0.3846
   88MPD2    C1 1369   2.872   1.116   0.950  0.6366 -0.0585 -0.9056
   88MPD2    C2 1370   2.760   1.186   0.929 -0.5963  0.2118 -0.0457
   88MPD2    C3 1371   2.734   1.299   1.003  0.7899  0.0041 -0.2529
   88MPD2    C4 1372   2.818   1.332   1.101 -0.3659  0.1583 -0.0518
   88MPD2    C5 1373   2.921   1.251   1.138 -0.1242 -0.5148  0.1541
   88MPD2     H 1374   2.682   1.151   0.862  0.2807  0.1993 -1.0695
   88MPD2    H1 1375   2.798   1.418   1.165 -0.6889  1.1423 -1.4614
   88MPD2    H2 1376   3.035   1.082   1.082  1.4138  0.4649 -0.0226
   88MPD2    H3 1377   2.980   1.277   1.225  0.9833 -1.0074 -0.4464
   88MPD2     N 1378   2.639   1.399   0.973 -0.0198  0.4455 -0.2642
   88MPD2    H5 1379   2.640   1.485   1.026 -0.3937  0.3518 -0.1052
   88MPD2    N1 1380   2.891   0.992   0.895  0.0193 -0.1554  0.3518
   88MPD2    H7 1381   2.954   0.931   0.945  0.2585 -0.7198 -0.6412
   89TMC2    C1 1382   3.737   4.105   1.544  0.2939  0.4010  0.6262
   89TMC2    C2 1383   3.871   4.144   1.541  0.5749 -0.1337  0.9153
   89TMC2    C3 1384   3.891   4.272   1.498 -0.5593 -0.5218 -0.4648
   89TMC2    C4 1385   3.635   4.195   1.515 -0.4856 -0.4302  0.0311
   89TMC2    C5 1386   3.667   4.312   1.453 -0.0181  0.1330  0.4308
   89TMC2    C6 1387   3.795   4.352   1.443  0.3291 -0.0020  1.3317
   89TMC2     C 1388   3.729   3.962   1.531  0.0232  0.0262 -0.3449
   89TMC2     O 1389   3.831   3.897   1.515 -0.3338 -0.5776  0.3816
   89TMC2     H 1390   3.958   4.086   1.569  1.1778  0.8331  1.0480
   89TMC2    H1 1391   3.531   4.169   1.527 -0.0476 -1.9008  0.6057
   89TMC2    H2 1392   3.819   4.449   1.401  1.0777  0.1744  2.1708
   89TMC2    C7 1393   3.557   4.390   1.391 -0.2593 -0.1991 -0.2676
   89TMC2    C8 1394   4.023   4.308   1.463  0.1820  0.6493 -0.9384
   89TMC2    O1 1395   3.445   4.371   1.435 -0.1511  0.0910 -0.1682
   89TMC2    O2 1396   4.094   4.251   1.381  0.0127  0.3092 -1.2291
   89TMC2    O5 1397   4.041   4.430   1.509 -0.3075  0.4082  0.6054
   89TMC2    H5 1398   3.975   4.432   1.581 -0.1870  3.2255  0.6143
   90MPD2     C 1399   3.411   3.568   1.447 -0.5423  0.0854  0.8367
   90MPD2    C1 1400   3.343   3.685   1.483 -0.3292  0.3353 -0.2501
   90MPD2    C2 1401   3.410   3.798   1.516 -1.0928  0.3529 -0.1251
   90MPD2    C3 1402   3.544   3.801   1.506  0.7316  0.4411 -0.1188
   90MPD2    C4 1403   3.616   3.686   1.483  0.1420  0.3426 -0.1844
   90MPD2    C5 1404   3.549   3.570   1.451 -0.1229 -0.6494  0.2874
   90MPD2     H 1405   3.345   3.878   1.549 -0.3560  0.7613  0.3262
   90MPD2    H1 1406   3.724   3.684   1.499  0.3083 -3.5072 -1.8527
   90MPD2    H2 1407   3.370   3.476   1.408  0.0851 -0.4027  1.3375
   90MPD2    H3 1408   3.598   3.475   1.431 -0.3610 -0.8048  0.4449
   90MPD2     N 1409   3.596   3.929   1.526  0.1849 -0.9951  0.8313
   90MPD2    H5 1410   3.524   3.995   1.554  1.7803  1.4889 -0.9061
   90MPD2    N1 1411   3.201   3.692   1.476  0.2214 -0.1271 -0.3745
   90MPD2    H7 1412   3.160   3.782   1.498  1.1285  0.0440  0.6184
   91TMC2    C1 1413   0.455   3.613  16.118 -0.0387 -0.4296  0.4547
   91TMC2    C2 1414   0.523   3.588  16.232  0.3618  0.1390  0.2885
   91TMC2    C3 1415   0.474   3.517  16.341 -0.1786 -0.0717  0.2432
   91TMC2    C4 1416   0.326   3.566  16.111 -0.0591  0.3059 -0.0535
   91TMC2    C5 1417   0.275   3.484  16.221  0.3510 -0.4067 -0.2507
   91TMC2    C6 1418   0.347   3.462  16.338  0.3602 -0.2565 -0.1586
   91TMC2     C 1419   0.514   3.695  16.013  0.6396 -0.2757  0.0560
   91TMC2     O 1420   0.435   3.766  15.947  0.0511 -0.2834  0.1591
   91TMC2     H 1421   0.616   3.642  16.247  0.5741 -0.1802  0.1197
   91TMC2    H1 1422   0.253   3.593  16.036  0.8437  0.9630 -0.6971
   91TMC2    H2 1423   0.304   3.416  16.427  0.8207 -0.1135  0.1372
   91TMC2    C7 1424   0.133   3.445  16.235  0.0507 -0.0752 -0.3402
   91TMC2    C8 1425   0.561   3.501  16.454 -0.4706 -0.6768 -0.2247
   91TMC2    O1 1426   0.103   3.379  16.339  0.1538 -0.3248 -0.2006
   91TMC2    O2 1427   0.660   3.573  16.461  0.6661 -0.2122  0.7093
   91TMC2    O5 1428   0.497   3.443  16.557  0.1390  0.1076 -0.1456
   91TMC2    H5 1429   0.450   3.364  16.523 -0.7245  1.0408 -1.1187
   92MPD2     C 1430   0.700   3.856  15.836  0.0740  0.3529 -0.0004
   92MPD2    C1 1431   0.743   3.755  15.923 -0.6540  0.3600 -0.3947
   92MPD2    C2 1432   0.878   3.733  15.939  0.7418 -0.2874  0.5265
   92MPD2    C3 1433   0.965   3.809  15.871  0.2252  0.0253  0.3004
   92MPD2    C4 1434   0.927   3.918  15.788  0.2352 -0.0852  0.4995
   92MPD2    C5 1435   0.792   3.929  15.763  0.5022 -0.7584  0.1844
   92MPD2     H 1436   0.905   3.650  16.004 -2.0140 -1.9619 -0.4536
   92MPD2    H1 1437   0.992   3.983  15.731  1.4954 -0.6665  1.2896
   92MPD2    H2 1438   0.594   3.867  15.814  0.3395  0.0650 -1.4403
   92MPD2    H3 1439   0.762   3.997  15.684  1.5762 -0.8008 -0.2535
   92MPD2     N 1440   1.102   3.783  15.878  0.3008  0.1734  0.2452
   92MPD2    H5 1441   1.169   3.858  15.863 -0.1003 -0.1746 -3.2356
   92MPD2    N1 1442   0.653   3.684  16.007  0.1817  0.3284  0.0097
   92MPD2    H7 1443   0.692   3.615  16.070  1.4558  2.0203  1.1168
   93TMC2    C1 1444   2.656   3.623  13.848  0.1359 -0.1643  0.3901
   93TMC2    C2 1445   2.668   3.498  13.785  0.0851 -0.2510 -0.1106
   93TMC2    C3 1446   2.792   3.453  13.763 -0.2520  0.2135 -0.0523
   93TMC2    C4 1447   2.771   3.696  13.886  0.1370  0.1085  0.1884
   93TMC2    C5 1448   2.890   3.640  13.854  0.3067  0.4408 -0.0678
   93TMC2    C6 1449   2.908   3.521  13.788  0.4153 -0.0974 -0.0751
   93TMC2     C 1450   2.539   3.702  13.832  0.6133 -0.4314 -0.0463
   93TMC2     O 1451   2.555   3.824  13.854 -0.2405 -0.1436 -0.2396
   93TMC2     H 1452   2.583   3.448  13.739 -0.1370 -1.1423  1.2753
   93TMC2    H1 1453   2.766   3.789  13.940 -2.3069  0.2023 -0.2128
   93TMC2    H2 1454   3.000   3.499  13.736 -0.2861 -1.0876 -0.8912
   93TMC2    C7 1455   3.005   3.726  13.842  0.5990 -0.1352  0.9571
   93TMC2    C8 1456   2.807   3.315  13.715  0.3382  0.3778 -0.1073
   93TMC2    O1 1457   3.117   3.682  13.856  0.2118 -0.1558 -0.0700
   93TMC2    O2 1458   2.716   3.240  13.675 -0.1507  0.3763  0.2538
   93TMC2    O5 1459   2.910   3.263  13.783 -0.2490  0.3816 -0.1412
   93TMC2    H5 1460   2.966   3.331  13.826  0.2000  1.0496 -1.7822
   94MPD2     C 1461   2.291   3.838  13.752  0.4532  0.2886 -0.8501
   94MPD2    C1 1462   2.300   3.699  13.775  0.4896  0.5918  0.5245
   94MPD2    C2 1463   2.191   3.614  13.750  0.2502  0.2493 -0.3224
   94MPD2    C3 1464   2.068   3.670  13.718 -0.3265  0.6350 -0.0819
   94MPD2    C4 1465   2.057   3.804  13.710  0.4255  1.1606 -1.1007
   94MPD2    C5 1466   2.166   3.885  13.712 -0.4082 -0.1020 -0.5651
   94MPD2     H 1467   2.203   3.506  13.749 -0.8110  0.1273  0.3719
   94MPD2    H1 1468   1.961   3.849  13.690 -0.4113 -0.6483 -1.2351
   94MPD2    H2 1469   2.374   3.908  13.751 -0.9576  1.9909  1.9712
   94MPD2    H3 1470   2.148   3.992  13.701  2.1780  0.4622  0.8424
   94MPD2     N 1471   1.946   3.597  13.719 -0.5703  0.2988  0.7284
   94MPD2    H5 1472   1.858   3.645  13.700  0.1726  1.0698 -0.7939
   94MPD2    N1 1473   2.422   3.632  13.804 -0.2930 -0.6311  0.2282
   94MPD2    H7 1474   2.422   3.531  13.810 -1.7255 -0.7944 -2.4877
   95TMC2    C1 1475   2.431   1.299  15.867 -0.1355  0.6501  0.4017
   95TMC2    C2 1476   2.364   1.206  15.951 -0.2942  0.4928 -0.0137
   95TMC2    C3 1477   2.350   1.232  16.088  0.2650  0.5128  0.5162
   95TMC2    C4 1478   2.468   1.416  15.918  0.6045  0.1873  0.0374
   95TMC2    C5 1479   2.450   1.437  16.054 -0.2202 -0.1287 -0.2499
   95TMC2    C6 1480   2.388   1.348  16.145 -0.1554 -0.9568  0.0984
   95TMC2     C 1481   2.509   1.240  15.760 -0.4304  0.2366 -0.6522
   95TMC2     O 1482   2.609   1.299  15.716 -0.1197 -0.2491 -0.0699
   95TMC2     H 1483   2.342   1.104  15.924 -0.4700  0.6404 -0.4265
   95TMC2    H1 1484   2.517   1.493  15.860 -1.5220  0.5144 -1.3429
   95TMC2    H2 1485   2.372   1.366  16.251  0.6824  1.3310 -0.1590
   95TMC2    C7 1486   2.490   1.564  16.107  0.0376  0.2245 -0.2871
   95TMC2    C8 1487   2.254   1.149  16.162 -0.0083 -0.0623 -0.1436
   95TMC2    O1 1488   2.573   1.633  16.049 -0.0874  0.4828 -0.7310
   95TMC2    O2 1489   2.249   1.031  16.148  0.1428 -0.0351  0.1111
   95TMC2    O5 1490   2.147   1.225  16.157 -0.1659 -0.2631 -0.3066
   95TMC2    H5 1491   2.172   1.319  16.141  1.9743 -0.5085  1.6647
   96MPD2     C 1492   2.554   0.884  15.408  0.3806 -0.3511  0.1147
   96MPD2    C1 1493   2.655   0.951  15.478  1.0442 -0.0066  0.3428
   96MPD2    C2 1494   2.617   1.039  15.574  0.9144 -1.1110 -0.7267
   96MPD2    C3 1495   2.488   1.039  15.613  0.5828  0.3392  0.3286
   96MPD2    C4 1496   2.404   0.936  15.577 -0.7855 -0.2588 -0.7048
   96MPD2    C5 1497   2.435   0.865  15.466  1.2970 -0.0768 -1.0024
   96MPD2     H 1498   2.689   1.111  15.611  0.5525 -0.5228 -1.1915
   96MPD2    H1 1499   2.305   0.925  15.620 -0.9119  0.6964 -0.7518
   96MPD2    H2 1500   2.580   0.827  15.319  1.3184  0.6464 -0.2512
   96MPD2    H3 1501   2.364   0.793  15.429  1.3155 -0.6562  0.1124
   96MPD2     N 1502   2.444   1.128  15.711 -0.6963  0.0894  0.2633
   96MPD2    H5 1503   2.346   1.122  15.736 -0.8577  0.4019 -0.3039
   96MPD2    N1 1504   2.791   0.945  15.423  0.0068 -0.5010 -0.2579
   96MPD2    H7 1505   2.810   0.889  15.341 -0.5373  0.2238 -0.8806
   97TMC2    C1 1506   4.047   3.426  17.471  0.2513 -0.0278  0.5086
   97TMC2    C2 1507   3.926   3.470  17.428 -0.0530  0.3636  0.2880
   97TMC2    C3 1508   3.916   3.521  17.300  0.6723 -0.0747  0.1035
   97TMC2    C4 1509   4.158   3.442  17.387  0.7382 -0.1945  0.9990
   97TMC2    C5 1510   4.150   3.490  17.255 -0.2359 -0.0630  0.6564
   97TMC2    C6 1511   4.025   3.541  17.213  0.0225 -0.2593  0.4411
   97TMC2     C 1512   4.064   3.397  17.612  0.6111  0.3272 -0.9903
   97TMC2     O 1513   3.962   3.352  17.665  0.0109  0.2059  0.6954
   97TMC2     H 1514   3.840   3.460  17.492  1.6319 -0.6199  2.3973
   97TMC2    H1 1515   4.249   3.405  17.433  0.8235 -0.9395  0.2318
   97TMC2    H2 1516   4.015   3.610  17.130 -2.6914 -1.9621 -0.6579
   97TMC2    C7 1517   4.268   3.546  17.206  0.9171 -0.7321 -0.1749
   97TMC2    C8 1518   3.783   3.582  17.279  0.3390 -0.2898 -0.0397
   97TMC2    O1 1519   4.357   3.576  17.285 -0.0579  0.5373 -0.1531
   97TMC2    O2 1520   3.775   3.679  17.200 -0.0519  0.2217  0.1947
   97TMC2    O5 1521   3.688   3.486  17.308  0.0408 -0.0782 -0.3113
   97TMC2    H5 1522   3.733   3.409  17.349  1.0219  1.2368  1.0919
   98MPD2     C 1523   4.232   3.458   0.342  0.3704 -0.3954 -0.5871
   98MPD2    C1 1524   4.140   3.376   0.292 -1.6102 -0.0414 -0.7338
   98MPD2    C2 1525   4.128   3.370   0.153 -0.0322  0.5075  0.1027
   98MPD2    C3 1526   4.198   3.451   0.065 -0.3361 -0.2215  0.7533
   98MPD2    C4 1527   4.295   3.533   0.121 -0.0360 -0.3211 -0.4830
   98MPD2    C5 1528   4.312   3.528   0.256  0.1255  0.1019  0.4779
   98MPD2     H 1529   4.048   3.307   0.116  1.5126 -1.7422  0.5388
   98MPD2    H1 1530   4.354   3.594   0.054 -1.5931  0.1429 -1.4406
   98MPD2    H2 1531   4.249   3.465   0.449 -1.7595  0.2245 -0.2864
   98MPD2    H3 1532   4.372   3.607   0.300  2.3200  0.3812 -3.0257
   98MPD2     N 1533   4.174   3.445  17.674  0.3026 -0.2837  0.4335
   98MPD2    H5 1534   4.231   3.509  17.620  0.4685 -0.8140 -0.0182
   98MPD2    N1 1535   4.051   3.300   0.382 -0.0892 -0.2944 -0.2019
   98MPD2    H7 1536   4.058   3.307   0.483 -1.0918  0.2206 -0.1706
   99TMC2    C1 1537   3.570   4.683   1.617 -0.0162 -0.0125  0.0340
   99TMC2    C2 1538   3.677   4.645   1.684  0.2832  0.3808 -0.2074
   99TMC2    C3 1539   3.667   4.545   1.777  1.0475  0.0383  0.0665
   99TMC2    C4 1540   3.445   4.633   1.650  0.5071 -0.7735  0.3229
   99TMC2    C5 1541   3.435   4.530   1.739 -0.9382  0.0259  0.1105
   99TMC2    C6 1542   3.549   4.476   1.801 -0.0899  0.7611 -0.0562
   99TMC2     C 1543   3.588   0.057   1.517  0.2089 -0.7415 -0.1686
   99TMC2     O 1544   3.698   0.111   1.506 -0.0061 -0.2299 -0.2677
   99TMC2     H 1545   3.772   4.687   1.654 -0.6879  1.1371 -2.2023
   99TMC2    H1 1546   3.358   4.692   1.623  0.4453  0.7016  3.7591
   99TMC2    H2 1547   3.531   4.377   1.843 -1.3871  0.3528 -1.5668
   99TMC2    C7 1548   3.308   4.467   1.765 -0.2579 -0.0481 -0.0502
   99TMC2    C8 1549   3.793   4.471   1.789 -0.8330 -0.3514  0.6176
   99TMC2    O1 1550   3.295   4.415   1.872  0.1433 -0.4522 -0.1713
   99TMC2    O2 1551   3.874   4.474   1.697  0.1907 -0.8104  0.3516
   99TMC2    O5 1552   3.778   4.371   1.883  0.1011  0.1688 -0.0245
   99TMC2    H5 1553   3.717   4.396   1.955  0.6695  2.0570 -0.1939
  100MPD2     C 1554   3.571   0.271   1.313  0.3038 -0.8046  0.2453
  100MPD2    C1 1555   3.491   0.158   1.317 -0.2110  0.0096  0.0580
  100MPD2    C2 1556   3.395   0.147   1.218 -0.0041 -0.2719  0.0680
  100MPD2    C3 1557   3.383   0.230   1.107  0.3830  0.1490  0.2242
  100MPD2    C4 1558   3.469   0.334   1.105  0.3464  0.7677  0.2083
  100MPD2    C5 1559   3.553   0.360   1.212  0.0218 -0.1686 -0.4107
  100MPD2     H 1560   3.318   0.072   1.227 -0.0547 -0.4806 -2.0395
  100MPD2    H1 1561   3.469   0.404   1.022  2.5969  1.0557  0.4301
  100MPD2    H2 1562   3.649   0.294   1.384  0.1295 -0.2088  0.2445
  100MPD2    H3 1563   3.616   0.448   1.223 -1.3860  0.8230 -0.1547
  100MPD2     N 1564   3.292   0.193   1.010  0.1071  0.0178  0.1248
  100MPD2    H5 1565   3.233   0.112   1.026  0.1306  0.4919  2.5216
  100MPD2    N1 1566   3.484   0.072   1.427 -0.3460  0.4617 -0.0794
  100MPD2    H7 1567   3.404   0.012   1.445  0.6779 -0.7326  0.5494
  101TMC2    C1 1568   4.210   1.307  13.262  0.2087 -0.5913  0.1634
  101TMC2    C2 1569   4.223   1.343  13.394 -0.1964  0.4074 -0.2510
  101TMC2    C3 1570   4.302   1.456  13.426  0.0235  0.1871  0.1957
  101TMC2    C4 1571   4.275   1.372  13.164 -0.1269  0.6457 -0.5302
  101TMC2    C5 1572   4.360   1.480  13.201  0.0977  0.3728 -0.5199
  101TMC2    C6 1573   4.372   1.521  13.330  0.8407  0.3458  0.7355
  101TMC2     C 1574   4.088   1.228  13.229  0.0807 -0.4019 -0.1283
  101TMC2     O 1575   4.011   1.218  13.323  0.7825 -0.0018  0.5554
  101TMC2     H 1576   4.165   1.290  13.468  1.1253  1.5996  1.6396
  101TMC2    H1 1577   4.260   1.353  13.059 -3.3252  0.6812 -0.0904
  101TMC2    H2 1578   4.419   1.614  13.361 -3.1109  2.7911 -0.5857
  101TMC2    C7 1579   4.430   1.549  13.101 -0.2479  0.3794  0.9816
  101TMC2    C8 1580   4.307   1.508  13.557 -0.1926  0.0606 -0.2938
  101TMC2    O1 1581   4.387   1.529  12.987 -0.1646  1.1094  0.9664
  101TMC2    O2 1582   4.417   1.536  13.603  0.4408 -0.1444  0.0009
  101TMC2    O5 1583   4.190   1.482  13.620 -0.2211 -0.2300 -0.3645
  101TMC2    H5 1584   4.113   1.448  13.568 -0.3560 -0.9473  0.3060
  102MPD2     C 1585   3.969   1.084  12.908 -0.3532 -1.0088  0.1768
  102MPD2    C1 1586   3.979   1.101  13.045 -0.4074 -0.6851  0.0197
  102MPD2    C2 1587   3.871   1.047  13.119  0.6656 -0.1192 -0.8866
  102MPD2    C3 1588   3.763   0.985  13.060 -0.3063  0.4975 -0.9475
  102MPD2    C4 1589   3.769   0.964  12.917  0.8779  0.5477 -0.4296
  102MPD2    C5 1590   3.873   1.011  12.849 -0.5744 -0.1820  0.4111
  102MPD2     H 1591   3.856   1.051  13.226 -0.6136 -4.1099 -0.9004
  102MPD2    H1 1592   3.695   0.911  12.858 -0.5580 -1.2446  2.9397
  102MPD2    H2 1593   4.050   1.120  12.847 -0.7212  0.0136  0.3028
  102MPD2    H3 1594   3.873   1.004  12.741  2.1203 -1.9753  0.5070
  102MPD2     N 1595   3.656   0.941  13.139  0.0907  0.5069 -0.3147
  102MPD2    H5 1596   3.648   0.973  13.235 -2.2862 -0.7007 -0.0986
  102MPD2    N1 1597   4.085   1.179  13.099  0.8122 -0.0070 -0.2789
  102MPD2    H7 1598   4.149   1.221  13.032 -0.8789  1.7003 -0.8073
  103TMC2    C1 1599   1.947   1.143  12.015 -0.5949  0.1125  0.5336
  103TMC2    C2 1600   2.018   1.243  11.954  0.1657  0.5560 -0.9222
  103TMC2    C3 1601   2.098   1.322  12.027  0.0756 -0.5831 -0.2554
  103TMC2    C4 1602   1.953   1.136  12.154 -0.2697  0.0191  0.0098
  103TMC2    C5 1603   2.034   1.228  12.220 -0.2998 -0.3810 -0.0646
  103TMC2    C6 1604   2.111   1.323  12.161  0.3891  0.1804  0.4214
  103TMC2     C 1605   1.823   1.096  11.958 -0.1757  0.3046  0.7099
  103TMC2     O 1606   1.772   1.172  11.879 -0.0068  0.4141 -0.2438
  103TMC2     H 1607   2.026   1.241  11.846  1.3850  2.6461 -0.8854
  103TMC2    H1 1608   1.894   1.066  12.212  0.0028  1.5000  2.0610
  103TMC2    H2 1609   2.178   1.394  12.208  1.0876  0.8623 -1.5989
  103TMC2    C7 1610   2.044   1.207  12.360 -0.7913 -0.8980  0.0394
  103TMC2    C8 1611   2.201   1.395  11.950  0.3597  0.8330 -0.5484
  103TMC2    O1 1612   1.954   1.154  12.421  1.1908 -0.0092 -0.3259
  103TMC2    O2 1613   2.310   1.418  11.989  0.5104  0.5863 -0.6785
  103TMC2    O5 1614   2.141   1.477  11.865 -0.1314 -0.1123  0.9392
  103TMC2    H5 1615   2.045   1.484  11.884 -0.6451  1.0872 -1.9807
  104MPD2     C 1616   1.686   0.753  12.003  0.0957  0.1694  0.0533
  104MPD2    C1 1617   1.687   0.882  11.960  0.3733 -0.4061  0.3365
  104MPD2    C2 1618   1.577   0.937  11.908  0.3918  0.2857  0.2972
  104MPD2    C3 1619   1.455   0.869  11.917  0.5470  0.4644  0.0137
  104MPD2    C4 1620   1.454   0.737  11.957 -0.2080  0.0676  0.0473
  104MPD2    C5 1621   1.575   0.680  11.987  0.0771  0.5824  0.0032
  104MPD2     H 1622   1.586   1.041  11.877 -0.5668 -0.5469 -2.7023
  104MPD2    H1 1623   1.360   0.686  11.977  0.9800 -2.3494 -0.4503
  104MPD2    H2 1624   1.776   0.718  12.051  1.1050  1.4047 -0.9545
  104MPD2    H3 1625   1.580   0.579  12.026  0.4269  0.5594 -0.0979
  104MPD2     N 1626   1.339   0.941  11.884  0.2129 -0.3804  0.3840
  104MPD2    H5 1627   1.354   1.039  11.861  0.7160 -0.2121  1.4243
  104MPD2    N1 1628   1.803   0.961  11.995  0.1068 -0.1729 -0.0593
  104MPD2    H7 1629   1.881   0.915  12.041  0.5283 -0.0477 -0.6533
  105TMC2    C1 1630   3.018   0.406  17.422  0.2940 -0.7572  0.3464
  105TMC2    C2 1631   3.025   0.543  17.428 -0.9557  0.7416  0.2737
  105TMC2    C3 1632   2.927   0.605  17.497  0.7057 -0.2127 -0.0866
  105TMC2    C4 1633   2.909   0.335  17.468  0.2527  0.5363  0.2418
  105TMC2    C5 1634   2.812   0.403  17.532  0.5700 -0.5876  0.0400
  105TMC2    C6 1635   2.824   0.538  17.555 -0.4658  0.6805  0.1695
  105TMC2     C 1636   3.110   0.346  17.334  0.5993 -0.8600  0.0722
  105TMC2     O 1637   3.091   0.225  17.319 -0.0233  0.4770  0.3557
  105TMC2     H 1638   3.115   0.601  17.409 -0.3951  0.5661  2.3806
  105TMC2    H1 1639   2.893   0.230  17.448 -2.0587  1.0734 -0.7244
  105TMC2    H2 1640   2.752   0.598  17.608 -2.6494 -1.0255 -0.8776
  105TMC2    C7 1641   2.749   0.321  17.643 -0.0821  0.5224  0.7726
  105TMC2    C8 1642   2.924   0.751  17.515 -0.2077  0.0292 -0.0779
  105TMC2    O1 1643   2.744   0.204  17.626  0.5183  0.4361 -0.4263
  105TMC2    O2 1644   2.883   0.809  17.613 -0.1196 -0.2699  0.2646
  105TMC2    O5 1645   2.975   0.810  17.400 -0.1861 -0.0338 -0.1661
  105TMC2    H5 1646   2.983   0.745  17.327 -0.9022  0.8087 -0.9766
  106MPD2     C 1647   3.500   0.332  16.997 -0.1732 -0.1932 -0.0891
  106MPD2    C1 1648   3.467   0.462  17.032  0.8239 -0.1693  0.1440
  106MPD2    C2 1649   3.363   0.493  17.114 -0.1396  0.0089 -0.2233
  106MPD2    C3 1650   3.285   0.394  17.167 -0.3933  0.0722 -0.8004
  106MPD2    C4 1651   3.304   0.268  17.126  0.0874  0.2024 -0.4387
  106MPD2    C5 1652   3.416   0.236  17.051 -0.3052  0.6448  0.4906
  106MPD2     H 1653   3.345   0.592  17.154 -1.9727 -0.6193  0.4701
  106MPD2    H1 1654   3.243   0.182  17.154 -2.6232  1.8015 -1.4179
  106MPD2    H2 1655   3.574   0.307  16.922 -1.2781 -2.5217 -0.4313
  106MPD2    H3 1656   3.422   0.136  17.011 -0.0326  0.5177  0.8525
  106MPD2     N 1657   3.188   0.433  17.261 -0.2731  0.3653 -0.5279
  106MPD2    H5 1658   3.181   0.532  17.280  0.8299  0.3368 -0.0212
  106MPD2    N1 1659   3.549   0.567  16.992 -0.7922 -0.1573  0.7766
  106MPD2    H7 1660   3.513   0.661  17.000  0.1236  0.1729  1.0737
  107TMC2    C1 1661   3.997   0.446  11.590 -0.1378 -0.0315  0.4726
  107TMC2    C2 1662   4.024   0.539  11.688  0.1817  0.1706  0.1194
  107TMC2    C3 1663   4.135   0.612  11.662  0.5300 -0.0873 -0.2587
  107TMC2    C4 1664   4.057   0.435  11.473  0.6954  0.1374  0.4973
  107TMC2    C5 1665   4.170   0.505  11.455  0.5717  0.0066  0.1778
  107TMC2    C6 1666   4.211   0.595  11.546 -0.0478  0.6168  0.0471
  107TMC2     C 1667   3.867   0.377  11.608  0.0151 -0.2110 -0.7260
  107TMC2     O 1668   3.856   0.332  11.720 -0.1054  0.1522  0.4794
  107TMC2     H 1669   3.961   0.545  11.777 -0.5318  2.7438 -0.5778
  107TMC2    H1 1670   4.019   0.362  11.403 -1.0726 -0.0381  1.6534
  107TMC2    H2 1671   4.297   0.658  11.526  0.3991 -0.1954 -0.5836
  107TMC2    C7 1672   4.239   0.504  11.322  0.2189 -0.8441  0.0865
  107TMC2    C8 1673   4.179   0.718  11.755  0.4163  0.3646  0.0145
  107TMC2    O1 1674   4.297   0.608  11.296 -0.3712  0.1456  0.0698
  107TMC2    O2 1675   4.250   0.811  11.716 -0.2531 -0.2372  0.0481
  107TMC2    O5 1676   4.168   0.679  11.884 -0.2639  0.0551 -0.2415
  107TMC2    H5 1677   4.086   0.633  11.913 -0.4534  0.6382  0.1550
  108MPD2     C 1678   3.542   0.430  11.419 -0.7905  0.3121 -0.7024
  108MPD2    C1 1679   3.631   0.395  11.523 -0.0366 -0.0446  0.4503
  108MPD2    C2 1680   3.571   0.351  11.644 -0.5765 -0.1406  0.1513
  108MPD2    C3 1681   3.432   0.336  11.648 -0.4244  0.7426  0.7238
  108MPD2    C4 1682   3.347   0.355  11.542  0.1404 -0.0684 -0.3489
  108MPD2    C5 1683   3.407   0.406  11.428  0.3568  0.3673 -0.0793
  108MPD2     H 1684   3.631   0.341  11.734  0.0309  1.7848 -0.0364
  108MPD2    H1 1685   3.246   0.317  11.542  0.0743  0.1017 -1.9982
  108MPD2    H2 1686   3.575   0.470  11.323 -3.3789  2.8142 -0.5768
  108MPD2    H3 1687   3.357   0.429  11.335  1.2606  2.7879  0.0272
  108MPD2     N 1688   3.360   0.298  11.766  0.1730  0.5258 -0.5117
  108MPD2    H5 1689   3.260   0.311  11.759  0.0701 -0.5065 -1.0265
  108MPD2    N1 1690   3.772   0.417  11.514  0.1550  0.9133 -0.3356
  108MPD2    H7 1691   3.806   0.457  11.427  1.7188  1.2983  0.4467
  109TMC2    C1 1692   3.100   2.247   0.121  0.8013  0.3013 -0.2322
  109TMC2    C2 1693   3.013   2.320   0.045 -0.1492 -0.3685 -0.3781
  109TMC2    C3 1694   3.027   2.454   0.055 -0.0384 -0.5573 -0.6667
  109TMC2    C4 1695   3.200   2.304   0.198  0.2357 -0.0078  0.1761
  109TMC2    C5 1696   3.210   2.439   0.201 -0.4706  0.2062  0.2035
  109TMC2    C6 1697   3.119   2.518   0.140 -0.1525 -0.0456 -0.0518
  109TMC2     C 1698   3.067   2.107   0.125 -0.0294  0.4842  0.3958
  109TMC2     O 1699   3.010   2.060   0.031 -0.1812  0.2963  0.1268
  109TMC2     H 1700   2.939   2.271  17.734 -0.7340 -1.6801  1.3776
  109TMC2    H1 1701   3.278   2.251   0.252 -0.2702 -1.8085 -0.9130
  109TMC2    H2 1702   3.136   2.624   0.127 -0.3072 -0.1430 -1.0992
  109TMC2    C7 1703   3.287   2.523   0.295  0.4298  0.0150  0.3301
  109TMC2    C8 1704   2.925   2.543  17.747 -0.0101  0.0412  0.2377
  109TMC2    O1 1705   3.309   2.639   0.271  0.6738 -0.1184  0.2273
  109TMC2    O2 1706   2.893   2.646   0.050  0.1687 -0.3325  0.2105
  109TMC2    O5 1707   2.861   2.478  17.647 -0.5487  0.4980 -0.3735
  109TMC2    H5 1708   2.909   2.407  17.601  0.0053  1.1870 -0.8573
  110MPD2     C 1709   2.917   1.702   0.403 -0.8098 -0.3665  0.6794
  110MPD2    C1 1710   2.965   1.792   0.491 -0.8814 -0.7526 -0.3686
  110MPD2    C2 1711   3.021   1.913   0.437 -0.0790  0.3358 -0.2621
  110MPD2    C3 1712   3.032   1.929   0.296 -1.4084  0.1191 -0.0535
  110MPD2    C4 1713   2.982   1.826   0.212 -0.6666 -0.1011  0.1608
  110MPD2    C5 1714   2.931   1.711   0.265  0.6193  0.6353 -0.3391
  110MPD2     H 1715   3.044   2.000   0.497 -2.0572 -0.5170  1.7064
  110MPD2    H1 1716   2.982   1.832   0.104  1.8748  0.0332  0.1743
  110MPD2    H2 1717   2.872   1.608   0.433  0.4826 -1.5071 -0.9022
  110MPD2    H3 1718   2.889   1.637   0.198  0.2421 -0.6829  1.3590
  110MPD2     N 1719   3.070   2.057   0.252  0.0090 -0.1742 -0.4570
  110MPD2    H5 1720   3.091   2.123   0.326  0.7928  0.4125 -1.2091
  110MPD2    N1 1721   2.962   1.767   0.630 -0.3217 -0.0614  1.0037
  110MPD2    H7 1722   2.929   1.675   0.657  0.5400 -0.6781 -0.0524
  111TMC2    C1 1723   3.776   1.942  11.711  0.0018 -0.0614  0.5160
  111TMC2    C2 1724   3.684   1.870  11.784  0.2586 -0.0288 -0.0077
  111TMC2    C3 1725   3.731   1.779  11.875 -0.8046  0.4657 -0.3373
  111TMC2    C4 1726   3.912   1.923  11.734 -0.2065  0.9424 -0.1091
  111TMC2    C5 1727   3.952   1.831  11.832  0.3253  0.1160  0.0095
  111TMC2    C6 1728   3.860   1.749  11.894 -0.2803  0.9580 -0.1108
  111TMC2     C 1729   3.743   2.028  11.598 -0.8891 -0.1126 -0.6898
  111TMC2     O 1730   3.823   2.034  11.507  0.3629 -0.0731 -0.1684
  111TMC2     H 1731   3.577   1.890  11.785  0.2404  0.0245 -2.2004
  111TMC2    H1 1732   3.989   1.976  11.679  1.3375 -0.9496  0.2424
  111TMC2    H2 1733   3.892   1.670  11.962 -0.3106  1.0811  0.0477
  111TMC2    C7 1734   4.082   1.824  11.886  0.1456  0.1406 -0.6445
  111TMC2    C8 1735   3.633   1.702  11.954  0.5201 -0.1804 -0.5104
  111TMC2    O1 1736   4.085   1.790  12.004  0.4452  0.3275 -0.2353
  111TMC2    O2 1737   3.531   1.657  11.904 -0.4676 -0.5726 -0.4763
  111TMC2    O5 1738   3.680   1.688  12.080  0.4212  0.2126  0.1829
  111TMC2    H5 1739   3.760   1.739  12.105  0.8683 -0.0706 -0.6738
  112MPD2     C 1740   3.395   2.316  11.360  0.3117 -0.2298 -0.1316
  112MPD2    C1 1741   3.501   2.250  11.310  0.3445  0.1038  0.0922
  112MPD2    C2 1742   3.572   2.166  11.395 -0.5600 -0.2341 -0.0980
  112MPD2    C3 1743   3.549   2.168  11.532  0.3770  0.0663 -0.8554
  112MPD2    C4 1744   3.448   2.241  11.587 -0.5439 -0.2525  0.4149
  112MPD2    C5 1745   3.374   2.306  11.494  0.2158  0.2724  0.1228
  112MPD2     H 1746   3.652   2.107  11.351  0.1045  0.8851 -0.4035
  112MPD2    H1 1747   3.430   2.237  11.694  1.0172 -0.1709  0.6863
  112MPD2    H2 1748   3.335   2.387  11.305 -1.0132  0.7484  2.5699
  112MPD2    H3 1749   3.288   2.363  11.530  1.9105  2.6431  0.4218
  112MPD2     N 1750   3.617   2.080  11.618 -0.3410  0.1838  0.7185
  112MPD2    H5 1751   3.580   2.072  11.713  0.4238  2.2815  1.1740
  112MPD2    N1 1752   3.542   2.247  11.171 -0.0624 -0.4206  0.0518
  112MPD2    H7 1753   3.636   2.210  11.158 -0.9038 -1.7544 -2.2951
  113TMC2    C1 1754   1.531   4.624   0.441 -0.2122  0.1369  0.3017
  113TMC2    C2 1755   1.429   4.662   0.522  0.5596  0.4028  0.1585
  113TMC2    C3 1756   1.318   4.586   0.525 -0.1340 -0.7345 -0.4972
  113TMC2    C4 1757   1.517   4.514   0.352  0.1399 -0.0583 -0.4394
  113TMC2    C5 1758   1.421   4.422   0.388  0.1640  0.9419  0.0890
  113TMC2    C6 1759   1.325   4.452   0.484 -0.4969 -0.2728 -0.6851
  113TMC2     C 1760   1.660   4.635   0.506 -0.0563 -0.1565 -0.4045
  113TMC2     O 1761   1.694   4.732   0.574 -0.7882 -0.1098 -0.3080
  113TMC2     H 1762   1.437   0.007   0.592  2.1664  1.1728 -0.9458
  113TMC2    H1 1763   1.590   4.495   0.275  0.4949  1.5440 -0.4860
  113TMC2    H2 1764   1.249   4.382   0.515 -0.2169  0.1393  0.9351
  113TMC2    C7 1765   1.486   4.285   0.386  0.0950  0.5863 -0.0504
  113TMC2    C8 1766   1.228   4.621   0.626  0.5299  0.7169 -0.2402
  113TMC2    O1 1767   1.608   4.288   0.356 -0.0827  0.2677  0.1758
  113TMC2    O2 1768   1.159   4.539   0.672  0.0006  0.1051  0.4222
  113TMC2    O5 1769   1.182   0.006   0.616 -0.2629 -0.5549  0.2683
  113TMC2    H5 1770   1.229   0.060   0.549 -2.5019  0.4118 -0.5137
  114MPD2     C 1771   2.095   4.376   0.637 -1.0158  0.2308 -0.0193
  114MPD2    C1 1772   2.066   4.517   0.636 -0.0860 -0.0648  0.0359
  114MPD2    C2 1773   1.947   4.564   0.599  0.2328  0.2003 -0.0452
  114MPD2    C3 1774   1.855   4.481   0.534 -0.7234  0.2704 -0.7052
  114MPD2    C4 1775   1.876   4.341   0.544  0.3459  0.3545 -0.0139
  114MPD2    C5 1776   1.996   4.294   0.593  0.3639  0.3034  0.5353
  114MPD2     H 1777   1.926   4.670   0.603  1.0984  0.4662 -2.3096
  114MPD2    H1 1778   1.795   4.274   0.517  1.5284 -0.5676 -1.2466
  114MPD2    H2 1779   2.179   4.322   0.678  0.7588  2.8155 -0.2645
  114MPD2    H3 1780   2.012   4.187   0.589  0.4866  0.3481 -0.0833
  114MPD2     N 1781   1.728   4.518   0.496 -0.2561 -0.1017  0.4053
  114MPD2    H5 1782   1.669   4.441   0.467  0.7278 -0.6521 -0.1101
  114MPD2    N1 1783   2.164   4.609   0.679  0.3357 -0.5090  0.2825
  114MPD2    H7 1784   2.138   4.705   0.701  0.8896 -0.2665 -0.1181
  115TMC2    C1 1785   3.084   2.795  17.437  0.0550  0.0123 -0.6970
  115TMC2    C2 1786   3.212   2.772  17.407  0.5504 -0.5234 -0.0135
  115TMC2    C3 1787   3.304   2.871  17.429  0.1462  0.0194 -0.4097
  115TMC2    C4 1788   3.048   2.922  17.479  0.3445  0.5997  0.4983
  115TMC2    C5 1789   3.142   3.022  17.504  0.8575  0.0499  0.0872
  115TMC2    C6 1790   3.269   2.994  17.482 -0.6160  0.8940  0.4925
  115TMC2     C 1791   2.991   2.684  17.414 -0.4775 -0.3897 -0.4487
  115TMC2     O 1792   3.031   2.597  17.337 -0.0508 -0.6622 -1.1044
  115TMC2     H 1793   3.251   2.678  17.371 -1.8297 -1.7571  0.6259
  115TMC2    H1 1794   2.948   2.951  17.509  0.0062  0.0424 -0.0875
  115TMC2    H2 1795   3.350   3.063  17.503 -1.1117  2.0467 -1.4130
  115TMC2    C7 1796   3.088   3.155  17.505 -0.0675  0.0233 -0.0599
  115TMC2    C8 1797   3.441   2.828  17.433 -0.3090  0.0186 -0.9194
  115TMC2    O1 1798   2.972   3.167  17.542 -0.1266 -0.3146  0.8355
  115TMC2    O2 1799   3.466   2.707  17.450 -0.2279  0.0956 -0.4312
  115TMC2    O5 1800   3.516   2.919  17.362 -0.3355 -0.1047  0.0286
  115TMC2    H5 1801   3.488   3.013  17.355 -0.6610 -0.4061 -2.7464
  116MPD2     C 1802   2.494   2.542  17.434  0.5953 -0.5275  0.2409
  116MPD2    C1 1803   2.596   2.476  17.383 -0.6713  0.3010  0.1488
  116MPD2    C2 1804   2.718   2.536  17.371 -0.6404 -0.4734  0.5445
  116MPD2    C3 1805   2.738   2.670  17.418  0.8808  0.2286 -0.7030
  116MPD2    C4 1806   2.629   2.735  17.465  0.5384  0.0139 -0.2862
  116MPD2    C5 1807   2.505   2.671  17.473 -0.1202 -0.1326 -0.5824
  116MPD2     H 1808   2.803   2.499  17.314  0.0879 -0.8230  1.8547
  116MPD2    H1 1809   2.625   2.838  17.501  0.0564  0.4385 -1.5632
  116MPD2    H2 1810   2.396   2.498  17.444 -0.1706  1.0804 -0.2200
  116MPD2    H3 1811   2.424   2.728  17.518  0.4431 -0.9184  1.4636
  116MPD2     N 1812   2.864   2.737  17.421 -0.3492 -0.0066 -0.1019
  116MPD2    H5 1813   2.862   2.838  17.437 -0.2567 -0.0824  0.3849
  116MPD2    N1 1814   2.565   2.347  17.324  0.3199 -0.0897 -0.5443
  116MPD2    H7 1815   2.468   2.326  17.306  0.5886 -1.7197 -0.1569
  117TMC2    C1 1816   1.447   3.932  13.865 -0.1105  0.0137 -0.4681
  117TMC2    C2 1817   1.501   3.809  13.871  0.2469 -0.2794 -0.1380
  117TMC2    C3 1818   1.609   3.796  13.960  0.0564 -0.7334  1.0642
  117TMC2    C4 1819   1.491   4.040  13.939  0.0791 -0.1955  0.0866
  117TMC2    C5 1820   1.602   4.015  14.019 -0.5156  0.0760  0.0524
  117TMC2    C6 1821   1.657   3.894  14.039 -0.7174 -0.4143 -0.0004
  117TMC2     C 1822   1.324   3.943  13.791  0.0663  0.4903  0.0189
  117TMC2     O 1823   1.298   3.845  13.721 -0.5752 -0.2985  0.0842
  117TMC2     H 1824   1.466   3.725  13.812 -0.0294  0.7157 -1.3860
  117TMC2    H1 1825   1.459   4.143  13.926 -0.1225 -0.3374 -0.5448
  117TMC2    H2 1826   1.757   3.879  14.079 -0.5913 -0.8271 -0.4689
  117TMC2    C7 1827   1.686   4.128  14.060  0.3554  0.1407  0.7183
  117TMC2    C8 1828   1.673   3.665  13.969 -0.4774  0.2218 -0.4957
  117TMC2    O1 1829   1.683   4.221  13.982  0.6945 -0.4065  0.5809
  117TMC2    O2 1830   1.792   3.651  14.005 -0.1736  0.4493  0.4199
  117TMC2    O5 1831   1.597   3.574  13.914 -0.2386 -0.0760 -0.5654
  117TMC2    H5 1832   1.504   3.598  13.894 -1.6635 -3.4875  1.9571
  118MPD2     C 1833   1.953   4.125  14.316 -0.6363 -0.0389 -0.3139
  118MPD2    C1 1834   1.878   4.167  14.209  0.0216 -0.2752  0.6648
  118MPD2    C2 1835   1.920   4.290  14.155  1.0980  0.2108 -0.2758
  118MPD2    C3 1836   2.029   4.360  14.198 -0.3081  0.1684 -0.6385
  118MPD2    C4 1837   2.106   4.306  14.292 -0.0230  0.5596  0.6331
  118MPD2    C5 1838   2.063   4.196  14.360 -0.2814  0.1850  0.1975
  118MPD2     H 1839   1.860   4.344  14.082  0.8394  0.9186  0.4618
  118MPD2    H1 1840   2.198   4.348  14.331 -0.6175  1.0024  1.5520
  118MPD2    H2 1841   1.934   4.026  14.357  0.6939 -0.4968 -0.8197
  118MPD2    H3 1842   2.125   4.163  14.442  2.2119  1.8198 -1.0267
  118MPD2     N 1843   2.074   4.484  14.145 -0.1391  0.3171  0.8549
  118MPD2    H5 1844   2.158   4.517  14.191 -1.0168  4.1877 -0.2522
  118MPD2    N1 1845   1.770   4.090  14.165 -0.8760 -0.0051 -0.1155
  118MPD2    H7 1846   1.751   4.004  14.216  2.3972 -0.3173  0.5457
  119TMC2    C1 1847   4.428   0.811  13.109 -0.2624  0.6306  0.0766
  119TMC2    C2 1848   4.428   0.896  13.003 -0.6455 -0.1176 -0.3217
  119TMC2    C3 1849   4.312   0.896  12.927  0.6442  0.1573 -0.3514
  119TMC2    C4 1850   4.332   0.722  13.129  0.6935  0.2910  0.0729
  119TMC2    C5 1851   4.221   0.728  13.045 -1.0797  0.1283 -0.0226
  119TMC2    C6 1852   4.204   0.806  12.934  0.0074  0.4881 -0.0927
  119TMC2     C 1853   4.534   0.826  13.211 -0.0369 -0.5408  0.0950
  119TMC2     O 1854   4.503   0.795  13.326  0.4890 -0.3630 -0.3490
  119TMC2     H 1855   4.489   0.984  12.987 -0.2947 -0.0750  1.3245
  119TMC2    H1 1856   4.343   0.657  13.215  2.2453 -0.0285 -0.3709
  119TMC2    H2 1857   4.115   0.805  12.873  0.3099  2.1892 -0.5571
  119TMC2    C7 1858   4.102   0.656  13.087 -0.2549  0.1669  0.7512
  119TMC2    C8 1859   4.306   0.999  12.824 -0.0129  0.5838 -0.1800
  119TMC2    O1 1860   4.010   0.660  13.004  0.1005  0.1282  0.0484
  119TMC2    O2 1861   4.350   1.111  12.833  0.2746 -0.2294  0.4286
  119TMC2    O5 1862   4.247   0.948  12.715  0.3749  0.3913  0.1562
  119TMC2    H5 1863   4.226   0.852  12.723  1.2860  0.1078 -0.9438
  120MPD2     C 1864   0.255   0.940  13.384 -0.3485 -0.1406 -0.6615
  120MPD2    C1 1865   0.141   0.901  13.448 -0.0629 -0.3848  0.5418
  120MPD2    C2 1866   0.023   0.907  13.374 -0.0631  0.0394  0.5304
  120MPD2    C3 1867   0.018   0.924  13.240  0.1913  0.0888 -0.0413
  120MPD2    C4 1868   0.132   0.949  13.167 -0.4536  0.1867 -0.0084
  120MPD2    C5 1869   0.248   0.958  13.247  0.0223  0.4976  0.0765
  120MPD2     H 1870   4.660   0.907  13.415  0.6433 -0.9380  2.3045
  120MPD2    H1 1871   0.145   0.944  13.060 -1.5760  3.1116 -0.2580
  120MPD2    H2 1872   0.356   0.941  13.424 -0.8388  0.5892  0.5790
  120MPD2    H3 1873   0.343   0.983  13.202  0.3556  3.2495  2.2999
  120MPD2     N 1874   4.644   0.887  13.160  0.6944 -0.0728 -1.0361
  120MPD2    H5 1875   4.647   0.894  13.058 -1.1434  1.2311 -0.9909
  120MPD2    N1 1876   0.141   0.869  13.583 -0.4442 -0.4272  0.1346
  120MPD2    H7 1877   0.222   0.906  13.632 -2.0515  0.9648  1.7314
  121TMC2    C1 1878   1.613   2.371  14.017  0.0145 -0.1607  0.2788
  121TMC2    C2 1879   1.626   2.265  14.099  0.3082 -0.0629  0.4251
  121TMC2    C3 1880   1.503   2.216  14.140 -0.0651 -0.5617 -0.7197
  121TMC2    C4 1881   1.495   2.421  13.966  0.5154  0.4626 -0.6670
  121TMC2    C5 1882   1.377   2.364  14.003  0.9138 -0.4125 -0.4042
  121TMC2    C6 1883   1.379   2.257  14.091 -0.2482 -0.5843  0.0401
  121TMC2     C 1884   1.743   2.428  13.964  0.2502 -0.2086  0.0360
  121TMC2     O 1885   1.845   2.418  14.030 -0.5250  0.2422  0.1396
  121TMC2     H 1886   1.719   2.227  14.140 -0.5290 -0.0731  2.3257
  121TMC2    H1 1887   1.489   2.515  13.914  0.1210 -0.7864 -2.8695
  121TMC2    H2 1888   1.284   2.212  14.119 -0.8528  0.3518 -0.4952
  121TMC2    C7 1889   1.261   2.411  13.928  0.4020  0.3475 -0.8940
  121TMC2    C8 1890   1.511   2.108  14.232  0.4978  0.3695 -0.2480
  121TMC2    O1 1891   1.278   2.457  13.817 -0.5879 -0.1034 -0.2920
  121TMC2    O2 1892   1.619   2.081  14.289 -0.0630  0.3716  0.1585
  121TMC2    O5 1893   1.415   2.019  14.213  0.2142  0.0450 -0.1576
  121TMC2    H5 1894   1.365   2.024  14.129 -1.2339  0.7349  0.7548
  122MPD2     C 1895   1.960   2.569  13.797  0.4086 -0.2794  0.2243
  122MPD2    C1 1896   1.834   2.526  13.748 -0.6013 -0.3341  0.1242
  122MPD2    C2 1897   1.809   2.550  13.618  0.5110  0.5522  0.4089
  122MPD2    C3 1898   1.899   2.613  13.538  0.2567 -0.8313  0.0436
  122MPD2    C4 1899   2.022   2.656  13.579  0.1331 -0.2498 -0.3190
  122MPD2    C5 1900   2.045   2.636  13.718  0.2985 -0.1389  0.3290
  122MPD2     H 1901   1.713   2.514  13.583 -0.5477  3.2807  0.4708
  122MPD2    H1 1902   2.085   2.731  13.532 -1.3331  1.5054  0.5173
  122MPD2    H2 1903   1.999   2.539  13.894  2.5559 -0.2085 -0.6197
  122MPD2    H3 1904   2.140   2.677  13.750  0.1818 -0.6470  1.3313
  122MPD2     N 1905   1.861   2.652  13.408 -0.2956  0.9128 -0.0256
  122MPD2    H5 1906   1.936   2.706  13.365  0.4984 -1.4533 -1.5741
  122MPD2    N1 1907   1.734   2.468  13.830  0.0606 -0.0673 -0.0608
  122MPD2    H7 1908   1.647   2.462  13.778 -1.1714  0.7266  1.9231
  123TMC2    C1 1909   3.943   0.741  11.185 -0.1762 -0.0548 -0.2639
  123TMC2    C2 1910   3.828   0.806  11.215  0.3667  0.3220 -0.2500
  123TMC2    C3 1911   3.785   0.910  11.129  0.3886  0.1598 -0.4322
  123TMC2    C4 1912   4.012   0.781  11.070 -0.0220  0.0408  0.0261
  123TMC2    C5 1913   3.972   0.891  11.004 -0.1027 -0.2586  0.1532
  123TMC2    C6 1914   3.860   0.962  11.026 -0.0036 -0.3719 -0.0910
  123TMC2     C 1915   3.932   0.598  11.199 -0.3035  0.4024 -0.2384
  123TMC2     O 1916   3.862   0.557  11.288 -0.2113  0.2441 -0.0228
  123TMC2     H 1917   3.760   0.761  11.287 -0.3149  1.1262 -0.3794
  123TMC2    H1 1918   4.105   0.732  11.044 -0.2377 -0.5782  0.4083
  123TMC2    H2 1919   3.839   1.057  10.978 -2.4283 -1.4926 -1.2407
  123TMC2    C7 1920   4.048   0.907  10.882 -0.5923  0.2450 -0.1264
  123TMC2    C8 1921   3.646   0.961  11.153 -0.2156  0.1848 -0.2870
  123TMC2    O1 1922   4.082   0.808  10.834  0.4282  0.1056  0.2162
  123TMC2    O2 1923   3.590   0.946  11.258  0.2182 -0.4670 -0.3305
  123TMC2    O5 1924   3.601   1.045  11.052  1.0306  0.4606 -0.4316
  123TMC2    H5 1925   3.645   1.020  10.968  0.6974 -0.0822 -0.4435
  124MPD2     C 1926   3.883   0.131  10.975  0.6809 -0.3262 -0.2964
  124MPD2    C1 1927   3.937   0.222  10.886 -0.2506 -0.7566 -0.5394
  124MPD2    C2 1928   3.977   0.351  10.927  0.1390 -0.0164  0.2482
  124MPD2    C3 1929   3.945   0.395  11.052  0.2271  0.0748  0.1390
  124MPD2    C4 1930   3.881   0.309  11.140 -0.0199 -0.5055  0.4570
  124MPD2    C5 1931   3.851   0.183  11.100  0.2255  0.6544 -0.2289
  124MPD2     H 1932   4.028   0.416  10.857  2.6346 -1.7353  0.4517
  124MPD2    H1 1933   3.860   0.327  11.245 -1.9865 -2.4796  0.3750
  124MPD2    H2 1934   3.862   0.027  10.956  0.2620  0.0422 -1.8272
  124MPD2    H3 1935   3.810   0.110  11.169  0.6070 -0.9693 -1.7125
  124MPD2     N 1936   3.979   0.529  11.088  0.2441  0.1045 -0.4983
  124MPD2    H5 1937   4.018   0.580  11.009 -0.6893  0.3806 -0.7811
  124MPD2    N1 1938   3.966   0.177  10.757  0.2720 -0.3753 -0.3337
  124MPD2    H7 1939   3.967   0.077  10.743  0.7035 -0.3774 -0.2962
  125TMC2    C1 1940   4.093   1.657   9.087  0.2569  0.0068 -0.3406
  125TMC2    C2 1941   4.194   1.566   9.075  0.1814  0.5888  0.1325
  125TMC2    C3 1942   4.320   1.613   9.085 -0.6324  0.1560  0.5432
  125TMC2    C4 1943   4.117   1.782   9.132 -0.6958  0.0926  0.0850
  125TMC2    C5 1944   4.245   1.821   9.147 -0.5756 -0.2288 -0.1276
  125TMC2    C6 1945   4.355   1.744   9.117 -0.5391 -0.2500 -0.0922
  125TMC2     C 1946   3.965   1.617   9.042  0.7236 -0.3767 -0.4440
  125TMC2     O 1947   3.948   1.494   9.045 -0.4743 -1.2463 -0.0570
  125TMC2     H 1948   4.175   1.470   9.030  2.2877 -0.0375  0.5682
  125TMC2    H1 1949   4.038   1.857   9.134 -1.1026 -0.3057 -1.1783
  125TMC2    H2 1950   4.458   1.770   9.135 -0.4447 -1.6005  1.2454
  125TMC2    C7 1951   4.262   1.957   9.188  0.6578  0.0824 -0.1137
  125TMC2    C8 1952   4.437   1.529   9.051 -0.0690 -0.3560 -0.1205
  125TMC2    O1 1953   4.165   2.005   9.245 -0.4080  0.3176  0.7782
  125TMC2    O2 1954   4.548   1.566   9.021 -0.2498  0.1632  0.1821
  125TMC2    O5 1955   4.406   1.405   9.091 -0.8534  0.5561 -0.2595
  125TMC2    H5 1956   4.317   1.411   9.132 -0.6415 -0.3232  0.3245
  126MPD1     C 1957   3.470   1.734   8.926 -0.1172  0.5214  0.2908
  126MPD1    C1 1958   3.549   1.845   8.907 -0.2287 -0.2521 -0.0167
  126MPD1    C2 1959   3.680   1.833   8.953 -0.5227  0.4310 -0.4373
  126MPD1    C3 1960   3.743   1.722   8.993 -0.1944 -0.1998  0.0703
  126MPD1    C4 1961   3.663   1.613   9.001 -0.2351 -0.0228 -0.8390
  126MPD1    C5 1962   3.532   1.617   8.971 -0.1999 -0.1430  0.1296
  126MPD1     H 1963   3.740   1.923   8.956  0.1151 -0.0154  0.2636
  126MPD1    H1 1964   3.702   1.519   9.039 -1.7131  0.2389  1.2956
  126MPD1    H2 1965   3.363   1.735   8.910  0.1345 -1.8434 -1.6244
  126MPD1    H3 1966   3.473   1.528   8.989  0.4124 -0.2997  1.3442
  126MPD1     N 1967   3.883   1.723   9.007 -0.0088  0.0496 -0.2199
  126MPD1    H5 1968   3.926   1.811   8.981  0.4549 -0.3303 -0.7463
  126MPD1    N1 1969   3.494   1.977   8.894 -0.4119 -0.1206  0.2966
  126MPD1    H6 1970   3.563   2.049   8.875 -3.2298  2.7077  0.7205
  126MPD1    H7 1971   3.417   1.984   8.828 -0.0501  1.0676  0.0092
  127TMC2    C1 1972   1.285   1.680  10.091 -0.4786  0.0566  0.3012
  127TMC2    C2 1973   1.382   1.695  10.190  0.7075  0.2064  0.3580
  127TMC2    C3 1974   1.381   1.602  10.297 -0.2547  0.2949  0.0875
  127TMC2    C4 1975   1.195   1.581  10.088  0.3859 -0.1037  0.3529
  127TMC2    C5 1976   1.199   1.495  10.193  0.7808 -0.1115 -1.7202
  127TMC2    C6 1977   1.279   1.510  10.302 -0.1839  0.7936  0.4761
  127TMC2     C 1978   1.297   1.758   9.974  0.2397 -0.9836 -0.5982
  127TMC2     O 1979   1.335   1.876   9.991  0.0787 -0.0709  0.5820
  127TMC2     H 1980   1.446   1.783  10.188  1.0996 -0.0678  0.7129
  127TMC2    H1 1981   1.136   1.556  10.001  1.1927 -1.9494  0.3499
  127TMC2    H2 1982   1.265   1.460  10.397 -1.3685  2.1214  0.9959
  127TMC2    C7 1983   1.077   1.412  10.210  0.5624  0.8562  0.2024
  127TMC2    C8 1984   1.500   1.591  10.376  0.8685  0.3242  0.1611
  127TMC2    O1 1985   0.982   1.445  10.140  0.4174  0.5572 -1.1029
  127TMC2    O2 1986   1.510   1.494  10.456  0.2650  0.6664 -0.9113
  127TMC2    O5 1987   1.595   1.688  10.357  0.5213  0.0197 -0.0321
  127TMC2    H5 1988   1.569   1.770  10.310 -2.2174 -1.6550 -1.4866
  128MPD2     C 1989   1.251   1.674   9.621  0.5194 -0.7105  0.4478
  128MPD2    C1 1990   1.295   1.752   9.728  0.1025  0.1848 -0.0871
  128MPD2    C2 1991   1.346   1.884   9.706 -0.2275  0.0701 -0.2780
  128MPD2    C3 1992   1.348   1.938   9.581  0.0514  0.0377 -0.5306
  128MPD2    C4 1993   1.309   1.865   9.475 -0.1837 -0.0338 -0.3126
  128MPD2    C5 1994   1.253   1.737   9.499 -0.0073  0.0528  0.2407
  128MPD2     H 1995   1.397   1.946   9.779 -0.1787  0.0692 -0.3114
  128MPD2    H1 1996   1.312   1.905   9.374 -1.4243 -0.6246 -0.5878
  128MPD2    H2 1997   1.217   1.572   9.640 -2.2451  0.1946  0.4284
  128MPD2    H3 1998   1.215   1.675   9.418 -0.2048  0.4534  0.0318
  128MPD2     N 1999   1.390   2.071   9.570  0.1192 -0.7774 -0.1405
  128MPD2    H5 2000   1.420   2.122   9.652  2.4380 -2.5122  0.0976
  128MPD2    N1 2001   1.273   1.691   9.862 -0.1360 -0.0919 -0.3898
  128MPD2    H7 2002   1.242   1.594   9.861 -0.6262  0.0639  0.4488
  129TMC2    C1 2003   0.847   0.630   1.262  0.0516  0.7306 -0.9432
  129TMC2    C2 2004   0.912   0.557   1.358  0.2569 -0.0913  0.1581
  129TMC2    C3 2005   0.830   0.468   1.426  0.6843 -0.7688  0.4604
  129TMC2    C4 2006   0.712   0.631   1.242  0.2985  0.6766  0.2206
  129TMC2    C5 2007   0.640   0.541   1.316 -0.4341  0.3148  0.2660
  129TMC2    C6 2008   0.696   0.465   1.418  0.0159 -0.2387 -0.3040
  129TMC2     C 2009   0.928   0.699   1.171  0.2092  0.7784  0.8155
  129TMC2     O 2010   1.036   0.638   1.159 -0.4354 -0.4979  1.1184
  129TMC2     H 2011   1.020   0.558   1.358  0.2484  1.2172  0.5398
  129TMC2    H1 2012   0.665   0.682   1.159  1.7560 -1.1960 -1.7535
  129TMC2    H2 2013   0.638   0.399   1.482 -3.4549  0.4471 -2.6971
  129TMC2    C7 2014   0.496   0.532   1.303 -0.9951 -0.1067  0.2975
  129TMC2    C8 2015   0.891   0.379   1.520  0.5870 -0.2505  0.1037
  129TMC2    O1 2016   0.443   0.624   1.243 -0.1419 -0.3239  0.2133
  129TMC2    O2 2017   0.839   0.270   1.553 -0.0929 -0.2773 -0.2297
  129TMC2    O5 2018   1.008   0.426   1.568  0.0648  1.0280  0.9882
  129TMC2    H5 2019   1.000   0.524   1.566  1.1537  1.1031  0.4113
  130MPD2     C 2020   1.059   0.847   0.951  0.5563 -0.1993  0.0999
  130MPD2    C1 2021   0.936   0.884   1.013  0.2882 -0.0613 -0.7232
  130MPD2    C2 2022   0.873   0.995   0.960  0.6262 -0.4535  0.1164
  130MPD2    C3 2023   0.924   1.060   0.851 -0.3813 -0.1905  0.4378
  130MPD2    C4 2024   1.046   1.021   0.792 -0.7538  0.5983  0.0498
  130MPD2    C5 2025   1.114   0.917   0.846  0.7531  0.4448  0.9832
  130MPD2     H 2026   0.774   1.028   0.989  0.5121 -0.1373 -0.6093
  130MPD2    H1 2027   1.088   1.070   0.705 -0.1836 -0.9794 -0.5550
  130MPD2    H2 2028   1.115   0.762   0.988  0.5246  0.1679  0.9978
  130MPD2    H3 2029   1.203   0.892   0.790  1.4253 -2.5593  3.3856
  130MPD2     N 2030   0.848   1.172   0.797 -0.1996 -0.5567  0.0054
  130MPD2    H5 2031   0.761   1.196   0.843 -0.3507 -1.2066  0.0627
  130MPD2    N1 2032   0.875   0.812   1.118 -0.9221  0.4056 -0.2056
  130MPD2    H7 2033   0.791   0.858   1.152  0.0900  1.6139  0.6629
  131TMC2    C1 2034   4.009   1.058  10.069  0.1102 -0.3342 -0.0666
  131TMC2    C2 2035   3.982   1.071   9.935 -0.1218  0.3158  0.5683
  131TMC2    C3 2036   3.985   1.201   9.884  0.3460 -0.3165 -0.1283
  131TMC2    C4 2037   4.049   1.154  10.152  0.1640 -0.6034  0.2861
  131TMC2    C5 2038   4.066   1.278  10.095  0.5323 -0.3715 -0.0216
  131TMC2    C6 2039   4.033   1.295   9.960 -0.5106  0.2045 -1.1061
  131TMC2     C 2040   4.021   0.914  10.105  0.1552 -0.1231 -0.5990
  131TMC2     O 2041   3.983   0.880  10.213 -0.1758 -0.0923 -0.3259
  131TMC2     H 2042   3.927   0.996   9.879  0.2119  0.1695  0.4363
  131TMC2    H1 2043   4.080   1.133  10.254  0.0998 -0.1928  0.3922
  131TMC2    H2 2044   4.046   1.391   9.911 -0.4357  1.1133  0.6722
  131TMC2    C7 2045   4.073   1.388  10.182 -0.3621 -0.1248  0.1719
  131TMC2    C8 2046   3.979   1.225   9.743  0.1739 -0.4091 -0.8831
  131TMC2    O1 2047   4.037   1.366  10.293 -0.0137  0.0881 -0.4687
  131TMC2    O2 2048   4.042   1.319   9.696 -0.4913 -0.5125  0.0258
  131TMC2    O5 2049   3.921   1.122   9.672  0.2104 -0.5900  0.4603
  131TMC2    H5 2050   3.866   1.069   9.732 -2.0989  0.4422 -0.7643
  132MPD2     C 2051   4.161   0.669   9.885 -0.0671 -0.2253  0.5952
  132MPD2    C1 2052   4.087   0.711   9.990 -0.3783  0.0630 -0.8698
  132MPD2    C2 2053   4.032   0.617  10.078  0.2663 -0.3504  0.2220
  132MPD2    C3 2054   4.067   0.488  10.069 -0.0663  0.3614 -0.0642
  132MPD2    C4 2055   4.139   0.443   9.954 -0.6010 -0.5888 -0.0253
  132MPD2    C5 2056   4.196   0.537   9.874  0.3178  0.4354 -0.2073
  132MPD2     H 2057   3.956   0.650  10.148  0.3831  0.9619 -0.2657
  132MPD2    H1 2058   4.182   0.344   9.948  0.8318  0.0716 -0.6126
  132MPD2    H2 2059   4.220   0.740   9.829  2.7568 -2.0553  1.2255
  132MPD2    H3 2060   4.277   0.502   9.813  1.0904  0.8354  0.5894
  132MPD2     N 2061   4.012   0.403  10.166  0.4471 -0.9967  0.2756
  132MPD2    H5 2062   3.975   0.446  10.250 -0.2886 -1.4875  0.2004
  132MPD2    N1 2063   4.076   0.852  10.007  0.4377  1.1039  0.0648
  132MPD2    H7 2064   4.104   0.912   9.930  1.9434  2.5787  1.7516
  133TMC2    C1 2065   3.468   2.658   9.375 -0.2800 -0.3990  0.0006
  133TMC2    C2 2066   3.438   2.746   9.471 -0.0253  0.3512  0.2479
  133TMC2    C3 2067   3.541   2.816   9.528  0.0368 -0.0818 -0.5660
  133TMC2    C4 2068   3.597   2.632   9.334  0.3002 -0.4236  0.6336
  133TMC2    C5 2069   3.697   2.710   9.388 -0.5130 -0.0316  0.4021
  133TMC2    C6 2070   3.670   2.804   9.480  0.0090  0.8141  0.0783
  133TMC2     C 2071   3.372   2.567   9.339  0.8141 -0.2291 -0.7219
  133TMC2     O 2072   3.406   2.456   9.300  0.5522  0.2412 -0.4381
  133TMC2     H 2073   3.334   2.760   9.499 -0.5120 -2.4041 -0.1713
  133TMC2    H1 2074   3.616   2.552   9.264 -0.7605 -0.4151  0.3206
  133TMC2    H2 2075   3.752   2.851   9.533  4.7340 -2.9261 -3.9835
  133TMC2    C7 2076   3.835   2.672   9.355 -0.0206  0.0175 -0.1444
  133TMC2    C8 2077   3.502   2.924   9.615  0.1889 -0.0863 -0.1291
  133TMC2    O1 2078   3.844   2.556   9.310  0.4402  0.5286 -0.0118
  133TMC2    O2 2079   3.406   2.996   9.602  0.4476  0.1488  0.6035
  133TMC2    O5 2080   3.590   2.932   9.719 -0.8896  0.1406  0.3165
  133TMC2    H5 2081   3.640   2.848   9.722  0.2244  0.6853 -3.1717
  134MPD2     C 2082   3.041   2.666   9.221  0.1308  0.6179  0.0972
  134MPD2    C1 2083   3.136   2.575   9.260  0.1063  0.6672 -0.3137
  134MPD2    C2 2084   3.106   2.441   9.264  0.6241  0.0245 -0.2257
  134MPD2    C3 2085   2.979   2.401   9.238 -0.1288  0.5142  0.2041
  134MPD2    C4 2086   2.894   2.489   9.181  0.8916 -0.0048 -0.0373
  134MPD2    C5 2087   2.919   2.624   9.171 -0.3079  0.3753 -0.3512
  134MPD2     H 2088   3.164   2.378   9.331 -0.9498 -1.5457 -0.3309
  134MPD2    H1 2089   2.805   2.442   9.140  1.0518 -1.3504  1.1402
  134MPD2    H2 2090   3.059   2.772   9.237  1.8922  0.2376  0.7096
  134MPD2    H3 2091   2.850   2.700   9.135  0.4410  1.5651  0.7211
  134MPD2     N 2092   2.940   2.265   9.244  0.4616 -0.5304  0.7156
  134MPD2    H5 2093   2.845   2.234   9.225  1.0624  0.0155 -3.0133
  134MPD2    N1 2094   3.252   2.628   9.318  0.0345  0.1393 -0.2028
  134MPD2    H7 2095   3.255   2.730   9.323  0.9526 -0.0582  2.7877
  135TMC2    C1 2096   0.634   2.951   9.177 -0.0603 -0.9638  0.8413
  135TMC2    C2 2097   0.622   2.867   9.069 -0.6417  0.2514  0.9245
  135TMC2    C3 2098   0.519   2.888   8.980  0.3966 -1.0525  0.6062
  135TMC2    C4 2099   0.544   3.049   9.199  0.0558 -0.1967 -0.1845
  135TMC2    C5 2100   0.440   3.060   9.112 -0.3218  0.2508  0.3892
  135TMC2    C6 2101   0.425   2.978   9.008  1.2242 -0.3556 -0.0537
  135TMC2     C 2102   0.740   2.946   9.273 -0.0927  0.0884  0.1319
  135TMC2     O 2103   0.730   3.014   9.373 -0.2947  0.0913  0.5762
  135TMC2     H 2104   0.686   2.781   9.053  0.4948  1.7686 -2.8413
  135TMC2    H1 2105   0.560   3.129   9.271 -0.0086 -0.1409 -0.2332
  135TMC2    H2 2106   0.334   2.965   8.949  1.2901 -1.2015  0.0319
  135TMC2    C7 2107   0.320   3.128   9.146 -0.2846 -0.7669  0.5272
  135TMC2    C8 2108   0.477   2.770   8.900  0.2022 -0.5812  0.0653
  135TMC2    O1 2109   0.249   3.167   9.054  0.4506  0.7223  0.4210
  135TMC2    O2 2110   0.552   2.730   8.814  0.3372 -0.0664 -0.1620
  135TMC2    O5 2111   0.424   2.686   8.997  0.6908 -0.0808  0.4273
  135TMC2    H5 2112   0.387   2.725   9.079 -1.7772 -0.4490 -0.5275
  136MPD2     C 2113   1.017   2.954   9.413  0.2099 -0.3397 -0.3814
  136MPD2    C1 2114   0.984   2.874   9.301  0.3455  1.0041 -0.2866
  136MPD2    C2 2115   1.081   2.786   9.254 -0.5775  0.0340  0.6286
  136MPD2    C3 2116   1.210   2.788   9.304 -0.9758 -0.6891  0.7623
  136MPD2    C4 2117   1.245   2.883   9.403 -0.1681 -0.1675 -0.0700
  136MPD2    C5 2118   1.150   2.960   9.458 -0.2467  0.3968 -0.0684
  136MPD2     H 2119   1.057   2.718   9.173 -2.6954  0.6982  0.6978
  136MPD2    H1 2120   1.342   2.880   9.452  0.3913 -2.5177 -1.3224
  136MPD2    H2 2121   0.950   3.017   9.470  0.1734 -0.5102 -0.2358
  136MPD2    H3 2122   1.171   3.030   9.539 -0.4927 -0.1434  0.4633
  136MPD2     N 2123   1.303   2.702   9.249 -0.7169 -0.1762 -0.2905
  136MPD2    H5 2124   1.401   2.726   9.256 -1.0482  0.8799  0.6690
  136MPD2    N1 2125   0.851   2.875   9.236 -0.4818  0.0458 -0.0952
  136MPD2    H7 2126   0.843   2.818   9.152  1.3777  1.1698 -1.0364
  137TMC2    C1 2127   0.642   2.159   9.550  0.0845 -0.0561  1.0635
  137TMC2    C2 2128   0.726   2.218   9.453 -0.0934 -0.7947  0.5405
  137TMC2    C3 2129   0.701   2.160   9.330  0.3707  0.5247  0.3854
  137TMC2    C4 2130   0.536   2.069   9.531  1.4953  0.6490 -0.0935
  137TMC2    C5 2131   0.522   2.013   9.405 -0.4662 -0.2120 -0.8071
  137TMC2    C6 2132   0.608   2.060   9.307  0.0715  0.3130  0.4354
  137TMC2     C 2133   0.656   2.204   9.692 -0.1234  0.7095  0.6588
  137TMC2     O 2134   0.707   2.314   9.699  0.4830 -0.0986  0.0223
  137TMC2     H 2135   0.805   2.290   9.471 -0.8267  0.2944 -0.6223
  137TMC2    H1 2136   0.465   2.048   9.609 -0.1819 -2.7578 -2.5244
  137TMC2    H2 2137   0.600   2.009   9.212 -0.5854 -1.0134  1.1912
  137TMC2    C7 2138   0.398   1.963   9.363  0.4011  0.2061 -0.3292
  137TMC2    C8 2139   0.797   2.182   9.220 -0.3015 -0.7096  0.2037
  137TMC2    O1 2140   0.397   1.908   9.256 -0.3930 -0.0284  0.0060
  137TMC2    O2 2141   0.764   2.242   9.119 -0.3189  0.1654 -0.4398
  137TMC2    O5 2142   0.914   2.188   9.277  0.6898  0.0127  0.0114
  137TMC2    H5 2143   0.920   2.144   9.364  1.3193 -0.0738 -0.0715
  138MPD2     C 2144   0.626   2.030  10.020 -0.2110 -0.3256 -0.2776
  138MPD2    C1 2145   0.649   2.131   9.926 -0.2396 -0.1268  0.5173
  138MPD2    C2 2146   0.687   2.254   9.979 -0.0385  0.4728  0.5422
  138MPD2    C3 2147   0.713   2.271  10.116 -0.8756  0.4311 -0.3635
  138MPD2    C4 2148   0.705   2.166  10.203 -0.1108  0.5390  0.2638
  138MPD2    C5 2149   0.658   2.046  10.153 -0.0528  0.5533 -0.2773
  138MPD2     H 2150   0.685   2.340   9.913  0.5697 -0.9542 -1.3244
  138MPD2    H1 2151   0.726   2.178  10.309  1.3628  1.4433 -0.1272
  138MPD2    H2 2152   0.598   1.926  10.009 -0.7667 -0.1585 -0.4573
  138MPD2    H3 2153   0.641   1.959  10.214  0.5320  0.3938 -0.3405
  138MPD2     N 2154   0.760   2.401  10.158 -0.2153 -0.3839 -0.0118
  138MPD2    H5 2155   0.760   2.469  10.083 -0.7168  0.5070  0.7952
  138MPD2    N1 2156   0.623   2.110   9.789 -0.2290 -0.0342  0.3272
  138MPD2    H7 2157   0.590   2.019   9.759  2.8409 -0.2913 -2.2335
  139TMC2    C1 2158   1.000   0.463  13.332 -0.6181 -0.5182  0.6975
  139TMC2    C2 2159   1.131   0.513  13.349  0.2569  0.0509  0.2130
  139TMC2    C3 2160   1.153   0.650  13.355 -0.1719  0.3183 -1.4336
  139TMC2    C4 2161   0.896   0.553  13.330 -0.4834  0.2478  0.2661
  139TMC2    C5 2162   0.925   0.687  13.349  0.4423 -0.0103 -1.0051
  139TMC2    C6 2163   1.050   0.738  13.356 -0.7042 -0.3220 -0.0764
  139TMC2     C 2164   0.985   0.319  13.306 -0.1770  0.7522 -0.8214
  139TMC2     O 2165   1.085   0.259  13.290  0.0841  0.1912  0.6863
  139TMC2     H 2166   1.209   0.442  13.376  2.3818  1.9327 -0.9478
  139TMC2    H1 2167   0.795   0.519  13.349 -0.3129 -0.7844 -0.7188
  139TMC2    H2 2168   1.058   0.839  13.394 -2.0180 -0.4540  0.5582
  139TMC2    C7 2169   0.821   0.783  13.372 -0.4207 -0.0194 -0.3123
  139TMC2    C8 2170   1.277   0.706  13.409  0.2990  0.5053  0.2778
  139TMC2    O1 2171   0.829   0.897  13.322  0.4035 -0.0249 -0.1997
  139TMC2    O2 2172   1.287   0.819  13.450 -0.4758  0.3565  0.6167
  139TMC2    O5 2173   1.370   0.654  13.333  0.4822 -0.3227  0.2031
  139TMC2    H5 2174   1.335   0.569  13.302  1.1720 -0.7979  0.7076
  140MPD2     C 2175   0.700   0.114  13.213 -0.7496 -0.4042 -0.3448
  140MPD2    C1 2176   0.828   0.137  13.258 -0.7717 -0.6380 -0.5482
  140MPD2    C2 2177   0.894   0.029  13.321  0.0782 -0.3232  0.2777
  140MPD2    C3 2178   0.862   4.634  13.302 -0.0258  0.8396  0.1914
  140MPD2    C4 2179   0.730   4.615  13.246 -0.0173 -0.9655 -0.4627
  140MPD2    C5 2180   0.651   4.727  13.207  0.0238 -0.8000 -0.7044
  140MPD2     H 2181   0.981   0.052  13.381  0.6729 -0.4920 -0.5159
  140MPD2    H1 2182   0.684   4.518  13.228 -2.3278  0.0639 -0.0791
  140MPD2    H2 2183   0.642   0.197  13.173  1.4164  0.7365 -1.1065
  140MPD2    H3 2184   0.553   4.713  13.163  0.1619 -1.7451 -0.7267
  140MPD2     N 2185   0.943   4.530  13.352  0.4022  0.3572  0.0354
  140MPD2    H5 2186   1.039   4.548  13.380  0.1145 -0.3652  1.4880
  140MPD2    N1 2187   0.863   0.275  13.269 -0.1368  0.3912 -0.4075
  140MPD2    H7 2188   0.800   0.350  13.240  1.2247  1.2012 -1.2831
  141TMC2    C1 2189   1.965   1.589  14.047  0.5799  0.3594 -0.3380
  141TMC2    C2 2190   1.996   1.520  14.168  0.3219  0.6050  0.5535
  141TMC2    C3 2191   2.022   1.603  14.278 -0.1860  0.0003  0.3942
  141TMC2    C4 2192   1.963   1.723  14.044  0.4267  0.3767  0.6412
  141TMC2    C5 2193   1.991   1.801  14.150  0.5464  0.2432  0.0289
  141TMC2    C6 2194   2.021   1.740  14.273 -0.0164 -0.0352  0.5936
  141TMC2     C 2195   1.951   1.502  13.929  0.0882  0.1276 -0.3909
  141TMC2     O 2196   1.968   1.555  13.823 -1.1155  0.1968 -0.2310
  141TMC2     H 2197   2.018   1.414  14.169 -0.0441  0.5549  1.9867
  141TMC2    H1 2198   1.937   1.766  13.948 -0.2996 -1.2226  0.1230
  141TMC2    H2 2199   2.041   1.807  14.356 -0.5711 -0.4790  1.0826
  141TMC2    C7 2200   2.022   1.934  14.127 -0.0796  0.0424  0.5839
  141TMC2    C8 2201   2.065   1.546  14.402 -0.4831  0.0092 -0.1704
  141TMC2    O1 2202   1.982   1.978  14.022  0.9726 -0.4586  0.3540
  141TMC2    O2 2203   2.125   1.610  14.486 -0.4015 -0.3289  0.6884
  141TMC2    O5 2204   2.016   1.421  14.418  0.9773 -0.4789  0.2282
  141TMC2    H5 2205   1.969   1.398  14.335  3.3110 -2.1096 -0.6261
  142TMC2    C1 2206   4.380   0.537  10.185  0.9263  0.0878  0.1486
  142TMC2    C2 2207   4.446   0.602  10.086 -0.2958  0.2635 -0.0550
  142TMC2    C3 2208   4.467   0.731  10.105 -0.0332 -0.3830 -0.0493
  142TMC2    C4 2209   4.317   0.606  10.292  0.2992  0.4514  0.4076
  142TMC2    C5 2210   4.325   0.742  10.291 -0.1171  0.0238 -0.0740
  142TMC2    C6 2211   4.402   0.807  10.203 -0.1248  0.7615 -0.4341
  142TMC2     C 2212   4.381   0.393  10.187 -0.6357 -0.2389 -0.0921
  142TMC2     O 2213   4.404   0.320  10.092  0.3162 -0.1948  0.2529
  142TMC2     H 2214   4.479   0.543  10.001  1.4034  0.6786  0.3197
  142TMC2    H1 2215   4.244   0.554  10.353 -0.8744  0.7275 -0.7587
  142TMC2    H2 2216   4.418   0.914  10.201 -0.7264  0.8385 -1.1970
  142TMC2    C7 2217   4.253   0.809  10.402  0.1508  1.0412 -0.0170
  142TMC2    C8 2218   4.508   0.816   9.994 -0.5827 -0.5663  0.6277
  142TMC2    O1 2219   4.180   0.735  10.471 -0.4988 -0.2201  0.2100
  142TMC2    O2 2220   4.439   0.907   9.952  0.2151 -0.3282  0.0324
  142TMC2    O5 2221   4.601   0.750   9.927 -0.0180  0.3244  0.0840
  142TMC2    H5 2222   4.639   0.684   9.989 -0.9337 -0.2196  0.0702
  143MPD2     C 2223   4.317   4.699  10.465  0.4057 -0.4361 -0.6148
  143MPD2    C1 2224   4.321   4.710  10.331  0.2030  0.6181 -0.0787
  143MPD2    C2 2225   4.334   0.100  10.282 -0.3612 -0.2490  0.0260
  143MPD2    C3 2226   4.352   0.214  10.362  0.2138 -0.0339 -0.4983
  143MPD2    C4 2227   4.343   0.199  10.495 -0.2804 -0.7317  0.3112
  143MPD2    C5 2228   4.336   0.070  10.538  0.2656  0.3891  0.2266
  143MPD2     H 2229   4.323   0.124  10.177  0.2790 -0.9350 -0.1964
  143MPD2    H1 2230   4.345   0.281  10.565  0.1829 -0.3200 -0.1867
  143MPD2    H2 2231   4.304   4.604  10.516  2.1302  0.0302  0.7006
  143MPD2    H3 2232   4.305   0.067  10.642 -1.6630  2.6822 -0.2962
  143MPD2     N 2233   4.377   0.347  10.315  0.1013 -0.2493  0.4376
  143MPD2    H5 2234   4.389   0.418  10.386 -6.0124  0.0334  1.2251
  143MPD2    N1 2235   4.301   4.594  10.246 -0.2308 -0.2446  0.2137
  143MPD2    H7 2236   4.326   4.507  10.292  0.8883  0.5892  1.1685
  144TMC2    C1 2237   2.345   3.582   0.469  0.0945 -0.5375 -0.5641
  144TMC2    C2 2238   2.348   3.441   0.458 -0.0549 -0.3524 -0.0879
  144TMC2    C3 2239   2.466   3.379   0.489 -0.5004  0.3385 -0.0604
  144TMC2    C4 2240   2.449   3.653   0.521 -0.2618  0.1358  0.4286
  144TMC2    C5 2241   2.564   3.581   0.546 -0.5500 -0.4377  0.6402
  144TMC2    C6 2242   2.576   3.446   0.527 -0.0754  0.3346 -0.2085
  144TMC2     C 2243   2.262   3.651   0.382 -0.0512 -1.0379  0.4466
  144TMC2     O 2244   2.201   3.580   0.301  0.2449 -0.3146  0.7240
  144TMC2     H 2245   2.265   3.377   0.431 -2.1297  0.4170  4.4774
  144TMC2    H1 2246   2.459   3.759   0.502 -0.8970  0.2060  0.4677
  144TMC2    H2 2247   2.670   3.397   0.548 -0.3302  0.5841  1.5645
  144TMC2    C7 2248   2.684   3.655   0.593  1.0840  0.1550 -0.0358
  144TMC2    C8 2249   2.484   3.253   0.417 -0.5134 -0.7110  0.2031
  144TMC2    O1 2250   2.782   3.587   0.610  0.2562  0.6380 -0.6808
  144TMC2    O2 2251   2.402   3.216   0.334 -0.0060 -0.5373  0.3532
  144TMC2    O5 2252   2.540   3.179   0.515 -0.3286  0.0787  0.0841
  144TMC2    H5 2253   2.548   3.234   0.596 -0.4688  1.2991 -0.7214
  145MPD2     C 2254   1.927   3.987   0.224 -0.1760 -0.4565  0.0998
  145MPD2    C1 2255   2.003   3.903   0.146 -0.3422 -0.3260  0.3930
  145MPD2    C2 2256   2.109   3.836   0.208 -0.4736 -0.7212 -0.0569
  145MPD2    C3 2257   2.137   3.855   0.343  0.7377 -0.9081  0.9568
  145MPD2    C4 2258   2.062   3.946   0.412  0.4117  0.1401 -0.2621
  145MPD2    C5 2259   1.953   4.010   0.357  0.0734 -0.4451 -0.0552
  145MPD2     H 2260   2.173   3.766   0.154 -0.6291 -0.0763 -1.0779
  145MPD2    H1 2261   2.062   3.958   0.519  0.5780 -1.1365 -0.1139
  145MPD2    H2 2262   1.848   4.043   0.175  0.7532  0.5522 -0.2228
  145MPD2    H3 2263   1.886   4.067   0.421 -1.2285 -0.9673 -0.9447
  145MPD2     N 2264   2.229   3.780   0.418 -0.2467  0.1602  0.4592
  145MPD2    H5 2265   2.257   3.823   0.505 -1.1502 -1.6493  1.6538
  145MPD2    N1 2266   1.975   3.873   0.010 -0.5851 -0.1506  0.4799
  145MPD2    H7 2267   2.039   3.803  17.726  1.1558  0.8313  1.6998
  146TMC2    C1 2268   3.311   2.774  12.882 -0.1446  0.4227  0.2148
  146TMC2    C2 2269   3.246   2.841  12.789 -0.5928 -0.3365  0.4065
  146TMC2    C3 2270   3.161   2.765  12.716 -0.4999  0.1843  0.2928
  146TMC2    C4 2271   3.289   2.644  12.918 -0.6133  0.4768 -0.6158
  146TMC2    C5 2272   3.192   2.572  12.849  0.1954 -0.1243  0.9031
  146TMC2    C6 2273   3.127   2.631  12.743  0.4792  1.1442  0.3389
  146TMC2     C 2274   3.401   2.847  12.973 -0.7804  0.0132  0.3982
  146TMC2     O 2275   3.382   2.964  12.963  0.2233 -0.0506 -0.8207
  146TMC2     H 2276   3.259   2.946  12.765  2.0941 -1.3766 -2.7730
  146TMC2    H1 2277   3.334   2.602  13.007 -1.6034 -1.3134 -0.9741
  146TMC2    H2 2278   3.049   2.584  12.685  2.3577 -1.4530 -0.0698
  146TMC2    C7 2279   3.178   2.428  12.849 -0.4908 -0.0798  0.8372
  146TMC2    C8 2280   3.097   2.825  12.600 -0.0208  0.8928  0.4781
  146TMC2    O1 2281   3.071   2.386  12.808  0.5844 -0.0278  0.5809
  146TMC2    O2 2282   3.070   2.942  12.584 -0.7910 -0.4691 -0.1554
  146TMC2    O5 2283   3.094   2.727  12.504 -0.3749  0.4155  0.5037
  146TMC2    H5 2284   3.132   2.637  12.518 -0.1725  0.4925  0.4393
  147MPD2     C 2285   3.435   1.976  12.831  0.0334 -0.1013 -0.5851
  147MPD2    C1 2286   3.531   2.075  12.819  0.1057 -0.1851  0.4847
  147MPD2    C2 2287   3.485   2.208  12.828 -0.3333  0.2101  0.9161
  147MPD2    C3 2288   3.350   2.235  12.853 -0.5059  0.7314  0.2566
  147MPD2    C4 2289   3.254   2.129  12.860  0.6472 -0.3207  0.1026
  147MPD2    C5 2290   3.303   2.004  12.844 -0.1103 -0.7650 -0.2336
  147MPD2     H 2291   3.546   2.297  12.835  2.0568 -1.4073  0.5883
  147MPD2    H1 2292   3.148   2.148  12.869  0.6254  0.0281 -0.8080
  147MPD2    H2 2293   3.462   1.871  12.821  1.3323  0.2166 -0.4916
  147MPD2    H3 2294   3.239   1.917  12.851 -1.5653  0.3044 -0.3046
  147MPD2     N 2295   3.309   2.367  12.863  0.2106 -0.6473 -0.7049
  147MPD2    H5 2296   3.383   2.433  12.882 -0.5142 -0.1274  0.3474
  147MPD2    N1 2297   3.671   2.048  12.825  0.4461 -0.1453 -0.5684
  147MPD2    H7 2298   3.703   1.953  12.840  3.6135  0.7084 -1.9072
  148TMC2    C1 2299   3.567   1.707  10.155 -0.3270  0.5334  0.8788
  148TMC2    C2 2300   3.626   1.752  10.274 -0.7333 -0.1058 -0.1356
  148TMC2    C3 2301   3.718   1.664  10.324  0.1242 -0.3744 -0.1561
  148TMC2    C4 2302   3.609   1.599  10.079  0.0733  0.3392  0.1054
  148TMC2    C5 2303   3.694   1.514  10.146  0.2795 -0.6570  0.4854
  148TMC2    C6 2304   3.745   1.546  10.269 -0.3639  0.8355 -0.0353
  148TMC2     C 2305   3.429   1.744  10.134  1.1572  0.5435 -0.2280
  148TMC2     O 2306   3.386   1.856  10.166  0.6856  0.3452  0.2472
  148TMC2     H 2307   3.588   1.839  10.326  0.0575  1.6528 -2.5002
  148TMC2    H1 2308   3.562   1.562   9.989  0.3518 -2.4348  1.0682
  148TMC2    H2 2309   3.825   1.483  10.308 -0.8514  0.5121  0.4410
  148TMC2    C7 2310   3.710   1.380  10.092  0.6360  0.0418  0.6396
  148TMC2    C8 2311   3.744   1.691  10.468 -0.0653 -0.3718  0.4899
  148TMC2    O1 2312   3.714   1.369   9.971  0.0978 -0.0008  0.0097
  148TMC2    O2 2313   3.813   1.784  10.505 -0.0718 -0.3968 -0.2820
  148TMC2    O5 2314   3.747   1.563  10.515 -0.3970 -0.2580 -0.3557
  148TMC2    H5 2315   3.685   1.507  10.464  1.0055 -1.2079 -1.0239
  149MPD2     C 2316   3.137   1.758  10.052  0.8888  0.1404 -0.1769
  149MPD2    C1 2317   3.223   1.647  10.031  0.4527  0.1866 -0.1041
  149MPD2    C2 2318   3.172   1.542   9.963  0.4437  0.4328  0.1804
  149MPD2    C3 2319   3.032   1.528   9.940  0.2260 -0.2172 -0.1972
  149MPD2    C4 2320   2.947   1.632   9.978  0.3210 -0.3198 -0.5679
  149MPD2    C5 2321   3.003   1.746  10.030 -0.7054  0.6083 -0.1882
  149MPD2     H 2322   3.229   1.451   9.951  1.1785  1.0265 -0.8011
  149MPD2    H1 2323   2.839   1.627   9.964  0.5728 -0.5150 -2.4104
  149MPD2    H2 2324   3.168   1.850  10.100 -0.5187  0.6765 -0.2946
  149MPD2    H3 2325   2.934   1.825  10.058  0.1414  1.9309 -1.8534
  149MPD2     N 2326   2.978   1.408   9.896 -0.3167  0.5320 -0.3448
  149MPD2    H5 2327   2.876   1.405   9.894 -0.3057 -0.1127  0.2792
  149MPD2    N1 2328   3.360   1.642  10.071  0.4059  0.0843  0.0267
  149MPD2    H7 2329   3.416   1.557  10.072  2.6079  1.5361  1.0645
  150TMC2    C1 2330   1.364   0.724  12.305 -0.8007 -0.2620  0.8204
  150TMC2    C2 2331   1.327   0.849  12.280  0.1135  0.0703  0.6169
  150TMC2    C3 2332   1.424   0.944  12.283  0.0451 -0.3048 -0.1404
  150TMC2    C4 2333   1.490   0.694  12.329  0.6639  0.5853 -0.6810
  150TMC2    C5 2334   1.584   0.791  12.341  0.0737 -0.0660  1.1608
  150TMC2    C6 2335   1.558   0.919  12.304 -0.0596  0.5713  0.3147
  150TMC2     C 2336   1.263   0.618  12.299  0.2041  0.7265 -0.3572
  150TMC2     O 2337   1.295   0.516  12.358 -0.0584 -0.0131  0.4584
  150TMC2     H 2338   1.228   0.881  12.249  0.2822  0.0381  0.0417
  150TMC2    H1 2339   1.514   0.593  12.357  0.7529  1.3382  1.9586
  150TMC2    H2 2340   1.630   0.998  12.314  0.2675  0.3851 -0.5962
  150TMC2    C7 2341   1.723   0.749  12.339  0.5627  0.4114 -0.1637
  150TMC2    C8 2342   1.383   1.080  12.251  0.8267 -0.0399 -0.2421
  150TMC2    O1 2343   1.795   0.824  12.274 -0.2437 -0.3026 -0.0850
  150TMC2    O2 2344   1.267   1.122  12.256 -0.0496  0.4431 -0.4319
  150TMC2    O5 2345   1.467   1.112  12.152 -0.4346 -0.0491 -0.6929
  150TMC2    H5 2346   1.537   1.043  12.144  0.0464  0.3547 -0.0149
  151MPD2     C 2347   0.809   0.429  12.174  0.1659  0.4670 -0.7728
  151MPD2    C1 2348   0.813   0.559  12.126 -0.3088 -0.6092 -0.2312
  151MPD2    C2 2349   0.933   0.628  12.130 -0.0781  0.0032  0.3483
  151MPD2    C3 2350   1.040   0.571  12.201 -0.6762 -0.1160 -0.9017
  151MPD2    C4 2351   1.030   0.442  12.256 -0.1828 -0.6481 -0.0279
  151MPD2    C5 2352   0.913   0.368  12.238  0.4488 -0.1004  0.6865
  151MPD2     H 2353   0.952   0.731  12.101 -1.9280  0.1216 -0.4063
  151MPD2    H1 2354   1.106   0.395  12.316  1.2991  1.3155 -0.3655
  151MPD2    H2 2355   0.724   0.367  12.149 -1.4224  1.5591  1.8601
  151MPD2    H3 2356   0.908   0.270  12.283  1.5165 -0.1839  0.6334
  151MPD2     N 2357   1.154   0.654  12.222  0.5014  0.0931  0.2323
  151MPD2    H5 2358   1.158   0.737  12.163 -1.7945 -1.3811 -2.0098
  151MPD2    N1 2359   0.691   0.619  12.078 -0.4668 -0.8527  0.0688
  151MPD2    H7 2360   0.606   0.570  12.102 -1.8607  0.7713 -1.5160
  152TMC2    C1 2361   0.952   0.638  12.605  0.0765 -0.7420  0.9017
  152TMC2    C2 2362   1.017   0.519  12.626 -0.7732 -0.2933 -0.0081
  152TMC2    C3 2363   1.149   0.517  12.640 -0.1490 -0.0446 -0.0667
  152TMC2    C4 2364   1.017   0.757  12.624 -0.2419  0.1683  0.3214
  152TMC2    C5 2365   1.152   0.748  12.658 -0.4958 -0.3372 -0.0626
  152TMC2    C6 2366   1.221   0.633  12.650  0.1673 -0.3925  0.2349
  152TMC2     C 2367   0.806   0.633  12.596  0.1734 -0.7844  0.2066
  152TMC2     O 2368   0.750   0.722  12.648 -0.0428  0.5855 -0.0076
  152TMC2     H 2369   0.960   0.430  12.653  0.5104 -1.1429 -0.1254
  152TMC2    H1 2370   0.953   0.843  12.634  1.0578  1.1697  0.0216
  152TMC2    H2 2371   1.328   0.635  12.669 -0.0010 -0.3316  1.1699
  152TMC2    C7 2372   1.217   0.877  12.668 -0.1139 -0.6163  0.5292
  152TMC2    C8 2373   1.223   0.393  12.626 -0.1354 -0.3291  0.6295
  152TMC2    O1 2374   1.142   0.975  12.664  0.4825 -0.2414  0.1134
  152TMC2    O2 2375   1.343   0.382  12.654  0.6210  0.2564 -0.3217
  152TMC2    O5 2376   1.144   0.294  12.579  0.0481 -0.5060 -0.0333
  152TMC2    H5 2377   1.053   0.330  12.577 -0.1526 -0.9614  0.8562
  153MPD2     C 2378   0.579   0.393  12.440  0.0767 -0.1146 -0.3309
  153MPD2    C1 2379   0.618   0.515  12.489 -0.0732 -0.3732 -0.6762
  153MPD2    C2 2380   0.517   0.612  12.508 -0.3985  0.3914  0.2318
  153MPD2    C3 2381   0.391   0.595  12.449 -0.1236 -0.1698  0.5918
  153MPD2    C4 2382   0.362   0.477  12.384  0.3995 -0.0409  0.0598
  153MPD2    C5 2383   0.459   0.379  12.374  0.2601 -0.6779 -0.1854
  153MPD2     H 2384   0.547   0.703  12.558 -0.2244 -0.2748  1.3229
  153MPD2    H1 2385   0.270   0.467  12.328  0.8530 -1.0243 -0.5102
  153MPD2    H2 2386   0.641   0.307  12.417 -1.1324 -0.7620 -1.1558
  153MPD2    H3 2387   0.435   0.288  12.321 -0.4379  0.1176 -1.2345
  153MPD2     N 2388   0.298   0.700  12.479 -0.1413 -0.4041 -0.3897
  153MPD2    H5 2389   0.336   0.782  12.526 -0.5641 -1.1183  1.1795
  153MPD2    N1 2390   0.749   0.519  12.536  0.6672  0.2276  0.7748
  153MPD2    H7 2391   0.804   0.435  12.518 -1.7128 -1.7820  2.9120
  154TMC2    C1 2392   1.518   1.164  17.356  0.3331 -0.7608 -0.6347
  154TMC2    C2 2393   1.599   1.275  17.357  0.3295 -0.0804  0.0027
  154TMC2    C3 2394   1.577   1.356  17.253 -1.1485  0.0380 -0.0426
  154TMC2    C4 2395   1.424   1.132  17.255  0.6478  0.7606  0.0317
  154TMC2    C5 2396   1.409   1.221  17.157 -0.2008 -0.8325 -0.9046
  154TMC2    C6 2397   1.484   1.337  17.149  0.6840 -0.2658 -0.4911
  154TMC2     C 2398   1.514   1.078  17.476 -0.5046  0.2922 -0.3503
  154TMC2     O 2399   1.552   1.131  17.582  0.7042 -0.5161 -0.3802
  154TMC2     H 2400   1.669   1.282  17.440 -1.4094  4.1389  1.0955
  154TMC2    H1 2401   1.369   1.039  17.263  0.6990  0.6628 -0.7324
  154TMC2    H2 2402   1.483   1.399  17.060  1.8634 -0.6740 -0.7866
  154TMC2    C7 2403   1.292   1.215  17.066 -0.1967  0.5893  0.5227
  154TMC2    C8 2404   1.666   1.470  17.243  0.4898 -0.3994 -0.4595
  154TMC2    O1 2405   1.214   1.132  17.108 -0.4245 -0.2215  0.4923
  154TMC2    O2 2406   1.770   1.474  17.310 -0.7952  0.2484  0.2955
  154TMC2    O5 2407   1.591   1.577  17.211  0.1038 -0.1273  0.6000
  154TMC2    H5 2408   1.508   1.553  17.166  1.1161 -2.0191 -0.2580
  155MPD2     C 2409   1.537   0.713  17.477  0.1058  0.7630 -0.3586
  155MPD2    C1 2410   1.544   0.838  17.534 -0.1980 -0.5410  0.5865
  155MPD2    C2 2411   1.561   0.844  17.665 -0.4601 -0.0870  0.2411
  155MPD2    C3 2412   1.580   0.736  17.743  0.6621  0.1882  0.3892
  155MPD2    C4 2413   1.587   0.612  17.692  1.2077 -0.2043 -0.1302
  155MPD2    C5 2414   1.570   0.602  17.557 -0.0089  0.1278  0.1232
  155MPD2     H 2415   1.560   0.938  17.719  1.3134  0.1594 -0.1485
  155MPD2    H1 2416   1.623   0.523  17.743  0.1403  0.3645  1.6190
  155MPD2    H2 2417   1.516   0.708  17.371 -0.8283  2.2841 -0.2588
  155MPD2    H3 2418   1.587   0.507  17.508  0.6419  0.6114 -0.5838
  155MPD2     N 2419   1.603   0.764   0.133 -0.0200 -0.4893  0.3758
  155MPD2    H5 2420   1.598   0.861   0.161  1.5345  0.1946 -1.6915
  155MPD2    N1 2421   1.526   0.949  17.441  0.2165 -0.0667 -0.2319
  155MPD2    H7 2422   1.517   0.915  17.346 -3.7472 -1.2792  0.5959
  156TMC2    C1 2423   0.914   2.636  11.628  0.2053 -0.0452 -0.1654
  156TMC2    C2 2424   1.028   2.604  11.564 -0.3560  0.4172 -0.1633
  156TMC2    C3 2425   1.020   2.589  11.423 -0.3042 -0.3340 -0.1703
  156TMC2    C4 2426   0.793   2.644  11.562 -0.3676 -0.8231 -0.2790
  156TMC2    C5 2427   0.790   2.622  11.426  0.2486 -0.6434  0.2480
  156TMC2    C6 2428   0.905   2.607  11.354  0.3975  0.1072  0.5572
  156TMC2     C 2429   0.916   2.670  11.764  0.5954  0.4478  0.1585
  156TMC2     O 2430   0.812   2.663  11.823  0.0670 -0.1333 -0.3631
  156TMC2     H 2431   1.124   2.593  11.614 -0.6782  1.6412  0.7248
  156TMC2    H1 2432   0.702   2.672  11.615 -0.9684 -0.8830 -1.2912
  156TMC2    H2 2433   0.901   2.585  11.248 -2.2008  0.6256  0.5491
  156TMC2    C7 2434   0.678   2.680  11.356 -0.0431 -0.2581 -0.6005
  156TMC2    C8 2435   1.136   2.537  11.350  0.2585  0.2374 -0.2748
  156TMC2    O1 2436   0.611   2.758  11.419 -0.3742 -0.2165 -0.1437
  156TMC2    O2 2437   1.214   2.452  11.388 -0.0282  0.2581  0.4014
  156TMC2    O5 2438   1.155   2.640  11.259  0.5789  0.2666  0.3757
  156TMC2    H5 2439   1.090   2.714  11.253 -0.7426 -0.9232  0.0131
  157MPD2     C 2440   1.180   2.854  11.944 -0.1118  0.0899 -0.0918
  157MPD2    C1 2441   1.051   2.797  11.924  0.2541  0.4941  0.9180
  157MPD2    C2 2442   0.959   2.805  12.030 -0.1693  0.2042  0.0796
  157MPD2    C3 2443   0.992   2.853  12.155 -0.2631 -0.3993 -0.4231
  157MPD2    C4 2444   1.123   2.882  12.180 -0.1028 -1.2772 -0.3356
  157MPD2    C5 2445   1.208   2.900  12.068  0.6395 -0.5003  0.0107
  157MPD2     H 2446   0.854   2.782  12.017 -0.6353  2.1581  0.4193
  157MPD2    H1 2447   1.156   2.908  12.280  0.4563  0.9111 -1.1029
  157MPD2    H2 2448   1.263   2.856  11.875 -0.9490  0.7603 -1.0928
  157MPD2    H3 2449   1.313   2.924  12.084  0.7530  1.5134 -3.7370
  157MPD2     N 2450   0.893   2.876  12.252 -0.0974  0.2168 -0.3872
  157MPD2    H5 2451   0.794   2.856  12.239  1.0878 -4.0733 -3.0617
  157MPD2    N1 2452   1.027   2.746  11.796  0.8035  0.1511 -0.6408
  157MPD2    H7 2453   1.096   2.748  11.722  0.6882  2.2177 -0.6771
  158TMC2    C1 2454   1.489   1.883  13.551  0.3432  0.2103 -0.2357
  158TMC2    C2 2455   1.603   1.837  13.484 -0.3781 -0.3256 -0.1366
  158TMC2    C3 2456   1.609   1.852  13.347 -0.0023  0.3578  0.9675
  158TMC2    C4 2457   1.385   1.932  13.483  0.3780 -0.3623 -0.3678
  158TMC2    C5 2458   1.398   1.950  13.349 -0.8225 -0.1136  0.0075
  158TMC2    C6 2459   1.508   1.917  13.275 -0.4694  0.6848  0.1510
  158TMC2     C 2460   1.460   1.835  13.688 -0.3478 -0.6275 -0.2388
  158TMC2     O 2461   1.376   1.895  13.753  0.4290  0.2963 -0.2983
  158TMC2     H 2462   1.682   1.792  13.543  0.0978  2.2744  1.2048
  158TMC2    H1 2463   1.295   1.961  13.536  0.3478 -2.3875  0.6860
  158TMC2    H2 2464   1.517   1.937  13.169 -1.6935 -1.4753 -0.3495
  158TMC2    C7 2465   1.273   1.971  13.281  0.1087  0.5468 -0.4497
  158TMC2    C8 2466   1.731   1.842  13.276 -0.9573 -0.3648 -0.4479
  158TMC2    O1 2467   1.287   2.019  13.168  0.2853 -0.1227 -0.1013
  158TMC2    O2 2468   1.754   1.896  13.169 -0.0608  0.3794  0.2150
  158TMC2    O5 2469   1.823   1.831  13.374  0.4262  0.2234  0.7218
  158TMC2    H5 2470   1.799   1.745  13.416 -1.2057  0.7410  0.8375
  159MPD2     C 2471   1.605   1.577  14.093  0.2822 -0.8673  0.1173
  159MPD2    C1 2472   1.600   1.482  13.992  0.4026 -0.8675 -0.2596
  159MPD2    C2 2473   1.580   1.533  13.865  0.5314 -0.0060  0.3136
  159MPD2    C3 2474   1.556   1.671  13.848 -0.1071  0.0382 -0.9047
  159MPD2    C4 2475   1.559   1.757  13.955 -0.3150  0.3983 -0.0503
  159MPD2    C5 2476   1.592   1.707  14.079  0.1455 -0.1280 -0.0648
  159MPD2     H 2477   1.586   1.473  13.776 -2.1058  0.0875  0.0694
  159MPD2    H1 2478   1.530   1.860  13.944 -0.6942  0.4451  1.3140
  159MPD2    H2 2479   1.614   1.539  14.194  1.4616  0.7108  0.6167
  159MPD2    H3 2480   1.590   1.779  14.160 -2.7703 -0.3667  0.0924
  159MPD2     N 2481   1.527   1.716  13.715  0.5050 -0.1852  0.4704
  159MPD2    H5 2482   1.555   1.656  13.637  1.4146  0.7172  0.0909
  159MPD2    N1 2483   1.589   1.346  14.025 -0.5899  0.1233  0.4444
  159MPD2    H7 2484   1.617   1.321  14.119 -1.1486  2.1236  1.1393
  160TMC2    C1 2485   0.904   4.268   0.761 -0.6730 -0.8500 -0.2845
  160TMC2    C2 2486   0.825   4.197   0.849  0.1115 -0.0039  0.6946
  160TMC2    C3 2487   0.870   4.071   0.896  0.0527 -0.3333  0.1647
  160TMC2    C4 2488   1.029   4.227   0.735 -0.0630  0.0644  0.1681
  160TMC2    C5 2489   1.073   4.108   0.789  0.3936  0.1549 -0.2142
  160TMC2    C6 2490   0.993   4.032   0.871 -1.6075 -0.2071  0.2368
  160TMC2     C 2491   0.856   4.386   0.699 -0.2323 -0.1057 -0.2254
  160TMC2     O 2492   0.906   4.403   0.589  0.8247 -0.3915  0.1182
  160TMC2     H 2493   0.722   4.226   0.860 -0.1628 -0.9013  0.5048
  160TMC2    H1 2494   1.089   4.288   0.668  0.3783 -0.5666 -0.0120
  160TMC2    H2 2495   1.021   3.935   0.911  0.2703  1.7325  3.5864
  160TMC2    C7 2496   1.219   4.084   0.784  0.9056 -0.9824  0.8671
  160TMC2    C8 2497   0.793   4.027   1.014  0.1440 -0.3338  1.1104
  160TMC2    O1 2498   1.270   3.974   0.792  0.6483  0.2095 -0.3265
  160TMC2    O2 2499   0.673   4.039   1.002 -0.5284 -0.6634 -0.2733
  160TMC2    O5 2500   0.863   4.072   1.120 -0.0023 -0.1752 -0.3439
  160TMC2    H5 2501   0.959   4.075   1.099  0.7167  0.0472  3.0609
  161MPD2     C 2502   0.811   4.677   0.643  0.2669 -0.1973 -0.0091
  161MPD2    C1 2503   0.760   4.607   0.759  0.3281  0.5726 -0.4368
  161MPD2    C2 2504   0.668   4.670   0.840  0.7960 -0.8194  0.5472
  161MPD2    C3 2505   0.635   0.068   0.820 -0.3840 -0.1285  0.5239
  161MPD2    C4 2506   0.685   0.133   0.714  0.7902  0.3472  0.5084
  161MPD2    C5 2507   0.769   0.069   0.626  0.7197 -0.2061  0.6424
  161MPD2     H 2508   0.614   4.605   0.908 -0.5613 -0.0647  0.2077
  161MPD2    H1 2509   0.663   0.237   0.691 -1.5811 -0.1307  0.6149
  161MPD2    H2 2510   0.881   4.638   0.571  1.0115 -0.5897  0.9192
  161MPD2    H3 2511   0.801   0.132   0.543 -1.4347 -0.2998 -0.2816
  161MPD2     N 2512   0.540   0.133   0.897  0.1586  0.1493 -0.2854
  161MPD2    H5 2513   0.505   0.220   0.859  1.6663 -0.4633 -3.0692
  161MPD2    N1 2514   0.787   4.469   0.784 -0.5873 -0.4264  0.1047
  161MPD2    H7 2515   0.776   4.436   0.879 -2.2312 -0.1568  0.0198
  162TMC2    C1 2516   4.143   1.587   0.915 -0.3324 -0.0783 -0.3207
  162TMC2    C2 2517   4.119   1.702   0.989 -0.0938  0.1335  0.0766
  162TMC2    C3 2518   4.203   1.738   1.092  0.1510  0.4300 -0.2062
  162TMC2    C4 2519   4.252   1.511   0.947  0.2504  0.4991 -0.8011
  162TMC2    C5 2520   4.328   1.542   1.061  0.7047 -0.0564  0.1265
  162TMC2    C6 2521   4.309   1.658   1.132  0.6910 -0.3714 -0.0435
  162TMC2     C 2522   4.077   1.570   0.787  0.5755  0.1628 -0.3788
  162TMC2     O 2523   4.131   1.485   0.714 -0.2523  0.0266 -0.4389
  162TMC2     H 2524   4.049   1.779   0.959  0.0862  0.1233 -0.3667
  162TMC2    H1 2525   4.279   1.430   0.880 -0.7093 -0.9191  0.5409
  162TMC2    H2 2526   4.380   1.683   1.210 -3.4042  3.2606  2.5105
  162TMC2    C7 2527   4.445   1.468   1.098  0.4843 -0.3862  0.9419
  162TMC2    C8 2528   4.161   1.850   1.184 -0.1597  0.2256 -0.2630
  162TMC2    O1 2529   4.518   1.519   1.180  0.2822 -0.2444 -0.3809
  162TMC2    O2 2530   4.046   1.895   1.189 -0.5488  0.5573 -0.2649
  162TMC2    O5 2531   4.283   1.903   1.230 -0.2882  0.3863 -0.6028
  162TMC2    H5 2532   4.359   1.849   1.200  1.1430  0.5254  2.8588
  163MPD2     C 2533   3.738   1.727   0.427 -0.3253 -0.2944  0.0674
  163MPD2    C1 2534   3.844   1.643   0.414 -0.2911  0.4694 -0.3713
  163MPD2    C2 2535   3.928   1.619   0.525 -0.0606 -0.2527 -0.5090
  163MPD2    C3 2536   3.898   1.664   0.653  0.0171  0.6901  0.7332
  163MPD2    C4 2537   3.790   1.746   0.655 -0.0641  0.0548  0.0657
  163MPD2    C5 2538   3.716   1.787   0.548 -0.5703 -0.1226 -0.1511
  163MPD2     H 2539   4.016   1.557   0.515  0.4534  0.3191  0.4065
  163MPD2    H1 2540   3.757   1.786   0.751 -0.1366  3.0563 -1.2292
  163MPD2    H2 2541   3.681   1.761   0.341  1.1880  1.3978 -0.2573
  163MPD2    H3 2542   3.633   1.857   0.558  0.4795  1.2865 -1.3256
  163MPD2     N 2543   3.969   1.651   0.777  0.1069  0.2655 -0.6057
  163MPD2    H5 2544   3.939   1.710   0.854 -0.5646  0.5844 -1.1104
  163MPD2    N1 2545   3.873   1.596   0.284  0.5255 -0.3178  0.4975
  163MPD2    H7 2546   3.811   1.631   0.212  1.3953  0.1158 -0.0406
  164TMC2    C1 2547   4.265   1.443  11.176  0.6676  0.3177  0.4305
  164TMC2    C2 2548   4.361   1.508  11.111  0.4287  0.5513 -0.6573
  164TMC2    C3 2549   4.354   1.647  11.118  0.2827 -0.9503  0.2001
  164TMC2    C4 2550   4.181   1.497  11.268  0.5908  0.1457  0.6757
  164TMC2    C5 2551   4.173   1.628  11.273  0.3187  0.0382  0.5492
  164TMC2    C6 2552   4.255   1.706  11.195 -0.1200  0.1447 -0.1286
  164TMC2     C 2553   4.280   1.297  11.185  0.0864 -0.4447 -0.4274
  164TMC2     O 2554   4.215   1.245  11.276 -0.1486 -0.4534  0.4527
  164TMC2     H 2555   4.439   1.458  11.054 -1.1471  0.2771 -2.5794
  164TMC2    H1 2556   4.099   1.438  11.307 -0.5835  1.5538  0.3349
  164TMC2    H2 2557   4.236   1.811  11.181 -1.3378 -0.3830 -2.5047
  164TMC2    C7 2558   4.043   1.682  11.303  0.2015  0.3136 -0.0992
  164TMC2    C8 2559   4.420   1.716  11.013  0.0143 -0.1337 -0.0290
  164TMC2    O1 2560   4.004   1.782  11.241 -0.3745  0.0279  0.2388
  164TMC2    O2 2561   4.455   1.665  10.906  0.7125  0.3470  0.1482
  164TMC2    O5 2562   4.435   1.842  11.051 -0.1186 -0.3996  0.1565
  164TMC2    H5 2563   4.411   1.870  11.142 -0.8000 -2.4795  0.6243
  165TMC2    C1 2564   0.288   2.658   1.001  0.4513  0.1473  0.1291
  165TMC2    C2 2565   0.348   2.586   1.096 -0.6062  0.5613 -0.3762
  165TMC2    C3 2566   0.447   2.656   1.160  0.1615  0.1907 -0.1364
  165TMC2    C4 2567   0.319   2.787   0.972  0.2765 -0.6225  0.0421
  165TMC2    C5 2568   0.419   2.855   1.031 -0.4586 -0.1146 -0.4764
  165TMC2    C6 2569   0.476   2.788   1.138  0.1853  0.0354 -0.2693
  165TMC2     C 2570   0.184   2.595   0.930 -0.3979 -0.7257 -0.3935
  165TMC2     O 2571   0.185   2.475   0.935  0.0413  0.3861 -0.1776
  165TMC2     H 2572   0.311   2.493   1.137  0.3542  0.4888  0.3263
  165TMC2    H1 2573   0.255   2.834   0.899  0.7847 -0.9897 -0.6295
  165TMC2    H2 2574   0.568   2.829   1.177  1.6248 -1.4217 -2.1707
  165TMC2    C7 2575   0.483   2.969   0.973  0.9562  0.1404  0.4919
  165TMC2    C8 2576   0.528   2.585   1.255  0.0289  0.2765  0.4249
  165TMC2    O1 2577   0.607   2.981   0.982  0.4918  0.0665  0.0482
  165TMC2    O2 2578   0.594   2.484   1.228 -0.5883  0.2768 -0.1408
  165TMC2    O5 2579   0.533   2.666   1.359  0.4066  0.0516 -0.0386
  165TMC2    H5 2580   0.457   2.728   1.359  0.0747 -0.3362  1.4910
  166MPD2     C 2581   4.460   2.552   0.710 -0.0436 -0.4387  0.0060
  166MPD2    C1 2582   4.564   2.460   0.724  0.2210 -0.5582  0.2680
  166MPD2    C2 2583   4.687   2.492   0.785 -0.1079 -0.2943 -0.0926
  166MPD2    C3 2584   4.703   2.624   0.829 -0.5633  0.5039 -0.1540
  166MPD2    C4 2585   4.605   2.719   0.807 -0.0056  0.1386  0.1887
  166MPD2    C5 2586   4.486   2.684   0.745 -0.0930 -0.2151  0.1236
  166MPD2     H 2587   0.029   2.421   0.799 -0.4079 -0.5969  0.0767
  166MPD2    H1 2588   4.623   2.823   0.832 -1.0742  0.9352 -2.3768
  166MPD2    H2 2589   4.362   2.518   0.679  0.6610 -1.8952 -0.6572
  166MPD2    H3 2590   4.408   2.756   0.724 -0.5553 -0.6304  0.4085
  166MPD2     N 2591   0.082   2.674   0.888  0.4012  0.6154  0.6208
  166MPD2    H5 2592   0.099   2.772   0.906  3.1662  0.1281  0.6894
  166MPD2    N1 2593   4.526   2.329   0.672 -0.2722 -0.4680 -0.0364
  166MPD2    H7 2594   4.430   2.327   0.642 -0.2611  2.0508 -0.2036
  167TMC2    C1 2595   3.473   1.257  13.051 -0.2396 -0.6018 -0.1401
  167TMC2    C2 2596   3.356   1.291  13.108  0.9541 -0.4822  0.6398
  167TMC2    C3 2597   3.233   1.278  13.044  0.5722 -0.5029 -0.3062
  167TMC2    C4 2598   3.472   1.187  12.931 -0.5234  0.3248 -0.4830
  167TMC2    C5 2599   3.352   1.168  12.875  0.3561  0.1208  0.2583
  167TMC2    C6 2600   3.232   1.214  12.919 -0.4577  0.3913  0.9932
  167TMC2     C 2601   3.597   1.314  13.095  0.0454 -0.2510  0.5515
  167TMC2     O 2602   3.601   1.355  13.210  0.3361 -0.3583 -0.0478
  167TMC2     H 2603   3.361   1.338  13.206 -0.2777 -1.2976  1.0953
  167TMC2    H1 2604   3.566   1.149  12.891 -0.2281  1.4507 -0.8431
  167TMC2    H2 2605   3.132   1.212  12.878 -0.3347  1.0366  0.6791
  167TMC2    C7 2606   3.338   1.083  12.753 -0.2333  0.1703 -0.2380
  167TMC2    C8 2607   3.108   1.356  13.067  0.0279 -0.3876  0.3667
  167TMC2    O1 2608   3.232   1.026  12.758  0.3491 -0.4947  0.2309
  167TMC2    O2 2609   3.011   1.292  13.031 -0.9372  0.3185 -0.0050
  167TMC2    O5 2610   3.116   1.413  13.192 -0.3604 -0.1220  0.8015
  167TMC2    H5 2611   3.193   1.474  13.202  1.6510 -2.3801 -0.7807
  168MPD2     C 2612   3.871   1.457  13.117 -0.0654  0.2980 -0.1096
  168MPD2    C1 2613   3.818   1.397  13.005  0.2455  0.1174  0.0052
  168MPD2    C2 2614   3.887   1.400  12.885  0.1362 -0.5892  0.3638
  168MPD2    C3 2615   4.005   1.471  12.871  0.4981 -0.5539 -0.6957
  168MPD2    C4 2616   4.039   1.549  12.977 -0.2248  0.1503 -0.6283
  168MPD2    C5 2617   3.980   1.533  13.099 -0.1353 -0.4658 -0.5372
  168MPD2     H 2618   3.850   1.336  12.806 -0.1927  0.4545 -0.3238
  168MPD2    H1 2619   4.126   1.613  12.973 -1.0706  1.2250 -1.7473
  168MPD2    H2 2620   3.829   1.450  13.217 -2.5788 -2.1591 -1.3347
  168MPD2    H3 2621   4.030   1.579  13.183 -0.3632 -1.3299  0.0715
  168MPD2     N 2622   4.074   1.483  12.749  0.2662 -0.5619 -0.3919
  168MPD2    H5 2623   4.148   1.554  12.745  1.1165 -1.3978  0.5090
  168MPD2    N1 2624   3.685   1.334  12.993  0.4920 -0.0988  0.2617
  168MPD2    H7 2625   3.659   1.302  12.900 -0.8048 -1.1646  0.9873
  169MPD1     C 2626   0.281   1.271   9.959 -0.7490 -0.2979 -0.0186
  169MPD1    C1 2627   0.331   1.155  10.018 -0.2274  1.0309 -0.3576
  169MPD1    C2 2628   0.463   1.125  10.007 -0.8800 -0.8374 -0.0149
  169MPD1    C3 2629   0.553   1.216   9.941 -0.1062  0.0957 -0.0939
  169MPD1    C4 2630   0.499   1.332   9.886 -0.1051  0.1482 -0.3478
  169MPD1    C5 2631   0.364   1.358   9.891  0.0983 -0.1756 -0.4509
  169MPD1     H 2632   0.500   1.029  10.044 -0.9256 -0.0153  2.1390
  169MPD1    H1 2633   0.548   1.411   9.830  1.4486 -1.1925 -0.8923
  169MPD1    H2 2634   0.178   1.304   9.964 -0.2199  1.2136  0.9954
  169MPD1    H3 2635   0.325   1.452   9.853 -0.6036 -0.9341 -1.6057
  169MPD1     N 2636   0.692   1.175   9.937  0.3761 -0.1672 -0.4956
  169MPD1    H5 2637   0.707   1.083   9.976  1.0238  0.2738  0.3133
  169MPD1    N1 2638   0.252   1.080  10.107 -0.7609 -0.3549 -0.9463
  169MPD1    H6 2639   0.152   1.071  10.088 -1.2251  0.9387  0.9270
  169MPD1    H7 2640   0.284   0.983  10.103 -2.3059 -0.9443  0.9764
  170MPD1     C 2641   0.223   2.930  12.768 -0.1065 -0.0539  0.4545
  170MPD1    C1 2642   0.208   2.899  12.899 -0.4265 -0.0229  0.3392
  170MPD1    C2 2643   0.138   2.994  12.975 -0.5889 -0.4827 -0.0571
  170MPD1    C3 2644   0.074   3.111  12.924 -0.0186  0.0927 -0.2619
  170MPD1    C4 2645   0.088   3.135  12.787  0.2327 -0.1699  0.0649
  170MPD1    C5 2646   0.150   3.035  12.715  0.4167 -0.0976 -0.0410
  170MPD1     H 2647   0.145   2.991  13.083 -2.7833 -0.0595  0.0949
  170MPD1    H1 2648   0.060   3.222  12.728 -2.2926 -1.7223 -1.0268
  170MPD1    H2 2649   0.262   2.855  12.699 -2.0929 -0.3042 -0.3788
  170MPD1    H3 2650   0.167   3.047  12.609  1.1273  1.2263  0.2194
  170MPD1     N 2651   0.024   3.206  13.014 -0.3392 -0.1313 -0.5078
  170MPD1    H5 2652   0.040   3.180  13.111 -0.7066 -0.9987 -0.6759
  170MPD1    N1 2653   0.270   2.786  12.956 -0.1456 -1.2507  0.2022
  170MPD1    H6 2654   0.212   2.758  13.035  0.5623 -0.9868  0.8053
  170MPD1    H7 2655   0.282   2.705  12.895  0.0485 -1.0575 -0.0118
  171MPD1     C 2656   3.398   0.139  15.363 -0.5154 -0.3163 -0.1837
  171MPD1    C1 2657   3.389   0.020  15.300  0.4638  0.3783 -0.6704
  171MPD1    C2 2658   3.410   4.642  15.370 -0.6481 -0.0142  0.6667
  171MPD1    C3 2659   3.425   4.638  15.509 -1.3138 -0.0166  0.1068
  171MPD1    C4 2660   3.406   0.022  15.575 -0.0499  0.0107 -0.3797
  171MPD1    C5 2661   3.402   0.142  15.503 -0.4382 -0.6738  0.4089
  171MPD1     H 2662   3.418   4.559  15.301  0.3067 -0.1648  0.9663
  171MPD1    H1 2663   3.398   0.037  15.682  3.0422  0.4278 -0.1960
  171MPD1    H2 2664   3.390   0.235  15.313 -0.8458  0.1879  0.8105
  171MPD1    H3 2665   3.400   0.238  15.553 -2.1749  1.0044 -2.8207
  171MPD1     N 2666   3.443   4.523  15.593 -0.2168  0.6751 -0.0424
  171MPD1    H5 2667   3.450   4.548  15.691  2.0165 -0.0250 -0.0224
  171MPD1    N1 2668   3.379   0.020  15.159 -1.0060 -0.0068  0.8306
  171MPD1    H6 2669   3.330   0.097  15.114  0.9453  0.7030 -0.0689
  171MPD1    H7 2670   3.352   4.664  15.130 -0.2973 -0.0936  0.4749
  172MPD1     C 2671   2.106   4.059  17.254 -0.5938  0.2449  0.2276
  172MPD1    C1 2672   2.185   4.018  17.362 -0.0695 -0.1815 -0.1797
  172MPD1    C2 2673   2.153   4.076  17.479 -0.4307 -0.0958 -0.2203
  172MPD1    C3 2674   2.055   4.171  17.497  0.5121 -0.5831  0.0501
  172MPD1    C4 2675   1.970   4.200  17.391  0.0543  0.6404 -0.0315
  172MPD1    C5 2676   2.002   4.146  17.268 -0.7064 -0.1592  0.1891
  172MPD1     H 2677   2.215   4.049  17.564 -2.4257  0.8033  1.5066
  172MPD1    H1 2678   1.890   4.269  17.416 -0.8113  0.7698 -3.0857
  172MPD1    H2 2679   2.114   4.012  17.157  0.3436 -1.1218  0.9815
  172MPD1    H3 2680   1.934   4.155  17.184  2.2693 -0.6668 -2.2855
  172MPD1     N 2681   2.015   4.229  17.619  0.9883 -0.0214 -0.0642
  172MPD1    H5 2682   1.934   4.289  17.612  2.7767  2.3415 -0.4515
  172MPD1    N1 2683   2.289   3.926  17.346  0.4456 -0.0942 -0.3047
  172MPD1    H6 2684   2.336   3.890  17.429  2.1488  1.5239 -0.5687
  172MPD1    H7 2685   2.365   3.954  17.285  0.3007 -1.2591 -1.0132
  173MPD1     C 2686   4.217   4.246  13.594  0.3258 -0.3673  0.7560
  173MPD1    C1 2687   4.309   4.142  13.607 -0.1666 -0.1338 -0.0304
  173MPD1    C2 2688   4.314   4.078  13.725  0.1029 -0.3787  0.6759
  173MPD1    C3 2689   4.231   4.108  13.831  0.2123  0.6674  0.4590
  173MPD1    C4 2690   4.136   4.205  13.811 -0.0255  0.5010 -0.2314
  173MPD1    C5 2691   4.142   4.278  13.698  0.4729 -0.0559 -0.2865
  173MPD1     H 2692   4.394   4.011  13.753  1.7498  1.6912  0.9907
  173MPD1    H1 2693   4.063   4.237  13.884 -0.7348  3.0114 -2.0390
  173MPD1    H2 2694   4.219   4.317  13.512  1.6785 -1.2199  0.0472
  173MPD1    H3 2695   4.088   4.373  13.697 -0.3540 -0.5192  0.1913
  173MPD1     N 2696   4.240   4.045  13.955  0.2633  0.1385  0.3087
  173MPD1    H5 2697   4.309   3.971  13.956  0.2515  0.0894 -2.2790
  173MPD1    N1 2698   4.409   4.142  13.515  0.1802 -0.2520  0.1962
  173MPD1    H6 2699   4.380   4.168  13.420  0.1859  0.6245  0.4370
  173MPD1    H7 2700   4.432   4.045  13.494  1.6349  0.0225  0.5082
  174MPD1     C 2701   4.729   3.376  14.105 -0.6117 -0.0661 -0.0678
  174MPD1    C1 2702   4.616   3.340  14.185 -0.0386  0.1491 -0.6907
  174MPD1    C2 2703   4.518   3.439  14.204  0.2752 -0.7293  0.8343
  174MPD1    C3 2704   4.541   3.565  14.149  0.2695  0.0795  0.3028
  174MPD1    C4 2705   4.642   3.598  14.070  0.3994 -0.0411  1.0357
  174MPD1    C5 2706   0.007   3.500  14.054  0.6001  0.5778  0.5643
  174MPD1     H 2707   4.433   3.413  14.265 -1.2212 -2.0074 -1.8053
  174MPD1    H1 2708   4.664   3.696  14.030 -2.0570 -0.5801 -1.6671
  174MPD1    H2 2709   0.062   3.297  14.083 -0.8688 -0.1201 -0.6870
  174MPD1    H3 2710   0.093   3.520  13.991  0.1207  1.7945  0.2911
  174MPD1     N 2711   4.446   3.670  14.175 -0.2873  0.5920 -0.2394
  174MPD1    H5 2712   4.473   3.758  14.132  0.8139 -0.7941 -2.4044
  174MPD1    N1 2713   4.584   3.205  14.217 -0.2204 -0.0115  0.3314
  174MPD1    H6 2714   4.513   3.187  14.146  0.1301  0.6786 -0.1979
  174MPD1    H7 2715   4.660   3.142  14.193 -2.8219 -2.8289 -0.5703
  175MPD1     C 2716   3.050   0.203  15.528  0.1450  0.0133  0.2501
  175MPD1    C1 2717   2.993   0.095  15.466  0.2547  0.0583  0.0867
  175MPD1    C2 2718   2.860   0.061  15.498  0.8475  0.1666  0.6927
  175MPD1    C3 2719   2.793   0.130  15.595 -0.3733  1.0045  0.8100
  175MPD1    C4 2720   2.847   0.238  15.651  0.1100 -0.5701  0.3091
  175MPD1    C5 2721   2.971   0.279  15.606  1.1647  0.1456 -0.7304
  175MPD1     H 2722   2.814   4.710  15.458  0.4326  0.6981 -0.0070
  175MPD1    H1 2723   2.799   0.290  15.732  0.7803  1.4904 -0.6066
  175MPD1    H2 2724   3.145   0.243  15.493 -0.1425  1.0349  0.6425
  175MPD1    H3 2725   3.001   0.374  15.649  1.8768  0.2355 -1.4212
  175MPD1     N 2726   2.677   0.083  15.655 -0.3239  0.2725  0.3034
  175MPD1    H5 2727   2.644   0.126  15.741 -0.8425  0.5347 -0.0232
  175MPD1    N1 2728   3.060   0.032  15.362 -0.4155 -0.0268  0.0776
  175MPD1    H6 2729   3.156   0.010  15.388 -1.0773 -3.6577 -0.5522
  175MPD1    H7 2730   3.017   4.678  15.353 -0.1013  0.3006 -4.7820
  176MPD1     C 2731   3.421   2.068   0.138  0.5865  0.0202 -0.3898
  176MPD1    C1 2732   3.382   2.099   0.007 -0.2035  0.1174 -0.1148
  176MPD1    C2 2733   3.445   2.215  17.708  0.3894 -0.0107 -0.6236
  176MPD1    C3 2734   3.518   2.301   0.030 -0.6568 -0.9937  0.2172
  176MPD1    C4 2735   3.552   2.268   0.156 -0.5598  0.0571 -0.2538
  176MPD1    C5 2736   3.512   2.146   0.206 -0.7296 -0.6057  0.0655
  176MPD1     H 2737   3.427   2.244  17.606 -0.8849  0.6778 -0.2102
  176MPD1    H1 2738   3.622   2.325   0.215 -1.7310  1.6583 -0.4234
  176MPD1    H2 2739   3.383   1.978   0.183  2.5809 -1.5804 -1.8883
  176MPD1    H3 2740   3.554   2.097   0.294  1.1136  0.8846  0.0290
  176MPD1     N 2741   3.572   2.416  17.711 -0.0829  0.1044 -0.6075
  176MPD1    H5 2742   3.549   2.424  17.613  0.2753  2.6936 -0.4623
  176MPD1    N1 2743   3.295   2.023  17.670 -0.2188  0.2460 -1.1272
  176MPD1    H6 2744   3.214   1.990  17.721  0.6063 -1.7271 -1.1148
  176MPD1    H7 2745   3.267   2.082  17.591 -1.6092  3.2988  1.6431
  177MPD1     C 2746   2.094   2.566   9.849 -0.3466 -0.1589  0.2379
  177MPD1    C1 2747   2.072   2.442   9.794  0.5686  0.9031  0.7572
  177MPD1    C2 2748   1.955   2.409   9.732  0.1349  0.5917 -0.0049
  177MPD1    C3 2749   1.865   2.502   9.702 -0.6511  0.3043 -0.3212
  177MPD1    C4 2750   1.890   2.634   9.739  0.1640  0.8979 -0.6599
  177MPD1    C5 2751   2.000   2.660   9.814 -0.3801 -0.0439 -0.0026
  177MPD1     H 2752   1.937   2.304   9.709  1.5066  0.4584 -0.4925
  177MPD1    H1 2753   1.814   2.709   9.722 -0.3397  0.5924  0.2333
  177MPD1    H2 2754   2.176   2.593   9.915 -1.7634 -0.4971  2.1271
  177MPD1    H3 2755   1.997   2.762   9.848 -1.2299  0.2641 -1.0052
  177MPD1     N 2756   1.741   2.456   9.644 -0.0922 -0.7873 -0.6752
  177MPD1    H5 2757   1.726   2.355   9.643 -1.8763 -0.5367 -0.2433
  177MPD1    N1 2758   2.160   2.338   9.822  0.4930 -0.3604 -0.3326
  177MPD1    H6 2759   2.259   2.361   9.809  0.7169 -2.2310 -2.0040
  177MPD1    H7 2760   2.138   2.258   9.763  2.1682 -1.7185  0.8679
  178MPD1     C 2761   4.518   2.231   0.144 -0.4517 -0.5749 -0.5204
  178MPD1    C1 2762   4.464   2.240   0.019 -0.3750 -0.3901  1.2114
  178MPD1    C2 2763   4.530   2.319  17.674  0.2977 -0.5189  0.6052
  178MPD1    C3 2764   4.663   2.360  17.699 -0.2144  0.6266 -0.5922
  178MPD1    C4 2765   4.718   2.346   0.074 -0.2812 -0.1370  0.2176
  178MPD1    C5 2766   4.646   2.276   0.170  0.1481  0.0540 -0.0092
  178MPD1     H 2767   4.475   2.347  17.585 -0.5812  1.4191  1.7638
  178MPD1    H1 2768   0.083   2.366   0.102  0.5313 -2.5787 -1.0409
  178MPD1    H2 2769   4.464   2.182   0.224 -1.1548 -1.8641 -1.7967
  178MPD1    H3 2770   4.689   2.252   0.267  0.6486  0.2620 -0.1799
  178MPD1     N 2771   0.010   2.417  17.601  0.3222 -0.1458 -1.1701
  178MPD1    H5 2772   0.101   2.453  17.628  0.8343 -0.2024 -2.8634
  178MPD1    N1 2773   4.331   2.207   0.006  0.7586  0.1961 -0.8576
  178MPD1    H6 2774   4.291   2.141   0.072 -1.1208 -0.7762 -2.9903
  178MPD1    H7 2775   4.307   2.179  17.661  0.2163  1.1987 -1.0081
  179MPD1     C 2776   4.384   1.157  14.900 -0.5672  0.1742  0.2176
  179MPD1    C1 2777   4.495   1.122  14.968 -0.9392  0.0084 -0.0726
  179MPD1    C2 2778   4.485   1.030  15.073 -0.4353 -0.0589 -0.2893
  179MPD1    C3 2779   4.359   0.975  15.102 -0.2363  0.9422  0.1246
  179MPD1    C4 2780   4.252   1.009  15.036  0.0103 -0.2908 -0.5150
  179MPD1    C5 2781   4.264   1.100  14.930  0.2827 -0.6163 -0.6421
  179MPD1     H 2782   4.573   0.999  15.128 -1.5646 -1.5079  0.6970
  179MPD1    H1 2783   4.154   0.965  15.052  0.3392 -0.6760  0.4373
  179MPD1    H2 2784   4.390   1.233  14.823  1.0326 -0.0841  0.0818
  179MPD1    H3 2785   4.171   1.124  14.881  0.5556  0.0474 -0.8343
  179MPD1     N 2786   4.345   0.876  15.199 -0.2675  0.0170  0.4076
  179MPD1    H5 2787   4.254   0.831  15.207 -1.0327  1.4145 -0.5125
  179MPD1    N1 2788   4.617   1.188  14.931 -0.0982 -0.0736 -0.2689
  179MPD1    H6 2789   4.682   1.122  14.888  2.4806  0.0631  3.3894
  179MPD1    H7 2790   4.596   1.261  14.864 -1.6953 -0.4931 -0.2184
  180MPD1     C 2791   3.918   2.145  15.254  0.8801 -0.0903  0.5001
  180MPD1    C1 2792   4.014   2.168  15.163 -0.5001 -0.5702  0.1571
  180MPD1    C2 2793   3.986   2.133  15.030 -0.7171  0.1682 -0.0934
  180MPD1    C3 2794   3.865   2.096  14.983  0.1538  0.1081  0.4627
  180MPD1    C4 2795   3.764   2.092  15.076 -0.5682  1.3153  0.8214
  180MPD1    C5 2796   3.792   2.118  15.211  0.5045  0.2632  0.2630
  180MPD1     H 2797   4.062   2.131  14.953  0.1111 -1.7660  0.7881
  180MPD1    H1 2798   3.661   2.077  15.046 -0.0751 -0.5837  0.0764
  180MPD1    H2 2799   3.927   2.167  15.360  1.1056  0.9714  0.2523
  180MPD1    H3 2800   3.715   2.109  15.286  0.3318  0.4055  0.1008
  180MPD1     N 2801   3.842   2.077  14.847 -0.5982 -0.5053  0.3121
  180MPD1    H5 2802   3.924   2.087  14.787 -0.7901  1.4642  0.3788
  180MPD1    N1 2803   4.149   2.196  15.199 -0.6762  0.0252  0.2024
  180MPD1    H6 2804   4.155   2.249  15.286  1.6563 -0.1588  0.1588
  180MPD1    H7 2805   4.205   2.241  15.126  1.0733 -1.0161  0.9028
  181MPD1     C 2806   0.844   4.521   8.393  0.4379  0.2645  0.5235
  181MPD1    C1 2807   0.793   4.402   8.444  0.3802  0.2864  0.5006
  181MPD1    C2 2808   0.840   4.350   8.561 -0.1026 -0.0763 -0.5200
  181MPD1    C3 2809   0.924   4.425   8.643 -0.1041  0.2722 -0.5719
  181MPD1    C4 2810   0.946   4.550   8.606 -0.3296 -1.0362 -0.3708
  181MPD1    C5 2811   0.918   4.597   8.479  0.6425  0.4223 -0.0799
  181MPD1     H 2812   0.812   4.250   8.591  0.9015 -0.3034 -0.3522
  181MPD1    H1 2813   1.006   4.619   8.665 -0.8345 -1.8929  1.1596
  181MPD1    H2 2814   0.818   4.550   8.292 -0.2004  0.4631  0.7420
  181MPD1    H3 2815   0.951   4.690   8.432 -0.7637  0.5661 -0.7758
  181MPD1     N 2816   0.975   4.387   8.770  0.2065  0.7149  0.6882
  181MPD1    H5 2817   1.027   4.456   8.824  0.2933 -0.8593  2.6419
  181MPD1    N1 2818   0.708   4.316   8.367  0.0870 -0.1947  0.4446
  181MPD1    H6 2819   0.661   4.369   8.294  0.0017 -2.4299 -1.1246
  181MPD1    H7 2820   0.630   4.288   8.425 -1.4819 -0.1735 -1.6513
  182MPD1     C 2821   1.893   2.907   1.357  0.6156 -0.2753 -0.6567
  182MPD1    C1 2822   1.976   2.927   1.251  0.7263  0.5847  0.3070
  182MPD1    C2 2823   1.914   2.949   1.126  0.0205 -0.0808  0.2380
  182MPD1    C3 2824   1.775   2.954   1.119 -0.1797  0.3668  0.2588
  182MPD1    C4 2825   1.694   2.937   1.230  0.4120  0.0407  0.7462
  182MPD1    C5 2826   1.758   2.923   1.351  0.2302 -0.2110 -0.5766
  182MPD1     H 2827   1.973   2.975   1.040 -1.8125 -0.9045 -1.2611
  182MPD1    H1 2828   1.586   2.935   1.220  0.4863 -2.3825  0.4868
  182MPD1    H2 2829   1.941   2.895   1.454 -0.7710  1.3832  0.2194
  182MPD1    H3 2830   1.697   2.901   1.437  0.9979 -0.3674 -0.0746
  182MPD1     N 2831   1.711   2.987   0.997  0.4658 -0.0595 -0.0447
  182MPD1    H5 2832   1.610   2.991   0.995  0.6036  2.0083 -2.7471
  182MPD1    N1 2833   2.114   2.908   1.275  0.3007  0.0289 -0.2215
  182MPD1    H6 2834   2.175   2.946   1.203  0.3957 -1.0503 -0.7084
  182MPD1    H7 2835   2.151   2.923   1.369  0.2617  0.9666 -0.3540
  183MPD1     C 2836   1.296   2.507   8.752 -0.3283 -0.3905 -0.8550
  183MPD1    C1 2837   1.199   2.605   8.793 -0.2910 -0.2798  0.6107
  183MPD1    C2 2838   1.246   2.729   8.833 -0.4535  0.2525  1.2924
  183MPD1    C3 2839   1.385   2.755   8.835 -0.7688  0.4470 -0.0828
  183MPD1    C4 2840   1.481   2.659   8.792  0.1339 -0.7242 -0.6441
  183MPD1    C5 2841   1.430   2.536   8.756 -0.5549  0.4481 -0.7421
  183MPD1     H 2842   1.179   2.805   8.872 -0.4721  1.1508 -0.4890
  183MPD1    H1 2843   1.585   2.673   8.816  0.4624 -3.2119 -0.5678
  183MPD1    H2 2844   1.256   2.410   8.725  0.4922 -1.5667  2.1287
  183MPD1    H3 2845   1.499   2.454   8.739  0.9196  1.5315 -0.0064
  183MPD1     N 2846   1.436   2.872   8.903  0.2020 -0.1683  0.2867
  183MPD1    H5 2847   1.364   2.921   8.954  0.5883  0.3809  0.3043
  183MPD1    N1 2848   1.069   2.558   8.829 -0.3321  0.1763  0.5588
  183MPD1    H6 2849   1.038   2.489   8.760  0.8684 -2.4208  2.6361
  183MPD1    H7 2850   1.000   2.630   8.814 -0.6794 -0.1939  0.3732
  184MPD1     C 2851   0.842   1.704  10.528 -0.7095 -0.8261 -0.1274
  184MPD1    C1 2852   0.848   1.633  10.411  0.1486 -1.5644 -0.9343
  184MPD1    C2 2853   0.882   1.704  10.297 -0.2919  0.2210  0.2718
  184MPD1    C3 2854   0.917   1.839  10.301 -0.0537  0.7343 -0.0787
  184MPD1    C4 2855   0.931   1.903  10.420 -0.2747 -0.1845 -0.2849
  184MPD1    C5 2856   0.891   1.834  10.529  0.3758  0.4020  0.3463
  184MPD1     H 2857   0.889   1.644  10.207 -0.4151 -2.2959  1.9492
  184MPD1    H1 2858   0.978   2.000  10.418  0.5975 -0.6488 -2.2682
  184MPD1    H2 2859   0.827   1.647  10.619  1.8046 -2.0595 -0.4808
  184MPD1    H3 2860   0.894   1.882  10.626 -0.0261 -1.9494  1.5319
  184MPD1     N 2861   0.952   1.905  10.182 -0.3851 -0.4133  0.4416
  184MPD1    H5 2862   0.978   2.004  10.189  0.4858 -0.6973  1.4155
  184MPD1    N1 2863   0.828   1.489  10.421 -0.1565 -0.1950 -0.4388
  184MPD1    H6 2864   0.765   1.456  10.494 -0.4498 -0.3809 -0.7778
  184MPD1    H7 2865   0.803   1.444  10.333 -3.9429 -0.2258  0.6328
  185MPD1     C 2866   0.833   1.689   9.172 -0.7227  0.2324 -0.2212
  185MPD1    C1 2867   0.937   1.781   9.189 -0.3710  0.1477  0.2026
  185MPD1    C2 2868   0.951   1.837   9.314  0.7765 -0.4177 -0.1621
  185MPD1    C3 2869   0.871   1.793   9.422 -0.2802  0.4113  0.7250
  185MPD1    C4 2870   0.767   1.708   9.399 -0.5677  0.1191  0.2686
  185MPD1    C5 2871   0.745   1.660   9.279  0.0900  0.0982  0.3014
  185MPD1     H 2872   1.031   1.906   9.336 -1.5153  1.7916  1.2449
  185MPD1    H1 2873   0.692   1.692   9.475 -1.6700  0.3849 -0.7643
  185MPD1    H2 2874   0.819   1.638   9.077  1.8206 -2.7678  1.0065
  185MPD1    H3 2875   0.655   1.603   9.262  0.0355  0.0745  0.6761
  185MPD1     N 2876   0.889   1.846   9.551  0.4610  0.8456  0.2207
  185MPD1    H5 2877   0.852   1.785   9.623  0.3090  1.1743  0.4204
  185MPD1    N1 2878   1.027   1.813   9.087  0.3482  0.6968 -0.2698
  185MPD1    H6 2879   1.078   1.898   9.111  2.3566 -0.1802 -1.4150
  185MPD1    H7 2880   0.997   1.796   8.991 -1.1458 -1.6339  0.6158
  186MPD1     C 2881   0.305   0.334  15.729  0.5202  0.5643 -0.1348
  186MPD1    C1 2882   0.405   0.363  15.819  0.4150 -0.3087  0.4395
  186MPD1    C2 2883   0.391   0.487  15.888  0.2374 -0.1208  0.1435
  186MPD1    C3 2884   0.285   0.573  15.866  0.2529 -0.0395 -0.7122
  186MPD1    C4 2885   0.188   0.533  15.779  0.3262 -0.7608  0.3547
  186MPD1    C5 2886   0.203   0.424  15.700 -0.0948 -0.0088 -0.5405
  186MPD1     H 2887   0.461   0.508  15.968  1.8097 -1.3425 -0.8946
  186MPD1    H1 2888   0.096   0.590  15.770  0.0689 -0.9436  1.6984
  186MPD1    H2 2889   0.302   0.237  15.680 -0.8868  0.4479  0.2038
  186MPD1    H3 2890   0.123   0.404  15.630 -0.2972 -0.6391 -0.1343
  186MPD1     N 2891   0.271   0.689  15.942  0.1758 -0.0081  0.3506
  186MPD1    H5 2892   0.183   0.736  15.923  1.1462  1.0714 -1.5319
  186MPD1    N1 2893   0.522   0.280  15.835 -0.1730  0.4931  0.1812
  186MPD1    H6 2894   0.570   0.279  15.924  2.2570  2.8071 -1.1226
  186MPD1    H7 2895   0.503   0.183  15.812 -0.0265  0.5141 -0.0235
  187MPD1     C 2896   4.437   3.214  17.531  0.3558 -0.1189 -0.1744
  187MPD1    C1 2897   4.323   3.146  17.553 -0.2189  0.6559  0.2632
  187MPD1    C2 2898   4.245   3.101  17.448  0.5675  0.0853 -0.2344
  187MPD1    C3 2899   4.273   3.137  17.315 -0.0793  0.1846  0.2734
  187MPD1    C4 2900   4.390   3.204  17.292 -0.6405  0.0099 -0.0899
  187MPD1    C5 2901   4.472   3.241  17.401  0.1724  0.4336  0.1615
  187MPD1     H 2902   4.160   3.037  17.471  0.9270 -0.3089 -0.0141
  187MPD1    H1 2903   4.416   3.218  17.188  1.1737 -0.7410  0.2501
  187MPD1    H2 2904   4.505   3.255  17.606  1.9661 -0.9642 -1.1763
  187MPD1    H3 2905   4.565   3.291  17.377 -0.5859  2.3970  1.3604
  187MPD1     N 2906   4.179   3.138  17.213  0.2309 -0.0973  0.2847
  187MPD1    H5 2907   4.210   3.153  17.117 -0.9271 -1.7651 -0.3449
  187MPD1    N1 2908   4.312   3.106  17.689  0.4117  0.2755 -0.8319
  187MPD1    H6 2909   4.342   3.175   0.007 -0.9566  0.1461 -0.0939
  187MPD1    H7 2910   4.212   3.093  17.708  0.7279 -2.5195 -1.0899
  188MPD1     C 2911   3.600   3.219  10.504 -0.2526 -0.7602  0.3036
  188MPD1    C1 2912   3.615   3.092  10.568 -0.5644  0.0366 -0.2524
  188MPD1    C2 2913   3.632   2.979  10.491 -0.4611  0.3480  0.4056
  188MPD1    C3 2914   3.615   2.987  10.355 -0.3238 -0.4506 -0.1793
  188MPD1    C4 2915   3.586   3.112  10.291 -0.1962 -0.2422  0.5305
  188MPD1    C5 2916   3.600   3.228  10.368  0.2532 -0.9513  0.3685
  188MPD1     H 2917   3.655   2.889  10.545 -0.6162 -0.3456 -0.6895
  188MPD1    H1 2918   3.578   3.121  10.184  1.4440  1.9274  0.5688
  188MPD1    H2 2919   3.617   3.303  10.571  2.6556 -1.0871  0.0029
  188MPD1    H3 2920   3.610   3.328  10.326 -0.4912  0.0184  2.4925
  188MPD1     N 2921   3.615   2.863  10.274 -0.5043 -0.1495  0.5046
  188MPD1    H5 2922   3.604   2.884  10.175  0.6288 -1.9827 -0.0042
  188MPD1    N1 2923   3.647   3.091  10.705 -0.1844 -0.5122  0.1405
  188MPD1    H6 2924   3.616   3.176  10.752 -1.4044 -0.9824  0.1844
  188MPD1    H7 2925   3.611   3.011  10.757  1.0319 -1.2465 -0.1439
  189MPD1     C 2926   0.589   3.656  17.717  0.1064  0.2889 -0.2064
  189MPD1    C1 2927   0.514   3.597  17.620  0.1003  0.3657  0.0957
  189MPD1    C2 2928   0.435   3.674  17.541  0.0026 -0.6894 -0.2810
  189MPD1    C3 2929   0.407   3.803  17.577 -0.0750  0.3021  0.0679
  189MPD1    C4 2930   0.458   3.854  17.695  0.0493  0.3558 -0.7379
  189MPD1    C5 2931   0.558   3.783   0.003 -0.5443  0.3479 -0.3140
  189MPD1     H 2932   0.373   3.619  17.471 -0.5808 -3.8085  2.6626
  189MPD1    H1 2933   0.430   3.945  17.746  0.1399  0.5507 -1.0340
  189MPD1    H2 2934   0.682   3.615   0.005 -0.7740 -1.1458  0.3892
  189MPD1    H3 2935   0.611   3.829   0.086  0.7704 -0.0469 -0.9237
  189MPD1     N 2936   0.305   3.865  17.498  0.6437 -0.9866  0.1843
  189MPD1    H5 2937   0.264   3.811  17.423  0.5414  0.0726 -0.5298
  189MPD1    N1 2938   0.538   3.465  17.581  0.6195 -0.2264  0.1315
  189MPD1    H6 2939   0.458   3.418  17.541  0.6122  0.1048 -0.2448
  189MPD1    H7 2940   0.574   3.415  17.663 -0.1982 -0.0233  0.6090
  190MPD1     C 2941   4.056   2.466  15.350 -0.0108  0.0200  0.3963
  190MPD1    C1 2942   4.060   2.412  15.473 -0.5932 -0.8081 -0.2747
  190MPD1    C2 2943   4.181   2.352  15.511  0.6284  0.3205 -0.3665
  190MPD1    C3 2944   4.297   2.370  15.441  0.6009  0.7415 -0.0157
  190MPD1    C4 2945   4.294   2.437  15.322 -0.1160  0.2374  0.1716
  190MPD1    C5 2946   4.170   2.492  15.281  0.6826  0.1502  0.3657
  190MPD1     H 2947   4.173   2.282  15.592  2.5331  1.0448  0.4320
  190MPD1    H1 2948   4.381   2.432  15.259 -0.1897 -0.4670  0.1284
  190MPD1    H2 2949   3.963   2.498  15.304  0.2666 -1.3891 -1.1260
  190MPD1    H3 2950   4.171   2.537  15.183  0.4410 -0.5306  0.0508
  190MPD1     N 2951   4.424   2.314  15.495 -0.0595 -0.4295  0.0570
  190MPD1    H5 2952   4.419   2.261  15.582 -0.5067  0.5592  0.6384
  190MPD1    N1 2953   3.935   2.378  15.530 -0.4983 -0.3930  0.3081
  190MPD1    H6 2954   3.860   2.435  15.492 -0.3959 -1.1185 -0.9969
  190MPD1    H7 2955   3.942   2.375  15.632 -0.5207 -3.4240  0.2244
  191MPD1     C 2956   3.355   4.122  12.885  0.0761  0.3956  0.9912
  191MPD1    C1 2957   3.477   4.171  12.856  0.3042  0.8414 -0.3250
  191MPD1    C2 2958   3.490   4.266  12.753  0.4821  0.2257  0.1115
  191MPD1    C3 2959   3.380   4.316  12.698  0.3949 -0.0736 -0.5324
  191MPD1    C4 2960   3.254   4.280  12.738  0.6267  0.5324  0.3879
  191MPD1    C5 2961   3.243   4.179  12.831 -0.3387 -0.2777  0.0942
  191MPD1     H 2962   3.589   4.291  12.714  0.4829  1.7986  1.1164
  191MPD1    H1 2963   3.169   4.339  12.705 -0.7952 -3.1255 -2.3816
  191MPD1    H2 2964   3.343   4.044  12.958  2.1461 -0.7016  0.1644
  191MPD1    H3 2965   3.145   4.143  12.858  0.3132 -2.3438 -0.3397
  191MPD1     N 2966   3.404   4.413  12.593 -0.3400 -0.1766  0.5657
  191MPD1    H5 2967   3.498   4.452  12.589 -0.2559 -0.2225  2.1838
  191MPD1    N1 2968   3.590   4.100  12.900 -0.0104  0.0195 -0.1798
  191MPD1    H6 2969   3.681   4.138  12.874  0.0635  2.4617  3.7866
  191MPD1    H7 2970   3.593   4.081  13.000  0.7360  0.1057 -0.1828
  192MPD1     C 2971   3.342   4.692  11.531  0.4614 -0.1681 -0.0073
  192MPD1    C1 2972   3.232   4.706  11.612  0.2063  0.0877 -0.1927
  192MPD1    C2 2973   3.244   4.667  11.748 -0.7134 -0.1739 -0.1316
  192MPD1    C3 2974   3.371   4.645  11.804 -0.1529  0.1202  0.5318
  192MPD1    C4 2975   3.485   4.647  11.720 -0.7922  0.6438  0.3330
  192MPD1    C5 2976   3.465   4.664  11.586 -0.1635 -0.0030  0.7183
  192MPD1     H 2977   3.156   4.668  11.812 -0.8293 -0.4207 -0.2841
  192MPD1    H1 2978   3.586   4.640  11.757 -1.0565 -1.1301  0.7708
  192MPD1    H2 2979   3.328   4.702  11.424 -0.5513  2.5186  0.3951
  192MPD1    H3 2980   3.555   4.656  11.526 -1.4630  1.1845 -1.3690
  192MPD1     N 2981   3.400   4.630  11.937  0.2215 -0.8116  0.4978
  192MPD1    H5 2982   3.493   4.633  11.979 -0.4853  1.9334  1.8135
  192MPD1    N1 2983   3.110   4.730  11.552  0.0040  0.3282  0.0297
  192MPD1    H6 2984   3.132   0.045  11.469  1.8622 -1.0552 -0.3404
  192MPD1    H7 2985   3.053   0.056  11.608 -0.6704  2.3515 -3.0161
  193MPD1     C 2986   3.478   4.206  17.033  0.1715 -0.1695  0.2669
  193MPD1    C1 2987   3.591   4.151  16.983 -0.3281 -0.2484  0.0006
  193MPD1    C2 2988   3.646   4.223  16.872  0.2614  0.0007 -0.0996
  193MPD1    C3 2989   3.592   4.342  16.818 -0.1725  0.0603  0.0649
  193MPD1    C4 2990   3.471   4.387  16.866 -0.4187 -0.5809  0.0516
  193MPD1    C5 2991   3.418   4.324  16.975  0.0936  0.7064 -0.3632
  193MPD1     H 2992   3.741   4.192  16.831  0.5743  1.7206 -0.6764
  193MPD1    H1 2993   3.424   4.482  16.842 -0.5612 -0.9581 -1.1605
  193MPD1    H2 2994   3.436   4.154  17.118  0.3704  2.3771  1.9139
  193MPD1    H3 2995   3.336   4.375  17.024 -1.6384 -3.4513  1.0135
  193MPD1     N 2996   3.654   4.424  16.721  0.7084  0.1571  0.0942
  193MPD1    H5 2997   3.617   4.519  16.718  0.3405  0.0241  0.4534
  193MPD1    N1 2998   3.653   4.045  17.042 -0.5510 -0.2731 -0.2906
  193MPD1    H6 2999   3.603   3.999  17.117  1.9117 -3.2497 -0.4616
  193MPD1    H7 3000   3.702   3.976  16.985  0.1623 -0.5374  0.6415
  194MPD1     C 3001   1.674   1.387  16.709 -0.3703 -0.3102  0.4116
  194MPD1    C1 3002   1.680   1.317  16.826  0.6675  0.6622 -0.0655
  194MPD1    C2 3003   1.610   1.198  16.835  0.7781  0.3822  0.6183
  194MPD1    C3 3004   1.546   1.146  16.722  0.0204  0.4688 -0.4799
  194MPD1    C4 3005   1.557   1.217  16.603 -0.2557  0.0142  0.2458
  194MPD1    C5 3006   1.617   1.342  16.593 -0.4700  0.5505  1.0450
  194MPD1     H 3007   1.600   1.143  16.928  1.7540  0.3054  0.6758
  194MPD1    H1 3008   1.524   1.178  16.508  0.2434 -0.7088  0.3701
  194MPD1    H2 3009   1.720   1.485  16.699 -0.1478 -0.5299 -0.7313
  194MPD1    H3 3010   1.629   1.390  16.496  1.6753  1.6099  1.8324
  194MPD1     N 3011   1.472   1.023  16.723  0.8593 -0.8311 -0.8300
  194MPD1    H5 3012   1.429   1.014  16.631  0.5675  1.4497 -0.9173
  194MPD1    N1 3013   1.737   1.373  16.938 -0.0253  0.4804 -0.4428
  194MPD1    H6 3014   1.768   1.303  17.005  2.0501  1.4602 -0.3752
  194MPD1    H7 3015   1.816   1.436  16.924 -0.0592  0.2347 -1.7042
  195MPD1     C 3016   2.695   4.052   0.358 -0.3217  0.0206  0.1351
  195MPD1    C1 3017   2.609   3.962   0.300 -0.6226 -0.0142  0.5612
  195MPD1    C2 3018   2.651   3.840   0.258  0.0798  0.1571  0.2159
  195MPD1    C3 3019   2.777   3.794   0.284  0.1032  0.3495 -0.0228
  195MPD1    C4 3020   2.866   3.888   0.325  0.1709  0.5348 -0.4175
  195MPD1    C5 3021   2.832   4.015   0.355  0.1988  0.0281  0.2305
  195MPD1     H 3022   2.577   3.765   0.232  1.0214 -1.0365  0.9969
  195MPD1    H1 3023   2.965   3.852   0.348 -0.1285  0.5893  0.9644
  195MPD1    H2 3024   2.668   4.154   0.384  0.0700  0.8052 -2.4416
  195MPD1    H3 3025   2.913   4.083   0.379  0.1782 -0.0072  0.3960
  195MPD1     N 3026   2.825   3.667   0.253  0.6261  0.4259  0.5852
  195MPD1    H5 3027   2.924   3.651   0.268  1.0244  0.8360 -1.5943
  195MPD1    N1 3028   2.475   3.982   0.321  0.6246  0.2806  0.1085
  195MPD1    H6 3029   2.443   4.077   0.335 -1.6349 -0.5803  0.8083
  195MPD1    H7 3030   2.417   3.933   0.252  2.6922 -0.8574 -0.8379
  196MPD1     C 3031   2.264   2.089   0.306  0.0431 -0.6509  0.3203
  196MPD1    C1 3032   2.300   2.215   0.268 -0.0440  0.6944  0.2074
  196MPD1    C2 3033   2.357   2.293   0.369  0.0179 -0.3087 -0.1925
  196MPD1    C3 3034   2.396   2.239   0.492  0.1091  0.2956 -0.0834
  196MPD1    C4 3035   2.368   2.108   0.517 -0.2912  0.0797 -0.1280
  196MPD1    C5 3036   2.307   2.035   0.422 -0.7540  0.4529  0.1592
  196MPD1     H 3037   2.370   2.397   0.340 -1.8825 -0.3849 -1.3020
  196MPD1    H1 3038   2.393   2.066   0.614  1.1720 -0.7188 -0.8457
  196MPD1    H2 3039   2.215   2.020   0.237 -0.0393  0.6938 -0.9604
  196MPD1    H3 3040   2.281   1.933   0.447 -2.8964  0.0620 -3.6884
  196MPD1     N 3041   2.468   2.313   0.585  0.4802  0.2644  0.5561
  196MPD1    H5 3042   2.496   2.270   0.673  0.1364  0.3127  0.6876
  196MPD1    N1 3043   2.245   2.268   0.151 -0.4862  0.6472  0.0383
  196MPD1    H6 3044   2.306   2.339   0.112  0.3878 -0.6047 -0.8391
  196MPD1    H7 3045   2.240   2.191   0.084 -1.3594  0.6538  0.0890
  197MPD1     C 3046   2.335   4.360  17.206  0.4355 -0.1466 -0.0221
  197MPD1    C1 3047   2.335   4.493  17.252 -1.3968  0.4881  0.2805
  197MPD1    C2 3048   2.316   4.594  17.167 -0.0040  0.9535  0.2589
  197MPD1    C3 3049   2.301   4.576  17.024  0.7250 -0.4723  0.0205
  197MPD1    C4 3050   2.282   4.442  16.983  1.0909  0.0190 -0.3367
  197MPD1    C5 3051   2.301   4.338  17.074 -0.3610  0.9513 -0.5114
  197MPD1     H 3052   2.319   4.697  17.201 -2.6867  0.3798  2.2222
  197MPD1    H1 3053   2.268   4.428  16.876  1.5956  1.1489 -0.5472
  197MPD1    H2 3054   2.343   4.273  17.271 -3.2147 -1.9662 -1.9670
  197MPD1    H3 3055   2.280   4.237  17.039  0.0154  1.0246 -0.9371
  197MPD1     N 3056   2.286   4.677  16.930  0.2072  0.9701 -0.7503
  197MPD1    H5 3057   2.230   4.664  16.846 -1.3872 -0.7132  0.5949
  197MPD1    N1 3058   2.378   4.518  17.388 -0.0911 -0.2738 -0.0464
  197MPD1    H6 3059   2.342   4.451  17.456  1.7146 -0.3518  0.8431
  197MPD1    H7 3060   2.367   4.610  17.429  2.3377 -0.7019  1.5911
  198MPD1     C 3061   4.323   2.790  15.244 -0.1999  0.1419  0.3902
  198MPD1    C1 3062   4.341   2.809  15.378 -0.3223 -0.6389  0.1173
  198MPD1    C2 3063   4.295   2.923  15.436  0.1895  0.3338 -0.4056
  198MPD1    C3 3064   4.230   3.025  15.361  0.6574  0.6234 -1.0957
  198MPD1    C4 3065   4.217   3.002  15.222 -0.6242 -0.5892  0.1188
  198MPD1    C5 3066   4.258   2.884  15.170 -0.4995  0.2418 -0.1125
  198MPD1     H 3067   4.296   2.924  15.544  1.1264  0.4161 -0.4109
  198MPD1    H1 3068   4.165   3.071  15.156 -0.1100 -0.4329 -0.1229
  198MPD1    H2 3069   4.359   2.703  15.190 -0.9496  1.3786 -2.0960
  198MPD1    H3 3070   4.244   2.855  15.066  0.9146  0.8939 -0.4736
  198MPD1     N 3071   4.195   3.143  15.436  0.2043  0.3279 -0.0629
  198MPD1    H5 3072   4.228   3.148  15.532  1.2129  0.8292 -0.4420
  198MPD1    N1 3073   4.405   2.704  15.455  0.1506 -0.0607 -0.1743
  198MPD1    H6 3074   4.396   2.613  15.409  0.9207 -0.0619 -0.3217
  198MPD1    H7 3075   4.366   2.707  15.549 -0.1221  0.0848 -0.2904
  199MPD1     C 3076   0.285   0.108  10.567  0.7130  0.0453 -0.1369
  199MPD1    C1 3077   0.330   4.738  10.497  0.1093  0.1152  0.1793
  199MPD1    C2 3078   0.348   0.018  10.359 -0.1895  0.2195 -0.6464
  199MPD1    C3 3079   0.351   0.148  10.306  0.4601 -0.1677 -0.6690
  199MPD1    C4 3080   0.337   0.261  10.392 -0.3102 -0.6789  0.7745
  199MPD1    C5 3081   0.292   0.233  10.519 -0.6682 -0.9385  0.1655
  199MPD1     H 3082   0.372   4.669  10.298  2.8289  0.5039  0.1240
  199MPD1    H1 3083   0.349   0.363  10.357  0.0319 -1.1523 -0.4984
  199MPD1    H2 3084   0.253   0.089  10.669  0.8681 -1.9509 -0.4634
  199MPD1    H3 3085   0.270   0.320  10.579 -1.0181 -1.5188  0.8698
  199MPD1     N 3086   0.384   0.188  10.173 -0.2149 -0.1698  0.6244
  199MPD1    H5 3087   0.416   0.284  10.165  0.6169 -0.4734  0.3234
  199MPD1    N1 3088   0.312   4.608  10.550  0.7035  0.3308 -0.3201
  199MPD1    H6 3089   0.336   4.598  10.649  0.3449 -1.5108 -0.4139
  199MPD1    H7 3090   0.374   4.539  10.509 -0.7089 -2.1034  1.6425
  200MPD1     C 3091   0.366   4.713  14.758  0.5065 -0.1059  0.2082
  200MPD1    C1 3092   0.312   4.694  14.630  0.6238 -0.5973  0.2000
  200MPD1    C2 3093   0.396   4.648  14.528  0.0379  0.1737  0.2287
  200MPD1    C3 3094   0.528   4.642  14.546 -0.1426 -0.0123 -0.3582
  200MPD1    C4 3095   0.578   4.670  14.671 -0.1605  0.8832 -0.2409
  200MPD1    C5 3096   0.505   4.695  14.778 -0.4677 -0.3491 -0.2334
  200MPD1     H 3097   0.343   4.614  14.440  2.4193 -2.3702 -0.2427
  200MPD1    H1 3098   0.683   4.680  14.694 -0.1220 -0.5095  0.1899
  200MPD1    H2 3099   0.296   4.734  14.838 -0.7098 -2.4080 -0.2388
  200MPD1    H3 3100   0.548   4.710  14.876  0.7239  0.3322 -0.8748
  200MPD1     N 3101   0.608   4.614  14.438 -0.2726 -0.3633  0.3766
  200MPD1    H5 3102   0.562   4.612  14.347  0.3242  0.9088  0.0516
  200MPD1    N1 3103   0.174   4.696  14.607 -0.3943 -0.0509 -0.2836
  200MPD1    H6 3104   0.128   0.030  14.662 -0.0043 -0.6698  0.8379
  200MPD1    H7 3105   0.149   4.705  14.509  0.6419  0.4822 -0.4963
  201MPD1     C 3106   2.534   3.666  13.276  0.3266 -0.3687 -0.0842
  201MPD1    C1 3107   2.596   3.665  13.152  0.2310 -0.1524  0.3218
  201MPD1    C2 3108   2.714   3.592  13.150 -0.3508  0.2150  0.1656
  201MPD1    C3 3109   2.763   3.515  13.253  0.2377 -0.1884 -0.2650
  201MPD1    C4 3110   2.696   3.508  13.367 -0.5034 -0.4397  0.4163
  201MPD1    C5 3111   2.584   3.590  13.379  0.0840 -0.4213  0.3892
  201MPD1     H 3112   2.777   3.598  13.062 -0.4337  1.7799  0.2235
  201MPD1    H1 3113   2.728   3.447  13.451 -0.1201 -2.4803 -1.2188
  201MPD1    H2 3114   2.446   3.727  13.295 -1.1354 -2.1476 -1.0698
  201MPD1    H3 3115   2.529   3.579  13.471 -0.6755  0.5042  0.0448
  201MPD1     N 3116   2.882   3.440  13.240 -0.5222 -0.1217 -0.5898
  201MPD1    H5 3117   2.919   3.427  13.146 -0.4011 -0.0957 -0.5457
  201MPD1    N1 3118   2.560   3.755  13.050 -0.1019 -0.1732  0.2529
  201MPD1    H6 3119   2.459   3.763  13.045 -0.2425 -0.3135  2.7449
  201MPD1    H7 3120   2.590   3.729  12.957 -0.1628  0.2796  0.1057
  202MPD1     C 3121   2.134   2.277   8.866  0.0157  0.2218  0.4067
  202MPD1    C1 3122   2.142   2.252   9.000  0.1920  0.0432  0.1463
  202MPD1    C2 3123   2.259   2.310   9.057 -0.0282 -0.6455  0.1391
  202MPD1    C3 3124   2.305   2.428   9.001  0.5496  0.0880 -1.0325
  202MPD1    C4 3125   2.277   2.467   8.873 -0.4760  0.4322  0.8021
  202MPD1    C5 3126   2.200   2.380   8.801 -0.0479  0.2001  0.0815
  202MPD1     H 3127   2.284   2.286   9.159 -0.0724  0.6468  0.4598
  202MPD1    H1 3128   2.332   2.541   8.817  2.2356 -1.9816  0.2937
  202MPD1    H2 3129   2.065   2.219   8.805  0.5165  0.6763 -0.6037
  202MPD1    H3 3130   2.186   2.401   8.696 -2.7064  1.5977  0.7313
  202MPD1     N 3131   2.389   2.508   9.077  0.2169 -0.0946 -0.2137
  202MPD1    H5 3132   2.405   2.602   9.043  1.4476  0.5670  2.1759
  202MPD1    N1 3133   2.094   2.135   9.056 -0.1154  0.0646 -0.5911
  202MPD1    H6 3134   2.006   2.103   9.016  0.5877 -2.5983 -0.0532
  202MPD1    H7 3135   2.068   2.157   9.152  0.0237 -0.6474 -0.3862
  203MPD1     C 3136   0.718   3.221  11.882 -0.1121  0.0070  1.0029
  203MPD1    C1 3137   0.823   3.150  11.830  0.4447 -0.0719 -0.3946
  203MPD1    C2 3138   0.932   3.131  11.923  0.3460  0.6928  0.1954
  203MPD1    C3 3139   0.946   3.206  12.033 -1.2057  0.4421  0.8812
  203MPD1    C4 3140   0.848   3.296  12.075 -0.2469 -0.2901  0.5640
  203MPD1    C5 3141   0.737   3.304  11.998 -0.5700 -0.0758  0.3322
  203MPD1     H 3142   1.015   3.069  11.891  0.2599  0.4327  0.4709
  203MPD1    H1 3143   0.860   3.355  12.165 -2.5530  0.9473  0.0302
  203MPD1    H2 3144   0.620   3.236  11.840  0.1766  1.7398  0.9412
  203MPD1    H3 3145   0.648   3.360  12.025 -0.7284  0.0441 -0.4237
  203MPD1     N 3146   1.067   3.197  12.109 -0.4915  0.5075 -0.0241
  203MPD1    H5 3147   1.125   3.119  12.079 -0.7298 -0.1825  1.2830
  203MPD1    N1 3148   0.804   3.072  11.713  0.1776  0.4009 -0.0736
  203MPD1    H6 3149   0.889   3.053  11.661  0.2174  2.3774 -0.7111
  203MPD1    H7 3150   0.740   3.123  11.653 -1.1984  1.0365  1.9141
  204MPD1     C 3151   0.795   0.578  17.652  0.5126  0.0593 -0.9337
  204MPD1    C1 3152   0.866   0.582  17.543  0.1909  0.5838  0.5018
  204MPD1    C2 3153   0.893   0.459  17.481 -0.2200 -0.8659 -0.1440
  204MPD1    C3 3154   0.857   0.336  17.533 -0.0755  0.2901 -0.1376
  204MPD1    C4 3155   0.799   0.338  17.659 -0.1865 -0.0319 -0.2435
  204MPD1    C5 3156   0.768   0.459  17.708  0.2180 -0.2308  0.3727
  204MPD1     H 3157   0.940   0.470  17.384 -0.3212 -0.8990 -0.1966
  204MPD1    H1 3158   0.765   0.246  17.706 -0.9306  0.4366  0.1303
  204MPD1    H2 3159   0.755   0.660  17.710  0.4263 -0.3951 -0.3461
  204MPD1    H3 3160   0.722   0.465   0.056  1.1590  1.5064  0.7059
  204MPD1     N 3161   0.887   0.219  17.457  0.2181 -0.4381  0.3554
  204MPD1    H5 3162   0.942   0.219  17.371  1.6175 -0.1859  1.2554
  204MPD1    N1 3163   0.905   0.702  17.489 -0.5529 -0.0898  0.6145
  204MPD1    H6 3164   0.979   0.688  17.421 -0.0104 -1.1153  1.4190
  204MPD1    H7 3165   0.955   0.766  17.550  1.8071  0.6689 -2.1335
  205MPD1     C 3166   1.894   3.554   0.143  0.0130 -0.1541 -0.2170
  205MPD1    C1 3167   1.906   3.508   0.011 -0.5131 -0.0754  0.0143
  205MPD1    C2 3168   1.804   3.535  17.675 -0.0665 -0.2539  0.4870
  205MPD1    C3 3169   1.689   3.610  17.706 -0.4283  0.2046 -0.4296
  205MPD1    C4 3170   1.685   3.650   0.091  0.0696 -0.8798  0.4239
  205MPD1    C5 3171   1.778   3.615   0.180  0.6698 -0.7319 -0.6293
  205MPD1     H 3172   1.819   3.498  17.574  1.3769 -1.1775  1.0275
  205MPD1    H1 3173   1.610   3.717   0.132  2.7587  0.8944  2.4296
  205MPD1    H2 3174   1.976   3.544   0.213  0.1675 -3.9187 -0.9384
  205MPD1    H3 3175   1.764   3.643   0.284 -0.4445  0.2668 -1.0416
  205MPD1     N 3176   1.591   3.651  17.615 -0.0850 -0.5747  0.3108
  205MPD1    H5 3177   1.519   3.715  17.647 -0.3337  0.8042 -2.9657
  205MPD1    N1 3178   2.016   3.425  17.726  0.0378  0.1849  0.1555
  205MPD1    H6 3179   2.052   3.369   0.052  1.3669  1.0516  0.1565
  205MPD1    H7 3180   2.004   3.366  17.644 -1.7709 -0.4953  0.8950
  206MPD1     C 3181   1.263   1.719  16.774 -0.1294 -0.0327 -0.2597
  206MPD1    C1 3182   1.357   1.641  16.713  0.1091  0.5171 -0.1058
  206MPD1    C2 3183   1.348   1.624  16.576  0.1106  0.3540  0.8945
  206MPD1    C3 3184   1.241   1.677  16.508  0.5916 -0.0340 -0.3440
  206MPD1    C4 3185   1.156   1.769  16.569  0.6393 -0.4180  0.3211
  206MPD1    C5 3186   1.173   1.790  16.703 -0.4176  0.0279 -0.6195
  206MPD1     H 3187   1.429   1.568  16.532 -1.2486 -2.2295  1.7171
  206MPD1    H1 3188   1.081   1.822  16.512  0.5364 -1.3328 -0.4008
  206MPD1    H2 3189   1.259   1.713  16.882 -0.2286 -0.8183 -0.3048
  206MPD1    H3 3190   1.107   1.857  16.758 -0.7419  0.1059 -1.1108
  206MPD1     N 3191   1.235   1.671  16.365 -0.1673 -0.2221  0.4876
  206MPD1    H5 3192   1.163   1.731  16.325 -1.0476 -0.5998  1.5179
  206MPD1    N1 3193   1.434   1.564  16.799  0.5617  0.1977  0.1808
  206MPD1    H6 3194   1.525   1.533  16.766  0.7085  2.3255 -1.4003
  206MPD1    H7 3195   1.459   1.613  16.885  1.4994  2.3963 -1.3596
  207MPD1     C 3196   4.205   4.724   9.290 -0.2816  0.1789 -0.0922
  207MPD1    C1 3197   4.168   4.591   9.308  0.5677 -0.3029  0.5860
  207MPD1    C2 3198   4.200   4.520   9.427  0.6705  0.1092  0.4100
  207MPD1    C3 3199   4.261   4.595   9.530 -0.3424  0.1133 -0.2832
  207MPD1    C4 3200   4.290   4.727   9.506  0.1020 -0.8296 -0.4096
  207MPD1    C5 3201   4.268   0.049   9.387 -0.1967 -0.1665  0.7332
  207MPD1     H 3202   4.146   4.428   9.444  1.0278 -0.4390 -1.3946
  207MPD1    H1 3203   4.340   0.058   9.573 -2.2472  1.4508 -0.9952
  207MPD1    H2 3204   4.185   0.037   9.196  0.8045 -1.2338 -1.0825
  207MPD1    H3 3205   4.290   0.155   9.377  3.1411 -0.9850 -0.5486
  207MPD1     N 3206   4.287   4.545   9.662  0.0530  0.6943 -0.8067
  207MPD1    H5 3207   4.324   4.619   9.720  2.8952 -0.9438 -0.5098
  207MPD1    N1 3208   4.094   4.525   9.209  0.2407  0.9576 -0.9165
  207MPD1    H6 3209   4.051   4.578   9.133  1.1002 -0.3978 -2.3688
  207MPD1    H7 3210   4.023   4.463   9.246  2.9330 -1.3217  0.4518
  208MPD1     C 3211   0.839   2.071   0.281  0.0728  0.0975 -0.1061
  208MPD1    C1 3212   0.970   2.098   0.313  0.0258  0.0124  0.7143
  208MPD1    C2 3213   1.025   2.203   0.244 -0.2409 -0.5562 -0.2869
  208MPD1    C3 3214   0.954   2.299   0.173  0.0070 -0.8590 -0.1470
  208MPD1    C4 3215   0.820   2.282   0.171  0.0563 -0.2507 -0.8754
  208MPD1    C5 3216   0.767   2.163   0.215  0.0398 -1.0677 -0.0485
  208MPD1     H 3217   1.132   2.201   0.255 -0.4641  0.8098  2.0157
  208MPD1    H1 3218   0.752   2.338   0.108  0.0053 -0.0133 -0.6113
  208MPD1    H2 3219   0.789   1.983   0.320  0.1308  0.0247 -0.1941
  208MPD1    H3 3220   0.665   2.140   0.187 -0.4938  0.9019  0.2729
  208MPD1     N 3221   1.025   2.409   0.124  0.1374  0.3193 -0.4918
  208MPD1    H5 3222   1.127   2.402   0.124  0.2753  2.3351  1.8652
  208MPD1    N1 3223   1.049   2.009   0.382  0.9742 -0.4540 -0.5457
  208MPD1    H6 3224   1.136   2.050   0.415  0.6710  0.5785 -1.0341
  208MPD1    H7 3225   1.002   1.994   0.471  2.3364 -0.2007  0.2188
  209MPD1     C 3226   2.933   3.379  10.339  0.0509  0.0629 -0.0080
  209MPD1    C1 3227   2.956   3.430  10.466 -0.3724  0.1855 -0.4541
  209MPD1    C2 3228   3.079   3.489  10.499 -0.0243  0.7014  0.4306
  209MPD1    C3 3229   3.172   3.508  10.402 -0.4611 -0.0476  0.1635
  209MPD1    C4 3230   3.139   3.478  10.267 -0.4248 -0.3918 -0.4567
  209MPD1    C5 3231   3.029   3.396  10.245 -0.6684  0.2275 -0.6488
  209MPD1     H 3232   3.105   3.505  10.603  0.1006 -0.3018  0.5557
  209MPD1    H1 3233   3.204   3.505  10.184  0.9258 -0.3894  0.6080
  209MPD1    H2 3234   2.847   3.313  10.330  0.9298 -1.1281  0.3884
  209MPD1    H3 3235   3.005   3.376  10.141  0.0778 -0.3591 -0.7080
  209MPD1     N 3236   3.294   3.560  10.437  0.3592 -1.0253  0.1807
  209MPD1    H5 3237   3.299   3.586  10.534  3.0324 -0.3134 -0.1381
  209MPD1    N1 3238   2.872   3.395  10.575  0.7498 -0.1215 -0.1858
  209MPD1    H6 3239   2.880   3.456  10.656 -0.2639 -0.1611 -0.0528
  209MPD1    H7 3240   2.776   3.407  10.545  0.4248 -0.2959  0.7818
  210MPD1     C 3241   3.931   3.830  11.156  0.5516  0.4107  0.1486
  210MPD1    C1 3242   3.835   3.731  11.138 -0.7410 -0.2091  0.0945
  210MPD1    C2 3243   3.773   3.728  11.017  0.0524 -0.4834  0.3955
  210MPD1    C3 3244   3.802   3.817  10.915 -0.5438  0.2881 -0.5759
  210MPD1    C4 3245   3.892   3.922  10.933 -0.3822 -0.1525 -0.2991
  210MPD1    C5 3246   3.953   3.921  11.056 -0.2345  0.7043 -0.5740
  210MPD1     H 3247   3.703   3.647  11.006  0.9800 -1.2083 -0.1869
  210MPD1    H1 3248   3.917   3.998  10.860  0.7023  1.8246  2.1273
  210MPD1    H2 3249   3.993   3.838  11.244  0.6194 -0.7316  0.2034
  210MPD1    H3 3250   4.038   3.988  11.061  1.6994 -1.7772 -0.5529
  210MPD1     N 3251   3.751   3.790  10.784 -0.4513 -0.3320  0.6758
  210MPD1    H5 3252   3.782   3.859  10.716  0.4976 -0.8939  0.5385
  210MPD1    N1 3253   3.826   3.625  11.230 -0.0959 -0.7013 -0.1073
  210MPD1    H6 3254   3.734   3.582  11.223 -0.7578  0.4599  1.3765
  210MPD1    H7 3255   3.839   3.669  11.321  1.4828 -1.7347  0.1688
  211MPD1     C 3256   1.628   2.934  15.668 -0.3806 -0.6484 -1.0938
  211MPD1    C1 3257   1.538   3.019  15.599  0.4057  0.8369 -0.0498
  211MPD1    C2 3258   1.503   3.143  15.653 -0.2937  1.0730  0.5752
  211MPD1    C3 3259   1.566   3.196  15.764  0.6334 -0.5709 -0.0613
  211MPD1    C4 3260   1.645   3.111  15.844 -0.0676 -0.8163 -0.1539
  211MPD1    C5 3261   1.679   2.980  15.786  0.5206 -0.9159  0.1653
  211MPD1     H 3262   1.436   3.208  15.600  0.4914  1.5099  0.1153
  211MPD1    H1 3263   1.692   3.141  15.936  1.0266 -0.5048 -0.8107
  211MPD1    H2 3264   1.661   2.837  15.633  2.3208  0.7955 -2.5384
  211MPD1    H3 3265   1.748   2.913  15.835 -0.9988 -1.4423  1.6033
  211MPD1     N 3266   1.522   3.327  15.805 -0.6834 -0.9339 -0.5038
  211MPD1    H5 3267   1.444   3.367  15.755 -1.6663 -2.7480 -0.4061
  211MPD1    N1 3268   1.501   2.986  15.472  0.0391 -0.0573 -0.0446
  211MPD1    H6 3269   1.576   2.923  15.441  0.1789  0.2280 -0.2886
  211MPD1    H7 3270   1.516   3.063  15.407 -1.6621  1.1185  0.9940
  212MPD1     C 3271   0.855   2.246  16.518  0.5251  0.1734 -0.8421
  212MPD1    C1 3272   0.898   2.117  16.503 -0.3708 -0.0440  0.0135
  212MPD1    C2 3273   0.820   2.014  16.549 -0.1368  0.0444  0.4463
  212MPD1    C3 3274   0.695   2.040  16.605  0.5716 -0.6034 -0.3966
  212MPD1    C4 3275   0.651   2.167  16.618 -0.8383  0.1431  0.7795
  212MPD1    C5 3276   0.730   2.272  16.571  0.2784  0.0027 -0.9978
  212MPD1     H 3277   0.850   1.910  16.540  0.4688  0.2663 -0.0927
  212MPD1    H1 3278   0.557   2.189  16.668 -1.8556 -0.5110 -0.8552
  212MPD1    H2 3279   0.914   2.327  16.477 -1.7890  1.5700 -1.4364
  212MPD1    H3 3280   0.700   2.376  16.575 -1.3394 -0.5054  0.1258
  212MPD1     N 3281   0.617   1.939  16.670 -0.5627 -0.1463  0.1173
  212MPD1    H5 3282   0.533   1.965  16.721  0.4739  0.3622  1.5804
  212MPD1    N1 3283   1.040   2.097  16.461  0.3211 -0.0592  0.3997
  212MPD1    H6 3284   1.045   2.002  16.424 -2.2109  0.0256 -0.1746
  212MPD1    H7 3285   1.057   2.151  16.376 -0.0536 -0.8593 -0.1846
  213MPD1     C 3286   3.607   2.436  15.611  0.5307 -0.0730  0.5555
  213MPD1    C1 3287   3.519   2.350  15.549  0.7137 -0.1584  0.2631
  213MPD1    C2 3288   3.515   2.369  15.415 -0.2334  0.1987 -0.0321
  213MPD1    C3 3289   3.570   2.479  15.348 -0.0642 -0.1218 -0.0625
  213MPD1    C4 3290   3.648   2.571  15.418  0.5845  0.0518  0.7143
  213MPD1    C5 3291   3.668   2.545  15.551 -0.1490 -0.4354  0.4612
  213MPD1     H 3292   3.467   2.294  15.354 -3.4279  1.1443  1.3099
  213MPD1    H1 3293   3.683   2.661  15.369 -0.9447 -0.4633 -1.3211
  213MPD1    H2 3294   3.628   2.438  15.718 -0.8061 -0.2660  0.8154
  213MPD1    H3 3295   3.719   2.619  15.612 -0.3298 -1.5831  1.9927
  213MPD1     N 3296   3.525   2.496  15.216  0.1303 -0.5784  0.4695
  213MPD1    H5 3297   3.464   2.422  15.183 -0.9200  0.9515 -0.9898
  213MPD1    N1 3298   3.476   2.230  15.600 -0.0089 -0.2308  0.1911
  213MPD1    H6 3299   3.441   2.232  15.696 -0.7712 -0.2932 -0.0867
  213MPD1    H7 3300   3.403   2.183  15.548  0.1666 -1.5841  1.1316
  214MPD1     C 3301   2.958   2.018  14.884  0.7329  0.4623 -0.5465
  214MPD1    C1 3302   3.081   2.016  14.819  0.1377 -0.6448  0.3546
  214MPD1    C2 3303   3.156   2.132  14.809 -0.3983  0.1380  0.1588
  214MPD1    C3 3304   3.117   2.247  14.871  0.0576  0.2620  0.4821
  214MPD1    C4 3305   2.991   2.249  14.927 -0.4101 -0.5328  0.1798
  214MPD1    C5 3306   2.918   2.134  14.938  0.2649  0.3484 -0.2264
  214MPD1     H 3307   3.256   2.128  14.765 -0.6717 -0.3387 -0.4304
  214MPD1    H1 3308   2.948   2.333  14.980  2.9715  2.1995 -1.4271
  214MPD1    H2 3309   2.899   1.927  14.891 -0.8262  1.5902  0.8716
  214MPD1    H3 3310   2.825   2.141  14.994 -0.3010  1.9534 -1.3728
  214MPD1     N 3311   3.190   2.369  14.861  0.2754 -0.0957  0.8759
  214MPD1    H5 3312   3.155   2.446  14.917 -1.7558 -0.4877  0.1267
  214MPD1    N1 3313   3.143   1.893  14.804 -0.0399 -0.5904 -0.2512
  214MPD1    H6 3314   3.201   1.882  14.721 -0.7593 -3.1894 -0.4118
  214MPD1    H7 3315   3.072   1.821  14.794 -0.3821 -0.3620  0.5371
  215MPD1     C 3316   2.747   3.630  11.418  0.0253  0.3360  0.7750
  215MPD1    C1 3317   2.835   3.689  11.503  0.3597 -0.4533  0.4395
  215MPD1    C2 3318   2.951   3.751  11.453 -0.0726 -0.0500  0.1666
  215MPD1    C3 3319   2.970   3.763  11.317 -0.3015  0.2847  1.1984
  215MPD1    C4 3320   2.873   3.704  11.234  0.5181 -0.1102  0.0759
  215MPD1    C5 3321   2.761   3.647  11.282  0.2564 -0.3126 -0.8230
  215MPD1     H 3322   3.023   3.789  11.524  0.7189 -2.9249  0.9221
  215MPD1    H1 3323   2.889   3.696  11.127  0.1454  0.2995 -0.0113
  215MPD1    H2 3324   2.671   3.573  11.470  2.1023 -0.2803  3.1584
  215MPD1    H3 3325   2.696   3.603  11.207 -0.2372 -0.1537 -0.4876
  215MPD1     N 3326   3.091   3.828  11.271  0.1678  1.0961  0.5490
  215MPD1    H5 3327   3.132   3.890  11.339  1.0889 -0.5998  1.5544
  215MPD1    N1 3328   2.826   3.644  11.639  0.4698 -0.7247 -0.1443
  215MPD1    H6 3329   2.880   3.713  11.692 -0.9334  0.2945 -0.0461
  215MPD1    H7 3330   2.732   3.634  11.677  0.5840 -2.8517 -0.4163
  216MPD1     C 3331   0.526   1.883  17.673  0.3526 -0.8304 -0.6208
  216MPD1    C1 3332   0.563   1.810  17.559  0.0233  0.0676 -0.4586
  216MPD1    C2 3333   0.507   1.686  17.538 -0.7679  0.2926 -0.2185
  216MPD1    C3 3334   0.430   1.625  17.634  0.0293  0.5008  0.2534
  216MPD1    C4 3335   0.394   1.701  17.743 -0.3860 -0.8462 -0.4639
  216MPD1    C5 3336   0.435   1.833   0.010  0.2482  0.1123 -0.8043
  216MPD1     H 3337   0.530   1.623  17.452  2.1186  0.6195  0.2899
  216MPD1    H1 3338   0.324   1.660   0.065  1.2536 -0.5079  1.3176
  216MPD1    H2 3339   0.571   1.981  17.686  0.0092 -0.5992 -1.1540
  216MPD1    H3 3340   0.411   1.879   0.105  3.6967  1.3467 -0.5388
  216MPD1     N 3341   0.392   1.489  17.625 -0.2870 -0.6258  0.0356
  216MPD1    H5 3342   0.432   1.442  17.544  0.6204  0.5292 -0.1948
  216MPD1    N1 3343   0.673   1.870  17.486  0.5571 -0.0903  0.0970
  216MPD1    H6 3344   0.683   1.826  17.396 -0.9915 -0.2431  0.0031
  216MPD1    H7 3345   0.640   1.964  17.464 -3.8804 -0.6528  4.3310
  217MPD1     C 3346   1.249   2.075   8.530 -0.0483 -0.5568  0.0563
  217MPD1    C1 3347   1.384   2.054   8.560  0.0588  0.7173 -0.8174
  217MPD1    C2 3348   1.411   2.084   8.691 -0.3176 -0.3809  0.0817
  217MPD1    C3 3349   1.327   2.138   8.784  0.3915 -0.1601 -0.0433
  217MPD1    C4 3350   1.198   2.163   8.739 -0.0200 -0.1104 -0.1585
  217MPD1    C5 3351   1.162   2.123   8.616  0.2996  0.1044  0.3216
  217MPD1     H 3352   1.512   2.075   8.730 -0.5576  0.0637  0.8073
  217MPD1    H1 3353   1.125   2.201   8.809  1.6789  2.7439  0.0686
  217MPD1    H2 3354   1.215   2.061   8.428  1.7968  0.0634 -0.6432
  217MPD1    H3 3355   1.057   2.129   8.590  0.3275  1.2147  0.4435
  217MPD1     N 3356   1.358   2.181   8.912 -0.1308 -0.5696  0.4841
  217MPD1    H5 3357   1.270   2.215   8.950 -0.5665  0.5683 -1.5731
  217MPD1    N1 3358   1.472   1.996   8.469  0.7694 -0.0151 -0.0534
  217MPD1    H6 3359   1.571   2.009   8.490  0.7221 -0.7052  0.5634
  217MPD1    H7 3360   1.463   2.024   8.371 -0.7607 -0.3085  0.0040
  218MPD1     C 3361   2.625   3.746  12.694  0.0788 -0.1432 -0.2263
  218MPD1    C1 3362   2.701   3.636  12.726  1.1149 -0.1370  0.1953
  218MPD1    C2 3363   2.834   3.632  12.689  0.1394 -0.2369 -0.1868
  218MPD1    C3 3364   2.894   3.745  12.627  0.0252 -0.7852 -0.0387
  218MPD1    C4 3365   2.813   3.856  12.600 -0.8957  0.1029 -0.4879
  218MPD1    C5 3366   2.683   3.848  12.637  0.0288  0.6921 -0.2656
  218MPD1     H 3367   2.891   3.543  12.714 -0.8262 -1.2513 -1.5778
  218MPD1    H1 3368   2.851   3.950  12.562  0.5106  0.1684  1.1078
  218MPD1    H2 3369   2.518   3.730  12.702  0.1606 -0.2737  0.5610
  218MPD1    H3 3370   2.615   3.930  12.620  0.0629  1.4253  3.0707
  218MPD1     N 3371   3.036   3.752  12.605  0.1353 -0.6155  0.0981
  218MPD1    H5 3372   3.086   3.668  12.631  2.4196  0.9577  0.7422
  218MPD1    N1 3373   2.648   3.519  12.787 -0.0267  0.5107 -0.2230
  218MPD1    H6 3374   2.560   3.533  12.836 -1.0976 -1.7688 -1.4945
  218MPD1    H7 3375   2.726   3.465  12.823  0.2861  1.4888  0.5715
  219MPD1     C 3376   3.661   4.416  12.187 -0.0759  0.5853  0.0929
  219MPD1    C1 3377   3.717   4.377  12.308 -0.1948  0.4612  0.1565
  219MPD1    C2 3378   3.663   4.264  12.365 -0.2647  0.3225  0.8180
  219MPD1    C3 3379   3.570   4.179  12.307  0.0419  0.0860  0.0420
  219MPD1    C4 3380   3.531   4.219  12.179  0.1096  0.3620 -0.7100
  219MPD1    C5 3381   3.572   4.333  12.126 -0.0922  0.3714 -0.0892
  219MPD1     H 3382   3.702   4.241  12.464  1.0463  1.0464  0.4622
  219MPD1    H1 3383   3.481   4.153  12.110 -0.0942 -1.0471  0.7614
  219MPD1    H2 3384   3.691   4.507  12.136  1.8442 -1.1265 -1.7930
  219MPD1    H3 3385   3.540   4.365  12.027  1.4083 -1.8207 -1.3043
  219MPD1     N 3386   3.510   4.069  12.377 -0.0631 -0.3304  0.0471
  219MPD1    H5 3387   3.427   4.032  12.331 -1.6552  1.5382  1.3825
  219MPD1    N1 3388   3.812   4.464  12.364 -0.1502  0.3036  0.6083
  219MPD1    H6 3389   3.873   4.502  12.292  1.3074  2.3747  2.9076
  219MPD1    H7 3390   3.866   4.433  12.445  2.2883  2.6539 -0.1080
  220MPD1     C 3391   3.086   3.497   9.323  0.3229 -0.0557 -0.0284
  220MPD1    C1 3392   2.967   3.540   9.372  0.1736  0.3359 -0.5183
  220MPD1    C2 3393   2.969   3.583   9.505 -0.2929  0.6901 -0.0177
  220MPD1    C3 3394   3.089   3.591   9.575  0.6239 -0.2869 -0.1389
  220MPD1    C4 3395   3.207   3.553   9.522  0.0856 -0.1174 -0.2989
  220MPD1    C5 3396   3.204   3.497   9.395 -0.5109  0.4212  0.0396
  220MPD1     H 3397   2.877   3.616   9.551 -1.1985 -1.1708 -0.4715
  220MPD1    H1 3398   3.302   3.561   9.573 -0.3268 -1.2888  0.6610
  220MPD1    H2 3399   3.099   3.449   9.227  1.0140 -1.1332  0.6035
  220MPD1    H3 3400   3.297   3.470   9.348 -0.5957 -1.1122  0.7680
  220MPD1     N 3401   3.076   3.633   9.709  0.2384  0.1248  0.6841
  220MPD1    H5 3402   2.981   3.651   9.738 -0.2520  1.3630 -1.6633
  220MPD1    N1 3403   2.847   3.524   9.304  0.4519 -0.2934  0.0593
  220MPD1    H6 3404   2.869   3.520   9.204 -2.3387  1.6588 -0.6404
  220MPD1    H7 3405   2.787   3.605   9.315  0.3514 -0.1061 -1.7778
  221MPD1     C 3406   0.773   3.635  15.446  0.3119 -0.3785  0.4113
  221MPD1    C1 3407   0.674   3.551  15.494 -0.7262 -0.1888  0.1886
  221MPD1    C2 3408   0.703   3.470  15.600  0.8413 -0.3096  0.4170
  221MPD1    C3 3409   0.822   3.484  15.671  0.1591 -0.3204  0.5058
  221MPD1    C4 3410   0.911   3.568  15.625 -0.3386 -0.2386 -0.0108
  221MPD1    C5 3411   0.883   3.648  15.524  1.0414  0.0471  0.7569
  221MPD1     H 3412   0.635   3.388  15.621 -0.0930  0.3120 -0.2126
  221MPD1    H1 3413   1.002   3.592  15.681  0.4520 -0.0235 -1.3954
  221MPD1    H2 3414   0.749   3.697  15.361 -0.1724  1.6601  2.0442
  221MPD1    H3 3415   0.949   3.727  15.490  0.0696  0.4081 -0.2924
  221MPD1     N 3416   0.869   3.409  15.783 -0.5768 -0.0082 -0.0405
  221MPD1    H5 3417   0.957   3.446  15.817  0.0652  0.0139 -1.7224
  221MPD1    N1 3418   0.568   3.518  15.407  0.0655 -1.1191  0.0997
  221MPD1    H6 3419   0.491   3.481  15.461 -2.1850  1.0934 -1.6113
  221MPD1    H7 3420   0.531   3.601  15.361 -0.6798 -1.2803  0.4132
  222MPD1     C 3421   4.697   1.190  17.408 -0.1517  0.0898 -0.3082
  222MPD1    C1 3422   4.672   1.279  17.508  0.0013  0.2389 -0.0718
  222MPD1    C2 3423   4.732   1.402  17.505  0.0575 -0.0503  0.5600
  222MPD1    C3 3424   0.070   1.445  17.402 -0.0246  0.1350  0.4053
  222MPD1    C4 3425   0.085   1.359  17.291  0.5764  0.1055 -0.7688
  222MPD1    C5 3426   0.031   1.230  17.293 -0.7792  0.0984  0.0418
  222MPD1     H 3427   4.719   1.457  17.598 -0.1633 -1.0967  1.1386
  222MPD1    H1 3428   0.151   1.382  17.208 -0.2244  1.5932 -0.9848
  222MPD1    H2 3429   4.657   1.089  17.417 -1.6727  0.8195  1.1003
  222MPD1    H3 3430   0.052   1.158  17.214 -1.1255  1.1865 -1.0463
  222MPD1     N 3431   0.129   1.569  17.389 -0.1945 -0.3945 -0.0036
  222MPD1    H5 3432   0.194   1.580  17.311 -0.2712 -2.8625 -0.4051
  222MPD1    N1 3433   4.611   1.226  17.626  0.3060 -0.0290 -0.4290
  222MPD1    H6 3434   4.556   1.142  17.608 -2.0531  1.4044  0.1764
  222MPD1    H7 3435   4.556   1.286  17.686  0.1089 -1.0810  0.4381
  223MPD1     C 3436   0.842   2.063  16.927  0.2624 -0.2148 -0.3434
  223MPD1    C1 3437   0.756   2.173  16.959  0.5357 -0.9052 -0.2891
  223MPD1    C2 3438   0.651   2.156  17.050  0.1804  0.2640  0.9907
  223MPD1    C3 3439   0.618   2.030  17.098  0.1661 -0.2368 -0.4754
  223MPD1    C4 3440   0.699   1.926  17.070 -0.0142 -0.5095 -0.4497
  223MPD1    C5 3441   0.807   1.943  16.986  0.3130 -0.1356 -0.8978
  223MPD1     H 3442   0.595   2.242  17.087 -0.6936 -0.7699  2.0899
  223MPD1    H1 3443   0.690   1.825  17.109  0.1785  0.4648  2.0812
  223MPD1    H2 3444   0.927   2.070  16.861  0.4677  0.6392  0.0088
  223MPD1    H3 3445   0.866   1.855  16.960 -1.2326 -1.5835  0.4913
  223MPD1     N 3446   0.499   2.015  17.173  1.3038 -0.4102  0.3297
  223MPD1    H5 3447   0.437   2.094  17.183  1.5501 -0.1510 -0.2313
  223MPD1    N1 3448   0.777   2.299  16.908  0.0736 -0.8778  0.0733
  223MPD1    H6 3449   0.693   2.356  16.910  0.6401 -0.0071 -0.5043
  223MPD1    H7 3450   0.809   2.299  16.811 -1.3128 -0.5628 -0.3811
  224MPD1     C 3451   0.763   3.032   8.736  0.0049  0.5022  0.3470
  224MPD1    C1 3452   0.889   2.995   8.741  0.2091 -0.3244 -0.0748
  224MPD1    C2 3453   0.971   3.033   8.845  1.0518  0.6272 -1.0657
  224MPD1    C3 3454   0.927   3.106   8.954  0.1681 -0.4995 -0.4086
  224MPD1    C4 3455   0.794   3.146   8.947  0.2601 -0.0467 -0.2693
  224MPD1    C5 3456   0.722   3.117   8.831  0.2291 -0.0602 -1.0406
  224MPD1     H 3457   1.076   3.005   8.846  0.4008 -1.6159  1.2909
  224MPD1    H1 3458   0.754   3.209   9.025  0.8280  0.2444 -0.2065
  224MPD1    H2 3459   0.683   3.010   8.666 -0.7649  2.7540  0.5235
  224MPD1    H3 3460   0.617   3.143   8.826 -0.1534 -1.3400  0.6100
  224MPD1     N 3461   1.002   3.148   9.073  0.2095  0.1484  0.2271
  224MPD1    H5 3462   0.957   3.196   9.150  1.8607 -0.7757  1.7648
  224MPD1    N1 3463   0.932   2.912   8.638  0.0242 -0.6208  0.3314
  224MPD1    H6 3464   0.891   2.924   8.546  1.5557 -1.3176 -0.4388
  224MPD1    H7 3465   1.034   2.913   8.630 -0.0371  2.5112 -0.3548
  225MPD1     C 3466   2.161   4.013  13.379  0.2546 -0.6115  0.2790
  225MPD1    C1 3467   2.195   3.891  13.327 -0.8905  0.4236  0.2763
  225MPD1    C2 3468   2.220   3.889  13.187  0.0486  0.6272 -0.4261
  225MPD1    C3 3469   2.194   3.996  13.104  0.5095 -0.2723 -0.8152
  225MPD1    C4 3470   2.136   4.113  13.154 -0.1201  0.6970 -0.4180
  225MPD1    C5 3471   2.124   4.117  13.292 -0.0210 -0.0922  0.0765
  225MPD1     H 3472   2.249   3.794  13.143  1.5069  0.4695  0.9023
  225MPD1    H1 3473   2.107   4.203  13.100  0.9586  0.5296 -1.2839
  225MPD1    H2 3474   2.145   4.027  13.485  0.0820 -0.2572  0.2062
  225MPD1    H3 3475   2.102   4.214  13.334  0.4207 -0.1428  0.4185
  225MPD1     N 3476   2.223   3.994  12.964  0.4289  0.7822  0.0281
  225MPD1    H5 3477   2.217   4.081  12.912 -2.6569 -0.3472 -1.5321
  225MPD1    N1 3478   2.245   3.790  13.408 -0.6207 -0.5077 -0.5455
  225MPD1    H6 3479   2.230   3.698  13.365 -0.8998  0.3484 -2.2910
  225MPD1    H7 3480   2.202   3.798  13.500  0.0974  1.4885 -0.3876
  226MPD1     C 3481   0.698   3.502   9.976 -0.9455 -0.2830  0.6737
  226MPD1    C1 3482   0.632   3.616   9.936  0.0272  0.1700  0.4744
  226MPD1    C2 3483   0.637   3.655   9.802  0.2061  0.9050 -0.3043
  226MPD1    C3 3484   0.710   3.596   9.705 -0.6041  0.9069 -0.7274
  226MPD1    C4 3485   0.773   3.478   9.740 -0.1131 -0.6537 -0.4301
  226MPD1    C5 3486   0.770   3.445   9.876  0.5153  0.4555  0.4382
  226MPD1     H 3487   0.560   3.728   9.780 -1.7468 -0.6461  1.4425
  226MPD1    H1 3488   0.836   3.420   9.673  0.4205 -1.0159  0.3789
  226MPD1    H2 3489   0.702   3.463  10.077 -0.1579  1.9354  1.4939
  226MPD1    H3 3490   0.814   3.353   9.914  0.2586  0.2303  0.1879
  226MPD1     N 3491   0.713   3.661   9.583  0.0864 -0.0200 -0.3689
  226MPD1    H5 3492   0.653   3.742   9.571 -1.7101 -1.6193 -2.2028
  226MPD1    N1 3493   0.530   3.667  10.021  0.3973 -0.6582  0.1746
  226MPD1    H6 3494   0.543   3.659  10.121  0.4189  1.5424  0.3492
  226MPD1    H7 3495   0.500   3.760   9.992  0.2989 -1.5315 -2.5877
  227MPD1     C 3496   0.560   4.496   9.115 -0.1896 -0.1420  0.0567
  227MPD1    C1 3497   0.552   4.417   9.005 -0.4644 -0.1327  0.3865
  227MPD1    C2 3498   0.587   4.280   9.032  0.7577  0.4377 -0.3260
  227MPD1    C3 3499   0.598   4.233   9.157 -0.2593  0.0392 -1.1398
  227MPD1    C4 3500   0.581   4.316   9.263  1.2055 -0.5005  0.5342
  227MPD1    C5 3501   0.560   4.449   9.243 -0.5516  0.1021  0.2586
  227MPD1     H 3502   0.605   4.215   8.947 -0.9913  1.4257 -1.4467
  227MPD1    H1 3503   0.601   4.289   9.366 -3.1171 -2.1180  0.9734
  227MPD1    H2 3504   0.541   4.602   9.110  0.6656 -0.0176 -0.5272
  227MPD1    H3 3505   0.558   4.514   9.330 -2.7061 -0.6931  0.7911
  227MPD1     N 3506   0.633   4.095   9.171 -0.4236  0.0453  0.4061
  227MPD1    H5 3507   0.655   4.044   9.086 -1.0354  3.2435 -1.6533
  227MPD1    N1 3508   0.546   4.464   8.868 -0.1197  0.1215 -0.2534
  227MPD1    H6 3509   0.469   4.530   8.855 -0.0227 -0.2564 -2.8023
  227MPD1    H7 3510   0.518   4.391   8.803 -2.0796  0.7768 -0.1627
  228MPD1     C 3511   4.665   2.169  12.388 -0.1137 -0.2908 -0.0302
  228MPD1    C1 3512   4.679   2.191  12.523 -0.8013  0.2471  0.2956
  228MPD1    C2 3513   4.567   2.177  12.599  0.3116  0.0167  0.6413
  228MPD1    C3 3514   4.447   2.133  12.555 -0.2835  0.2915  0.1124
  228MPD1    C4 3515   4.435   2.112  12.412 -0.6582 -0.8310  0.3799
  228MPD1    C5 3516   4.547   2.135  12.332  0.9179 -0.4280  0.2671
  228MPD1     H 3517   4.574   2.199  12.704  1.1346 -0.5995  0.7167
  228MPD1    H1 3518   4.348   2.074  12.360  0.1079  1.5971 -2.6732
  228MPD1    H2 3519   0.014   2.185  12.325  0.2807 -1.3424  0.2558
  228MPD1    H3 3520   4.548   2.130  12.223  0.8578 -0.0556  0.2504
  228MPD1     N 3521   4.340   2.115  12.640 -0.1731 -0.6374  0.3727
  228MPD1    H5 3522   4.355   2.108  12.740  1.1850  0.7500  0.2589
  228MPD1    N1 3523   0.066   2.227  12.572 -0.2350  0.7411  0.7439
  228MPD1    H6 3524   0.083   2.215  12.672  2.2828 -0.4101  0.1839
  228MPD1    H7 3525   0.141   2.197  12.510 -0.7545 -2.1859  1.5283
  229MPD1     C 3526   4.357   1.190  14.427  0.5253  0.6180  0.0988
  229MPD1    C1 3527   4.401   1.093  14.332 -0.0112  0.2747 -1.0852
  229MPD1    C2 3528   4.490   0.996  14.375  1.0424 -0.4954  0.1175
  229MPD1    C3 3529   4.524   0.984  14.501 -0.0203  0.4530 -0.5287
  229MPD1    C4 3530   4.473   1.066  14.595 -0.2479  1.4385  0.3696
  229MPD1    C5 3531   4.395   1.177  14.557 -0.7747 -0.6390  0.2405
  229MPD1     H 3532   4.541   0.944  14.294  0.8038 -1.6433  0.7012
  229MPD1    H1 3533   4.492   1.052  14.701 -2.6124  0.0675  0.6168
  229MPD1    H2 3534   4.297   1.271  14.388  0.1084  0.1078 -0.3319
  229MPD1    H3 3535   4.352   1.254  14.620 -1.0566 -2.6139  2.4272
  229MPD1     N 3536   4.616   0.890  14.550  0.4569 -0.0990  0.1270
  229MPD1    H5 3537   4.631   0.894  14.651 -0.0779  1.6495  0.1374
  229MPD1    N1 3538   4.375   1.122  14.199 -0.9385 -0.5629 -0.3496
  229MPD1    H6 3539   4.366   1.041  14.138 -2.5845  0.1698 -1.0723
  229MPD1    H7 3540   4.295   1.184  14.191 -1.7939 -1.5921  0.2065
  230MPD1     C 3541   0.175   0.570  15.379 -0.0997 -0.0587 -0.5298
  230MPD1    C1 3542   0.270   0.508  15.305 -0.2298 -0.1979  0.0140
  230MPD1    C2 3543   0.244   0.489  15.172 -0.1081 -0.7022 -0.1879
  230MPD1    C3 3544   0.130   0.546  15.110  0.1257 -0.1229 -0.3438
  230MPD1    C4 3545   0.051   0.629  15.182 -0.5985 -0.7248 -0.6280
  230MPD1    C5 3546   0.071   0.645  15.313  0.4228  0.0151  0.7034
  230MPD1     H 3547   0.320   0.433  15.118 -1.0868 -1.5663 -0.6871
  230MPD1    H1 3548   4.709   0.686  15.138 -0.5417 -0.2175 -0.0791
  230MPD1    H2 3549   0.181   0.566  15.487 -1.1668 -0.1712 -0.4776
  230MPD1    H3 3550   0.004   0.715  15.361 -1.5847 -1.7969  0.5594
  230MPD1     N 3551   0.128   0.535  14.965 -0.4371 -0.3462  0.2758
  230MPD1    H5 3552   0.212   0.486  14.936 -0.5229 -0.3693  0.0690
  230MPD1    N1 3553   0.374   0.438  15.371  0.6372  0.2196  0.7338
  230MPD1    H6 3554   0.332   0.355  15.411  1.4448 -0.6297 -0.1843
  230MPD1    H7 3555   0.454   0.413  15.314  0.8218 -1.8756  1.9375
  231MPD1     C 3556   3.141   2.761  15.422 -0.9466  0.3297 -0.0356
  231MPD1    C1 3557   3.054   2.841  15.360  0.8069 -0.3323  0.2192
  231MPD1    C2 3558   3.088   2.903  15.236  0.0354  0.8984 -0.2575
  231MPD1    C3 3559   3.221   2.888  15.189  0.5718  0.4321  0.3176
  231MPD1    C4 3560   3.312   2.823  15.269  0.0914 -0.0783  0.0691
  231MPD1    C5 3561   3.274   2.768  15.388  0.4734 -0.6318 -0.8008
  231MPD1     H 3562   3.007   2.961  15.195  0.7392  0.8718 -1.6760
  231MPD1    H1 3563   3.417   2.818  15.240 -0.5201 -1.2925 -1.9027
  231MPD1    H2 3564   3.117   2.690  15.501 -1.4443  0.4022 -0.1286
  231MPD1    H3 3565   3.344   2.708  15.445 -0.6061  0.2277  1.4018
  231MPD1     N 3566   3.252   2.963  15.072 -0.3501 -0.0718 -0.2008
  231MPD1    H5 3567   3.168   2.993  15.024 -0.0799  0.8590 -0.0914
  231MPD1    N1 3568   2.924   2.842  15.404  0.1057 -0.1426  0.2251
  231MPD1    H6 3569   2.875   2.929  15.387  2.8627  0.9472 -2.0448
  231MPD1    H7 3570   2.918   2.809  15.501  1.1248  0.0265  0.3527
  232MPD1     C 3571   4.538   4.710  17.719  0.1690 -0.5412 -0.3100
  232MPD1    C1 3572   4.431   0.023   0.045 -0.0499 -0.0808 -0.1393
  232MPD1    C2 3573   4.345   0.101  17.726  0.4593 -0.7754  0.3753
  232MPD1    C3 3574   4.365   0.143  17.592  0.2064  0.2724  0.2485
  232MPD1    C4 3575   4.472   0.093  17.523 -0.4592  0.0763 -0.3348
  232MPD1    C5 3576   4.563   0.009  17.592  0.0408 -0.7384  0.6802
  232MPD1     H 3577   4.259   0.142   0.029  0.5968  0.0047 -0.0003
  232MPD1    H1 3578   4.497   0.130  17.425  0.8013 -0.6181 -0.2693
  232MPD1    H2 3579   4.600   4.637   0.019 -0.5001  1.5229  3.5279
  232MPD1    H3 3580   4.661   4.728  17.552 -0.3127  0.9869 -1.0305
  232MPD1     N 3581   4.264   0.222  17.539  0.1746  0.6184  0.6121
  232MPD1    H5 3582   4.193   0.262  17.600  2.4750  1.4551  2.7487
  232MPD1    N1 3583   4.384   4.703   0.162  0.1323 -0.5472 -1.0071
  232MPD1    H6 3584   4.455   4.657   0.220 -0.0120  0.5587  0.0268
  232MPD1    H7 3585   4.322   0.020   0.221  0.3460 -1.2864 -0.0917
  233MPD1     C 3586   4.721   2.570   0.334  0.2758  0.2504 -0.1905
  233MPD1    C1 3587   0.069   2.680   0.308 -0.4885  0.3312  0.1470
  233MPD1    C2 3588   0.178   2.693   0.393  0.3699 -0.3090  0.6597
  233MPD1    C3 3589   0.211   2.612   0.495 -0.0061  0.2371  0.4442
  233MPD1    C4 3590   0.136   2.499   0.511  0.4591 -0.0989 -0.4458
  233MPD1    C5 3591   0.024   2.477   0.426 -0.3083  0.4044  0.3505
  233MPD1     H 3592   0.248   2.772   0.369 -2.0871  1.0034 -2.1710
  233MPD1    H1 3593   0.135   2.425   0.591 -0.3599  1.6695  1.1766
  233MPD1    H2 3594   4.626   2.550   0.285  0.8460 -0.0384 -1.1882
  233MPD1    H3 3595   4.697   2.392   0.436  0.6937 -0.1385  2.2009
  233MPD1     N 3596   0.325   2.633   0.581 -0.1389 -0.7168  0.0620
  233MPD1    H5 3597   0.344   2.558   0.647  3.2209  0.5182  0.5166
  233MPD1    N1 3598   0.027   2.781   0.218 -0.8444  0.7204  0.4286
  233MPD1    H6 3599   4.713   2.753   0.135  1.7997  1.2650 -1.4297
  233MPD1    H7 3600   0.109   2.826   0.178 -0.3750 -0.6427 -0.1482
  234MPD1     C 3601   2.818   3.142  10.082 -0.4409  0.1812  0.6187
  234MPD1    C1 3602   2.716   3.215  10.039 -0.3519 -0.6402 -0.7601
  234MPD1    C2 3603   2.635   3.170   9.941 -0.4642 -0.3610  0.5066
  234MPD1    C3 3604   2.654   3.038   9.890 -0.2774  0.4885  0.0090
  234MPD1    C4 3605   2.766   2.968   9.926 -0.0736 -0.0813 -0.7416
  234MPD1    C5 3606   2.847   3.022  10.020  0.1603 -0.0970  0.2151
  234MPD1     H 3607   2.553   3.229   9.902 -0.2654 -0.6373 -0.3377
  234MPD1    H1 3608   2.785   2.874   9.876 -1.3423 -0.7374  0.0095
  234MPD1    H2 3609   2.886   3.159  10.165 -0.6896 -1.0124  1.0704
  234MPD1    H3 3610   2.944   2.980  10.046  0.1422 -0.5763 -0.4868
  234MPD1     N 3611   2.568   2.995   9.792  0.0467 -0.4015  0.9669
  234MPD1    H5 3612   2.506   3.068   9.758 -0.3857 -1.4922 -0.6332
  234MPD1    N1 3613   2.707   3.354  10.076  0.0921  0.0532 -0.1607
  234MPD1    H6 3614   2.610   3.387  10.071 -0.8812 -3.4922 -5.0913
  234MPD1    H7 3615   2.763   3.391  10.152  2.5127 -0.9511 -1.4709
  235MPD1     C 3616   3.724   4.191  10.075  0.3208 -0.0987 -0.5727
  235MPD1    C1 3617   3.678   4.314  10.027 -0.1184 -0.1638  0.0012
  235MPD1    C2 3618   3.714   4.436  10.093 -0.3778 -0.8020 -0.4237
  235MPD1    C3 3619   3.802   4.430  10.199 -0.2352  0.2999 -0.3671
  235MPD1    C4 3620   3.839   4.310  10.251 -0.2151 -0.0574 -0.2956
  235MPD1    C5 3621   3.789   4.191  10.194 -0.6203  0.1315 -0.1078
  235MPD1     H 3622   3.690   4.532  10.048  1.1062 -0.4331 -0.4264
  235MPD1    H1 3623   3.910   4.305  10.332  1.4406  0.0548 -1.7407
  235MPD1    H2 3624   3.699   4.096  10.031 -0.0307 -1.7259  3.1156
  235MPD1    H3 3625   3.839   4.101  10.227 -1.3887 -0.9132 -1.7856
  235MPD1     N 3626   3.841   4.557  10.251 -0.6844  0.2236  0.3572
  235MPD1    H5 3627   3.806   4.643  10.208  0.9619  0.9727  0.5351
  235MPD1    N1 3628   3.628   4.310   9.893 -0.1335 -0.8192  0.0236
  235MPD1    H6 3629   3.558   4.381   9.874  1.0936 -0.6392 -3.9191
  235MPD1    H7 3630   3.577   4.225   9.871 -0.0890 -0.1656 -2.6901
  236MPD1     C 3631   2.209   1.479   9.880  0.6112 -0.8283  0.3109
  236MPD1    C1 3632   2.211   1.338   9.902 -0.2729  0.3028  0.2256
  236MPD1    C2 3633   2.331   1.273   9.868  0.1809 -0.6225  0.6827
  236MPD1    C3 3634   2.435   1.340   9.798 -0.4755  0.3059  0.1277
  236MPD1    C4 3635   2.414   1.473   9.762  0.3932 -0.4822 -0.6374
  236MPD1    C5 3636   2.312   1.549   9.817  0.3785  0.3330  0.4303
  236MPD1     H 3637   2.343   1.171   9.904 -1.8829 -2.0178 -2.5548
  236MPD1    H1 3638   2.492   1.528   9.710  0.2374 -0.0990 -0.4653
  236MPD1    H2 3639   2.127   1.544   9.908  0.6829 -1.1235  1.2157
  236MPD1    H3 3640   2.307   1.653   9.788  0.3178 -0.3761 -2.1103
  236MPD1     N 3641   2.560   1.290   9.772 -0.6019  0.0775  0.3013
  236MPD1    H5 3642   2.621   1.359   9.729  0.7498 -0.7237  0.9068
  236MPD1    N1 3643   2.088   1.263   9.914 -0.3277 -0.0711 -0.3714
  236MPD1    H6 3644   2.107   1.171   9.953  0.2668  0.3416  0.3031
  236MPD1    H7 3645   2.023   1.324   9.963  1.4813  1.6936 -0.1484
  237MPD1     C 3646   3.342   4.466  16.039 -0.7412 -0.2738 -0.1386
  237MPD1    C1 3647   3.293   4.504  15.922 -0.8351  0.5910 -0.0165
  237MPD1    C2 3648   3.223   4.408  15.855  0.0707  0.4662  0.2316
  237MPD1    C3 3649   3.212   4.277  15.904 -0.1008  0.0143 -0.4101
  237MPD1    C4 3650   3.265   4.242  16.026  0.2033  0.2077 -0.3591
  237MPD1    C5 3651   3.327   4.342  16.095  0.3403 -1.1779  0.3208
  237MPD1     H 3652   3.182   4.435  15.759 -1.2389  0.0117  0.6651
  237MPD1    H1 3653   3.241   4.141  16.059 -2.0795  0.9208  0.1238
  237MPD1    H2 3654   3.388   4.538  16.106  1.6357 -0.8220 -1.1620
  237MPD1    H3 3655   3.371   4.318  16.191 -0.3073 -2.0946  0.3794
  237MPD1     N 3656   3.140   4.178  15.835  0.5052  0.1435  0.1073
  237MPD1    H5 3657   3.126   4.089  15.881  0.0992 -0.3658 -1.0135
  237MPD1    N1 3658   3.323   4.624  15.875 -0.1914  0.3553 -0.6541
  237MPD1    H6 3659   3.241   4.664  15.828 -0.5074 -0.4076 -0.7413
  237MPD1    H7 3660   3.360   4.694  15.940  2.3329 -1.6565  0.0776
  238MPD1     C 3661   0.743   2.682  14.989  0.6283  0.4826 -0.3722
  238MPD1    C1 3662   0.705   2.550  15.005 -0.2077 -0.2978 -0.6608
  238MPD1    C2 3663   0.576   2.524  15.038  0.7263 -0.1953 -0.4014
  238MPD1    C3 3664   0.476   2.620  15.032  0.3222 -0.2255 -0.2678
  238MPD1    C4 3665   0.508   2.747  14.994 -0.5505 -0.2243 -0.1004
  238MPD1    C5 3666   0.644   2.778  14.984 -0.3752 -0.5367  0.6715
  238MPD1     H 3667   0.557   2.429  15.086  0.0227  0.9809  1.6494
  238MPD1    H1 3668   0.437   2.828  14.987 -0.0367  0.1286 -1.2227
  238MPD1    H2 3669   0.843   2.718  14.968  1.3858 -1.4475 -0.0986
  238MPD1    H3 3670   0.666   2.884  14.973 -0.7299 -0.3327  1.9608
  238MPD1     N 3671   0.337   2.594  15.057 -0.3716  0.5628  0.0005
  238MPD1    H5 3672   0.276   2.675  15.049 -1.9763 -0.6912 -0.2750
  238MPD1    N1 3673   0.805   2.452  15.022  0.4432  0.0451  0.7643
  238MPD1    H6 3674   0.765   2.362  14.997  0.1795  0.4262 -0.1495
  238MPD1    H7 3675   0.890   2.461  14.967 -1.4344  0.5316 -2.0578
  239MPD1     C 3676   0.229   3.210  14.813 -0.3366  0.1664  0.1516
  239MPD1    C1 3677   0.294   3.201  14.694 -0.1879  0.3663 -0.4935
  239MPD1    C2 3678   0.263   3.288  14.586  0.3657  0.4194  0.1544
  239MPD1    C3 3679   0.191   3.403  14.617  0.2053  0.3260  0.1302
  239MPD1    C4 3680   0.123   3.410  14.737 -0.0787  0.7115 -0.0164
  239MPD1    C5 3681   0.140   3.317  14.835  0.3224 -0.4563 -0.7148
  239MPD1     H 3682   0.307   3.277  14.488  0.9884  0.1501  0.4674
  239MPD1    H1 3683   0.046   3.485  14.749 -0.0152  1.0713 -1.7876
  239MPD1    H2 3684   0.230   3.133  14.889  0.5831  0.8518  0.8270
  239MPD1    H3 3685   0.084   3.321  14.928 -0.1319  0.3313 -1.0285
  239MPD1     N 3686   0.175   3.514  14.530  0.1187 -0.5849  0.0896
  239MPD1    H5 3687   0.130   3.594  14.573 -0.1221 -0.2700 -0.7451
  239MPD1    N1 3688   0.371   3.087  14.672  0.1212  0.7384  0.2768
  239MPD1    H6 3689   0.422   3.103  14.585  2.3510 -0.9193  1.2681
  239MPD1    H7 3690   0.439   3.081  14.747 -0.4254 -0.5617  0.6717
  240MPD1     C 3691   4.033   3.418  13.917  0.4851  0.1574 -0.8571
  240MPD1    C1 3692   4.116   3.443  14.013 -0.2538 -0.3326 -0.4823
  240MPD1    C2 3693   4.114   3.367  14.122 -1.2484 -0.2096  1.2209
  240MPD1    C3 3694   4.043   3.254  14.130 -0.2662  0.5294 -0.1200
  240MPD1    C4 3695   3.963   3.220  14.030  0.2924 -0.0350  0.4224
  240MPD1    C5 3696   3.951   3.306  13.927 -0.7552 -0.2864  0.1585
  240MPD1     H 3697   4.187   3.386  14.200  0.2455 -1.6560  0.1571
  240MPD1    H1 3698   3.911   3.125  14.039 -0.0273  0.1512  0.5655
  240MPD1    H2 3699   4.029   3.482  13.830  1.7898  0.0549 -0.9909
  240MPD1    H3 3700   3.878   3.282  13.850 -0.3064 -0.4308 -0.2296
  240MPD1     N 3701   4.069   3.176  14.247 -0.0745 -0.0888  0.0584
  240MPD1    H5 3702   4.120   3.228  14.317  0.4549 -2.5534  1.5241
  240MPD1    N1 3703   4.197   3.563  14.009  0.1106  0.0855 -0.4387
  240MPD1    H6 3704   4.271   3.565  14.080  0.9223 -1.1196 -1.2634
  240MPD1    H7 3705   4.228   3.603  13.921  0.6420  3.5252  1.2850
  241MPD1     C 3706   4.469   3.391  14.948 -0.3062 -0.6250  0.4896
  241MPD1    C1 3707   4.373   3.312  15.008  1.1869  0.8389  0.0066
  241MPD1    C2 3708   4.303   3.223  14.925  0.3915  0.3903  0.3109
  241MPD1    C3 3709   4.326   3.222  14.785  0.1610 -0.1082  0.1532
  241MPD1    C4 3710   4.423   3.306  14.731 -0.4035  0.4147  0.6803
  241MPD1    C5 3711   4.497   3.383  14.819  0.8777  0.0464  0.1441
  241MPD1     H 3712   4.222   3.168  14.970  0.9129 -2.3273 -2.0188
  241MPD1    H1 3713   4.447   3.319  14.626 -1.4035 -2.0555  0.1332
  241MPD1    H2 3714   4.534   3.447  15.014 -0.0128 -0.1908 -0.1715
  241MPD1    H3 3715   4.579   3.443  14.781 -0.5692 -0.2611 -3.4911
  241MPD1     N 3716   4.250   3.152  14.692 -0.2068  0.8511  0.8137
  241MPD1    H5 3717   4.272   3.155  14.593  2.4983  1.3113  1.4517
  241MPD1    N1 3718   4.364   3.298  15.150 -0.2365  0.1467  0.0724
  241MPD1    H6 3719   4.390   3.380  15.206  0.4512 -0.0903  0.0976
  241MPD1    H7 3720   4.271   3.272  15.181  0.6819 -1.1318  1.7379
  242MPD1     C 3721   4.252   0.740  15.748  0.1110 -0.0009 -0.3997
  242MPD1    C1 3722   4.135   0.751  15.669  0.0093 -0.0464 -0.7880
  242MPD1    C2 3723   4.105   0.875  15.606  0.2403  0.0790 -0.4954
  242MPD1    C3 3724   4.193   0.987  15.612 -0.3005 -0.1025  0.1441
  242MPD1    C4 3725   4.307   0.975  15.689 -0.1105  0.6441 -0.0695
  242MPD1    C5 3726   4.335   0.854  15.747 -0.2670  0.1110  0.2907
  242MPD1     H 3727   4.011   0.884  15.554  1.1029  2.5924 -1.5929
  242MPD1    H1 3728   4.371   1.060  15.713 -0.4703  0.6711  0.7891
  242MPD1    H2 3729   4.280   0.643  15.789 -0.4084  0.2926  0.6613
  242MPD1    H3 3730   4.421   0.850  15.813 -0.2184 -2.3507  0.0738
  242MPD1     N 3731   4.166   1.108  15.548  0.4694  0.1995 -0.1422
  242MPD1    H5 3732   4.231   1.182  15.572 -0.2206  0.0246  2.3155
  242MPD1    N1 3733   4.040   0.647  15.673  0.3795 -0.0735  0.0973
  242MPD1    H6 3734   3.988   0.639  15.586  0.1096  0.6405  0.1938
  242MPD1    H7 3735   4.089   0.562  15.700  0.1249  0.0673  0.9798
  243MPD1     C 3736   4.705   0.445   0.015  0.2808  0.8852  0.4140
  243MPD1    C1 3737   0.037   0.328   0.010  0.6349 -0.3867 -0.4897
  243MPD1    C2 3738   0.156   0.325  17.694 -0.0187  0.4334  0.1103
  243MPD1    C3 3739   0.216   0.430  17.626  0.1624 -0.0344 -0.1908
  243MPD1    C4 3740   0.139   0.548  17.626  0.1606  0.2738  0.2732
  243MPD1    C5 3741   0.018   0.550  17.696 -0.2877  0.3197 -0.2959
  243MPD1     H 3742   0.201   0.226  17.698 -0.9947 -0.0771 -1.0221
  243MPD1    H1 3743   0.164   0.642  17.579  0.0297  1.3019  2.2623
  243MPD1    H2 3744   4.606   0.462   0.055 -0.5024 -2.4954 -0.1002
  243MPD1    H3 3745   4.689   0.635  17.690 -0.0055  0.5481 -0.2369
  243MPD1     N 3746   0.340   0.413  17.569  0.0819  0.2225 -0.0639
  243MPD1    H5 3747   0.372   0.317  17.575 -0.4173  0.1046  0.7021
  243MPD1    N1 3748   0.001   0.222   0.098  0.5659 -0.1500 -0.5168
  243MPD1    H6 3749   0.026   0.133   0.056  0.4946 -1.7934  2.9634
  243MPD1    H7 3750   4.640   0.209   0.116  0.1615  1.7152 -1.3400
  244MPD1     C 3751   0.678   4.404  17.340  0.7737 -0.0915  0.0588
  244MPD1    C1 3752   0.619   4.464  17.443  0.6776 -0.1794  0.3119
  244MPD1    C2 3753   0.583   4.596  17.442 -0.3943 -0.6391 -0.0717
  244MPD1    C3 3754   0.602   4.664  17.330 -0.3093  0.6866 -0.1589
  244MPD1    C4 3755   0.664   4.602  17.219 -0.3057  0.0286  0.7482
  244MPD1    C5 3756   0.711   4.472  17.228  0.5793  0.1041 -0.1225
  244MPD1     H 3757   0.550   4.645  17.533  1.1816  0.6185 -0.1979
  244MPD1    H1 3758   0.676   4.665  17.131 -1.9446 -3.2880 -1.8220
  244MPD1    H2 3759   0.713   4.301  17.337 -1.9218 -1.0450  1.0354
  244MPD1    H3 3760   0.777   4.425  17.156  0.8417  1.5334 -0.8164
  244MPD1     N 3761   0.579   0.068  17.334  0.3373  0.0511  0.2227
  244MPD1    H5 3762   0.538   0.111  17.416  0.4323 -1.6860  1.1695
  244MPD1    N1 3763   0.611   4.385  17.562  0.5478 -0.0598  0.6448
  244MPD1    H6 3764   0.519   4.398  17.604 -1.2350 -0.8737 -2.9839
  244MPD1    H7 3765   0.606   4.287  17.534  1.8756  1.0104 -3.2721
  245MPD1     C 3766   2.837   0.410  12.969 -0.3400  0.9159  0.2643
  245MPD1    C1 3767   2.722   0.443  13.033  0.1573  0.5045 -1.0274
  245MPD1    C2 3768   2.732   0.481  13.165  0.4531 -0.0119  0.2378
  245MPD1    C3 3769   2.858   0.489  13.225  0.0118  0.0514  0.2967
  245MPD1    C4 3770   2.969   0.467  13.154  0.4919 -0.5647 -0.5143
  245MPD1    C5 3771   2.960   0.418  13.027  0.0946  0.4490 -0.7241
  245MPD1     H 3772   2.644   0.500  13.225  0.1933 -0.8577  0.1280
  245MPD1    H1 3773   3.066   0.480  13.200  0.7300  0.8280 -1.4179
  245MPD1    H2 3774   2.838   0.386  12.864  1.5537 -0.5346  0.6179
  245MPD1    H3 3775   3.051   0.390  12.975 -0.5228 -0.0122 -1.5340
  245MPD1     N 3776   2.857   0.547  13.352  0.0053  0.3784 -0.1734
  245MPD1    H5 3777   2.767   0.569  13.393 -1.2991 -0.5518 -2.5168
  245MPD1    N1 3778   2.605   0.417  12.966  0.2404 -0.4743  0.1795
  245MPD1    H6 3779   2.608   0.417  12.865 -0.5090  0.0813  0.1522
  245MPD1    H7 3780   2.531   0.476  13.004  0.0080 -0.0777 -0.8991
  246MPD1     C 3781   4.339   2.749   9.297 -0.0077  0.6885  0.4336
  246MPD1    C1 3782   4.281   2.868   9.334  0.1778  0.3510 -0.2038
  246MPD1    C2 3783   4.141   2.861   9.343  0.3515 -1.0319  0.3740
  246MPD1    C3 3784   4.066   2.751   9.334 -0.0590 -0.7914 -0.1534
  246MPD1    C4 3785   4.130   2.634   9.308 -0.2800 -0.3375 -0.0533
  246MPD1    C5 3786   4.260   2.641   9.267  0.0719 -0.1144  0.0148
  246MPD1     H 3787   4.088   2.949   9.378 -0.4879 -1.4254  0.0792
  246MPD1    H1 3788   4.084   2.538   9.291  1.2163 -0.9813 -0.5253
  246MPD1    H2 3789   4.445   2.755   9.273 -0.7398 -0.2755 -3.0436
  246MPD1    H3 3790   4.312   2.550   9.239  1.7990  1.2042 -1.1203
  246MPD1     N 3791   3.931   2.768   9.361  0.2467  1.3031  0.1488
  246MPD1    H5 3792   3.893   2.863   9.361  0.0775  1.2275 -1.1618
  246MPD1    N1 3793   4.353   2.987   9.328  0.1333 -0.3043  0.1532
  246MPD1    H6 3794   4.454   2.972   9.332  0.2691 -0.0363 -2.2680
  246MPD1    H7 3795   4.332   3.051   9.405  2.0847  0.6187 -0.0821
  247MPD1     C 3796   2.478   1.939  16.456  0.7094  0.0976 -0.2404
  247MPD1    C1 3797   2.583   1.899  16.375 -0.3580  0.0258 -0.4829
  247MPD1    C2 3798   2.566   1.778  16.307  0.4669  0.4481 -0.5625
  247MPD1    C3 3799   2.444   1.719  16.299  0.0243  1.0038  0.2960
  247MPD1    C4 3800   2.338   1.757  16.381  0.5175 -0.0536  0.7674
  247MPD1    C5 3801   2.353   1.873  16.459 -0.1866 -0.2219  0.1039
  247MPD1     H 3802   2.645   1.740  16.244  1.5792  0.2194  0.9884
  247MPD1    H1 3803   2.247   1.699  16.387  0.3400 -0.1250 -2.4192
  247MPD1    H2 3804   2.488   2.021  16.527  1.2682  0.4556 -0.7388
  247MPD1    H3 3805   2.275   1.907  16.526 -1.5807 -0.2013 -1.5012
  247MPD1     N 3806   2.417   1.610  16.210  0.5930 -0.2486  0.9529
  247MPD1    H5 3807   2.324   1.570  16.219  0.6716 -0.6231  0.0907
  247MPD1    N1 3808   2.708   1.947  16.412  0.5064 -0.2579  1.2078
  247MPD1    H6 3809   2.779   1.925  16.342  0.8212  1.0032  1.1210
  247MPD1    H7 3810   2.700   2.048  16.421  0.4002 -0.2395  0.9196
  248MPD1     C 3811   1.037   1.244  16.628  0.1318 -0.1214 -0.3980
  248MPD1    C1 3812   1.158   1.311  16.606 -0.0369  0.0883 -0.2279
  248MPD1    C2 3813   1.246   1.311  16.712 -0.2368  0.5082 -0.1452
  248MPD1    C3 3814   1.211   1.274  16.840 -0.1282  0.1585 -0.2416
  248MPD1    C4 3815   1.082   1.229  16.859  0.8145 -0.0480 -0.8383
  248MPD1    C5 3816   1.003   1.205  16.751 -0.0843  0.2736  0.7057
  248MPD1     H 3817   1.346   1.349  16.693 -0.3900  2.8084  3.6607
  248MPD1    H1 3818   1.042   1.204  16.957  1.3593  0.5671 -0.4604
  248MPD1    H2 3819   0.959   1.229  16.555  0.7474 -1.0123 -0.8654
  248MPD1    H3 3820   0.900   1.177  16.772 -0.9373  1.1921 -2.3689
  248MPD1     N 3821   1.302   1.290  16.946  0.8527 -0.2966  0.2723
  248MPD1    H5 3822   1.398   1.320  16.929  1.3007 -1.2979  1.0593
  248MPD1    N1 3823   1.204   1.334  16.472 -0.3406  0.3931  0.4476
  248MPD1    H6 3824   1.284   1.396  16.465  0.2518 -0.3354  0.7656
  248MPD1    H7 3825   1.125   1.354  16.410  0.7247  1.8714 -0.4159
  249MPD1     C 3826   4.452   3.961   9.826 -0.1941  0.7905 -0.7161
  249MPD1    C1 3827   4.495   3.942   9.953  0.0421  0.0841  0.1568
  249MPD1    C2 3828   4.604   4.019   9.994 -0.1183 -0.3140  0.0753
  249MPD1    C3 3829   4.654   4.118   9.915 -0.1586 -0.1932  0.4135
  249MPD1    C4 3830   4.609   4.135   9.782 -0.0592  0.4198 -0.0089
  249MPD1    C5 3831   4.501   4.062   9.743  0.2120  0.5179  1.1278
  249MPD1     H 3832   4.651   4.001  10.090 -1.5555 -1.1373  0.6369
  249MPD1    H1 3833   4.653   4.195   9.704  0.3224  1.5105  1.0510
  249MPD1    H2 3834   4.369   3.904   9.784 -0.5548 -1.1408  2.5722
  249MPD1    H3 3835   4.462   4.067   9.642  1.1572 -0.5274  0.7053
  249MPD1     N 3836   0.033   4.171   9.956  0.0040  0.0408  0.0061
  249MPD1    H5 3837   0.059   4.135  10.047  0.7089  0.8593  0.1322
  249MPD1    N1 3838   4.444   3.837  10.034  0.4550 -0.1131  0.2232
  249MPD1    H6 3839   4.343   3.823  10.033  0.3421  0.8287 -1.2738
  249MPD1    H7 3840   4.473   3.836  10.132 -1.1622  1.9504  0.7106
  250MPD2     C 3841   0.467   4.698  12.858 -0.2168  0.5703  0.4712
  250MPD2    C1 3842   0.576   4.610  12.852 -0.4025  0.1245 -0.1747
  250MPD2    C2 3843   0.552   4.480  12.808 -0.1275  0.2390 -0.1158
  250MPD2    C3 3844   0.425   4.432  12.796  0.1185 -0.4173 -0.2296
  250MPD2    C4 3845   0.320   4.518  12.804  0.4918  0.3844  0.6171
  250MPD2    C5 3846   0.341   4.650  12.826 -0.2474 -0.2653  0.3152
  250MPD2     H 3847   0.633   4.407  12.804  2.8451  3.4215  2.3695
  250MPD2    H1 3848   0.222   4.478  12.779  1.1606  0.2378 -1.7586
  250MPD2    H2 3849   0.486   0.063  12.886 -0.3910  0.5406  0.7010
  250MPD2    H3 3850   0.248   4.704  12.833  0.0690  0.2517  0.5318
  250MPD2     N 3851   0.397   4.294  12.763  0.1947 -0.4035 -0.3027
  250MPD2    H5 3852   0.296   4.282  12.753 -0.1609  1.9350  0.4613
  250MPD2    N1 3853   0.702   4.667  12.885 -0.7877  0.2546  0.3125
  250MPD2    H7 3854   0.707   0.028  12.904  2.1005 -0.0019  0.7814
  251TMC3    C1 3855   0.931   4.682  12.919 -0.7454 -0.4725 -0.1700
  251TMC3    C2 3856   0.931   0.084  12.893 -0.1636  0.1573 -0.5430
  251TMC3    C3 3857   1.035   0.159  12.940  0.3394  0.5783  0.0918
  251TMC3    C4 3858   1.030   4.618  12.987  0.6306  0.1441 -0.1915
  251TMC3    C5 3859   1.127   4.701  13.039 -0.3052  0.2049 -0.1927
  251TMC3    C6 3860   1.133   0.103  13.018  0.0996 -0.4446 -0.1880
  251TMC3     C 3861   0.822   4.599  12.871 -0.5070 -0.7694  0.3165
  251TMC3     O 3862   0.835   4.475  12.874  0.0227  0.2308 -0.3412
  251TMC3     H 3863   0.853   0.124  12.830  0.5085  0.6320 -1.0798
  251TMC3    H1 3864   1.034   4.510  12.999 -0.1808  0.1654  0.2863
  251TMC3    H2 3865   1.199   0.169  13.073 -1.6000  0.8249  0.3493
  251TMC3    C7 3866   1.203   4.645  13.144 -0.4190  0.4431 -1.0526
  251TMC3    C8 3867   1.018   0.305  12.941  0.2590 -0.3083  0.3938
  251TMC3    O1 3868   1.196   4.525  13.154 -0.2706  0.3749 -0.1819
  251TMC3    O2 3869   0.915   0.351  12.890 -0.1735  0.1741 -0.1378
  252TMC3    C1 3870   0.923   1.209   9.911  0.3348 -0.1218  0.1711
  252TMC3    C2 3871   1.032   1.292   9.890 -0.3703 -0.0949 -0.4511
  252TMC3    C3 3872   1.161   1.241   9.910  0.2376 -0.4958  0.1613
  252TMC3    C4 3873   0.942   1.091   9.979  0.1465 -0.2271 -0.1627
  252TMC3    C5 3874   1.072   1.044   9.998  0.3627 -0.1003 -0.5388
  252TMC3    C6 3875   1.186   1.114   9.958  0.7805  1.0154  0.1556
  252TMC3     C 3876   0.791   1.263   9.896  0.1544  0.5739  0.2759
  252TMC3     O 3877   0.788   1.382   9.870  0.2933  0.2804  1.2520
  252TMC3     H 3878   1.012   1.386   9.839 -1.0312  1.1644  2.0973
  252TMC3    H1 3879   0.858   1.024   9.997 -0.7136  1.1044  0.8402
  252TMC3    H2 3880   1.284   1.068   9.962  0.4779  0.2287 -1.3581
  252TMC3    C7 3881   1.089   0.916  10.067 -0.1200  0.5766  0.1090
  252TMC3    C8 3882   1.278   1.329   9.896  0.4549 -0.2534 -0.3705
  252TMC3    O1 3883   1.189   0.894  10.137 -0.2172  0.5286  0.3556
  252TMC3    O2 3884   1.272   1.414   9.807 -0.5250 -0.3237 -0.0950
  253MPD2     C 3885   2.734   4.417  15.426  0.3790 -0.1975  0.2169
  253MPD2    C1 3886   2.616   4.348  15.420 -0.6033  0.1335  0.4150
  253MPD2    C2 3887   2.548   4.308  15.536 -0.5019 -0.0166 -0.0856
  253MPD2    C3 3888   2.592   4.350  15.655 -0.4908  0.1040  0.5309
  253MPD2    C4 3889   2.719   4.407  15.663  0.7275 -0.5350 -0.0120
  253MPD2    C5 3890   2.784   4.451  15.553  0.2955 -0.1823 -0.0868
  253MPD2     H 3891   2.459   4.246  15.525 -0.5326 -0.0762  0.5019
  253MPD2    H1 3892   2.768   4.422  15.758 -0.5706  1.7256  0.3096
  253MPD2    H2 3893   2.786   4.456  15.340  0.4535  2.5958  1.5365
  253MPD2    H3 3894   2.878   4.504  15.558 -0.8296  1.4630  3.7848
  253MPD2     N 3895   2.514   4.325  15.773 -0.0386  0.1139  0.1202
  253MPD2    H5 3896   2.567   4.349  15.856 -0.3474  0.5507  0.1907
  253MPD2    N1 3897   2.543   4.328  15.302 -0.2599 -1.0714 -0.7750
  253MPD2    H7 3898   2.446   4.302  15.321 -0.6431  2.2692  2.0348
  254TMC3    C1 3899   2.323   4.309  15.914 -1.0043 -0.6671 -0.1356
  254TMC3    C2 3900   2.190   4.330  15.907 -0.2808  0.1093  0.5401
  254TMC3    C3 3901   2.118   4.300  16.017 -0.4253 -1.1371  0.0295
  254TMC3    C4 3902   2.380   4.241  16.017  0.2598  0.7424 -0.3629
  254TMC3    C5 3903   2.306   4.223  16.130  0.5155  0.7373 -0.6467
  254TMC3    C6 3904   2.168   4.246  16.125  0.2893  0.1628  0.3449
  254TMC3     C 3905   2.376   4.304  15.778 -0.2416  0.4291  0.9383
  254TMC3     O 3906   2.300   4.327  15.684 -0.1048 -0.1997  0.3694
  254TMC3     H 3907   2.138   4.365  15.818  0.1239  1.8323  0.9805
  254TMC3    H1 3908   2.481   4.204  15.999 -0.5361 -0.9644 -1.3553
  254TMC3    H2 3909   2.109   4.229  16.215  2.9024 -1.9149  1.6964
  254TMC3    C7 3910   2.355   4.145  16.240  0.1319 -0.5931  0.4317
  254TMC3    C8 3911   1.974   4.317  16.026  0.0199 -0.1805 -0.5197
  254TMC3    O1 3912   2.276   4.092  16.318 -0.0513  0.3273 -0.0319
  254TMC3    O2 3913   1.917   4.261  16.117  0.8645  0.4748  0.8725
  255MPD2     C 3914   0.041   2.743  10.188  0.3124 -0.1932 -0.0486
  255MPD2    C1 3915   0.110   2.857  10.163  0.1414  0.3198 -0.6879
  255MPD2    C2 3916   0.247   2.850  10.204  0.2112 -0.4553  0.5010
  255MPD2    C3 3917   0.307   2.737  10.264  0.4943 -0.6401 -0.7153
  255MPD2    C4 3918   0.221   2.631  10.302  0.2347 -0.3732  0.4622
  255MPD2    C5 3919   0.092   2.633  10.257 -0.1540  0.1124 -0.3667
  255MPD2     H 3920   0.309   2.938  10.192  0.8399 -1.2122 -1.8096
  255MPD2    H1 3921   0.269   2.541  10.338  0.6063  0.3069  1.6592
  255MPD2    H2 3922   4.677   2.739  10.151  0.6199  1.2302 -1.0327
  255MPD2    H3 3923   0.025   2.549  10.273  1.5733 -1.0623  0.6019
  255MPD2     N 3924   0.444   2.724  10.306  0.4814 -0.1627 -0.7611
  255MPD2    H5 3925   0.465   2.631  10.342  0.0179 -1.0867 -2.9103
  255MPD2    N1 3926   0.048   2.974  10.113 -0.3521  0.2296  0.5371
  255MPD2    H7 3927   4.687   2.962  10.091 -0.9236 -0.7534  3.6395
  256TMC3    C1 3928   4.737   3.185  10.054 -0.3567  0.3817  0.0891
  256TMC3    C2 3929   0.019   3.245   9.931  0.0919 -0.5240  0.3984
  256TMC3    C3 3930   4.647   3.271   9.857 -0.4526 -0.3712  0.2546
  256TMC3    C4 3931   4.613   3.145  10.097 -0.4219  0.3908  0.4058
  256TMC3    C5 3932   4.508   3.162  10.014 -0.0615  0.0763  0.1409
  256TMC3    C6 3933   4.521   3.229   9.892  0.4986 -0.0740 -0.0718
  256TMC3     C 3934   0.106   3.101  10.092 -0.2942  0.4555  0.2203
  256TMC3     O 3935   0.222   3.139  10.108 -0.1253 -0.4409 -0.0305
  256TMC3     H 3936   0.120   3.276   9.910 -0.3071  1.1831  0.9930
  256TMC3    H1 3937   4.598   3.102  10.196 -1.0415  0.6534  0.4260
  256TMC3    H2 3938   4.439   3.230   9.821  0.1954  0.5367  0.2907
  256TMC3    C7 3939   4.442   3.039  10.004  0.8836  0.2144  0.0147
  256TMC3    C8 3940   4.655   3.307   9.715  0.1817  0.4538 -0.0205
  256TMC3    O1 3941   4.494   2.946  10.059 -0.4133 -0.1100  0.6682
  256TMC3    O2 3942   4.546   3.315   9.662 -0.3132  0.0167 -0.1621
  257MPD2     C 3943   4.110   3.972  12.902  0.3424  0.6527  0.3743
  257MPD2    C1 3944   4.237   4.019  12.919 -0.0766  0.1784  0.6544
  257MPD2    C2 3945   4.335   3.939  12.971  0.3476 -0.1974  0.1637
  257MPD2    C3 3946   4.301   3.806  12.997  0.1331 -0.2556 -0.5012
  257MPD2    C4 3947   4.172   3.760  12.958 -0.4950  0.7214  0.7190
  257MPD2    C5 3948   4.078   3.843  12.922  1.2386 -0.1389 -0.0775
  257MPD2     H 3949   4.435   3.978  12.987  0.8226 -0.6976 -1.5873
  257MPD2    H1 3950   4.144   3.655  12.966 -1.3937  0.7682 -1.8043
  257MPD2    H2 3951   4.026   4.025  12.859 -1.7220 -1.9657  1.1622
  257MPD2    H3 3952   3.978   3.803  12.911  0.1337  2.0333  2.0149
  257MPD2     N 3953   4.400   3.711  13.044 -0.0325  0.7311  0.7966
  257MPD2    H5 3954   4.376   3.613  13.046  2.0174  0.1930 -1.0423
  257MPD2    N1 3955   4.258   4.157  12.883 -0.0957  0.1887 -0.3544
  257MPD2    H7 3956   4.202   4.194  12.807  0.9005 -1.9268 -2.0976
  258TMC3    C1 3957   4.581   3.617  13.155  0.1749  0.3212  0.7310
  258TMC3    C2 3958   4.601   3.521  13.061 -0.2073  1.1799 -0.3223
  258TMC3    C3 3959   4.681   3.414  13.089 -0.5773  0.1482  0.3205
  258TMC3    C4 3960   4.639   3.612  13.276 -0.0845  0.5727 -0.1468
  258TMC3    C5 3961   4.721   3.497  13.307 -0.4874  0.3023 -0.0518
  258TMC3    C6 3962   0.003   3.398  13.212  0.0404  0.7167 -0.4988
  258TMC3     C 3963   4.515   3.737  13.107  0.1860  0.3816 -0.0890
  258TMC3     O 3964   4.568   3.841  13.141  0.3303 -0.2938 -0.3205
  258TMC3     H 3965   4.567   3.535  12.959 -0.6274 -1.5456 -0.5608
  258TMC3    H1 3966   4.626   3.686  13.354  1.2120 -0.8231  1.3872
  258TMC3    H2 3967   0.072   3.320  13.241 -0.5182  0.9897  1.5140
  258TMC3    C7 3968   4.720   3.452  13.444  0.0864 -0.1705  0.0589
  258TMC3    C8 3969   4.702   3.324  12.972  0.1522  0.4610  0.4313
  258TMC3    O1 3970   4.635   3.503  13.511 -0.4625  0.1489  0.2143
  258TMC3    O2 3971   4.658   3.363  12.861  0.0962  0.1947 -0.5758
  259MPD2     C 3972   3.576   1.267   0.557  0.0737 -0.4934 -0.3816
  259MPD2    C1 3973   3.493   1.161   0.539 -0.3834 -0.6272 -0.3136
  259MPD2    C2 3974   3.462   1.139   0.405  0.1121  0.4827  0.0044
  259MPD2    C3 3975   3.515   1.217   0.304 -0.2165  0.1455  0.2623
  259MPD2    C4 3976   3.602   1.323   0.323 -0.7409 -0.5550  0.2865
  259MPD2    C5 3977   3.633   1.345   0.454  0.2894  0.3277  0.0485
  259MPD2     H 3978   3.405   1.050   0.381  2.5818 -1.2864  0.7856
  259MPD2    H1 3979   3.648   1.378   0.241  2.4758 -1.2089  1.6550
  259MPD2    H2 3980   3.585   1.307   0.657  2.6279 -1.6160 -0.1810
  259MPD2    H3 3981   3.688   1.433   0.484 -0.4283  1.0395 -0.7272
  259MPD2     N 3982   3.471   1.169   0.180 -0.3907  0.2692  0.1563
  259MPD2    H5 3983   3.416   1.084   0.175 -1.4586  0.8410  2.0319
  259MPD2    N1 3984   3.440   1.084   0.649  0.2157 -0.2346 -0.7948
  259MPD2    H7 3985   3.487   1.090   0.738  0.5865  0.5516 -1.0524
  260TMC3    C1 3986   3.453   1.160  17.694 -0.2666  0.6122 -0.4883
  260TMC3    C2 3987   3.503   1.203  17.574  0.0604  0.4895  0.4890
  260TMC3    C3 3988   3.487   1.122  17.467  0.7455  0.4297 -0.2810
  260TMC3    C4 3989   3.386   1.037  17.704  0.2536 -0.0750  0.1084
  260TMC3    C5 3990   3.352   0.973  17.588 -0.6791  0.3826  0.2107
  260TMC3    C6 3991   3.402   1.014  17.467 -0.4422  0.1611  0.0776
  260TMC3     C 3992   3.486   1.237   0.059 -0.4778 -0.3724  0.1308
  260TMC3     O 3993   3.560   1.335   0.033 -0.8293 -0.0258  0.2674
  260TMC3     H 3994   3.578   1.282  17.574 -0.8759  1.3891  0.8576
  260TMC3    H1 3995   3.347   0.994   0.046  0.5166 -0.4723  0.0336
  260TMC3    H2 3996   3.391   0.952  17.379 -1.2002  2.2324 -1.2948
  260TMC3    C7 3997   3.310   0.836  17.590 -0.4294  0.0858 -0.5329
  260TMC3    C8 3998   3.606   1.130  17.388 -0.4233  0.0585  0.0583
  260TMC3    O1 3999   3.311   0.776  17.484  0.4184  0.2619 -0.3180
  260TMC3    O2 4000   3.665   1.239  17.385  0.1516 -0.0465 -0.6109
  261MPD2     C 4001   4.694   3.988  12.278 -0.6708  0.2894  0.6551
  261MPD2    C1 4002   0.040   4.086  12.334  0.6180  0.6154 -0.0109
  261MPD2    C2 4003   0.061   4.197  12.249 -0.4203  0.0001  0.2491
  261MPD2    C3 4004   0.010   4.204  12.121  0.5367  0.5163 -0.4404
  261MPD2    C4 4005   4.667   4.112  12.070 -0.1059  0.0846  0.1399
  261MPD2    C5 4006   4.637   4.013  12.153 -0.3059  0.0359  0.1548
  261MPD2     H 4007   0.139   4.269  12.268 -1.7861  1.4738  0.3279
  261MPD2    H1 4008   4.616   4.114  11.974  0.5753 -1.8323 -0.2566
  261MPD2    H2 4009   4.676   3.891  12.324 -1.7225  0.8286  1.3825
  261MPD2    H3 4010   4.563   3.942  12.118  0.0113 -0.3959  0.3634
  261MPD2     N 4011   0.059   4.311  12.052 -0.1141 -0.1616 -0.5174
  261MPD2    H5 4012   0.122   4.375  12.099 -0.6606  1.5406 -2.1001
  261MPD2    N1 4013   0.127   4.063  12.440  0.2275  0.2307  0.1862
  261MPD2    H7 4014   0.201   4.132  12.455  0.7862 -0.3612  0.1295
  262TMC3    C1 4015   0.155   4.415  11.863  0.1297 -0.5641 -0.0412
  262TMC3    C2 4016   0.159   4.531  11.934  0.2419  0.4297 -0.0001
  262TMC3    C3 4017   0.233   4.628  11.874  0.2990  0.0045  0.1100
  262TMC3    C4 4018   0.228   4.389  11.755 -0.1704  0.4599  1.0178
  262TMC3    C5 4019   0.318   4.480  11.711 -0.2369  0.2939  0.3395
  262TMC3    C6 4020   0.309   4.607  11.756  0.2672  0.2007 -0.3039
  262TMC3     C 4021   0.070   4.311  11.914 -0.2880 -0.1615  0.6263
  262TMC3     O 4022   0.021   4.237  11.830 -0.0874  0.1138 -0.4132
  262TMC3     H 4023   0.095   4.545  12.021  0.7873 -2.4433  0.8672
  262TMC3    H1 4024   0.224   4.286  11.722 -0.0524  1.0621 -0.8654
  262TMC3    H2 4025   0.350   4.697  11.712 -3.6428  1.7996 -0.6633
  262TMC3    C7 4026   0.381   4.440  11.586  0.1036  0.3587 -0.4397
  262TMC3    C8 4027   0.233   0.026  11.930 -0.1529  0.1823  0.1043
  262TMC3    O1 4028   0.343   4.338  11.534 -1.0019  0.2980 -0.1920
  262TMC3    O2 4029   0.314   0.101  11.885 -0.3181 -0.2266  0.0166
  263MPD2     C 4030   1.261   3.230  11.317 -0.0086 -0.6249  0.2689
  263MPD2    C1 4031   1.362   3.275  11.237 -0.7247 -0.0447 -0.8765
  263MPD2    C2 4032   1.349   3.389  11.160  0.0772  0.4647  0.7540
  263MPD2    C3 4033   1.225   3.452  11.146 -0.2259 -0.2235 -0.3128
  263MPD2    C4 4034   1.127   3.405  11.222  0.5292 -0.5077  0.5197
  263MPD2    C5 4035   1.141   3.297  11.307  0.5107 -0.5014  0.2145
  263MPD2     H 4036   1.433   3.436  11.109  0.3527  0.4723  1.2130
  263MPD2    H1 4037   1.032   3.455  11.233  0.6996 -0.0797  0.0222
  263MPD2    H2 4038   1.266   3.146  11.385 -0.4542 -0.2382  0.7751
  263MPD2    H3 4039   1.058   3.277  11.373  0.8972  2.8150  1.6927
  263MPD2     N 4040   1.213   3.551  11.050  0.6076  0.0533 -0.3901
  263MPD2    H5 4041   1.298   3.549  10.994  1.5000  1.3642  0.9211
  263MPD2    N1 4042   1.494   3.233  11.268  0.0326 -0.0402 -0.1959
  263MPD2    H7 4043   1.497   3.168  11.345  1.4481  1.5030  1.0459
  264TMC3    C1 4044   1.140   3.731  10.919 -0.4971  0.1033  0.6339
  264TMC3    C2 4045   1.066   3.841  10.898  0.2342 -0.0866  0.0195
  264TMC3    C3 4046   1.068   3.918  10.780 -0.0905  0.1591 -0.2854
  264TMC3    C4 4047   1.217   3.678  10.812  0.1348 -0.9394  0.0368
  264TMC3    C5 4048   1.207   3.750  10.690 -0.4074  0.4780 -0.5681
  264TMC3    C6 4049   1.140   3.866  10.676 -0.5138 -0.4928  0.2464
  264TMC3     C 4050   1.115   3.643  11.030 -0.2846  0.3261 -0.2913
  264TMC3     O 4051   1.018   3.662  11.099 -0.0165  0.1541  0.0241
  264TMC3     H 4052   1.010   3.870  10.986 -0.8345  2.3076 -1.4478
  264TMC3    H1 4053   1.266   3.582  10.822  1.2524 -0.4134 -0.3229
  264TMC3    H2 4054   1.139   3.915  10.579 -1.6498 -0.8392  0.0826
  264TMC3    C7 4055   1.298   3.707  10.582  0.1087 -0.7993 -0.2957
  264TMC3    C8 4056   1.076   4.055  10.793  0.2695 -0.6902  0.2190
  264TMC3    O1 4057   1.296   3.770  10.478  0.4065 -0.0313  0.3811
  264TMC3    O2 4058   1.130   4.113  10.698  0.3375 -0.5826  0.1896
  265MPD2     C 4059   3.529   3.674  15.487  0.0381  0.5042  0.2411
  265MPD2    C1 4060   3.607   3.788  15.448 -0.0704 -0.0454  0.4036
  265MPD2    C2 4061   3.679   3.772  15.324  0.1931  0.1243  0.0054
  265MPD2    C3 4062   3.683   3.650  15.254  0.1936  0.2528 -0.7337
  265MPD2    C4 4063   3.618   3.544  15.305  0.1289  0.7259  0.1272
  265MPD2    C5 4064   3.535   3.555  15.418 -0.2935 -0.4826  0.2141
  265MPD2     H 4065   3.728   3.864  15.292  1.2302 -0.5621 -0.3744
  265MPD2    H1 4066   3.626   3.446  15.258 -0.7960  0.5246  0.3831
  265MPD2    H2 4067   3.466   3.671  15.575 -1.3386 -1.7310 -0.8325
  265MPD2    H3 4068   3.474   3.476  15.459 -1.0332 -0.4762 -0.8568
  265MPD2     N 4069   3.764   3.629  15.141 -0.0450  0.3253 -0.3593
  265MPD2    H5 4070   3.761   3.540  15.093  1.6658  0.0834 -0.0122
  265MPD2    N1 4071   3.608   3.913  15.517  0.2143  0.1000  0.7233
  265MPD2    H7 4072   3.663   3.980  15.464 -0.4723 -1.6365 -2.1658
  266TMC3    C1 4073   3.554   4.072  15.685 -0.4612  0.3042 -0.2894
  266TMC3    C2 4074   3.588   4.091  15.816 -0.1647  0.1335 -0.3483
  266TMC3    C3 4075   3.592   4.220  15.856 -0.1791 -0.2196 -0.3692
  266TMC3    C4 4076   3.502   4.168  15.604 -0.1750  0.6150  0.0886
  266TMC3    C5 4077   3.496   4.299  15.653  0.3250  0.2623  0.2295
  266TMC3    C6 4078   3.544   4.329  15.782 -0.1577 -0.2728 -0.5376
  266TMC3     C 4079   3.557   3.933  15.642  1.1362  0.0184  0.5385
  266TMC3     O 4080   3.499   3.851  15.714  0.1203 -0.5336 -0.3364
  266TMC3     H 4081   3.624   4.011  15.880 -2.7777  0.4683  1.5161
  266TMC3    H1 4082   3.482   4.142  15.500  1.1893 -2.6984  0.6507
  266TMC3    H2 4083   3.555   4.434  15.807  1.9079 -0.6883  0.3114
  266TMC3    C7 4084   3.468   4.395  15.547  0.2555  0.5956  0.0501
  266TMC3    C8 4085   3.677   4.249  15.968 -0.4649 -0.3113 -0.3455
  266TMC3    O1 4086   3.482   4.363  15.428  0.3277 -0.3999  0.0446
  266TMC3    O2 4087   3.734   4.149  16.014  0.0891  0.0368  0.1619
  267MPD2     C 4088   0.640   0.588   0.302  1.0096  0.3949 -0.0606
  267MPD2    C1 4089   0.706   0.697   0.247  0.1679 -0.3528  0.1978
  267MPD2    C2 4090   0.636   0.797   0.177 -0.3989  0.3930  0.2606
  267MPD2    C3 4091   0.499   0.781   0.171  0.4886 -0.1007  0.7081
  267MPD2    C4 4092   0.430   0.674   0.221  0.4104  0.4544 -0.2437
  267MPD2    C5 4093   0.506   0.577   0.285 -0.8132 -0.2214  0.4667
  267MPD2     H 4094   0.682   0.877   0.119 -2.0554  0.6813 -0.6693
  267MPD2    H1 4095   0.323   0.660   0.215  0.6813 -1.0578 -1.5764
  267MPD2    H2 4096   0.699   0.520   0.362 -0.7947 -0.6282  0.5904
  267MPD2    H3 4097   0.453   0.500   0.339 -0.1320 -0.3677  0.9167
  267MPD2     N 4098   0.410   0.868   0.104  0.0291  0.1632  0.5163
  267MPD2    H5 4099   0.314   0.840   0.090  0.5390 -0.4112 -1.8836
  267MPD2    N1 4100   0.845   0.696   0.247 -0.1515 -0.2504  0.5722
  267MPD2    H7 4101   0.887   0.618   0.297 -0.5498 -0.2623  0.8886
  268TMC3    C1 4102   1.064   0.725   0.194 -0.0674  0.3227  1.0527
  268TMC3    C2 4103   1.134   0.704   0.077 -1.0701  0.1959 -0.2562
  268TMC3    C3 4104   1.246   0.628   0.073  0.6765 -0.9006  0.3341
  268TMC3    C4 4105   1.113   0.681   0.314 -0.3812  0.9639 -0.0178
  268TMC3    C5 4106   1.226   0.598   0.302 -0.2430  0.0149  0.2663
  268TMC3    C6 4107   1.292   0.566   0.184  0.4065 -0.6835 -0.2014
  268TMC3     C 4108   0.928   0.768   0.175  0.0280 -0.3037  0.2826
  268TMC3     O 4109   0.897   0.851   0.091 -0.4558  0.3375 -0.0690
  268TMC3     H 4110   1.080   0.734  17.739 -1.4507 -0.6125 -0.2915
  268TMC3    H1 4111   1.072   0.704   0.412  1.6787  0.7161  0.9094
  268TMC3    H2 4112   1.377   0.500   0.187  0.3393 -0.9569 -4.6352
  268TMC3    C7 4113   1.295   0.550   0.412 -0.6007  0.2574 -0.3574
  268TMC3    C8 4114   1.268   0.556  17.700  0.1344  0.0048 -0.2578
  268TMC3    O1 4115   1.333   0.433   0.416  0.0152 -0.1255  0.6254
  268TMC3    O2 4116   1.316   0.448  17.727 -0.3580  1.0944  0.0905
  269MPD2     C 4117   1.824   4.385  15.459 -0.1380 -0.2723  0.7387
  269MPD2    C1 4118   1.689   4.378  15.489 -0.0118  0.0549 -0.0832
  269MPD2    C2 4119   1.618   4.499  15.463  0.0451 -0.8321 -0.0481
  269MPD2    C3 4120   1.685   4.610  15.429  0.7528 -0.2488 -0.9516
  269MPD2    C4 4121   1.819   4.612  15.405 -0.2082 -0.1465 -0.2727
  269MPD2    C5 4122   1.887   4.496  15.421  0.3781 -0.5249 -0.4131
  269MPD2     H 4123   1.512   4.508  15.482  0.1889 -0.2567  0.4629
  269MPD2    H1 4124   1.877   4.700  15.378 -0.5094 -0.0993 -0.7605
  269MPD2    H2 4125   1.870   4.287  15.451 -1.6038 -0.9596  0.6788
  269MPD2    H3 4126   1.991   4.483  15.392  0.5446 -0.1903  0.0331
  269MPD2     N 4127   1.605   4.729  15.416  0.0348  0.2456 -0.2171
  269MPD2    H5 4128   1.512   4.721  15.455  0.6365 -0.0094  1.1687
  269MPD2    N1 4129   1.633   4.255  15.531 -0.4347  0.5350 -0.6246
  269MPD2    H7 4130   1.700   4.180  15.535 -0.6360  0.3990  0.1904
  270TMC3    C1 4131   1.467   4.087  15.567 -0.1796  0.0164  0.2838
  270TMC3    C2 4132   1.341   4.054  15.531  0.6596  0.0634  0.5673
  270TMC3    C3 4133   1.307   3.923  15.547 -0.1722  0.8150  0.3493
  270TMC3    C4 4134   1.565   3.999  15.600  0.0248 -0.2248  0.8318
  270TMC3    C5 4135   1.528   3.863  15.599 -0.2668 -0.0640  0.7867
  270TMC3    C6 4136   1.395   3.825  15.576  0.3895  0.2219  0.5581
  270TMC3     C 4137   1.501   4.225  15.548 -0.2011  0.0571  0.4888
  270TMC3     O 4138   1.406   4.302  15.524  0.0034  0.1856 -0.4171
  270TMC3     H 4139   1.270   4.132  15.505  2.1894  1.6255  1.1413
  270TMC3    H1 4140   1.663   4.032  15.633  0.4922  1.9532 -2.7654
  270TMC3    H2 4141   1.365   3.722  15.586  0.3088  0.2577  0.6789
  270TMC3    C7 4142   1.630   3.756  15.627  0.2328 -0.0796 -0.0263
  270TMC3    C8 4143   1.209   3.872  15.461 -0.1422  0.9475 -0.8493
  270TMC3    O1 4144   1.725   3.784  15.701 -0.5018  0.3000 -0.1010
  270TMC3    O2 4145   1.220   3.756  15.428  0.2673  0.4697 -0.0224
  271MPD2     C 4146   0.627   3.907  13.609 -0.1050  0.3416 -0.0494
  271MPD2    C1 4147   0.586   3.945  13.737  0.3264 -0.0897  0.4792
  271MPD2    C2 4148   0.494   4.044  13.743 -0.6436 -0.1299 -0.1648
  271MPD2    C3 4149   0.450   4.113  13.629  0.5240 -0.4577 -0.3508
  271MPD2    C4 4150   0.493   4.068  13.506 -0.4055 -0.6186 -0.3684
  271MPD2    C5 4151   0.585   3.967  13.495  0.6429  0.0192  0.2400
  271MPD2     H 4152   0.443   4.072  13.835  0.1737 -0.6505  0.4407
  271MPD2    H1 4153   0.458   4.116  13.415 -0.5746 -0.6437 -0.3166
  271MPD2    H2 4154   0.703   3.830  13.605  0.2580  0.5523  2.5409
  271MPD2    H3 4155   0.611   3.932  13.396 -2.3549  0.6971 -0.7874
  271MPD2     N 4156   0.364   4.222  13.638 -0.3401  0.0712  0.6745
  271MPD2    H5 4157   0.331   4.252  13.546  3.0115  0.6876 -0.3115
  271MPD2    N1 4158   0.637   3.883  13.851 -0.5920 -0.0307 -0.0954
  271MPD2    H7 4159   0.593   3.905  13.940  0.1559 -0.5747  0.4116
  272TMC3    C1 4160   0.787   3.796  13.999  0.0705  0.3684 -0.0102
  272TMC3    C2 4161   0.893   3.713  14.024  0.0412  0.3951  0.0168
  272TMC3    C3 4162   0.941   3.711  14.154  0.6731 -0.1665 -0.4086
  272TMC3    C4 4163   0.734   3.873  14.092  0.1270 -0.1532  0.3462
  272TMC3    C5 4164   0.786   3.872  14.221 -0.3701 -0.8055 -0.0131
  272TMC3    C6 4165   0.884   3.777  14.257  0.8880  0.7149 -0.0767
  272TMC3     C 4166   0.748   3.813  13.859 -0.0489  0.2647 -0.1261
  272TMC3     O 4167   0.809   3.748  13.777 -0.2649 -0.0040 -0.1371
  272TMC3     H 4168   0.934   3.651  13.945 -0.0161  1.5435 -0.9173
  272TMC3    H1 4169   0.641   3.927  14.079  0.2383  0.3501  1.6369
  272TMC3    H2 4170   0.934   3.778  14.353  0.8075  0.9141 -0.0363
  272TMC3    C7 4171   0.737   3.982  14.313 -0.2512  0.0302  0.3210
  272TMC3    C8 4172   1.061   3.636  14.175  0.0314 -0.2331 -0.6227
  272TMC3    O1 4173   0.624   4.020  14.284 -0.6461 -0.5149 -0.0065
  272TMC3    O2 4174   1.126   3.636  14.071  0.2593  0.1061 -0.7132
  273MPD2     C 4175   1.885   2.182  11.311 -0.4163 -0.2053  0.1505
  273MPD2    C1 4176   1.974   2.282  11.355 -0.0203  0.1225  0.5374
  273MPD2    C2 4177   2.030   2.360  11.258  0.0906 -0.5878 -0.2518
  273MPD2    C3 4178   1.994   2.352  11.123  0.2634 -0.4009 -0.5407
  273MPD2    C4 4179   1.917   2.244  11.085 -0.0948 -0.8602 -0.1955
  273MPD2    C5 4180   1.867   2.158  11.177  0.0956 -0.6218  1.0674
  273MPD2     H 4181   2.103   2.438  11.280  1.2915 -2.1304  1.1696
  273MPD2    H1 4182   1.902   2.211  10.983 -2.1642  0.5586 -0.3524
  273MPD2    H2 4183   1.851   2.112  11.386  1.2925 -1.2034 -0.0002
  273MPD2    H3 4184   1.807   2.070  11.156  0.6905 -0.9437  0.7396
  273MPD2     N 4185   2.044   2.436  11.017  0.0115  0.0486 -0.2656
  273MPD2    H5 4186   2.035   2.398  10.923  0.8624  0.1085 -0.3696
  273MPD2    N1 4187   1.999   2.294  11.492 -0.0939 -0.5261  0.2350
  273MPD2    H7 4188   1.940   2.247  11.559 -1.1134 -0.3332 -0.5195
  274TMC3    C1 4189   2.127   2.629  10.919 -0.5848 -0.7420 -0.1701
  274TMC3    C2 4190   2.049   2.603  10.808  0.3761  0.1548 -0.5579
  274TMC3    C3 4191   2.058   2.690  10.702  0.1009  0.3030  0.0719
  274TMC3    C4 4192   2.226   2.723  10.913  0.3134 -0.0264 -0.0724
  274TMC3    C5 4193   2.229   2.810  10.812  0.0670  0.2045 -0.2204
  274TMC3    C6 4194   2.140   2.797  10.703  0.4156 -0.4570 -0.6358
  274TMC3     C 4195   2.115   2.550  11.037  0.1635 -0.1284 -0.1698
  274TMC3     O 4196   2.146   2.601  11.144  0.5425  0.3427 -0.3820
  274TMC3     H 4197   1.973   2.525  10.803 -0.1835  0.6173  0.5604
  274TMC3    H1 4198   2.297   2.719  10.995 -0.8409 -1.5795  0.8437
  274TMC3    H2 4199   2.159   2.849  10.610  4.4697  1.3610  1.2117
  274TMC3    C7 4200   2.348   2.887  10.786 -0.3509  0.9930  0.2774
  274TMC3    C8 4201   1.946   2.689  10.610 -0.2997  0.2516  0.6160
  274TMC3    O1 4202   2.365   2.930  10.672 -0.2026  0.1387  0.4860
  274TMC3    O2 4203   1.872   2.590  10.608  0.3722 -0.7377  0.1014
  275MPD2     C 4204   2.301   0.008  14.524 -0.2181  0.0986 -0.1127
  275MPD2    C1 4205   2.227   0.105  14.466  0.0763 -0.0544  0.2625
  275MPD2    C2 4206   2.104   0.073  14.419 -0.2746 -0.3442 -0.5468
  275MPD2    C3 4207   2.051   4.682  14.420 -0.5405  0.6791  0.4679
  275MPD2    C4 4208   2.129   4.586  14.477  0.1911 -0.2176 -0.5249
  275MPD2    C5 4209   2.250   4.617  14.531 -0.3470 -0.5572 -0.3526
  275MPD2     H 4210   2.053   0.159  14.377 -0.3312  0.8432  1.9054
  275MPD2    H1 4211   2.093   4.484  14.485  0.3337 -0.2371 -0.1525
  275MPD2    H2 4212   2.399   0.030  14.564 -0.4855 -0.0398  0.6017
  275MPD2    H3 4213   2.310   4.537  14.573 -1.8652 -1.4999  0.0423
  275MPD2     N 4214   1.919   4.635  14.386  0.1616  0.4607  0.1607
  275MPD2    H5 4215   1.888   4.541  14.410 -0.4583  0.6389  0.0481
  275MPD2    N1 4216   2.256   0.241  14.453 -0.0302  0.2310 -0.5322
  275MPD2    H7 4217   2.184   0.310  14.433 -0.4348 -0.4581 -1.4439
  276TMC3    C1 4218   2.380   0.410  14.560  0.3087  0.5593  0.3327
  276TMC3    C2 4219   2.261   0.440  14.624  0.2907 -0.2994 -0.8308
  276TMC3    C3 4220   2.257   0.528  14.727  0.5337  0.0312 -0.1671
  276TMC3    C4 4221   2.500   0.467  14.603 -0.8007  0.2833 -0.2205
  276TMC3    C5 4222   2.491   0.561  14.701  0.3424 -0.0148 -0.1021
  276TMC3    C6 4223   2.369   0.590  14.762 -0.3073  0.3909  0.1090
  276TMC3     C 4224   2.381   0.293  14.479  0.1035  0.1236  0.4154
  276TMC3     O 4225   2.486   0.230  14.471 -0.1828 -0.0267 -0.0616
  276TMC3     H 4226   2.163   0.414  14.583 -0.1520  0.8849 -0.5131
  276TMC3    H1 4227   2.595   0.450  14.553 -1.1563 -0.1278 -0.7504
  276TMC3    H2 4228   2.367   0.655  14.849  2.1228  0.9199 -0.2236
  276TMC3    C7 4229   2.616   0.608  14.766  0.1518  0.4185  0.2611
  276TMC3    C8 4230   2.179   0.485  14.839  0.4108  0.0865  0.4493
  276TMC3    O1 4231   2.610   0.703  14.840 -0.5939  0.3359 -0.2044
  276TMC3    O2 4232   2.143   0.558  14.927 -0.3396 -0.0002 -0.3990
  277MPD2     C 4233   3.882   4.319  13.033 -0.0288 -0.3335 -0.6449
  277MPD2    C1 4234   3.765   4.322  13.104  0.0429 -0.2821  0.0824
  277MPD2    C2 4235   3.756   4.258  13.232  0.0950 -0.6532 -0.3351
  277MPD2    C3 4236   3.866   4.195  13.284 -0.2725 -0.2371  0.3420
  277MPD2    C4 4237   3.988   4.193  13.214  0.8178  0.3989  0.0746
  277MPD2    C5 4238   3.990   4.249  13.084 -0.1193 -1.0942 -1.5079
  277MPD2     H 4239   3.672   4.259  13.301  0.5368 -0.9968  0.2120
  277MPD2    H1 4240   4.078   4.143  13.250  0.5051  0.5437  1.0444
  277MPD2    H2 4241   3.885   4.375  12.941 -0.0357 -3.9220 -2.8385
  277MPD2    H3 4242   4.083   4.231  13.031  0.3760  1.7110 -1.5957
  277MPD2     N 4243   3.845   4.151  13.417 -0.1755 -0.7411 -0.1403
  277MPD2    H5 4244   3.759   4.167  13.468 -0.3633 -0.6151 -0.4964
  277MPD2    N1 4245   3.649   4.390  13.056 -0.4732 -0.2494  0.0227
  277MPD2    H7 4246   3.665   4.435  12.966  1.6557 -0.7377  0.1689
  278TMC3    C1 4247   3.886   4.043  13.627 -0.3051 -0.3161 -0.2701
  278TMC3    C2 4248   3.915   3.916  13.657 -0.2591 -0.6189  0.5569
  278TMC3    C3 4249   3.807   3.836  13.668  0.8491 -0.4095 -0.1934
  278TMC3    C4 4250   3.761   4.096  13.630 -0.6635 -0.3059  0.0269
  278TMC3    C5 4251   3.658   4.014  13.658 -0.1488 -0.1470  0.1169
  278TMC3    C6 4252   3.674   3.880  13.667  0.4458  1.4986  0.0187
  278TMC3     C 4253   3.944   4.073  13.491  0.0809  0.0886  0.1778
  278TMC3     O 4254   4.036   4.005  13.439  0.3079 -0.0118  0.0803
  278TMC3     H 4255   4.016   3.875  13.650  0.7838  1.6710  2.0696
  278TMC3    H1 4256   3.745   4.203  13.637  1.5228  0.1894 -2.4847
  278TMC3    H2 4257   3.594   3.812  13.690  0.5786  1.2339 -0.3015
  278TMC3    C7 4258   3.533   4.078  13.648  0.3225  0.3210 -0.1734
  278TMC3    C8 4259   3.836   3.697  13.649  0.8798  0.0374 -0.1735
  278TMC3    O1 4260   3.534   4.195  13.608 -0.6394  0.4421  0.6071
  278TMC3    O2 4261   3.940   3.660  13.698 -0.9018 -0.3307 -0.3745
  279MPD2     C 4262   2.480   4.553   0.259 -0.6916 -0.7748  0.0909
  279MPD2    C1 4263   2.419   4.447   0.200  0.2647 -0.2530 -0.4238
  279MPD2    C2 4264   2.493   4.351   0.138 -0.0724 -0.3206 -0.3015
  279MPD2    C3 4265   2.631   4.369   0.125 -0.4311  0.9879  0.1383
  279MPD2    C4 4266   2.690   4.481   0.171 -0.5317 -0.3034  0.1383
  279MPD2    C5 4267   2.612   4.569   0.236  0.1167 -0.2011  0.0630
  279MPD2     H 4268   2.442   4.262   0.103 -0.2727 -1.0291  1.7961
  279MPD2    H1 4269   2.795   4.502   0.155 -0.5468  0.1256  0.6157
  279MPD2    H2 4270   2.426   4.622   0.322 -0.1718 -0.3410  0.0646
  279MPD2    H3 4271   2.646   4.663   0.276  0.1860 -0.5084  0.7175
  279MPD2     N 4272   2.709   4.274   0.059  0.3471 -0.0042  0.4271
  279MPD2    H5 4273   2.810   4.289   0.053  0.5610 -1.4768  0.1246
  279MPD2    N1 4274   2.290   4.408   0.225 -0.3552 -0.1947 -0.5073
  279MPD2    H7 4275   2.263   4.319   0.186  0.9891 -1.2644  1.0004
  280TMC3    C1 4276   2.066   4.426   0.266  0.3761 -0.4752  0.1841
  280TMC3    C2 4277   2.062   4.306   0.202  0.9567  0.7250  0.2302
  280TMC3    C3 4278   1.985   4.289   0.093  0.3224  0.7040 -0.0131
  280TMC3    C4 4279   1.975   4.524   0.228  0.3762  0.6554 -0.1892
  280TMC3    C5 4280   1.895   4.505   0.115  0.4742  0.3626  0.9323
  280TMC3    C6 4281   1.896   4.380   0.053  0.5290  0.0462  0.1945
  280TMC3     C 4282   2.195   4.484   0.290 -0.3597  0.6554 -0.4200
  280TMC3     O 4283   2.205   4.599   0.329 -0.2183  0.3801  0.0041
  280TMC3     H 4284   2.121   4.223   0.239  0.7285  0.9338  1.0623
  280TMC3    H1 4285   1.964   4.620   0.276 -0.4561  0.1154  0.7000
  280TMC3    H2 4286   1.839   4.359  17.713  0.3334 -0.2344  0.3855
  280TMC3    C7 4287   1.805   4.619   0.090 -0.7851  0.5085 -0.7657
  280TMC3    C8 4288   2.070   4.219  17.740  0.2686 -0.2258 -0.6819
  280TMC3    O1 4289   1.779   4.692   0.184  0.7840  0.2221  0.0591
  280TMC3    O2 4290   2.181   4.178   0.029 -0.9973 -0.0945  0.6402
  281TMC3    C1 4291   1.022   4.306  13.376  0.1446  0.6683 -0.0470
  281TMC3    C2 4292   1.136   4.353  13.440 -0.9175  0.1642  0.0461
  281TMC3    C3 4293   1.244   4.272  13.427  0.3177  0.4607  0.0153
  281TMC3    C4 4294   1.017   4.189  13.311  0.2803 -0.4539 -0.2108
  281TMC3    C5 4295   1.121   4.104  13.318  0.2161  0.2810 -0.2858
  281TMC3    C6 4296   1.240   4.149  13.362  0.2004 -0.9994  0.5355
  281TMC3     C 4297   0.915   4.395  13.336  0.0062 -0.6075  0.9490
  281TMC3     O 4298   0.816   4.341  13.289  0.0704  0.0568  0.5018
  281TMC3     H 4299   1.145   4.449  13.490  2.2928 -0.4959  0.7622
  281TMC3    H1 4300   0.923   4.148  13.274  1.0480 -0.8503 -1.7274
  281TMC3    H2 4301   1.332   4.091  13.355  1.0063  0.1423  1.7858
  281TMC3    C7 4302   1.091   3.962  13.308  0.3228 -0.1982  0.5204
  281TMC3    C8 4303   1.374   4.297  13.496  0.2146 -1.4147  0.1984
  281TMC3    O1 4304   0.982   3.927  13.263 -0.4306 -0.2928 -0.2165
  281TMC3    O2 4305   1.435   4.191  13.517  1.0588 -0.3948 -0.4175
  282MPD2     C 4306   3.773   0.827  14.892  0.0564  0.0365  0.1966
  282MPD2    C1 4307   3.636   0.823  14.929  0.0583  0.5580 -0.6568
  282MPD2    C2 4308   3.540   0.816  14.830  0.0797 -0.2643 -0.5939
  282MPD2    C3 4309   3.584   0.809  14.697  0.1230  0.6617 -0.0555
  282MPD2    C4 4310   3.720   0.810  14.666 -0.5824  0.1151  0.0047
  282MPD2    C5 4311   3.813   0.810  14.763  0.1177 -0.0564 -0.2293
  282MPD2     H 4312   3.438   0.786  14.850  0.5225 -0.4428  1.3790
  282MPD2    H1 4313   3.764   0.822  14.568  0.8019  0.3558  0.6498
  282MPD2    H2 4314   3.849   0.839  14.969  1.1041 -1.0155 -0.6837
  282MPD2    H3 4315   3.914   0.812  14.725  0.1610  0.7136 -0.0624
  282MPD2     N 4316   3.479   0.797  14.600  0.4040  0.2094  0.3839
  282MPD2    H5 4317   3.384   0.799  14.635  0.3605  1.4003  0.1899
  282MPD2    N1 4318   3.600   0.819  15.068  0.4014 -0.6778  0.5095
  282MPD2    H7 4319   3.501   0.805  15.084  0.0849 -0.5643 -1.4152
  283TMC3    C1 4320   3.609   0.795  15.299  0.6755 -0.8077 -0.3517
  283TMC3    C2 4321   3.670   0.852  15.411  0.2732 -0.2988 -0.0674
  283TMC3    C3 4322   3.628   0.813  15.539 -0.3401 -0.8213  0.7132
  283TMC3    C4 4323   3.520   0.696  15.311 -0.1038 -0.2117 -0.3292
  283TMC3    C5 4324   3.472   0.672  15.439  0.2606 -0.3296 -0.3574
  283TMC3    C6 4325   3.525   0.721  15.553 -0.7678  0.0356 -0.0524
  283TMC3     C 4326   3.682   0.807  15.172  0.5632  0.0384  0.5907
  283TMC3     O 4327   3.804   0.811  15.189  0.3776 -0.0366 -0.5981
  283TMC3     H 4328   3.746   0.928  15.397 -0.0534 -0.1254 -0.8687
  283TMC3    H1 4329   3.465   0.662  15.224  0.7226  1.6197 -1.5525
  283TMC3    H2 4330   3.495   0.694  15.654 -2.1942  0.0964 -0.4590
  283TMC3    C7 4331   3.339   0.625  15.459 -0.1606 -0.2280  0.2425
  283TMC3    C8 4332   3.667   0.897  15.650 -0.4495  0.1764 -0.4464
  283TMC3    O1 4333   3.285   0.659  15.568 -0.0320 -0.0085  0.4480
  283TMC3    O2 4334   3.656   0.852  15.766  0.2556  0.6745  0.3221
  284MPD2     C 4335   1.356   0.251  12.211 -0.5322  0.4513 -0.5713
  284MPD2    C1 4336   1.463   0.285  12.130  0.0716  0.0669  0.2976
  284MPD2    C2 4337   1.589   0.279  12.180 -0.2764 -0.7606 -0.2795
  284MPD2    C3 4338   1.612   0.238  12.312  0.4008  0.3147 -0.8449
  284MPD2    C4 4339   1.504   0.192  12.392  0.4912  0.3039  0.9599
  284MPD2    C5 4340   1.379   0.201  12.340 -0.2987 -0.0145 -0.0485
  284MPD2     H 4341   1.678   0.291  12.119 -0.6908  1.0768 -0.5174
  284MPD2    H1 4342   1.514   0.136  12.484  0.5391 -2.2274 -0.5889
  284MPD2    H2 4343   1.257   0.248  12.168 -1.3041  1.0395  1.1412
  284MPD2    H3 4344   1.294   0.171  12.400  1.4953 -2.8825  1.0454
  284MPD2     N 4345   1.741   0.222  12.373 -0.4873  0.0709 -0.7035
  284MPD2    H5 4346   1.750   0.196  12.471 -1.1795  0.9418 -0.4069
  284MPD2    N1 4347   1.454   0.336  11.999 -0.0396 -0.0293 -0.6703
  284MPD2    H7 4348   1.534   0.332  11.935  0.4326  2.3829 -0.2380
  285TMC3    C1 4349   1.380   0.425  11.796 -0.2876 -0.8609 -0.2777
  285TMC3    C2 4350   1.484   0.362  11.735 -0.6795  0.2196  0.2198
  285TMC3    C3 4351   1.557   0.420  11.635 -0.0530 -0.3794 -0.3849
  285TMC3    C4 4352   1.342   0.546  11.749 -0.0701  0.2951 -0.3111
  285TMC3    C5 4353   1.408   0.598  11.642  0.0606  0.0755  0.4368
  285TMC3    C6 4354   1.520   0.539  11.586  0.6050 -0.7430 -0.3179
  285TMC3     C 4355   1.341   0.382  11.932 -0.3134  0.2807  0.0296
  285TMC3     O 4356   1.227   0.410  11.972  0.8205  0.4248  0.2761
  285TMC3     H 4357   1.498   0.256  11.750  0.8732  0.4897  0.7736
  285TMC3    H1 4358   1.268   0.592  11.813  0.6841  0.8969  0.1251
  285TMC3    H2 4359   1.551   0.570  11.487  2.4117 -2.3016 -0.2406
  285TMC3    C7 4360   1.367   0.732  11.590  0.5680  0.6152 -0.0711
  285TMC3    C8 4361   1.621   0.326  11.549 -0.4014  0.0903 -0.5681
  285TMC3    O1 4362   1.446   0.805  11.538  0.1930 -0.2582  0.0778
  285TMC3    O2 4363   1.571   0.216  11.536 -0.0077  0.0219  0.1965
  286MPD2     C 4364   1.409   3.282   1.093 -0.7578 -0.0707 -0.4756
  286MPD2    C1 4365   1.441   3.365   0.991 -0.1007 -0.0742  0.9192
  286MPD2    C2 4366   1.574   3.404   0.974 -0.4224 -0.2397 -0.0445
  286MPD2    C3 4367   1.674   3.358   1.059 -0.1681  0.5472  0.8858
  286MPD2    C4 4368   1.642   3.281   1.171 -0.0867  0.0665 -0.1476
  286MPD2    C5 4369   1.510   3.238   1.177  0.5484  0.2064  0.6407
  286MPD2     H 4370   1.599   3.469   0.891  0.4216  3.1840  2.8861
  286MPD2    H1 4371   1.722   3.240   1.231 -0.0554 -1.0505 -0.9702
  286MPD2    H2 4372   1.308   3.249   1.116 -0.6203 -0.0973  0.0905
  286MPD2    H3 4373   1.485   3.167   1.255  0.2286  1.5543  1.7702
  286MPD2     N 4374   1.809   3.367   1.018  0.5556  0.2388  0.5335
  286MPD2    H5 4375   1.887   3.334   1.073 -0.5570 -3.5579 -0.1927
  286MPD2    N1 4376   1.347   3.428   0.902  0.1547  0.2624 -0.1476
  286MPD2    H7 4377   1.370   3.517   0.860 -1.5552  1.8524  2.2662
  287TMC3    C1 4378   1.988   3.365   0.874 -0.2414  0.0250  0.2516
  287TMC3    C2 4379   2.010   3.297   0.754 -0.1410  0.5335  0.1257
  287TMC3    C3 4380   2.124   3.220   0.745 -0.6303 -0.0945  0.4180
  287TMC3    C4 4381   2.067   3.355   0.985  0.0303  0.4693 -0.1478
  287TMC3    C5 4382   2.176   3.264   0.967 -0.4755  0.4402 -0.3777
  287TMC3    C6 4383   2.207   3.196   0.849 -0.3128 -0.2147 -0.2786
  287TMC3     C 4384   1.851   3.411   0.898 -0.1355  0.3260 -0.7003
  287TMC3     O 4385   1.788   3.432   0.797 -0.4995  0.0562  0.5850
  287TMC3     H 4386   1.935   3.310   0.677 -0.1932 -0.0530  0.0826
  287TMC3    H1 4387   2.053   3.418   1.072  0.1828 -0.0252  0.2335
  287TMC3    H2 4388   2.299   3.143   0.826 -0.1947 -0.6001  1.1016
  287TMC3    C7 4389   2.266   3.253   1.081 -0.4994 -0.5583 -0.4884
  287TMC3    C8 4390   2.144   3.145   0.619 -0.4090 -0.4750 -1.0004
  287TMC3    O1 4391   2.265   3.352   1.155 -0.2048  0.0041  0.0513
  287TMC3    O2 4392   2.217   3.048   0.616  0.7634  0.3526 -0.1953
  288TMC3    C1 4393   4.246   3.768  14.259  0.0172 -0.4039 -0.5590
  288TMC3    C2 4394   4.148   3.755  14.353 -0.4928  0.0566 -0.0919
  288TMC3    C3 4395   4.055   3.854  14.337 -0.3311 -0.1151 -0.1462
  288TMC3    C4 4396   4.253   3.859  14.158  0.8489 -0.6711  0.5931
  288TMC3    C5 4397   4.151   3.954  14.153 -0.1196  0.0040  0.1986
  288TMC3    C6 4398   4.053   3.951  14.245  0.5038 -0.4263 -0.1747
  288TMC3     C 4399   4.355   3.674  14.273  0.6129 -0.1088  0.0789
  288TMC3     O 4400   4.346   3.609  14.381  0.0712  0.1948  0.2126
  288TMC3     H 4401   4.142   3.684  14.435 -0.1215 -2.1018 -1.9468
  288TMC3    H1 4402   4.332   3.855  14.083  0.8166  2.0523  0.3773
  288TMC3    H2 4403   3.981   4.031  14.261  2.8003  1.1174  2.4055
  288TMC3    C7 4404   4.157   4.061  14.060  0.4163  0.4974  0.1797
  288TMC3    C8 4405   3.944   3.871  14.439  0.4615  0.5297  1.0457
  288TMC3    O1 4406   4.091   4.164  14.089  0.2131 -0.2896 -0.1577
  288TMC3    O2 4407   3.901   3.980  14.471  0.2132 -0.3517  0.1428
  289MPD2     C 4408   3.883   2.467  14.757  0.1487  0.1042  0.2452
  289MPD2    C1 4409   3.900   2.535  14.639 -0.1027  0.0323  0.1662
  289MPD2    C2 4410   3.806   2.518  14.539 -0.9019  0.6024  0.8503
  289MPD2    C3 4411   3.698   2.440  14.561  0.3258  0.1645 -0.5080
  289MPD2    C4 4412   3.689   2.367  14.682 -0.2001  0.2713 -0.0885
  289MPD2    C5 4413   3.789   2.373  14.777  0.1558  0.0144  0.2714
  289MPD2     H 4414   3.812   2.580  14.451  0.4813 -1.0754 -0.2349
  289MPD2    H1 4415   3.611   2.297  14.710 -0.0957 -0.7580 -2.4018
  289MPD2    H2 4416   3.950   2.478  14.842 -0.4688 -0.4296  0.8055
  289MPD2    H3 4417   3.780   2.322  14.872  1.8041 -0.1211  0.3603
  289MPD2     N 4418   3.596   2.424  14.464  0.1932  0.0640 -0.1242
  289MPD2    H5 4419   3.518   2.362  14.482 -0.0770  0.6594  0.7436
  289MPD2    N1 4420   4.011   2.612  14.623 -0.0213 -0.0550 -0.3611
  289MPD2    H7 4421   4.070   2.636  14.701 -0.9745  1.0202  0.0366
  290TMC3    C1 4422   3.450   2.484  14.281  0.0811  0.2671 -0.5812
  290TMC3    C2 4423   3.434   2.535  14.157 -0.0026  0.0822 -0.5076
  290TMC3    C3 4424   3.311   2.536  14.102 -0.5885 -0.0698 -0.3559
  290TMC3    C4 4425   3.346   2.423  14.349  0.0687 -0.0944 -0.0814
  290TMC3    C5 4426   3.225   2.416  14.281 -0.8799 -0.0939 -0.0593
  290TMC3    C6 4427   3.202   2.469  14.160 -0.2308  0.0987 -0.4982
  290TMC3     C 4428   3.585   2.493  14.341 -0.0693  0.1555 -0.1577
  290TMC3     O 4429   3.675   2.559  14.285 -0.2224  0.0670 -0.1968
  290TMC3     H 4430   3.513   2.591  14.108 -0.0088  0.4812 -0.0663
  290TMC3    H1 4431   3.339   2.386  14.451  0.4154  0.3643  0.1061
  290TMC3    H2 4432   3.107   2.456  14.109 -0.6546  2.3046 -0.2812
  290TMC3    C7 4433   3.125   2.325  14.333  1.1790 -0.1466 -0.4254
  290TMC3    C8 4434   3.272   2.652  14.025 -0.3047 -0.1082 -0.0089
  290TMC3    O1 4435   3.007   2.359  14.320  0.0157  0.2929  0.3758
  290TMC3    O2 4436   3.159   2.644  13.979 -0.0415 -0.0755  0.0846
  291MPD2     C 4437   2.383   2.777   0.066 -0.4799 -0.2800  0.0095
  291MPD2    C1 4438   2.514   2.755   0.072  0.0108 -0.8132 -0.1674
  291MPD2    C2 4439   2.601   2.858   0.081  0.2697 -0.1506  0.1295
  291MPD2    C3 4440   2.556   2.988   0.085  0.1661  0.2324 -0.0105
  291MPD2    C4 4441   2.420   3.013   0.083  0.1365  0.1369  0.4092
  291MPD2    C5 4442   2.334   2.903   0.076 -0.1355 -0.2047  0.7385
  291MPD2     H 4443   2.704   2.824   0.078 -0.0538 -1.1928  0.6442
  291MPD2    H1 4444   2.384   3.115   0.077  2.2442  0.9600  1.7676
  291MPD2    H2 4445   2.316   2.700   0.031 -0.4678  0.3839 -1.5173
  291MPD2    H3 4446   2.226   2.913   0.066 -0.2144  0.1106  2.0221
  291MPD2     N 4447   2.639   3.104   0.086 -0.3456  0.5458 -0.0074
  291MPD2    H5 4448   2.590   3.192   0.079  0.2400  0.7435 -1.6293
  291MPD2    N1 4449   2.574   2.628   0.068  0.1789 -0.1743 -0.9500
  291MPD2    H7 4450   2.673   2.612   0.086 -0.2129  1.8520  2.8538
  292TMC3    C1 4451   2.599   2.397   0.066  1.1972  0.5075 -0.2155
  292TMC3    C2 4452   2.676   2.391   0.177 -0.4900  0.5002 -0.3447
  292TMC3    C3 4453   2.714   2.270   0.222  0.0698 -0.1228 -0.4869
  292TMC3    C4 4454   2.577   2.288  17.735 -0.2568 -0.4001 -0.2097
  292TMC3    C5 4455   2.637   2.169   0.020  0.0242  0.7101  0.9707
  292TMC3    C6 4456   2.697   2.154   0.145  0.3886  0.5117  0.1248
  292TMC3     C 4457   2.510   2.508   0.050 -1.0907  0.1979 -0.3995
  292TMC3     O 4458   2.400   2.484   0.013  0.4379  0.0474  0.6867
  292TMC3     H 4459   2.685   2.474   0.247  1.2814  0.7870 -0.9373
  292TMC3    H1 4460   2.534   2.302  17.637 -0.8408  0.2837  0.1372
  292TMC3    H2 4461   2.744   2.062   0.176  1.3399 -0.1726 -3.3342
  292TMC3    C7 4462   2.646   2.053  17.675  0.1202 -1.2293 -0.0849
  292TMC3    C8 4463   2.772   2.266   0.350  0.0460  0.3713 -0.0369
  292TMC3    O1 4464   2.734   1.976  17.699 -0.2986 -0.2316 -0.0023
  292TMC3    O2 4465   2.844   2.359   0.388  0.4268  0.8715  0.4829
  293MPD2     C 4466   4.466   4.067  12.507 -0.4445  0.5181  0.4205
  293MPD2    C1 4467   4.470   3.953  12.580 -0.2303 -0.1926  0.5500
  293MPD2    C2 4468   4.551   3.953  12.688  0.6012 -0.5160  0.2276
  293MPD2    C3 4469   4.627   4.064  12.730  0.0217  0.1037  0.4184
  293MPD2    C4 4470   4.622   4.181  12.655 -0.0177  0.2867 -0.1557
  293MPD2    C5 4471   4.542   4.177  12.541  0.5777 -0.4500 -0.1278
  293MPD2     H 4472   4.567   3.861  12.742 -2.2800 -1.9599 -1.3850
  293MPD2    H1 4473   4.679   4.271  12.673 -0.0376  0.0745  0.9301
  293MPD2    H2 4474   4.412   4.072  12.413  0.8912 -0.6022 -0.4020
  293MPD2    H3 4475   4.522   4.264  12.479 -0.7857  0.3557  1.4307
  293MPD2     N 4476   4.702   4.060  12.850 -0.1334  0.1762 -0.3877
  293MPD2    H5 4477   4.692   3.979  12.911  2.5423  0.4968  0.4735
  293MPD2    N1 4478   4.405   3.836  12.543  1.2614  0.1806 -0.0740
  293MPD2    H7 4479   4.434   3.744  12.575 -2.3888 -0.7835  0.4734
  294TMC3    C1 4480   4.275   3.686  12.418  0.9575  0.0475  0.4745
  294TMC3    C2 4481   4.144   3.645  12.398  0.1649  0.0350  0.5229
  294TMC3    C3 4482   4.131   3.527  12.329 -0.0684 -0.0889  0.7177
  294TMC3    C4 4483   4.383   3.622  12.365  0.3087 -0.2533 -0.3117
  294TMC3    C5 4484   4.357   3.504  12.306 -0.4357  0.3345  0.5921
  294TMC3    C6 4485   4.234   3.448  12.284  0.5020  0.2155  0.5121
  294TMC3     C 4486   4.306   3.828  12.445 -0.0777 -0.7788 -0.0830
  294TMC3     O 4487   4.230   3.917  12.409  0.2045 -0.2034 -0.2237
  294TMC3     H 4488   4.062   3.697  12.445 -0.0139  0.5236 -0.3247
  294TMC3    H1 4489   4.480   3.666  12.346 -0.0991  1.8136  2.3667
  294TMC3    H2 4490   4.212   3.360  12.225  0.9886 -0.2133  0.9776
  294TMC3    C7 4491   4.465   3.458  12.224 -0.4300 -0.5098  0.1950
  294TMC3    C8 4492   4.005   3.461  12.355 -0.5773 -0.6498  0.6334
  294TMC3    O1 4493   4.489   3.337  12.231  0.1673  0.0569 -0.2981
  294TMC3    O2 4494   4.008   3.344  12.326  0.8005  0.3531 -0.4384
  295MPD2     C 4495   0.993   2.146   0.687  1.1077  0.1175  0.3345
  295MPD2    C1 4496   0.867   2.125   0.636 -0.5575  0.0366  0.8067
  295MPD2    C2 4497   0.820   1.997   0.619 -0.1900  0.0668  0.2878
  295MPD2    C3 4498   0.899   1.891   0.661  0.4299  0.3286  0.4648
  295MPD2    C4 4499   1.022   1.913   0.720 -0.1693  0.8716  0.4048
  295MPD2    C5 4500   1.068   2.039   0.735  0.2112 -0.6113  0.9441
  295MPD2     H 4501   0.729   1.991   0.561 -0.3673 -3.1341  0.8712
  295MPD2    H1 4502   1.083   1.831   0.758 -0.4228  1.4148  2.0108
  295MPD2    H2 4503   1.041   2.240   0.711 -2.1609  1.9139 -0.2635
  295MPD2    H3 4504   1.161   2.055   0.788  0.4719 -1.6531  0.8107
  295MPD2     N 4505   0.866   1.758   0.645  0.6204 -0.3361  0.3844
  295MPD2    H5 4506   0.932   1.688   0.678  1.8617 -0.0057 -1.3850
  295MPD2    N1 4507   0.791   2.227   0.581 -0.5060 -0.3872  0.0053
  295MPD2    H7 4508   0.691   2.211   0.574 -0.8724  1.9261 -0.0509
  296TMC3    C1 4509   0.718   1.575   0.637 -0.3602 -0.0648  0.3784
  296TMC3    C2 4510   0.591   1.530   0.618  0.6509 -0.3148 -0.3531
  296TMC3    C3 4511   0.570   1.393   0.631 -0.8199  0.0753 -0.5546
  296TMC3    C4 4512   0.823   1.492   0.663  0.2589  0.5792 -0.4043
  296TMC3    C5 4513   0.794   1.362   0.691 -0.1979  0.4682 -0.0762
  296TMC3    C6 4514   0.670   1.317   0.679  0.1144 -0.3786  0.5569
  296TMC3     C 4515   0.741   1.714   0.609  0.7645 -0.0740 -0.1683
  296TMC3     O 4516   0.643   1.787   0.580 -0.7267  0.0320 -0.7128
  296TMC3     H 4517   0.518   1.596   0.573  0.2424 -0.1859  0.4967
  296TMC3    H1 4518   0.928   1.518   0.666  0.2113  0.6946  0.3343
  296TMC3    H2 4519   0.639   1.213   0.680  0.9887 -0.6456  0.3065
  296TMC3    C7 4520   0.903   1.271   0.717 -0.5658  0.5333 -0.6522
  296TMC3    C8 4521   0.451   1.338   0.569 -0.5778 -0.4574  0.8228
  296TMC3    O1 4522   1.016   1.302   0.679 -0.4860  0.1034 -0.5920
  296TMC3    O2 4523   0.452   1.230   0.509 -0.3882 -0.3298 -0.3344
  297MPD2     C 4524   2.652   4.567  16.297 -0.1119 -0.0235 -0.0941
  297MPD2    C1 4525   2.683   4.645  16.187 -0.1978  0.3708 -0.9530
  297MPD2    C2 4526   2.798   4.720  16.193 -0.2266 -0.3407  0.1345
  297MPD2    C3 4527   2.890   4.712  16.303 -0.3577  0.4629  0.2650
  297MPD2    C4 4528   2.853   4.638  16.408  0.7408  0.2079 -0.6059
  297MPD2    C5 4529   2.736   4.566  16.409  0.0345  0.7195  0.3426
  297MPD2     H 4530   2.817   0.041  16.104 -0.9245  0.6120  0.6133
  297MPD2    H1 4531   2.912   4.634  16.499  1.2642  0.5534 -0.9288
  297MPD2    H2 4532   2.567   4.501  16.312  0.3285 -0.8371 -1.1227
  297MPD2    H3 4533   2.706   4.510  16.497  0.7872 -1.4894 -0.8213
  297MPD2     N 4534   3.011   0.044  16.299  0.1668  0.6572 -0.1662
  297MPD2    H5 4535   3.029   0.108  16.223 -2.3284  2.8164  1.0828
  297MPD2    N1 4536   2.607   4.652  16.069 -0.4410 -0.0865 -0.9560
  297MPD2    H7 4537   2.647   4.715  16.000 -0.2632 -0.5568 -1.2880
  298TMC3    C1 4538   2.436   4.646  15.928 -0.1674  0.2203  0.8013
  298TMC3    C2 4539   2.532   4.673  15.829 -0.3933  0.5968  0.1281
  298TMC3    C3 4540   2.489   4.683  15.700 -0.4025  0.1016  0.8183
  298TMC3    C4 4541   2.305   4.635  15.895 -0.1519 -0.4268  0.4099
  298TMC3    C5 4542   2.269   4.659  15.766  0.4925 -0.9202  0.2965
  298TMC3    C6 4543   2.354   4.684  15.660 -0.4602 -0.1537 -0.3811
  298TMC3     C 4544   2.477   4.609  16.061  0.2080 -0.1901 -0.0325
  298TMC3     O 4545   2.401   4.564  16.141 -0.5610 -0.1218  0.3151
  298TMC3     H 4546   2.640   4.670  15.836 -0.3865  2.7281  0.9248
  298TMC3    H1 4547   2.224   4.611  15.963  0.9988 -0.6327  1.7028
  298TMC3    H2 4548   2.327   4.713  15.559  0.7037 -0.6318 -0.8358
  298TMC3    C7 4549   2.140   4.710  15.749  0.2250  0.0133 -0.5441
  298TMC3    C8 4550   2.586   4.727  15.602 -0.2349 -0.1012 -0.1191
  298TMC3    O1 4551   2.060   4.662  15.827  0.8250 -0.5923 -0.1396
  298TMC3    O2 4552   2.570   4.695  15.482  0.0287  0.2503 -0.3848
  299MPD2     C 4553   3.042   4.069   9.844  1.2368 -0.3068  0.3416
  299MPD2    C1 4554   3.004   4.139   9.959 -0.8651 -0.4700 -0.6912
  299MPD2    C2 4555   2.889   4.110  10.029  0.3055 -0.2269 -0.0372
  299MPD2    C3 4556   2.792   4.027   9.965  0.0989 -0.4415  0.5763
  299MPD2    C4 4557   2.824   3.972   9.840 -0.1100  0.0102  0.4279
  299MPD2    C5 4558   2.947   3.993   9.778  0.5001 -0.3156 -0.3736
  299MPD2     H 4559   2.866   4.176  10.113 -1.3940 -0.4678 -0.3008
  299MPD2    H1 4560   2.751   3.903   9.800  0.5842 -1.0471  0.9749
  299MPD2    H2 4561   3.133   4.085   9.788  2.0336 -0.2711  1.6236
  299MPD2    H3 4562   2.972   3.940   9.686 -0.6527  0.1750 -0.9641
  299MPD2     N 4563   2.663   4.003  10.024 -0.1220 -0.5107  0.0372
  299MPD2    H5 4564   2.588   3.970   9.965  0.1421 -0.6537 -0.2215
  299MPD2    N1 4565   3.086   4.246  10.010  0.6387 -0.4450  0.5842
  299MPD2    H7 4566   3.073   4.293  10.099  0.5174 -0.9217  0.8202
  300TMC3    C1 4567   2.501   4.037  10.190  0.0765 -0.6659 -0.1618
  300TMC3    C2 4568   2.414   4.096  10.105  0.3836  0.1603 -0.0442
  300TMC3    C3 4569   2.296   4.139  10.154 -0.0643 -0.4367  0.2842
  300TMC3    C4 4570   2.473   4.026  10.322 -0.2678 -0.7813 -0.5206
  300TMC3    C5 4571   2.351   4.072  10.370 -0.6835  0.6255  0.2878
  300TMC3    C6 4572   2.257   4.125  10.284  0.8027  0.0948 -0.4052
  300TMC3     C 4573   2.644   4.020  10.158  0.0011  0.1070 -0.5490
  300TMC3     O 4574   2.727   4.035  10.251  0.4917 -0.2601 -0.0862
  300TMC3     H 4575   2.444   4.103  10.001  0.5787 -0.2495 -0.0167
  300TMC3    H1 4576   2.547   3.988  10.392  0.0157  0.2241 -0.2841
  300TMC3    H2 4577   2.160   4.161  10.316  0.6669 -1.9449  1.5060
  300TMC3    C7 4578   2.331   4.063  10.507  0.0034  0.2708  0.2710
  300TMC3    C8 4579   2.237   4.239  10.074 -0.4745 -0.5349  0.8005
  300TMC3    O1 4580   2.383   3.973  10.574 -0.3485  0.5379 -0.6435
  300TMC3    O2 4581   2.298   4.292   9.982  0.1929  0.0095 -0.2639
  301MPD2     C 4582   0.389   0.972   0.865 -0.4280 -0.3853  0.3561
  301MPD2    C1 4583   0.265   0.916   0.842 -0.2628 -0.0387 -0.1630
  301MPD2    C2 4584   0.251   0.779   0.852  0.5647  0.0945  0.0108
  301MPD2    C3 4585   0.357   0.694   0.893  0.6454  0.0432  0.9631
  301MPD2    C4 4586   0.480   0.757   0.904 -0.5945 -0.3001 -0.0595
  301MPD2    C5 4587   0.493   0.894   0.904  0.0661 -0.7990  0.1194
  301MPD2     H 4588   0.151   0.742   0.835  0.5521 -1.6091  3.7527
  301MPD2    H1 4589   0.565   0.706   0.947 -1.1581  1.0754  2.7096
  301MPD2    H2 4590   0.406   1.079   0.867 -3.2018  0.0543  0.8889
  301MPD2    H3 4591   0.585   0.937   0.941  0.8971 -0.8034 -1.9094
  301MPD2     N 4592   0.351   0.555   0.912 -0.3033 -0.3233 -0.0145
  301MPD2    H5 4593   0.438   0.509   0.934 -0.2976 -0.5030 -0.3986
  301MPD2    N1 4594   0.147   0.992   0.800  0.4800 -0.3246 -0.5701
  301MPD2    H7 4595   0.071   0.940   0.757  1.6044  0.3135 -3.3179
  302TMC3    C1 4596   0.240   0.352   0.967  0.3850 -0.9134 -0.3776
  302TMC3    C2 4597   0.357   0.295   0.998  0.1774  0.3515 -0.2757
  302TMC3    C3 4598   0.356   0.163   1.038  0.1239  0.2798 -0.9535
  302TMC3    C4 4599   0.125   0.281   0.954  0.5508  0.1429 -0.7764
  302TMC3    C5 4600   0.123   0.150   0.986 -0.4232  0.6589  0.2718
  302TMC3    C6 4601   0.241   0.093   1.029 -0.7530 -0.1921  0.2078
  302TMC3     C 4602   0.231   0.483   0.912 -0.3964 -0.1156  0.6873
  302TMC3     O 4603   0.117   0.525   0.887  0.0346 -0.4352  0.5481
  302TMC3     H 4604   0.445   0.354   1.018  0.1756  0.4991 -0.7083
  302TMC3    H1 4605   0.031   0.334   0.943  1.0403  1.2909  0.6087
  302TMC3    H2 4606   0.240   4.726   1.057 -0.3351  0.3295  2.1633
  302TMC3    C7 4607   0.030   0.062   0.914  0.1657  0.0968  0.9196
  302TMC3    C8 4608   0.477   0.085   1.012  0.2616 -0.6895  1.0319
  302TMC3    O1 4609   0.044   4.679   0.929  0.2117 -0.0534 -0.4108
  302TMC3    O2 4610   0.480   4.714   1.065 -0.6999  0.3485 -0.8558
  303MPD2     C 4611   0.572   3.996  10.125 -0.2189  0.4401 -0.0959
  303MPD2    C1 4612   0.434   3.982  10.130  0.0536  0.5697 -0.0924
  303MPD2    C2 4613   0.354   3.968  10.017  0.4791 -0.5137  0.4797
  303MPD2    C3 4614   0.409   3.989   9.889  0.1397  0.2351 -0.1893
  303MPD2    C4 4615   0.537   4.030   9.880  0.3053 -0.2595  0.3028
  303MPD2    C5 4616   0.614   4.029   9.995  0.0007  0.5977  0.6041
  303MPD2     H 4617   0.249   3.939  10.020 -0.1338  1.5426 -0.5555
  303MPD2    H1 4618   0.585   4.070   9.791 -1.1451 -0.1312 -0.4365
  303MPD2    H2 4619   0.639   3.990  10.210 -0.7570  0.2075  0.3107
  303MPD2    H3 4620   0.710   4.078   9.985  0.6332 -0.5822  0.8612
  303MPD2     N 4621   0.342   3.991   9.765 -0.3353  0.9759  0.0699
  303MPD2    H5 4622   0.394   4.022   9.684  2.7886 -1.8383  0.9787
  303MPD2    N1 4623   0.380   3.971  10.263  0.0569 -0.0988 -0.5029
  303MPD2    H7 4624   0.443   3.974  10.342  0.8016 -1.4100 -1.0491
  304TMC3    C1 4625   0.240   3.963  10.445  0.3582  0.2340 -0.5472
  304TMC3    C2 4626   0.139   4.028  10.505  0.8485 -0.0167 -0.1804
  304TMC3    C3 4627   0.077   3.970  10.608 -0.2362 -0.1229  0.1978
  304TMC3    C4 4628   0.271   3.836  10.481 -0.1119  0.4454  0.9938
  304TMC3    C5 4629   0.206   3.771  10.583 -0.5662  0.5276  0.0011
  304TMC3    C6 4630   0.121   3.844  10.659  0.9881  0.3251 -0.0331
  304TMC3     C 4631   0.252   3.995  10.306  0.5098  0.4236  1.0856
  304TMC3     O 4632   0.153   4.026  10.243 -0.2007 -0.1029 -0.1971
  304TMC3     H 4633   0.087   4.106  10.450 -2.6199 -1.6637  0.7954
  304TMC3    H1 4634   0.320   3.780  10.402  0.8455  0.9392  1.2467
  304TMC3    H2 4635   0.068   3.798  10.741  1.7388 -3.3430 -1.6209
  304TMC3    C7 4636   0.137   3.658  10.528  0.4427  0.3590 -0.0216
  304TMC3    C8 4637   4.671   3.969  10.582 -0.6673 -0.2316 -0.7227
  304TMC3    O1 4638   0.124   3.656  10.406  0.9437  0.1258  0.0381
  304TMC3    O2 4639   4.626   3.983  10.468  0.0445  0.6759 -0.2051
  305MPD2     C 4640   3.565   1.345  13.812  0.0220 -0.6153  0.7101
  305MPD2    C1 4641   3.618   1.222  13.821 -0.0657  0.1248 -0.4379
  305MPD2    C2 4642   3.557   1.115  13.749  0.2067 -0.1821  0.5768
  305MPD2    C3 4643   3.451   1.133  13.664 -0.0561 -0.0531  0.1101
  305MPD2    C4 4644   3.395   1.256  13.654 -0.0634  0.9871 -0.6018
  305MPD2    C5 4645   3.458   1.361  13.732  0.0845  0.7307  0.3872
  305MPD2     H 4646   3.604   1.017  13.751  0.6555  0.0144 -1.0022
  305MPD2    H1 4647   3.311   1.287  13.592 -0.9506  1.8111  1.0127
  305MPD2    H2 4648   3.599   1.426  13.875  0.6207 -0.5421  0.2971
  305MPD2    H3 4649   3.406   1.456  13.726 -2.3804 -0.4066  3.8456
  305MPD2     N 4650   3.399   1.041  13.574 -0.1695  0.3621  0.4724
  305MPD2    H5 4651   3.324   1.076  13.515  1.1149 -0.8473 -1.8734
  305MPD2    N1 4652   3.731   1.213  13.914 -0.4095  0.2332  0.9485
  305MPD2    H7 4653   3.757   1.295  13.967  1.3287 -0.7138  1.5803
  306TMC3    C1 4654   3.870   1.104  14.074 -0.2233  0.3167 -0.1435
  306TMC3    C2 4655   3.964   1.011  14.096  0.6796  0.3221 -0.2586
  306TMC3    C3 4656   3.984   0.972  14.224  0.2000 -0.4735  0.3121
  306TMC3    C4 4657   3.811   1.170  14.181 -0.0337  0.4034 -0.9665
  306TMC3    C5 4658   3.831   1.120  14.302  0.2028  0.5881 -0.1977
  306TMC3    C6 4659   3.916   1.019  14.332 -0.0851 -0.7358  0.3778
  306TMC3     C 4660   3.803   1.098  13.943  0.3372 -0.5555  0.2827
  306TMC3     O 4661   3.785   0.987  13.893 -0.3252  0.1440  0.2312
  306TMC3     H 4662   4.006   0.962  14.009 -0.8215 -0.6230 -0.4429
  306TMC3    H1 4663   3.756   1.263  14.176 -3.1847 -1.1995  3.4280
  306TMC3    H2 4664   3.918   0.978  14.432 -0.6932  1.0442  1.1227
  306TMC3    C7 4665   3.740   1.154  14.410  0.1954  0.7251  1.0443
  306TMC3    C8 4666   4.085   0.873  14.245  0.1336  0.1012 -0.2809
  306TMC3    O1 4667   3.623   1.167  14.387  0.5313  0.3693 -0.3901
  306TMC3    O2 4668   4.138   0.824  14.145  0.6626 -0.0922 -0.2325
  307MPD2     C 4669   1.285   3.693   0.168 -0.6522  0.2195 -0.0248
  307MPD2    C1 4670   1.207   3.806   0.164  0.5728 -0.3905 -0.0420
  307MPD2    C2 4671   1.076   3.805   0.191  0.6310 -0.2129 -0.0157
  307MPD2    C3 4672   1.011   3.687   0.219 -0.3766 -0.4261 -0.0521
  307MPD2    C4 4673   1.090   3.573   0.230 -0.5178  0.0439 -1.1237
  307MPD2    C5 4674   1.216   3.580   0.195  0.0422  0.5866  0.2785
  307MPD2     H 4675   1.016   3.895   0.184  0.0943 -0.5139  0.6277
  307MPD2    H1 4676   1.054   3.475   0.257 -1.6210  0.9922  0.8797
  307MPD2    H2 4677   1.392   3.685   0.151 -0.4501 -0.6529  1.6784
  307MPD2    H3 4678   1.272   3.487   0.193  0.2714  0.7409 -0.5111
  307MPD2     N 4679   0.870   3.686   0.239  0.1875 -0.1756 -0.3942
  307MPD2    H5 4680   0.817   3.772   0.251 -0.2796 -0.1605 -2.5742
  307MPD2    N1 4681   1.250   3.935   0.118  0.6468 -0.1881 -0.1391
  307MPD2    H7 4682   1.178   4.006   0.115  1.4788  0.6384 -0.4311
  308TMC3    C1 4683   0.426   3.539   0.278  0.2425 -0.3755  0.5142
  308TMC3    C2 4684   0.398   3.644   0.362  0.3390  0.4228 -0.0596
  308TMC3    C3 4685   0.500   3.730   0.402  0.1597  0.4674 -0.6377
  308TMC3    C4 4686   0.555   3.520   0.249  0.8749  0.4182 -0.4939
  308TMC3    C5 4687   0.656   3.610   0.283  0.4071 -0.3441 -0.1379
  308TMC3    C6 4688   0.629   3.714   0.362 -0.1626 -0.0599  0.3362
  308TMC3     C 4689   0.336   3.490   0.171  0.4881  0.3969  0.1957
  308TMC3     O 4690   0.371   3.388   0.110  0.5992 -0.0618 -1.0416
  308TMC3     H 4691   0.304   3.660   0.413  0.7588  1.0003  0.5358
  308TMC3    H1 4692   0.579   3.447   0.173 -1.5646  1.0580 -1.8618
  308TMC3    H2 4693   0.699   3.776   0.417  0.9005 -0.5765 -0.4323
  308TMC3    C7 4694   0.792   3.573   0.240 -0.2091  0.4184  0.0659
  308TMC3    C8 4695   0.468   3.834   0.492 -0.5207  0.5617 -0.3554
  308TMC3    O1 4696   0.818   3.461   0.200  0.2302 -0.0667  0.0126
  308TMC3    O2 4697   0.377   3.821   0.575 -0.3601 -0.1954 -0.4301
  309MPD2     C 4698   0.469   4.437  16.898 -0.0456 -0.4590 -0.5868
  309MPD2    C1 4699   0.421   4.397  16.774 -0.4993  0.3296 -0.3762
  309MPD2    C2 4700   0.283   4.405  16.739 -0.7453 -0.2485  0.1456
  309MPD2    C3 4701   0.198   4.465  16.828  0.3314  0.3417 -0.0347
  309MPD2    C4 4702   0.245   4.503  16.949  0.3724  0.3858 -0.4514
  309MPD2    C5 4703   0.380   4.491  16.985 -0.4697  0.1110 -0.1567
  309MPD2     H 4704   0.252   4.364  16.644  0.0941 -1.2064  0.2888
  309MPD2    H1 4705   0.177   4.547  17.021 -0.5553  0.3051 -1.2733
  309MPD2    H2 4706   0.571   4.440  16.934 -1.1331 -0.9067  2.5606
  309MPD2    H3 4707   0.407   4.520  17.086  0.3861  0.0572 -0.3704
  309MPD2     N 4708   0.067   4.501  16.802  0.4627 -0.3334  0.5429
  309MPD2    H5 4709   0.025   4.565  16.870 -0.4590  0.5660 -0.8810
  309MPD2    N1 4710   0.513   4.346  16.675  0.3237 -0.1556  0.8440
  309MPD2    H7 4711   0.470   4.347  16.583  0.5359 -0.7533  0.7396
  310TMC3    C1 4712   0.709   4.307  16.560 -0.3208 -0.0358 -0.1121
  310TMC3    C2 4713   0.656   4.381  16.461 -0.4371 -0.8420  0.5004
  310TMC3    C3 4714   0.729   4.389  16.347  0.1320  0.4029  0.2366
  310TMC3    C4 4715   0.837   4.252  16.561  0.1671  0.2174 -0.2317
  310TMC3    C5 4716   0.906   4.271  16.444 -0.6366 -0.4579  0.3977
  310TMC3    C6 4717   0.852   4.335  16.340  0.2963  0.2454  0.1146
  310TMC3     C 4718   0.644   4.319  16.688 -0.1406 -0.4140  0.4101
  310TMC3     O 4719   0.703   4.304  16.792  0.0121  1.0766  0.2895
  310TMC3     H 4720   0.562   4.435  16.469  0.0775 -0.1110  1.6141
  310TMC3    H1 4721   0.877   4.201  16.648  0.4588  1.8424  0.5803
  310TMC3    H2 4722   0.898   4.337  16.241 -1.3177 -1.2176 -0.6629
  310TMC3    C7 4723   1.009   4.175  16.414  0.3486 -0.3312 -0.3888
  310TMC3    C8 4724   0.676   4.466  16.231  0.2086 -0.4673 -0.0226
  310TMC3    O1 4725   1.016   4.152  16.299  0.4733  0.0846 -0.0590
  310TMC3    O2 4726   0.559   4.470  16.216  0.0117  0.5276  0.2967
  311MPD2     C 4727   2.708   1.047  12.201  0.7937 -0.5035 -0.2857
  311MPD2    C1 4728   2.728   1.042  12.329  0.0394  0.4817  0.5394
  311MPD2    C2 4729   2.619   1.000  12.405 -0.1456  0.0852 -0.0720
  311MPD2    C3 4730   2.492   0.974  12.357  0.6441 -0.2525  0.3965
  311MPD2    C4 4731   2.474   0.977  12.220  0.8881 -0.2235 -0.2900
  311MPD2    C5 4732   2.581   1.017  12.147  0.0756 -0.1371  0.2149
  311MPD2     H 4733   2.642   0.988  12.511 -1.2016 -1.1694  0.0221
  311MPD2    H1 4734   2.380   0.956  12.170 -0.3536  2.2738  0.9790
  311MPD2    H2 4735   2.782   1.075  12.127 -1.9072  0.3814 -2.6574
  311MPD2    H3 4736   2.573   1.043  12.043 -0.1196  2.4962  0.8889
  311MPD2     N 4737   2.390   0.931  12.443 -0.6254 -0.5525 -0.3787
  311MPD2    H5 4738   2.419   0.922  12.539  0.3069 -1.0286 -0.7067
  311MPD2    N1 4739   2.851   1.085  12.390  0.4106  0.1829 -0.0775
  311MPD2    H7 4740   2.852   1.109  12.489  0.8118  0.6747 -0.2018
  312TMC3    C1 4741   2.189   0.828  12.517 -0.0885  0.0482 -0.0993
  312TMC3    C2 4742   2.058   0.866  12.526  0.4146  0.7030 -0.0497
  312TMC3    C3 4743   2.000   0.848  12.645 -0.4441 -0.5224  0.2232
  312TMC3    C4 4744   2.256   0.765  12.620  0.1983  0.0851 -0.5933
  312TMC3    C5 4745   2.188   0.743  12.737 -0.9980 -0.0056 -0.3413
  312TMC3    C6 4746   2.062   0.791  12.755  0.0257 -0.3792  0.7355
  312TMC3     C 4747   2.263   0.886  12.409  0.3628  0.2739 -0.0475
  312TMC3     O 4748   2.196   0.918  12.310 -0.8923  0.1141 -0.2419
  312TMC3     H 4749   2.006   0.877  12.432  1.5230  0.2229 -0.7105
  312TMC3    H1 4750   2.355   0.723  12.610 -0.0445 -0.5253 -0.4917
  312TMC3    H2 4751   2.001   0.743  12.830 -2.4854  0.0562 -1.0374
  312TMC3    C7 4752   2.239   0.653  12.834  0.1053  0.3433  0.4396
  312TMC3    C8 4753   1.853   0.855  12.642 -0.2455  0.1736  1.0810
  312TMC3    O1 4754   2.286   0.546  12.801  0.3990 -0.0891 -0.0552
  312TMC3    O2 4755   1.804   0.770  12.717 -0.0078  0.2327  0.0066
  313MPD2     C 4756   1.641   4.635  10.506  0.4055 -1.0378  0.4107
  313MPD2    C1 4757   1.547   4.728  10.549 -0.6306 -0.2348  0.5903
  313MPD2    C2 4758   1.417   4.717  10.496  0.7100 -0.6908 -0.6599
  313MPD2    C3 4759   1.380   4.628  10.396 -0.3787 -0.5159 -0.6374
  313MPD2    C4 4760   1.481   4.546  10.353 -0.6771 -0.1256  0.3863
  313MPD2    C5 4761   1.607   4.551  10.406  0.3848 -0.2462  0.1323
  313MPD2     H 4762   1.343   0.049  10.532 -0.7108 -2.2924 -0.4945
  313MPD2    H1 4763   1.472   4.470  10.275 -1.4577  0.2019  0.1601
  313MPD2    H2 4764   1.739   4.620  10.550 -0.5024 -0.7434  2.5282
  313MPD2    H3 4765   1.683   4.478  10.383 -0.1526 -0.3574 -1.2837
  313MPD2     N 4766   1.248   4.627  10.350 -0.0837 -0.1344  0.0235
  313MPD2    H5 4767   1.174   4.677  10.398 -1.4889 -3.6253  1.4836
  313MPD2    N1 4768   1.579   0.092  10.640  0.3692  0.5043  0.1153
  313MPD2    H7 4769   1.506   0.155  10.670 -0.0297 -0.4690  1.1803
  314TMC3    C1 4770   1.711   0.237  10.779  0.4093 -1.0079 -0.7948
  314TMC3    C2 4771   1.833   0.286  10.808 -0.1122  0.2373  0.0223
  314TMC3    C3 4772   1.845   0.376  10.912  0.6349  0.0712 -0.2020
  314TMC3    C4 4773   1.598   0.261  10.857 -0.2047  0.7773  0.5042
  314TMC3    C5 4774   1.610   0.364  10.948  0.4187  0.7980  0.0322
  314TMC3    C6 4775   1.733   0.425  10.974 -0.4799  0.3663  0.5800
  314TMC3     C 4776   1.708   0.117  10.681  0.3393  0.1970  0.1780
  314TMC3     O 4777   1.815   0.064  10.642 -0.1176  0.1998 -0.7719
  314TMC3     H 4778   1.916   0.253  10.746  0.6156  1.2128  0.4788
  314TMC3    H1 4779   1.497   0.235  10.829  0.9221  0.5761 -3.4188
  314TMC3    H2 4780   1.740   0.509  11.041  2.5195 -0.0775  0.8119
  314TMC3    C7 4781   1.512   0.471  10.926  0.0430 -0.4182 -0.9322
  314TMC3    C8 4782   1.962   0.456  10.918  0.7197  0.4850 -0.2319
  314TMC3    O1 4783   1.390   0.452  10.932  0.0139 -0.2446  0.0292
  314TMC3    O2 4784   1.940   0.575  10.932  0.3121  0.6338  0.3700
  315MPD2     C 4785   1.494   3.990  17.021  0.2258 -0.1133 -0.0724
  315MPD2    C1 4786   1.543   4.066  17.121  0.5455 -0.7901 -0.5731
  315MPD2    C2 4787   1.540   4.204  17.113  0.0415 -0.0198 -0.0822
  315MPD2    C3 4788   1.480   4.261  17.003  0.0945  0.4049 -0.2265
  315MPD2    C4 4789   1.428   4.188  16.900 -0.7780 -0.3941  0.1662
  315MPD2    C5 4790   1.437   4.053  16.912 -0.3801  0.8190 -0.1159
  315MPD2     H 4791   1.585   4.260  17.194 -0.9972  1.1283 -0.2949
  315MPD2    H1 4792   1.375   4.235  16.819  1.0751 -0.9164 -1.3460
  315MPD2    H2 4793   1.484   3.882  17.019  1.7015 -0.2567  0.0907
  315MPD2    H3 4794   1.394   3.989  16.835  0.2259 -0.0740  0.2839
  315MPD2     N 4795   1.470   4.402  17.008 -0.1220 -0.6239  0.0138
  315MPD2    H5 4796   1.516   4.454  17.083 -1.3486  0.6588 -0.1152
  315MPD2    N1 4797   1.620   4.016  17.232  0.3146 -0.0230  0.1473
  315MPD2    H7 4798   1.660   4.086  17.295 -0.9493  0.3768  0.5154
  316TMC3    C1 4799   1.426   4.622  16.936 -0.5153  1.0681 -0.3986
  316TMC3    C2 4800   1.437   4.668  17.065  0.2441 -0.5073  0.3141
  316TMC3    C3 4801   1.493   0.056  17.079 -0.6161  0.0153  0.1710
  316TMC3    C4 4802   1.486   4.695  16.839  0.6352 -0.1017 -0.4322
  316TMC3    C5 4803   1.544   0.079  16.860 -0.5535  0.2093 -0.7765
  316TMC3    C6 4804   1.547   0.133  16.985  0.6004 -0.5066  0.2244
  316TMC3     C 4805   1.409   4.483  16.908 -0.4599  0.3832 -0.3295
  316TMC3     O 4806   1.339   4.464  16.810 -0.3336  0.8699 -0.2967
  316TMC3     H 4807   1.389   4.610  17.143 -1.3060  1.6876  0.9862
  316TMC3    H1 4808   1.494   4.644  16.744  0.7591  1.3400 -1.1994
  316TMC3    H2 4809   1.591   0.232  16.998 -0.4632 -0.2678  1.9469
  316TMC3    C7 4810   1.643   0.119  16.769 -0.2440  0.4017 -0.1207
  316TMC3    C8 4811   1.521   0.110  17.209  0.9099 -0.2475 -0.5761
  316TMC3    O1 4812   1.729   0.191  16.814  0.0275  0.4164  0.0436
  316TMC3    O2 4813   1.556   0.226  17.220 -0.0672  0.3548 -0.0027
  317MPD2     C 4814   3.583   2.966  13.169  0.1056 -0.4374 -0.5207
  317MPD2    C1 4815   3.557   2.834  13.163 -0.3179 -0.4688  0.1479
  317MPD2    C2 4816   3.614   2.755  13.263  0.2219 -0.1529 -0.1865
  317MPD2    C3 4817   3.705   2.813  13.351  0.3299 -0.0819 -0.1473
  317MPD2    C4 4818   3.721   2.949  13.360  0.0942  0.1155 -0.2513
  317MPD2    C5 4819   3.648   3.026  13.270  0.1675 -0.1048  0.5679
  317MPD2     H 4820   3.603   2.648  13.268 -1.0876 -0.0333 -0.5097
  317MPD2    H1 4821   3.791   2.993  13.430  0.6658  0.2109 -0.8847
  317MPD2    H2 4822   3.524   3.034  13.109  1.0642  0.7689 -0.0914
  317MPD2    H3 4823   3.647   3.134  13.271  2.4706 -0.0607 -0.6325
  317MPD2     N 4824   3.790   2.731  13.422 -0.9209 -0.5324 -0.5531
  317MPD2    H5 4825   3.779   2.630  13.417 -0.1457 -0.7713  3.0349
  317MPD2    N1 4826   3.474   2.771  13.064 -0.0160  0.0970  0.4642
  317MPD2    H7 4827   3.471   2.669  13.072  4.1912 -0.1648 -1.3921
  318TMC3    C1 4828   3.971   2.645  13.547 -0.1248  0.2320 -0.3046
  318TMC3    C2 4829   3.966   2.527  13.481  0.0333 -0.2260  0.3966
  318TMC3    C3 4830   4.061   2.431  13.493 -0.6234  0.1620  0.4054
  318TMC3    C4 4831   4.079   2.672  13.627 -0.0013 -0.1392  0.3134
  318TMC3    C5 4832   4.170   2.570  13.651 -1.0698 -0.0720  1.0058
  318TMC3    C6 4833   4.162   2.447  13.588 -0.2621  0.5172 -0.0081
  318TMC3     C 4834   3.887   2.762  13.513 -0.1454  0.3469  0.0350
  318TMC3     O 4835   3.901   2.869  13.573  0.3944 -0.3760 -0.5349
  318TMC3     H 4836   3.881   2.510  13.416 -0.1882  0.5471  0.4863
  318TMC3    H1 4837   4.093   2.759  13.690 -2.2899 -1.2718  2.3382
  318TMC3    H2 4838   4.227   2.364  13.617  0.2444  1.0008  0.2474
  318TMC3    C7 4839   4.288   2.608  13.725  0.0529  0.1787 -0.2798
  318TMC3    C8 4840   4.039   2.299  13.443 -0.4325  0.0208 -0.2002
  318TMC3    O1 4841   4.299   2.728  13.742  0.0796  0.2141  0.7384
  318TMC3    O2 4842   4.125   2.212  13.470 -0.4440 -0.8150  0.2794
  319MPD2     C 4843   0.261   3.815  16.391  0.1558  0.2508  0.0682
  319MPD2    C1 4844   0.172   3.745  16.471  0.1135  0.6336  0.0139
  319MPD2    C2 4845   0.041   3.719  16.436  0.6887 -0.2963 -0.0182
  319MPD2    C3 4846   4.731   3.752  16.313 -0.3465  0.0814  0.4437
  319MPD2    C4 4847   0.085   3.817  16.229  0.3313 -0.4163  0.7147
  319MPD2    C5 4848   0.221   3.841  16.262 -0.4327 -0.3379  0.2919
  319MPD2     H 4849   4.716   3.681  16.516  1.7460 -2.4094 -0.2015
  319MPD2    H1 4850   0.051   3.853  16.133  2.7993 -0.4928 -0.1937
  319MPD2    H2 4851   0.360   3.843  16.425  1.4076 -2.8406 -1.0427
  319MPD2    H3 4852   0.288   3.882  16.188  0.2622 -0.1779  1.0136
  319MPD2     N 4853   4.598   3.731  16.269  0.1002  0.2914 -0.3678
  319MPD2    H5 4854   4.573   3.784  16.186  1.5556  1.2048 -0.2288
  319MPD2    N1 4855   0.208   3.701  16.602 -0.2861 -0.1716  0.4159
  319MPD2    H7 4856   0.149   3.637  16.653 -0.1324 -0.4085  0.2934
  320TMC3    C1 4857   4.362   3.664  16.288 -0.0512 -0.5474  0.4158
  320TMC3    C2 4858   4.343   3.699  16.160 -0.3511  0.5284  0.0649
  320TMC3    C3 4859   4.221   3.674  16.104 -0.5005 -0.2981  1.1503
  320TMC3    C4 4860   4.273   3.591  16.356  0.0541  0.1229 -0.0609
  320TMC3    C5 4861   4.159   3.549  16.293 -0.1063 -0.0558 -0.1819
  320TMC3    C6 4862   4.130   3.595  16.169 -0.3778  0.9920  0.7757
  320TMC3     C 4863   4.501   3.665  16.340 -0.6421 -0.3834  0.0223
  320TMC3     O 4864   4.505   3.611  16.449  0.2888 -0.1409  0.6477
  320TMC3     H 4865   4.419   3.751  16.102  0.1468 -0.5610 -0.2603
  320TMC3    H1 4866   4.303   3.548  16.450 -2.4731 -1.1740  0.1536
  320TMC3    H2 4867   4.033   3.575  16.125  0.6543 -0.7770 -0.6691
  320TMC3    C7 4868   4.139   3.408  16.299 -0.7810  0.4967 -0.2201
  320TMC3    C8 4869   4.172   3.783  16.015  0.3505  0.0295  0.2227
  320TMC3    O1 4870   4.093   3.352  16.201  0.5594  0.2233  0.2197
  320TMC3    O2 4871   4.249   3.877  16.005  0.0048  0.1220 -0.1338
  321TMC3    C1 4872   0.332   3.686  16.798  0.2450 -0.4003 -0.0627
  321TMC3    C2 4873   0.265   3.570  16.826 -0.1749  0.4200 -0.1701
  321TMC3    C3 4874   0.189   3.553  16.940  0.1636 -0.6631  0.5317
  321TMC3    C4 4875   0.338   3.787  16.892  0.3756 -0.2520 -0.3727
  321TMC3    C5 4876   0.282   3.763  17.012  0.5221  0.4802 -0.3967
  321TMC3    C6 4877   0.193   3.659  17.027  0.5046 -0.3145  0.5734
  321TMC3     C 4878   0.328   3.735  16.664 -0.1799 -0.5605  0.3666
  321TMC3     O 4879   0.417   3.816  16.636 -0.3456  1.1919 -0.1991
  321TMC3     H 4880   0.276   3.487  16.758  0.0212 -0.0264  0.4103
  321TMC3    H1 4881   0.401   3.874  16.875 -2.5880  2.3204  1.7007
  321TMC3    H2 4882   0.145   3.648  17.123  0.7628  1.2285  0.8646
  321TMC3    C7 4883   0.372   3.783  17.126  0.7889 -0.9527  0.4042
  321TMC3    C8 4884   0.247   3.440  17.003 -0.5854  0.5307 -0.1868
  321TMC3    O1 4885   0.331   3.732  17.232 -0.0236 -0.0189  0.3315
  321TMC3    O2 4886   0.358   3.408  16.967 -0.1071  0.5500  0.1182
  322MPD2     C 4887   3.380   0.497  13.374 -0.0786  0.0559  0.6399
  322MPD2    C1 4888   3.432   0.443  13.481 -0.6006  0.6301 -0.6450
  322MPD2    C2 4889   3.472   0.307  13.478 -0.5351  0.0337  0.1829
  322MPD2    C3 4890   3.480   0.235  13.358  0.9527 -0.3908 -0.2471
  322MPD2    C4 4891   3.439   0.298  13.247 -0.5735  0.0213 -0.6250
  322MPD2    C5 4892   3.387   0.429  13.252  0.1578 -0.1447  1.2887
  322MPD2     H 4893   3.512   0.254  13.564 -3.2772 -0.3555  1.1989
  322MPD2    H1 4894   3.437   0.253  13.148  0.9819 -2.2706  0.3694
  322MPD2    H2 4895   3.340   0.597  13.380  1.5783  0.8145 -1.0447
  322MPD2    H3 4896   3.352   0.474  13.160 -0.2575 -1.0605  0.9939
  322MPD2     N 4897   3.542   0.103  13.369 -0.1002 -0.0841 -0.5739
  322MPD2    H5 4898   3.570   0.067  13.460 -0.2224 -2.0035 -1.2914
  322MPD2    N1 4899   3.445   0.518  13.601 -0.4487 -0.0286 -0.2978
  322MPD2    H7 4900   3.432   0.619  13.600  1.7930  0.2572 -0.6380
  323TMC3    C1 4901   3.519   0.552  13.814 -0.7190 -0.2885  0.9709
  323TMC3    C2 4902   3.625   0.627  13.768 -0.1064  0.2841 -0.4080
  323TMC3    C3 4903   3.717   0.668  13.864  0.0511 -0.3232 -0.1023
  323TMC3    C4 4904   3.514   0.500  13.942 -0.8257 -0.6273  0.1566
  323TMC3    C5 4905   3.606   0.538  14.031 -0.4288  0.2320  0.5394
  323TMC3    C6 4906   3.711   0.616  13.994 -0.3325 -0.1402 -0.2507
  323TMC3     C 4907   3.462   0.455  13.725 -0.2567  0.3241 -0.1418
  323TMC3     O 4908   3.457   0.338  13.761 -0.0461 -0.0684  0.8093
  323TMC3     H 4909   3.625   0.659  13.665 -0.8174 -1.0053 -0.7950
  323TMC3    H1 4910   3.440   0.430  13.980 -0.7366 -0.6211  0.3435
  323TMC3    H2 4911   3.794   0.639  14.060 -1.6959  0.2714  1.3177
  323TMC3    C7 4912   3.629   0.463  14.148 -0.7990  0.8720  0.2912
  323TMC3    C8 4913   3.860   0.702  13.819  0.0383  0.2016  0.5177
  323TMC3    O1 4914   3.596   0.346  14.145 -0.1648  0.4592  0.3913
  323TMC3    O2 4915   3.952   0.655  13.886  0.6830  0.1972 -0.0549
  324MPD2     C 4916   0.739   1.539  14.537 -0.3997 -0.4780 -0.3579
  324MPD2    C1 4917   0.687   1.651  14.596 -0.3803  0.3167 -0.4289
  324MPD2    C2 4918   0.551   1.673  14.604 -0.4460  0.3071  0.4503
  324MPD2    C3 4919   0.460   1.586  14.538 -0.3607 -0.1164 -0.5476
  324MPD2    C4 4920   0.514   1.472  14.483  0.1239  0.5208  0.1830
  324MPD2    C5 4921   0.647   1.452  14.476  0.5329  1.0878  0.4276
  324MPD2     H 4922   0.512   1.764  14.649  0.6316 -0.0835  2.1863
  324MPD2    H1 4923   0.445   1.404  14.432  1.3385 -1.0626  0.6420
  324MPD2    H2 4924   0.842   1.507  14.531 -0.3137  0.0475 -1.7017
  324MPD2    H3 4925   0.681   1.361  14.429 -0.4086 -0.2049  2.2635
  324MPD2     N 4926   0.321   1.611  14.516 -0.1650  0.1295 -0.0217
  324MPD2    H5 4927   0.281   1.545  14.451 -0.3517 -0.9106  1.1332
  324MPD2    N1 4928   0.771   1.741  14.663 -0.2515  0.4122 -0.2195
  324MPD2    H7 4929   0.726   1.814  14.716 -1.7934  0.7378 -1.9795
  325TMC3    C1 4930   0.118   1.740  14.478 -0.0867  0.2366 -0.0236
  325TMC3    C2 4931   0.061   1.633  14.414  0.5132  0.7042  0.6248
  325TMC3    C3 4932   4.676   1.652  14.356 -0.4413 -0.5463  0.1091
  325TMC3    C4 4933   0.081   1.871  14.473  0.2492  0.8087 -0.2174
  325TMC3    C5 4934   4.701   1.884  14.404 -0.3768 -0.2869 -0.0973
  325TMC3    C6 4935   4.618   1.777  14.358 -0.5821 -0.7888 -0.5521
  325TMC3     C 4936   0.252   1.725  14.542  0.3676 -0.0472 -0.0866
  325TMC3     O 4937   0.294   1.828  14.594 -0.2679  0.0847  0.2026
  325TMC3     H 4938   0.096   1.530  14.425  1.3474  0.9864  0.6017
  325TMC3    H1 4939   0.129   1.954  14.523  0.3128 -0.0476  1.1625
  325TMC3    H2 4940   4.534   1.786  14.290  0.3565 -0.0542 -1.6031
  325TMC3    C7 4941   4.653   2.017  14.394  0.0967 -0.1774 -0.2897
  325TMC3    C8 4942   4.619   1.552  14.273  1.1169  0.0362  0.4970
  325TMC3    O1 4943   4.733   2.110  14.390 -0.0365  1.2404 -0.4331
  325TMC3    O2 4944   4.693   1.460  14.239  0.3884 -0.1669  0.4903
  326MPD2     C 4945   1.608   2.591  10.885 -0.2822 -0.3986 -0.4580
  326MPD2    C1 4946   1.551   2.700  10.820 -1.0142  0.3352 -0.7385
  326MPD2    C2 4947   1.618   2.822  10.818  0.0635 -0.5971  0.8076
  326MPD2    C3 4948   1.743   2.837  10.878  0.5085 -0.3653 -0.2068
  326MPD2    C4 4949   1.786   2.735  10.956  0.0409 -0.5740 -0.4622
  326MPD2    C5 4950   1.722   2.614  10.952 -0.0169  0.1603 -0.1895
  326MPD2     H 4951   1.577   2.909  10.768  0.4764 -0.9025 -0.0455
  326MPD2    H1 4952   1.884   2.749  11.001  1.0381 -0.1162 -2.7424
  326MPD2    H2 4953   1.568   2.490  10.890 -0.0471 -0.4808 -0.2531
  326MPD2    H3 4954   1.780   2.539  11.004 -0.6473 -0.8916 -0.9991
  326MPD2     N 4955   1.820   2.952  10.863 -0.3603 -0.8467 -0.9925
  326MPD2    H5 4956   1.914   2.951  10.900  0.6177  0.0642 -3.4543
  326MPD2    N1 4957   1.426   2.702  10.759 -0.1102 -0.5448 -0.8382
  326MPD2    H7 4958   1.379   2.788  10.734 -0.8481 -0.6268  0.2509
  327TMC3    C1 4959   1.255   2.630  10.634  0.4555  0.5124  0.0422
  327TMC3    C2 4960   1.170   2.733  10.661  0.5006  0.0036  0.3544
  327TMC3    C3 4961   1.095   2.792  10.564  0.5248  0.2454 -0.7032
  327TMC3    C4 4962   1.295   2.607  10.512 -0.4001  0.4523 -1.0813
  327TMC3    C5 4963   1.239   2.691  10.416  0.2965 -0.9144  1.2276
  327TMC3    C6 4964   1.138   2.778  10.433 -0.4324 -0.8568  0.0133
  327TMC3     C 4965   1.363   2.592  10.721  0.1369  0.9281  0.9050
  327TMC3     O 4966   1.399   2.474  10.707 -0.2052 -0.0150 -0.6829
  327TMC3     H 4967   1.138   2.752  10.763  1.0812 -1.1207  0.7424
  327TMC3    H1 4968   1.354   2.521  10.484  0.5617  0.4571  0.9965
  327TMC3    H2 4969   1.112   2.838  10.346  1.9965  1.5070  0.9272
  327TMC3    C7 4970   1.343   2.760  10.345  0.3958 -0.4356  0.4854
  327TMC3    C8 4971   1.040   2.927  10.587  1.1886 -0.5726  0.0507
  327TMC3    O1 4972   1.313   2.814  10.242  0.1339 -0.1093  0.1569
  327TMC3    O2 4973   0.968   2.977  10.503  0.3619  0.4192  0.5766
  328MPD2     C 4974   4.083   2.807  17.126 -0.7455 -0.2244  0.0089
  328MPD2    C1 4975   3.959   2.748  17.149 -0.2826 -0.2325 -0.0920
  328MPD2    C2 4976   3.868   2.718  17.053 -0.0159 -0.5298 -0.2543
  328MPD2    C3 4977   3.901   2.759  16.923  0.6847 -0.0019  0.3014
  328MPD2    C4 4978   4.023   2.822  16.891 -0.4412  0.3577 -0.3151
  328MPD2    C5 4979   4.114   2.840  16.991  0.6622 -0.1565  0.1538
  328MPD2     H 4980   3.769   2.680  17.076  0.0813 -0.3622  0.4146
  328MPD2    H1 4981   4.051   2.862  16.794  2.9214 -2.3949 -0.5052
  328MPD2    H2 4982   4.160   2.816  17.201  0.6641  0.7999 -1.5539
  328MPD2    H3 4983   4.209   2.888  16.971  0.8362 -0.5301  0.0735
  328MPD2     N 4984   3.796   2.754  16.826  0.4543  0.2289 -0.2074
  328MPD2    H5 4985   3.803   2.816  16.746 -1.3589 -1.7607 -1.9045
  328MPD2    N1 4986   3.943   2.728  17.285 -0.0027 -0.2401 -0.4347
  328MPD2    H7 4987   4.021   2.766  17.338  0.8170 -1.8292 -0.4941
  329TMC3    C1 4988   3.825   2.684  17.484  0.3372 -0.5255 -0.2541
  329TMC3    C2 4989   3.836   2.819  17.522  1.1881  0.1225  0.4443
  329TMC3    C3 4990   3.775   2.846  17.645 -0.5642  0.5788 -0.6811
  329TMC3    C4 4991   3.757   2.592  17.554 -0.3040 -0.2242  0.2251
  329TMC3    C5 4992   3.698   2.626  17.677 -0.3689  0.3728  0.2545
  329TMC3    C6 4993   3.705   2.752  17.723  0.0295  0.1123 -0.6401
  329TMC3     C 4994   3.835   2.664  17.341 -0.2947 -0.1030  0.3021
  329TMC3     O 4995   3.751   2.584  17.299  0.6092  0.0583  0.0746
  329TMC3     H 4996   3.878   2.898  17.462  1.2241  1.4052  2.1618
  329TMC3    H1 4997   3.766   2.490  17.518  0.7167 -0.0789  0.0610
  329TMC3    H2 4998   3.668   2.773   0.073  0.3134  0.6677 -0.6522
  329TMC3    C7 4999   3.637   2.526   0.021  0.0140 -0.1220 -0.1330
  329TMC3    C8 5000   3.750   2.985  17.678  0.8665  0.6526 -0.2053
  329TMC3    O1 5001   3.649   2.553   0.142 -0.3916  0.1644 -0.3625
  329TMC3    O2 5002   3.832   3.063  17.636 -0.3556 -0.0985  0.3423
  330TMC3    C1 5003   1.283   2.501   9.517  0.2753  0.7754 -0.2144
  330TMC3    C2 5004   1.280   2.376   9.462  0.3090  0.1577  0.4208
  330TMC3    C3 5005   1.387   2.292   9.498  0.3492  0.4563 -0.0713
  330TMC3    C4 5006   1.394   2.553   9.577  0.0704  0.3038  0.2805
  330TMC3    C5 5007   1.507   2.472   9.587  0.0036  0.0473  0.4315
  330TMC3    C6 5008   1.498   2.336   9.564  0.2307 -0.3995  0.2702
  330TMC3     C 5009   1.159   2.572   9.550  0.4000 -0.2954 -0.1369
  330TMC3     O 5010   1.167   2.654   9.638  0.1473 -0.1354 -0.1867
  330TMC3     H 5011   1.192   2.322   9.429 -0.6794  2.4786 -0.6930
  330TMC3    H1 5012   1.398   2.660   9.594 -2.5571  0.5093 -0.4437
  330TMC3    H2 5013   1.579   2.268   9.589 -0.3664 -1.3086 -0.2911
  330TMC3    C7 5014   1.633   2.535   9.613  0.3012 -0.1507 -0.3066
  330TMC3    C8 5015   1.375   2.150   9.456 -0.4218  0.2117  0.6676
  330TMC3    O1 5016   1.629   2.655   9.601 -0.3364 -0.6509  0.4155
  330TMC3    O2 5017   1.319   2.135   9.352  0.2154 -0.5879  0.2013
  331MPD2     C 5018   0.567   1.317  12.907  0.1606  0.5948  0.2810
  331MPD2    C1 5019   0.585   1.322  12.768 -0.3013 -0.1772 -0.1518
  331MPD2    C2 5020   0.480   1.280  12.686  0.0011 -0.1921  0.1927
  331MPD2    C3 5021   0.365   1.229  12.737 -0.5323  0.1871 -0.2775
  331MPD2    C4 5022   0.350   1.210  12.877  0.2990  0.2514  0.3018
  331MPD2    C5 5023   0.447   1.264  12.961  0.0079  0.1646  0.0917
  331MPD2     H 5024   0.486   1.280  12.577  3.1306 -1.7192  0.3555
  331MPD2    H1 5025   0.265   1.157  12.918 -0.5912 -0.4663 -2.5272
  331MPD2    H2 5026   0.647   1.353  12.971 -0.5324  1.8956  0.4193
  331MPD2    H3 5027   0.424   1.264  13.067  0.7011 -0.5117  0.2419
  331MPD2     N 5028   0.267   1.196  12.640 -0.1745  0.0431 -0.6692
  331MPD2    H5 5029   0.284   1.232  12.547 -3.0660  1.1658 -0.7619
  331MPD2    N1 5030   0.707   1.384  12.735 -0.0321  0.2980  0.0445
  331MPD2    H7 5031   0.782   1.372  12.802 -2.1120 -2.3103  1.9371
  332TMC3    C1 5032   0.114   1.046  12.535  0.0053  0.4299 -0.5486
  332TMC3    C2 5033   0.118   1.117  12.421  1.1552 -0.3451  0.0437
  332TMC3    C3 5034   0.105   1.048  12.305  0.5255 -0.2892 -0.4844
  332TMC3    C4 5035   0.123   0.910  12.536 -0.2709  0.4196 -0.1194
  332TMC3    C5 5036   0.124   0.849  12.420  0.3552 -0.0683  0.4911
  332TMC3    C6 5037   0.105   0.908  12.300  0.3326  0.2375 -0.3603
  332TMC3     C 5038   0.161   1.107  12.659  0.3690 -0.3200  0.1723
  332TMC3     O 5039   0.131   1.049  12.760  0.5726 -0.4374  0.5486
  332TMC3     H 5040   0.112   1.225  12.413  1.2396 -0.0841  3.4877
  332TMC3    H1 5041   0.133   0.848  12.625  1.4583  0.0393 -0.5630
  332TMC3    H2 5042   0.117   0.857  12.205 -2.3139  1.5766 -1.4315
  332TMC3    C7 5043   0.174   0.711  12.421  0.4790  0.2145 -0.6085
  332TMC3    C8 5044   0.086   1.119  12.184 -0.0187 -0.2055 -0.1411
  332TMC3    O1 5045   0.114   0.644  12.342  0.0451  0.1361 -0.4677
  332TMC3    O2 5046   0.157   1.218  12.181  0.0729  0.0609 -0.1745
  333MPD2     C 5047   0.192   0.998  11.225  0.0547  0.1807  0.1355
  333MPD2    C1 5048   0.156   0.923  11.116  0.5526  0.3802 -0.1529
  333MPD2    C2 5049   0.085   0.805  11.124 -0.0699  0.4119  0.4068
  333MPD2    C3 5050   0.044   0.764  11.250  0.0371 -0.7564  0.2300
  333MPD2    C4 5051   0.089   0.839  11.362  0.0339 -0.0165  0.3694
  333MPD2    C5 5052   0.153   0.958  11.347  0.1919 -0.1033  0.5204
  333MPD2     H 5053   0.060   0.747  11.036  0.4943 -1.6274  1.5870
  333MPD2    H1 5054   0.072   0.818  11.467  0.1011 -0.5958  0.2639
  333MPD2    H2 5055   0.254   1.086  11.210 -0.1085  0.1995 -0.4496
  333MPD2    H3 5056   0.176   1.017  11.435 -3.4100  0.2892  1.1815
  333MPD2     N 5057   4.711   0.644  11.265  0.1272 -0.4355  0.7876
  333MPD2    H5 5058   4.682   0.600  11.178  1.4561 -2.3373  1.3059
  333MPD2    N1 5059   0.215   0.972  10.993  0.1991  0.3777 -0.0164
  333MPD2    H7 5060   0.262   1.061  11.001  0.7641 -0.0642  1.4896
  334TMC3    C1 5061   0.302   0.974  10.776 -0.9543  0.1874  0.3234
  334TMC3    C2 5062   0.410   0.917  10.726 -0.1844 -0.4916  0.3534
  334TMC3    C3 5063   0.505   0.990  10.657  0.0536  0.8380 -0.9455
  334TMC3    C4 5064   0.269   1.103  10.751  0.3657 -0.6775  0.5283
  334TMC3    C5 5065   0.370   1.177  10.688  1.0118 -0.8344 -0.5927
  334TMC3    C6 5066   0.489   1.127  10.638  0.5002  0.2097 -0.2991
  334TMC3     C 5067   0.237   0.900  10.884  0.4068  0.2323 -0.7492
  334TMC3     O 5068   0.227   0.776  10.882  0.0190  0.2636  0.0638
  334TMC3     H 5069   0.418   0.812  10.752  0.1450 -0.8052 -1.0695
  334TMC3    H1 5070   0.191   1.148  10.811 -2.1442  0.3420 -3.4515
  334TMC3    H2 5071   0.559   1.197  10.594  1.9028  0.1048  1.8295
  334TMC3    C7 5072   0.356   1.324  10.688  0.4001  0.9604 -0.2416
  334TMC3    C8 5073   0.633   0.949  10.704 -0.7378 -0.5519 -0.6352
  334TMC3    O1 5074   0.449   1.398  10.650 -0.1388  0.2166 -0.1346
  334TMC3    O2 5075   0.640   0.833  10.741 -0.3813  0.2474  0.0351
  335TMC3    C1 5076   0.077   2.460  17.377  0.0636 -1.0032  0.2478
  335TMC3    C2 5077   0.033   2.482  17.249  0.5452  0.1272 -0.3082
  335TMC3    C3 5078   0.124   2.476  17.143 -0.1974 -0.3275  0.7002
  335TMC3    C4 5079   0.210   2.438  17.410 -0.5194 -0.2606  0.1448
  335TMC3    C5 5080   0.296   2.455  17.300 -0.5139  0.1807 -0.0965
  335TMC3    C6 5081   0.256   2.486  17.171 -0.3112 -1.0842 -0.1624
  335TMC3     C 5082   4.709   2.436  17.474  0.3025  0.3030 -0.6559
  335TMC3     O 5083   4.599   2.419  17.421 -0.1040 -0.1188 -0.3576
  335TMC3     H 5084   4.665   2.494  17.229 -0.2801 -0.9099  3.3501
  335TMC3    H1 5085   0.237   2.424  17.514 -1.5560 -1.7651  0.2183
  335TMC3    H2 5086   0.332   2.488  17.093 -0.6955  1.1240 -0.4677
  335TMC3    C7 5087   0.438   2.450  17.315  0.7225 -0.5049 -0.0070
  335TMC3    C8 5088   0.087   2.452  17.004 -0.0011 -0.1102  0.7353
  335TMC3    O1 5089   0.505   2.486  17.221  0.9062  0.9602  0.9702
  335TMC3    O2 5090   0.181   2.466  16.926 -0.0331  0.4481  0.1270
  336MPD2     C 5091   4.632   0.398  15.886  0.1328 -0.4106 -0.5322
  336MPD2    C1 5092   4.597   0.328  15.774 -0.2465  0.9427  0.7695
  336MPD2    C2 5093   4.616   0.190  15.773  0.5723 -0.0139  0.5581
  336MPD2    C3 5094   4.676   0.124  15.878 -0.0430  0.2552 -0.7278
  336MPD2    C4 5095   4.707   0.199  15.989  0.7846  0.4641 -0.2163
  336MPD2    C5 5096   4.695   0.335  15.990 -0.0974 -0.3656  0.0548
  336MPD2     H 5097   4.573   0.134  15.690 -2.7125  2.1159  0.8097
  336MPD2    H1 5098   0.033   0.167  16.071  0.7180  2.1323  0.4944
  336MPD2    H2 5099   4.612   0.503  15.904  0.6819 -0.4763  0.4892
  336MPD2    H3 5100   4.729   0.396  16.073 -0.7413 -1.0610  0.8230
  336MPD2     N 5101   4.694   4.720  15.883 -0.7965 -0.1038  0.0507
  336MPD2    H5 5102   4.723   4.685  15.974 -2.5727 -0.3869  0.5029
  336MPD2    N1 5103   4.551   0.396  15.655  0.0156  0.1051 -0.1155
  336MPD2    H7 5104   4.507   0.330  15.591 -0.3266  1.8407 -1.6842
  337TMC3    C1 5105   4.468   0.567  15.520 -0.0452  0.5268 -0.4612
  337TMC3    C2 5106   4.378   0.481  15.473 -0.1614 -0.4111 -0.3596
  337TMC3    C3 5107   4.286   0.523  15.378  0.9311  0.2784 -0.3573
  337TMC3    C4 5108   4.472   0.696  15.470  0.1002 -0.2313 -0.1801
  337TMC3    C5 5109   4.383   0.733  15.373  0.0525 -0.3984 -0.4828
  337TMC3    C6 5110   4.296   0.644  15.315 -0.2878 -0.5289 -0.0945
  337TMC3     C 5111   4.545   0.534  15.635 -0.5266  0.1828 -0.6724
  337TMC3     O 5112   4.607   0.618  15.688  0.1646 -0.4982  0.0417
  337TMC3     H 5113   4.368   0.391  15.534 -2.5815  0.9437  1.2338
  337TMC3    H1 5114   4.532   0.773  15.517 -1.7189  0.8441  0.3780
  337TMC3    H2 5115   4.220   0.667  15.241 -1.4753 -1.6438  0.7853
  337TMC3    C7 5116   4.435   0.843  15.293  0.8466  0.5735  0.0861
  337TMC3    C8 5117   4.155   0.458  15.392  0.7867  1.0315 -0.2337
  337TMC3    O1 5118   4.547   0.885  15.318  0.0939 -0.4516  0.4535
  337TMC3    O2 5119   4.143   0.373  15.479 -0.5133  0.0771  0.6675
  338MPD2     C 5120   4.404   4.280   0.448 -0.0489  0.3340  0.4224
  338MPD2    C1 5121   4.352   4.352   0.345 -0.7049 -0.5847 -0.3080
  338MPD2    C2 5122   4.246   4.438   0.366  0.2913 -0.0877 -0.4120
  338MPD2    C3 5123   4.193   4.460   0.488  0.0239  0.0485 -0.4364
  338MPD2    C4 5124   4.242   4.382   0.590  0.1320 -0.2673  0.1887
  338MPD2    C5 5125   4.348   4.296   0.571  0.8965  0.8582 -0.1239
  338MPD2     H 5126   4.199   4.490   0.283 -1.6540  0.1937  0.8675
  338MPD2    H1 5127   4.207   4.387   0.692  1.8018 -2.8464  0.8917
  338MPD2    H2 5128   4.481   4.203   0.445 -1.5418 -1.2452  2.6234
  338MPD2    H3 5129   4.386   4.232   0.650 -0.9033  0.6493  0.5781
  338MPD2     N 5130   4.094   4.554   0.504  0.3272  0.3511 -0.3864
  338MPD2    H5 5131   4.065   4.602   0.420  0.2979  0.7339 -0.1584
  338MPD2    N1 5132   4.388   4.326   0.212 -0.2297  0.4150 -0.1623
  338MPD2    H7 5133   4.329   4.364   0.139  1.0777 -0.6078 -1.7364
  339TMC3    C1 5134   3.910   4.653   0.596  0.5596 -0.1116 -1.0284
  339TMC3    C2 5135   3.795   4.615   0.659 -0.1873  0.3968  1.5114
  339TMC3    C3 5136   3.682   4.679   0.623 -0.2630  0.5720 -0.0525
  339TMC3    C4 5137   3.903   0.001   0.486  0.0699 -0.1720  0.4357
  339TMC3    C5 5138   3.788   0.071   0.457 -0.8488 -0.4632  0.2810
  339TMC3    C6 5139   3.677   0.048   0.538 -0.4163 -0.5944  0.4215
  339TMC3     C 5140   4.025   4.570   0.623  0.3728  0.5022  0.0027
  339TMC3     O 5141   4.033   4.514   0.733 -0.5692 -0.7054 -0.1427
  339TMC3     H 5142   3.798   4.536   0.733  0.0772  0.1956  1.2832
  339TMC3    H1 5143   3.995   0.042   0.446 -0.3605 -0.2953 -0.6967
  339TMC3    H2 5144   3.585   0.095   0.505 -1.1318 -0.9985  1.8076
  339TMC3    C7 5145   3.795   0.146   0.335  0.2156 -0.1777  0.2549
  339TMC3    C8 5146   3.573   4.660   0.708 -0.3561 -0.5695 -0.4633
  339TMC3    O1 5147   3.885   0.110   0.261 -0.6453 -0.1337  0.4406
  339TMC3    O2 5148   3.464   4.692   0.668  0.0027 -0.0162 -0.1588
  340MPD2     C 5149   4.181   2.704   9.703  0.0361  0.9358 -0.1805
  340MPD2    C1 5150   4.263   2.682   9.810 -0.8729 -0.3739 -0.0941
  340MPD2    C2 5151   4.309   2.787   9.885 -0.2881 -0.7072  0.1361
  340MPD2    C3 5152   4.286   2.920   9.841  0.0804 -0.1124  0.5529
  340MPD2    C4 5153   4.201   2.936   9.735  0.3247 -1.1020 -0.1606
  340MPD2    C5 5154   4.143   2.832   9.673 -0.4044  0.2978 -0.9454
  340MPD2     H 5155   4.390   2.767   9.955 -0.3515  0.1709  0.4660
  340MPD2    H1 5156   4.177   3.036   9.702  0.9414 -0.2938  1.8500
  340MPD2    H2 5157   4.135   2.627   9.641 -1.3506  0.4014  1.5048
  340MPD2    H3 5158   4.070   2.840   9.593 -1.4812  1.9628  0.2183
  340MPD2     N 5159   4.349   3.038   9.903 -0.0341 -0.4677  0.1103
  340MPD2    H5 5160   4.331   3.125   9.854  0.4511 -2.4009 -3.5541
  340MPD2    N1 5161   4.310   2.550   9.831 -0.6991 -0.5166  0.7617
  340MPD2    H7 5162   4.386   2.535   9.897 -1.2102  0.7192  1.6359
  341TMC3    C1 5163   4.312   2.315   9.835 -0.5900  0.6293  0.1818
  341TMC3    C2 5164   4.223   2.213   9.868 -0.0147 -0.3944 -0.4563
  341TMC3    C3 5165   4.252   2.087   9.832  0.0786  0.5972  0.0839
  341TMC3    C4 5166   4.429   2.288   9.773 -0.3249  0.2677  0.3126
  341TMC3    C5 5167   4.455   2.166   9.735 -0.2649  0.3639 -0.0670
  341TMC3    C6 5168   4.370   2.061   9.765  0.4658  0.4866 -0.6168
  341TMC3     C 5169   4.244   2.439   9.798  0.1384 -0.7090 -0.4941
  341TMC3     O 5170   4.128   2.431   9.762 -0.0369 -0.2778  0.2184
  341TMC3     H 5171   4.136   2.230   9.930  0.3480 -1.5583  0.3856
  341TMC3    H1 5172   4.503   2.365   9.755 -1.7107  1.2309 -1.3364
  341TMC3    H2 5173   4.409   1.961   9.748 -0.0437  0.2388 -0.3220
  341TMC3    C7 5174   4.577   2.138   9.670  0.7023  0.2914  0.3520
  341TMC3    C8 5175   4.202   1.960   9.891 -0.2082  1.1663 -0.3590
  341TMC3    O1 5176   4.667   2.220   9.675  0.1593  0.0952  0.0627
  341TMC3    O2 5177   4.194   1.865   9.817  0.3729 -0.4700 -0.0460
  342MPD2     C 5178   2.631   0.617  17.312  0.3405  0.7223 -0.2206
  342MPD2    C1 5179   2.700   0.661  17.205 -1.0805 -0.1473 -0.3163
  342MPD2    C2 5180   2.739   0.792  17.187 -0.5048  0.5773 -0.1008
  342MPD2    C3 5181   2.695   0.889  17.276 -0.1132  0.3711 -0.0476
  342MPD2    C4 5182   2.613   0.844  17.377  0.1422 -0.5323 -0.0991
  342MPD2    C5 5183   2.586   0.711  17.399 -0.1811  0.1252 -0.0492
  342MPD2     H 5184   2.786   0.830  17.098  4.2364 -1.3624  1.5642
  342MPD2    H1 5185   2.578   0.908  17.458 -1.1703 -1.1197 -0.1889
  342MPD2    H2 5186   2.605   0.516  17.341 -0.4491  0.4788 -1.7674
  342MPD2    H3 5187   2.527   0.679  17.483 -0.9361  0.1955 -0.5585
  342MPD2     N 5188   2.733   1.023  17.282  0.0116  0.4012 -0.6255
  342MPD2    H5 5189   2.692   1.079  17.356  5.2083 -0.4233  2.8224
  342MPD2    N1 5190   2.759   0.571  17.113  0.7968  0.3835 -0.1584
  342MPD2    H7 5191   2.813   0.622  17.044  1.5132 -3.5641 -2.4934
  343TMC3    C1 5192   2.826   0.368  17.011  0.2630  0.5789 -0.4856
  343TMC3    C2 5193   2.942   0.424  16.969  0.3903 -0.0373 -0.1308
  343TMC3    C3 5194   3.023   0.340  16.890  0.1831  0.1925 -0.3681
  343TMC3    C4 5195   2.793   0.237  16.978 -0.3730 -0.5051 -0.7898
  343TMC3    C5 5196   2.878   0.165  16.893  0.2446  0.3325  0.1481
  343TMC3    C6 5197   2.997   0.215  16.861 -0.4060  0.4187 -0.2958
  343TMC3     C 5198   2.737   0.435  17.107 -0.2519  0.8353  0.3056
  343TMC3     O 5199   2.654   0.367  17.162 -0.1857  0.0855 -0.7182
  343TMC3     H 5200   2.968   0.528  16.985  0.4743 -0.1641  0.5726
  343TMC3    H1 5201   2.699   0.201  17.019 -0.8070  1.7943  0.2101
  343TMC3    H2 5202   3.041   0.163  16.777 -0.3515  0.5138 -0.3259
  343TMC3    C7 5203   2.836   0.037  16.850  0.2951  0.6438 -0.2025
  343TMC3    C8 5204   3.141   0.403  16.826  0.7833 -0.1312 -0.3884
  343TMC3    O1 5205   2.717   0.030  16.861 -0.1900  0.0688  0.3585
  343TMC3    O2 5206   3.148   0.527  16.815 -0.1445 -0.4136  0.4567
  344MPD2     C 5207   3.025   0.140   9.704 -0.1181  0.3738  0.9215
  344MPD2    C1 5208   3.135   0.164   9.780 -0.7703  0.5440  0.7157
  344MPD2    C2 5209   3.206   0.283   9.776  0.1980 -0.4853  0.1103
  344MPD2    C3 5210   3.159   0.386   9.695 -1.0314  0.5112 -1.1790
  344MPD2    C4 5211   3.046   0.362   9.613 -0.2451 -0.4930  1.1532
  344MPD2    C5 5212   2.990   0.231   9.612  0.1072  0.1177 -0.7398
  344MPD2     H 5213   3.298   0.293   9.831  0.4193  0.4149 -0.4242
  344MPD2    H1 5214   3.022   0.436   9.538 -2.0479  0.6316  2.8364
  344MPD2    H2 5215   2.969   0.047   9.710 -1.8051  1.2754 -1.2269
  344MPD2    H3 5216   2.910   0.214   9.541 -0.4193 -1.1767  0.1796
  344MPD2     N 5217   3.220   0.507   9.694  0.5384  0.2015  0.2226
  344MPD2    H5 5218   3.169   0.581   9.647 -0.1723 -0.1764  0.3961
  344MPD2    N1 5219   3.158   0.054   9.864 -0.8205 -0.6347 -0.3404
  344MPD2    H7 5220   3.086   4.721   9.871  1.0711 -2.5502 -0.3671
  345TMC3    C1 5221   3.401   0.665   9.703 -0.7414  0.5961 -0.4200
  345TMC3    C2 5222   3.504   0.703   9.780  0.2423  0.1482  0.4203
  345TMC3    C3 5223   3.580   0.809   9.740  0.4325 -0.2337  0.2312
  345TMC3    C4 5224   3.360   0.737   9.598  0.7924  0.7711  0.0640
  345TMC3    C5 5225   3.439   0.836   9.551  0.4301  0.1648  0.4468
  345TMC3    C6 5226   3.558   0.863   9.617  0.3179  0.0427 -0.1597
  345TMC3     C 5227   3.353   0.527   9.732  0.4554 -0.5309  0.7832
  345TMC3     O 5228   3.443   0.451   9.760 -0.5125 -0.8149  0.4655
  345TMC3     H 5229   3.537   0.635   9.858 -0.7697 -0.4227  0.3544
  345TMC3    H1 5230   3.283   0.692   9.536  0.0169  1.7783  0.3052
  345TMC3    H2 5231   3.610   0.953   9.587 -1.9842  0.7889 -1.9385
  345TMC3    C7 5232   3.379   0.959   9.492 -0.5864 -0.5023 -0.2762
  345TMC3    C8 5233   3.655   0.887   9.834 -0.4202 -0.2382  1.1467
  345TMC3    O1 5234   3.453   1.037   9.436  0.2429  0.0691 -0.0864
  345TMC3    O2 5235   3.721   0.982   9.799 -0.6612  0.0553  0.4647
  346MPD2     C 5236   3.433   1.676  13.913  0.1970  0.0359  0.2348
  346MPD2    C1 5237   3.564   1.714  13.915  0.3813  0.2308  0.7381
  346MPD2    C2 5238   3.628   1.740  14.032 -0.1673  0.0643 -0.3412
  346MPD2    C3 5239   3.553   1.748  14.148 -0.3322  0.0359 -0.4550
  346MPD2    C4 5240   3.415   1.711  14.150 -0.0483  0.3397 -0.5100
  346MPD2    C5 5241   3.361   1.673  14.029  0.0456 -0.3196 -0.3218
  346MPD2     H 5242   3.731   1.773  14.031  0.5355 -2.1273 -0.6247
  346MPD2    H1 5243   3.361   1.707  14.244 -2.7758 -1.3854 -2.1396
  346MPD2    H2 5244   3.384   1.651  13.820 -0.2321 -2.4835  1.1277
  346MPD2    H3 5245   3.256   1.647  14.022 -0.0503  0.0158 -0.1282
  346MPD2     N 5246   3.617   1.807  14.252 -0.1816  0.3958 -0.0289
  346MPD2    H5 5247   3.712   1.836  14.229  0.1815 -1.5565 -1.0051
  346MPD2    N1 5248   3.625   1.729  13.792  0.0385  0.0423  0.1292
  346MPD2    H7 5249   3.561   1.761  13.720  1.3857 -0.8066 -1.4292
  347TMC3    C1 5250   3.683   1.905  14.455  0.1704  0.2928 -0.5148
  347TMC3    C2 5251   3.811   1.935  14.396  0.0627 -0.0236  0.2523
  347TMC3    C3 5252   3.880   2.038  14.444  0.4952  0.2220  0.3696
  347TMC3    C4 5253   3.649   1.969  14.573  0.1680 -0.1986 -1.3135
  347TMC3    C5 5254   3.743   2.041  14.635  0.3611 -0.2867 -0.8535
  347TMC3    C6 5255   3.858   2.080  14.570 -1.3489  0.7588  0.0425
  347TMC3     C 5256   3.572   1.854  14.370 -0.1487  0.5324  0.3558
  347TMC3     O 5257   3.457   1.850  14.416 -0.3158  0.0779  0.4376
  347TMC3     H 5258   3.832   1.894  14.297 -1.1370  0.6616 -0.2783
  347TMC3    H1 5259   3.560   1.930  14.621  0.3323  0.6055 -0.3431
  347TMC3    H2 5260   3.921   2.158  14.611  0.2567 -0.6450  0.2891
  347TMC3    C7 5261   3.728   2.047  14.785 -0.4165 -0.0301  0.1835
  347TMC3    C8 5262   4.012   2.045  14.398  0.2632  0.6111 -0.1964
  347TMC3    O1 5263   3.617   2.030  14.830  0.2453  0.0254  0.0383
  347TMC3    O2 5264   4.056   1.932  14.373 -0.0923  0.5583 -0.2212
  348MPD2     C 5265   2.803   1.412  11.360 -0.0141  0.0456 -0.3935
  348MPD2    C1 5266   2.668   1.409  11.349 -0.4225  0.1056  0.3353
  348MPD2    C2 5267   2.594   1.534  11.353  0.3354 -0.1359 -0.5388
  348MPD2    C3 5268   2.662   1.654  11.372  0.1263 -0.3279  0.2514
  348MPD2    C4 5269   2.796   1.651  11.386 -0.2146  0.1919  0.7390
  348MPD2    C5 5270   2.871   1.531  11.383 -0.1519 -0.0153  0.1384
  348MPD2     H 5271   2.485   1.530  11.347  0.2510  0.1434  0.9193
  348MPD2    H1 5272   2.854   1.742  11.393  0.9513 -0.3859 -1.7938
  348MPD2    H2 5273   2.851   1.316  11.347 -0.7079 -0.2634 -0.6744
  348MPD2    H3 5274   2.979   1.535  11.388 -0.2128  1.4321  0.1758
  348MPD2     N 5275   2.591   1.772  11.376  0.1890  0.1489  0.1727
  348MPD2    H5 5276   2.490   1.770  11.383  0.2952 -1.0620  1.2945
  348MPD2    N1 5277   2.603   1.288  11.329  0.5572 -0.1196  0.0621
  348MPD2    H7 5278   2.504   1.303  11.313  0.3082 -2.1304 -0.3430
  349TMC3    C1 5279   2.540   1.066  11.321  0.3533 -0.2068 -0.4710
  349TMC3    C2 5280   2.554   0.959  11.403 -0.1131  0.3524 -0.1852
  349TMC3    C3 5281   2.456   0.934  11.492  0.2159  0.3854  0.1297
  349TMC3    C4 5282   2.420   1.122  11.311 -0.1207  0.6234  0.3741
  349TMC3    C5 5283   2.315   1.086  11.393 -0.7652  0.1172  0.6696
  349TMC3    C6 5284   2.339   0.994  11.493 -0.2715 -0.2563  1.0880
  349TMC3     C 5285   2.653   1.157  11.337 -0.1503 -0.4765  0.5816
  349TMC3     O 5286   2.760   1.111  11.369  0.0253 -0.1168  0.0873
  349TMC3     H 5287   2.651   0.924  11.438  0.5886  0.7015 -1.7846
  349TMC3    H1 5288   2.390   1.196  11.237  1.0422 -0.6043 -1.3292
  349TMC3    H2 5289   2.276   1.005  11.580 -0.4667  1.7073  0.6957
  349TMC3    C7 5290   2.247   1.202  11.432 -0.7753 -0.1331 -0.1566
  349TMC3    C8 5291   2.491   0.831  11.596 -0.5047 -0.8594 -0.3295
  349TMC3    O1 5292   2.324   1.299  11.451 -0.0182  0.2099 -0.2730
  349TMC3    O2 5293   2.606   0.815  11.628 -0.6838  0.0009 -0.6701
  350MPD2     C 5294   0.825   4.729   9.438 -0.3211  0.1264  0.6097
  350MPD2    C1 5295   0.894   4.616   9.478 -0.8336 -0.2334 -0.3482
  350MPD2    C2 5296   0.921   4.602   9.606  0.1919 -0.3235  0.4565
  350MPD2    C3 5297   0.884   4.706   9.697  0.7299  0.4357  0.0251
  350MPD2    C4 5298   0.819   0.082   9.656 -0.0704 -0.1082  0.4339
  350MPD2    C5 5299   0.782   0.092   9.525 -0.1364 -0.1928  0.1672
  350MPD2     H 5300   0.979   4.520   9.648  0.1193 -0.7322 -0.2510
  350MPD2    H1 5301   0.794   0.166   9.719  0.1506 -0.0866  0.4932
  350MPD2    H2 5302   0.780   4.736   9.340 -1.2218  0.1771  1.0295
  350MPD2    H3 5303   0.734   0.181   9.486 -0.0040 -0.3358 -0.3329
  350MPD2     N 5304   0.916   4.681   9.831 -0.0320 -0.4569  0.1796
  350MPD2    H5 5305   0.975   4.603   9.858  0.9549  0.9942  2.2769
  350MPD2    N1 5306   0.912   4.504   9.386  0.3515 -0.6699  0.4142
  350MPD2    H7 5307   0.937   4.416   9.429  0.2802 -0.9451 -0.1039
  351TMC3    C1 5308   0.933   4.384   9.179  0.2392  0.7439  0.0967
  351TMC3    C2 5309   0.972   4.265   9.248 -0.2232  0.6739 -0.2600
  351TMC3    C3 5310   1.006   4.157   9.182 -0.6023  0.1063  0.1882
  351TMC3    C4 5311   0.941   4.391   9.042 -0.4560  0.0954  0.2010
  351TMC3    C5 5312   0.980   4.279   8.978 -0.2288 -0.1677 -0.4658
  351TMC3    C6 5313   1.003   4.160   9.047  0.5376  0.1384  0.6707
  351TMC3     C 5314   0.903   4.510   9.247 -0.2787  0.1698 -1.3130
  351TMC3     O 5315   0.873   4.606   9.180  0.3225 -0.3637 -0.4624
  351TMC3     H 5316   0.987   4.270   9.355 -0.5793  1.1896 -0.2346
  351TMC3    H1 5317   0.907   4.482   8.992  1.8766 -0.1792 -1.8576
  351TMC3    H2 5318   1.051   4.080   8.992 -1.4945 -0.9660  0.4964
  351TMC3    C7 5319   0.943   4.267   8.837  0.6349 -0.1558 -0.7027
  351TMC3    C8 5320   1.034   4.035   9.245 -0.8801  0.5712  0.4792
  351TMC3    O1 5321   0.899   4.163   8.787  0.3337  0.4345 -0.0185
  351TMC3    O2 5322   1.041   3.938   9.170 -0.0354 -0.2300 -0.5139
  352MPD2     C 5323   4.549   1.946   0.942  0.2441  0.1049 -0.0041
  352MPD2    C1 5324   4.448   1.883   0.871 -1.0215  0.0561 -0.0160
  352MPD2    C2 5325   4.477   1.748   0.838  0.6871 -0.1172  0.7809
  352MPD2    C3 5326   4.593   1.681   0.867 -0.4221  0.0619  0.1517
  352MPD2    C4 5327   4.690   1.746   0.937 -0.7265  0.3975  0.3657
  352MPD2    C5 5328   4.664   1.876   0.975 -1.3261 -0.9206  0.3836
  352MPD2     H 5329   4.400   1.697   0.781  1.2838  1.1969 -1.2231
  352MPD2    H1 5330   0.045   1.695   0.960 -0.7719  0.6845  1.2077
  352MPD2    H2 5331   4.539   2.048   0.977 -1.9408 -0.1429  0.0771
  352MPD2    H3 5332   4.735   1.937   1.030  0.0176 -1.6147 -0.5708
  352MPD2     N 5333   4.623   1.548   0.826 -1.0179 -0.1576 -0.3114
  352MPD2    H5 5334   4.711   1.508   0.857  0.1514  1.6238 -1.3268
  352MPD2    N1 5335   4.324   1.949   0.842  0.0801  0.1191  0.8537
  352MPD2    H7 5336   4.313   2.035   0.896 -2.6828  1.0235 -1.1128
  353TMC3    C1 5337   4.568   1.337   0.737 -0.4198  0.0973  0.5716
  353TMC3    C2 5338   4.699   1.294   0.771  0.0243 -0.0713 -0.0765
  353TMC3    C3 5339   4.726   1.160   0.772 -0.0745  0.5674  0.2157
  353TMC3    C4 5340   4.467   1.246   0.717  0.1017  0.3520 -0.3163
  353TMC3    C5 5341   4.501   1.112   0.734 -0.2081 -0.2230 -0.1596
  353TMC3    C6 5342   4.626   1.067   0.751  1.0389 -0.1117 -0.0232
  353TMC3     C 5343   4.530   1.475   0.749  0.0006 -0.5370 -0.2202
  353TMC3     O 5344   4.432   1.508   0.682  0.4317 -0.1578 -1.0536
  353TMC3     H 5345   0.038   1.368   0.787  0.1687 -0.2756  0.1851
  353TMC3    H1 5346   4.367   1.282   0.692  0.2703  0.9051 -0.1945
  353TMC3    H2 5347   4.638   0.962   0.775  1.9482  0.2547  1.1206
  353TMC3    C7 5348   4.408   1.003   0.701  0.4210  0.3568 -0.6587
  353TMC3    C8 5349   0.124   1.125   0.813 -0.4604 -0.0282 -0.3256
  353TMC3    O1 5350   4.458   0.903   0.649 -0.4964  0.0495 -0.3471
  353TMC3    O2 5351   0.212   1.213   0.835  0.1494 -0.2640  0.1570
  354TMC3    C1 5352   1.772   2.639  13.200  0.1322 -0.0703 -0.6932
  354TMC3    C2 5353   1.662   2.623  13.120  0.1135 -0.0326  0.5610
  354TMC3    C3 5354   1.675   2.594  12.989  0.7082  0.4077 -0.5181
  354TMC3    C4 5355   1.898   2.598  13.148 -0.3228  0.1391 -0.1910
  354TMC3    C5 5356   1.910   2.580  13.014  0.7447  0.1728 -0.5117
  354TMC3    C6 5357   1.799   2.570  12.930 -0.3617 -0.4481  0.9415
  354TMC3     C 5358   1.746   2.629  13.340 -0.3670  0.3195  0.3115
  354TMC3     O 5359   1.635   2.594  13.377 -0.1262 -0.1190  0.0945
  354TMC3     H 5360   1.567   2.653  13.162 -1.3374 -2.9575 -0.5935
  354TMC3    H1 5361   1.991   2.626  13.196 -1.8261  0.6684  2.4214
  354TMC3    H2 5362   1.810   2.537  12.828  0.0018  0.4359  0.7002
  354TMC3    C7 5363   2.027   2.638  12.946 -0.3588 -0.3453  0.1733
  354TMC3    C8 5364   1.584   2.660  12.899 -0.6650 -0.2414  0.0501
  354TMC3    O1 5365   2.121   2.653  13.026 -0.2555 -0.2989  0.2283
  354TMC3    O2 5366   1.635   2.710  12.803  0.8115 -0.7724 -0.2026
  355MPD2     C 5367   1.155   3.674  11.464  0.0304  0.0769 -0.0680
  355MPD2    C1 5368   1.264   3.732  11.419  1.0679 -0.2855 -0.6629
  355MPD2    C2 5369   1.385   3.674  11.469  0.0940 -0.2546  0.4533
  355MPD2    C3 5370   1.390   3.557  11.540 -0.0207 -0.8874  0.4945
  355MPD2    C4 5371   1.271   3.502  11.581 -0.2685  0.6873 -0.8047
  355MPD2    C5 5372   1.153   3.559  11.542  0.4386 -0.3816 -0.1735
  355MPD2     H 5373   1.476   3.720  11.432 -0.7901  0.7611 -0.4453
  355MPD2    H1 5374   1.262   3.414  11.643 -1.4285 -0.5227 -2.6697
  355MPD2    H2 5375   1.062   3.722  11.437 -0.6782 -0.2580  1.7696
  355MPD2    H3 5376   1.056   3.524  11.575 -0.1914  0.8648 -0.6930
  355MPD2     N 5377   1.516   3.497  11.582  0.2753 -0.7695  0.1940
  355MPD2    H5 5378   1.515   3.419  11.647 -0.9342 -1.7189 -0.9715
  355MPD2    N1 5379   1.250   3.843  11.333 -0.5545  0.0267 -0.2261
  355MPD2    H7 5380   1.162   3.894  11.333 -0.9971 -0.7478  0.2054
  356TMC3    C1 5381   1.755   3.474  11.616 -0.0272  0.9059 -0.4446
  356TMC3    C2 5382   1.876   3.499  11.556 -0.4739  0.3634  0.3789
  356TMC3    C3 5383   1.990   3.468  11.635 -0.8785 -0.1970 -0.0952
  356TMC3    C4 5384   1.746   3.439  11.750 -0.7714  0.2082 -0.1752
  356TMC3    C5 5385   1.865   3.418  11.818 -0.3632  0.4048 -0.0570
  356TMC3    C6 5386   1.987   3.423  11.761  0.1606 -0.0816  0.7494
  356TMC3     C 5387   1.643   3.540  11.551 -0.7071 -0.5527 -0.0120
  356TMC3     O 5388   1.667   3.608  11.451  0.4288  0.1954 -1.1089
  356TMC3     H 5389   1.879   3.535  11.454  2.5671 -0.1840  0.2759
  356TMC3    H1 5390   1.647   3.442  11.796 -0.6411  2.3298 -0.0715
  356TMC3    H2 5391   2.079   3.407  11.816 -0.0147 -0.7578  0.8442
  356TMC3    C7 5392   1.854   3.411  11.962  0.2559  0.6323 -0.5309
  356TMC3    C8 5393   2.122   3.497  11.571 -0.1975 -0.1222  0.1891
  356TMC3    O1 5394   1.740   3.407  12.003 -0.2006  0.7650 -0.3601
  356TMC3    O2 5395   2.194   3.398  11.549 -0.4527 -0.2196 -0.4161
  357MPD2     C 5396   1.093   3.271   0.491  0.6533  0.0642 -0.0991
  357MPD2    C1 5397   1.137   3.180   0.587  0.7645 -0.2043  0.0983
  357MPD2    C2 5398   1.051   3.077   0.630  0.1820  0.5439  0.2005
  357MPD2    C3 5399   0.920   3.076   0.587 -0.0415  0.5716 -0.2603
  357MPD2    C4 5400   0.873   3.177   0.503 -0.3682 -0.6911 -0.5927
  357MPD2    C5 5401   0.958   3.272   0.454  0.3208  0.4968  0.5403
  357MPD2     H 5402   1.076   3.001   0.703  0.9233  0.1242 -0.4812
  357MPD2    H1 5403   0.770   3.198   0.478 -0.2624 -0.5861 -0.9419
  357MPD2    H2 5404   1.161   3.340   0.441  1.0100 -0.9184 -0.9649
  357MPD2    H3 5405   0.916   3.344   0.385  0.8236 -0.6113 -0.9306
  357MPD2     N 5406   0.816   2.989   0.643  0.0418 -0.2481  0.0546
  357MPD2    H5 5407   0.728   2.992   0.594 -0.5002  0.4188  1.0735
  357MPD2    N1 5408   1.277   3.181   0.604 -0.1983  0.2559 -0.6734
  357MPD2    H7 5409   1.318   3.250   0.543 -0.1707 -0.5676 -1.5912
  358TMC3    C1 5410   1.490   3.114   0.686 -0.6496  0.8765 -0.0426
  358TMC3    C2 5411   1.537   3.127   0.559 -0.4172 -0.1107 -0.2562
  358TMC3    C3 5412   1.667   3.084   0.537 -0.6932  0.4735  0.8195
  358TMC3    C4 5413   1.559   3.060   0.790  0.1925 -0.4528  0.3843
  358TMC3    C5 5414   1.686   3.019   0.757  0.9135 -0.7607 -0.0513
  358TMC3    C6 5415   1.739   3.027   0.630 -0.4552  0.2520  0.3905
  358TMC3     C 5416   1.346   3.106   0.697 -0.4278 -0.2752 -0.4464
  358TMC3     O 5417   1.298   3.046   0.795 -0.2389 -0.0595  0.1055
  358TMC3     H 5418   1.490   3.188   0.483 -2.6350  0.5567  1.6268
  358TMC3    H1 5419   1.514   3.051   0.888  0.4996 -1.1619  0.4553
  358TMC3    H2 5420   1.844   3.012   0.609 -0.6624  1.4087 -1.5093
  358TMC3    C7 5421   1.775   2.995   0.872  0.3501  0.0306  0.7930
  358TMC3    C8 5422   1.671   3.013   0.412 -0.6633  0.2842 -0.7492
  358TMC3    O1 5423   1.894   3.003   0.843  0.9636  0.2622  0.6082
  358TMC3    O2 5424   1.608   3.056   0.315 -0.3484 -0.2562 -0.3406
  359MPD2     C 5425   1.664   2.402  12.100  0.4175  0.4864  0.1905
  359MPD2    C1 5426   1.717   2.340  11.986 -0.2616 -0.2137 -0.5763
  359MPD2    C2 5427   1.662   2.222  11.942  0.2482  0.8364 -0.1709
  359MPD2    C3 5428   1.564   2.156  12.013  0.1651  0.0505  0.0102
  359MPD2    C4 5429   1.520   2.216  12.137 -0.2758 -0.1334  0.2912
  359MPD2    C5 5430   1.564   2.339  12.173 -0.2694 -0.6801  1.2704
  359MPD2     H 5431   1.695   2.176  11.849  0.9575  0.8345  0.0878
  359MPD2    H1 5432   1.439   2.179  12.198  0.6068 -0.0282  1.5280
  359MPD2    H2 5433   1.700   2.503  12.121 -1.5405  0.6482  2.8590
  359MPD2    H3 5434   1.520   2.381  12.263  0.3641 -1.5056  1.9624
  359MPD2     N 5435   1.489   2.048  11.954  0.2952 -0.3472 -0.1428
  359MPD2    H5 5436   1.421   1.999  12.011 -0.4158  0.6517 -0.1221
  359MPD2    N1 5437   1.810   2.410  11.902  0.3930 -0.7724  0.0855
  359MPD2    H7 5438   1.832   2.353  11.821 -1.2893  0.1573 -1.0270
  360TMC3    C1 5439   1.991   2.520  11.842 -0.4218 -0.5377 -0.0436
  360TMC3    C2 5440   2.104   2.566  11.900 -1.0890 -0.0489  0.0525
  360TMC3    C3 5441   2.218   2.517  11.857 -0.1367  0.3079 -0.0268
  360TMC3    C4 5442   1.983   2.445  11.730  0.0147  0.4464 -0.2017
  360TMC3    C5 5443   2.102   2.398  11.684  0.0850 -0.3182  0.3723
  360TMC3    C6 5444   2.220   2.432  11.747  0.2542 -0.6311 -0.4662
  360TMC3     C 5445   1.884   2.518  11.935  0.2073  0.4366  0.0577
  360TMC3     O 5446   1.877   2.598  12.027 -0.6461 -0.1432  0.0370
  360TMC3     H 5447   2.106   2.602  12.002  0.5960 -3.5550  1.2708
  360TMC3    H1 5448   1.888   2.438  11.679  1.6718 -0.9213 -3.0911
  360TMC3    H2 5449   2.313   2.403  11.700  1.8963  0.3463  2.2309
  360TMC3    C7 5450   2.105   2.368  11.541  0.3077  0.4330  0.4180
  360TMC3    C8 5451   2.344   2.574  11.917  0.4032  0.3275  0.3205
  360TMC3    O1 5452   2.205   2.405  11.479  0.3064 -0.2187 -0.0685
  360TMC3    O2 5453   2.340   2.673  11.987  0.0811  0.0528  0.0408
  361MPD2     C 5454   3.784   1.493  16.297  0.3659 -0.5413  0.6431
  361MPD2    C1 5455   3.758   1.444  16.430  0.2901 -0.4798 -0.5284
  361MPD2    C2 5456   3.847   1.357  16.491  0.4811 -0.2715  0.4197
  361MPD2    C3 5457   3.966   1.329  16.431 -0.0760 -0.0840  0.3845
  361MPD2    C4 5458   3.999   1.378  16.309  0.6022 -0.0956  1.0372
  361MPD2    C5 5459   3.910   1.463  16.245  0.4690  0.3701 -0.1960
  361MPD2     H 5460   3.816   1.317  16.586  3.7042  0.4799  1.7931
  361MPD2    H1 5461   4.090   1.355  16.255  0.9505  0.0694  1.5571
  361MPD2    H2 5462   3.716   1.559  16.244  1.2480 -1.1829 -1.2838
  361MPD2    H3 5463   3.922   1.491  16.141  0.9423 -1.9181 -0.7511
  361MPD2     N 5464   4.061   1.241  16.491 -0.0348 -0.2164 -0.0003
  361MPD2    H5 5465   4.121   1.188  16.429  1.3334  0.6378  0.6063
  361MPD2    N1 5466   3.623   1.458  16.468  1.1419  0.2769 -0.2123
  361MPD2    H7 5467   3.561   1.508  16.405 -0.5413 -1.7483 -0.1633
  362TMC3    C1 5468   3.419   1.440  16.581  0.3527 -0.2800  0.3780
  362TMC3    C2 5469   3.345   1.398  16.693 -0.3583 -0.0709  0.0407
  362TMC3    C3 5470   3.210   1.433  16.689 -0.2851  0.0360 -0.6840
  362TMC3    C4 5471   3.365   1.520  16.484  0.6567  0.3470  0.1415
  362TMC3    C5 5472   3.232   1.543  16.488 -0.5472  0.1474 -0.4246
  362TMC3    C6 5473   3.149   1.510  16.596 -0.2948 -0.5670  0.1627
  362TMC3     C 5474   3.566   1.409  16.579  0.0242 -0.2192 -0.8189
  362TMC3     O 5475   3.607   1.345  16.676  0.2474  0.0206 -0.3317
  362TMC3     H 5476   3.384   1.328  16.765  1.3766  1.1730  0.3166
  362TMC3    H1 5477   3.417   1.569  16.403  1.9069 -0.2048  0.6092
  362TMC3    H2 5478   3.044   1.537  16.589  0.6090  2.3089 -2.1077
  362TMC3    C7 5479   3.165   1.607  16.380 -0.0473  0.6018 -0.2594
  362TMC3    C8 5480   3.118   1.372  16.782 -0.5161  1.1535 -0.3759
  362TMC3    O1 5481   3.084   1.688  16.411  0.3271  0.0241 -0.1945
  362TMC3    O2 5482   3.130   1.252  16.809 -0.0076  0.1742  0.4290
  363TMC3    C1 5483   1.582   3.045   8.957  0.7625 -0.0076  0.4507
  363TMC3    C2 5484   1.693   3.069   9.029 -0.1882  0.5156 -0.2213
  363TMC3    C3 5485   1.700   3.196   9.074 -0.1667 -0.3581 -0.7692
  363TMC3    C4 5486   1.476   3.132   8.931 -0.2966 -0.4108  0.0781
  363TMC3    C5 5487   1.496   3.256   8.972 -0.3476  0.5712 -0.7561
  363TMC3    C6 5488   1.610   3.289   9.041 -0.0233 -0.2784 -0.6685
  363TMC3     C 5489   1.568   2.914   8.907 -0.1993  0.0802 -0.0507
  363TMC3     O 5490   1.673   2.872   8.865 -0.2931  0.0162 -0.0620
  363TMC3     H 5491   1.758   2.990   9.064 -0.8350 -0.1117 -0.4441
  363TMC3    H1 5492   1.396   3.101   8.864 -1.3021  0.7340  0.7419
  363TMC3    H2 5493   1.623   3.391   9.076 -0.5381 -0.1403 -0.8831
  363TMC3    C7 5494   1.394   3.360   8.968 -0.0421  0.1263  0.2903
  363TMC3    C8 5495   1.820   3.245   9.148 -0.4470  1.0083  0.2274
  363TMC3    O1 5496   1.403   3.459   9.039  0.9893  0.3070  0.0470
  363TMC3    O2 5497   1.840   3.368   9.140  0.3364 -0.1084  0.1195
  364MPD2     C 5498   0.948   3.321  10.888 -0.0448 -0.9785 -0.3280
  364MPD2    C1 5499   0.941   3.319  10.753  0.0834 -0.0733 -0.3422
  364MPD2    C2 5500   0.974   3.200  10.692  0.3118  0.0738  0.8553
  364MPD2    C3 5501   1.007   3.094  10.768 -0.1176 -0.9715 -0.2486
  364MPD2    C4 5502   1.010   3.102  10.905 -0.2374  0.0860  0.2840
  364MPD2    C5 5503   0.971   3.217  10.962 -0.1717  0.4360 -0.3578
  364MPD2     H 5504   0.975   3.189  10.585  1.6992 -0.2275  0.8932
  364MPD2    H1 5505   1.031   3.026  10.979  0.5389 -0.3610 -0.4039
  364MPD2    H2 5506   0.944   3.416  10.939 -0.9167 -0.4425 -1.4036
  364MPD2    H3 5507   0.973   3.219  11.070 -2.3242 -1.7467 -0.2965
  364MPD2     N 5508   1.065   2.975  10.714 -0.5112 -0.1401  0.0355
  364MPD2    H5 5509   1.107   2.910  10.779  1.8699  0.1974 -1.1525
  364MPD2    N1 5510   0.915   3.444  10.686  0.8384  0.1798 -0.1969
  364MPD2    H7 5511   0.880   3.517  10.748 -0.5966  0.2193 -1.0458
  365TMC3    C1 5512   0.903   3.602  10.503  0.6079 -0.0729  0.0022
  365TMC3    C2 5513   0.955   3.658  10.392 -0.0414 -0.5842  0.6509
  365TMC3    C3 5514   0.946   3.794  10.372  0.7596 -0.2027  0.2128
  365TMC3    C4 5515   0.823   3.676  10.586 -0.7611  0.3867  0.4250
  365TMC3    C5 5516   0.802   3.805  10.554  0.3518  0.5729  0.0826
  365TMC3    C6 5517   0.859   3.861  10.448 -0.3127  0.2830 -0.3885
  365TMC3     C 5518   0.939   3.465  10.555 -0.4442 -0.5677 -0.4643
  365TMC3     O 5519   1.005   3.398  10.476  0.9674  0.4117  0.2204
  365TMC3     H 5520   1.014   3.593  10.329  1.4235 -0.2984  1.7359
  365TMC3    H1 5521   0.778   3.638  10.677  0.5844  1.5749  1.5906
  365TMC3    H2 5522   0.837   3.967  10.438  0.7529  0.7255  2.0247
  365TMC3    C7 5523   0.709   3.879  10.633 -0.0235 -0.7621  0.3671
  365TMC3    C8 5524   1.025   3.862  10.271 -1.0403 -0.0385  0.0331
  365TMC3    O1 5525   0.746   3.994  10.662  0.2773 -0.5967  0.3144
  365TMC3    O2 5526   0.985   3.970  10.232  0.2441  0.7006 -0.0578
  366MPD2     C 5527   4.081   4.082  15.315 -0.3254 -0.0043 -0.9230
  366MPD2    C1 5528   4.174   4.179  15.291  0.5894 -0.4109  0.4239
  366MPD2    C2 5529   4.297   4.139  15.248  0.5494 -0.8779 -0.4417
  366MPD2    C3 5530   4.327   4.007  15.217 -0.2208  0.1587 -0.5436
  366MPD2    C4 5531   4.234   3.914  15.243  0.0132 -0.1477  0.9381
  366MPD2    C5 5532   4.116   3.950  15.293  0.0307  0.3860 -0.1687
  366MPD2     H 5533   4.371   4.217  15.242  0.2105 -0.4047  1.3679
  366MPD2    H1 5534   4.251   3.807  15.236  2.0116  0.3308 -1.5797
  366MPD2    H2 5535   3.980   4.101  15.349 -0.4498 -0.0198 -1.2808
  366MPD2    H3 5536   4.041   3.874  15.313 -0.8091  0.6465 -2.2748
  366MPD2     N 5537   4.454   3.962  15.179  0.4057 -0.2572 -1.0753
  366MPD2    H5 5538   4.465   3.872  15.133 -0.4675 -0.8051 -0.2174
  366MPD2    N1 5539   4.147   4.321  15.295  0.0589 -0.4466 -0.2324
  366MPD2    H7 5540   4.230   4.372  15.268 -0.7525  1.0362  0.0942
  367TMC3    C1 5541   4.029   4.528  15.297  1.0425 -0.1865 -0.0705
  367TMC3    C2 5542   4.122   4.598  15.372  0.0981 -0.1089 -0.2801
  367TMC3    C3 5543   4.151   4.720  15.327  0.6389 -0.0840 -0.6576
  367TMC3    C4 5544   3.971   4.580  15.186 -0.2801  0.5663 -0.8457
  367TMC3    C5 5545   3.989   4.706  15.151 -0.1517  0.3611 -0.5037
  367TMC3    C6 5546   4.087   0.036  15.215  0.4376 -0.2982  0.2671
  367TMC3     C 5547   4.028   4.384  15.316  0.0774  0.8564 -0.4659
  367TMC3     O 5548   3.913   4.338  15.301  0.1366  0.4423  0.0010
  367TMC3     H 5549   4.171   4.536  15.446  2.0711  2.8321  0.8789
  367TMC3    H1 5550   3.899   4.516  15.137  1.3777 -0.6211 -1.6926
  367TMC3    H2 5551   4.111   0.138  15.186  0.3069 -1.4008 -3.6888
  367TMC3    C7 5552   3.932   0.022  15.025  0.2805  0.3223  0.4305
  367TMC3    C8 5553   4.281   0.031  15.375 -0.3349  0.6223 -0.1680
  367TMC3    O1 5554   3.902   0.138  15.039 -0.0008  0.1197 -0.8484
  367TMC3    O2 5555   4.329   4.712  15.472 -0.5266 -0.1622 -0.3712
  368MPD2     C 5556   0.937   1.510  13.251 -0.3132  0.2107  0.6946
  368MPD2    C1 5557   0.922   1.569  13.128 -0.8564  0.5063  0.2312
  368MPD2    C2 5558   1.030   1.629  13.067 -0.1954 -0.2513  0.3972
  368MPD2    C3 5559   1.160   1.603  13.122 -0.3531 -0.2608  0.3757
  368MPD2    C4 5560   1.174   1.526  13.235 -0.1067  0.2909  0.4216
  368MPD2    C5 5561   1.060   1.485  13.303  0.1739 -0.0257 -0.3996
  368MPD2     H 5562   1.012   1.699  12.986  2.5535  2.0237  1.7503
  368MPD2    H1 5563   1.273   1.501  13.269  0.4430 -0.9677 -2.1449
  368MPD2    H2 5564   0.853   1.482  13.314 -0.6353 -1.8093 -0.6258
  368MPD2    H3 5565   1.081   1.445  13.402  0.9452  1.7718  0.1658
  368MPD2     N 5566   1.274   1.651  13.061 -0.1108  0.3284  0.2964
  368MPD2    H5 5567   1.360   1.617  13.103 -0.5187  0.3055  1.1183
  368MPD2    N1 5568   0.795   1.587  13.079  0.5733  0.7114  0.2617
  368MPD2    H7 5569   0.714   1.564  13.135  1.1319 -0.6921  0.4987
  369TMC3    C1 5570   0.620   1.692  12.940 -0.7192 -0.9329 -0.0046
  369TMC3    C2 5571   0.591   1.772  12.834 -0.0277 -0.0813 -0.6895
  369TMC3    C3 5572   0.456   1.806  12.816 -0.1857 -0.1014  0.2157
  369TMC3    C4 5573   0.524   1.625  13.006  0.5117 -0.3508 -0.1978
  369TMC3    C5 5574   0.396   1.646  12.978 -0.1822 -0.5313 -0.0989
  369TMC3    C6 5575   0.355   1.736  12.887 -0.6689 -0.0593  0.2600
  369TMC3     C 5576   0.763   1.648  12.958 -0.1199 -0.2293  0.8008
  369TMC3     O 5577   0.836   1.698  12.872  0.4275  0.4569 -0.0444
  369TMC3     H 5578   0.671   1.816  12.775 -0.5529  1.6438 -0.1179
  369TMC3    H1 5579   0.553   1.549  13.078  0.2910  1.0447  1.3702
  369TMC3    H2 5580   0.252   1.760  12.863 -0.8850 -0.2907  0.9724
  369TMC3    C7 5581   0.297   1.567  13.046 -0.5579  0.0672  0.2954
  369TMC3    C8 5582   0.425   1.934  12.753 -1.0373 -0.7754 -0.3084
  369TMC3    O1 5583   0.328   1.534  13.163  0.3965  0.6982 -0.2622
  369TMC3    O2 5584   0.310   1.954  12.717 -0.7230 -0.4120  0.5347
  370TMC3    C1 5585   0.216   1.971  16.295  1.2369  0.3406 -0.1255
  370TMC3    C2 5586   0.130   1.883  16.351 -0.1800 -0.0640  0.0639
  370TMC3    C3 5587   0.112   1.759  16.291  0.2343 -0.0508 -0.1608
  370TMC3    C4 5588   0.292   1.939  16.184 -0.1690  0.5339 -0.4825
  370TMC3    C5 5589   0.271   1.814  16.130 -0.0026  0.4313 -0.1596
  370TMC3    C6 5590   0.175   1.733  16.174 -0.1616  0.3022  0.3872
  370TMC3     C 5591   0.261   2.076  16.390  0.1991 -0.5819 -0.3049
  370TMC3     O 5592   0.238   2.061  16.508 -0.3693 -0.4860 -0.1476
  370TMC3     H 5593   0.069   1.912  16.436 -1.8981 -2.9926 -0.1574
  370TMC3    H1 5594   0.362   2.018  16.159  0.7111  0.5077  1.8909
  370TMC3    H2 5595   0.146   1.642  16.123  5.0291  0.2122 -2.4859
  370TMC3    C7 5596   0.352   1.769  16.011 -0.5573 -0.6394  0.2451
  370TMC3    C8 5597   0.114   1.637  16.385 -0.2460  0.7100  0.6531
  370TMC3    O1 5598   0.406   1.862  15.955 -0.0592  0.0384 -0.5905
  370TMC3    O2 5599   0.125   1.522  16.348 -0.1113 -0.1650  0.0796
  371TMC3    C1 5600   1.533   0.198  15.324 -0.0925 -0.2333  0.6610
  371TMC3    C2 5601   1.408   0.178  15.373  0.6515  0.4739  0.3652
  371TMC3    C3 5602   1.346   0.291  15.409  0.5223 -0.0830  0.6482
  371TMC3    C4 5603   1.587   0.318  15.290  0.7214 -0.3566  0.0176
  371TMC3    C5 5604   1.511   0.425  15.314 -0.6202 -0.0816  0.3798
  371TMC3    C6 5605   1.397   0.413  15.380  0.5709  0.2470  0.6326
  371TMC3     C 5606   1.632   0.088  15.322  0.3456  0.0794 -0.3974
  371TMC3     O 5607   1.731   0.095  15.249 -0.1766  0.5821 -0.1521
  371TMC3     H 5608   1.363   0.080  15.386  1.4551 -0.0838 -1.0112
  371TMC3    H1 5609   1.682   0.326  15.239  1.5137  0.1696  1.6034
  371TMC3    H2 5610   1.343   0.501  15.414  2.4491  1.1454  1.3270
  371TMC3    C7 5611   1.571   0.560  15.305 -0.0378 -0.5850 -0.5639
  371TMC3    C8 5612   1.227   0.281  15.493 -1.0777  0.2074  0.3607
  371TMC3    O1 5613   1.520   0.648  15.373 -0.0745  0.3996  0.0447
  371TMC3    O2 5614   1.193   0.167  15.521 -0.0762 -0.0764  0.3911
  372MPD2     C 5615   0.992   1.952  13.181  0.4232 -0.5011 -0.9976
  372MPD2    C1 5616   1.033   1.915  13.300 -0.5560  0.1934 -0.9122
  372MPD2    C2 5617   0.943   1.858  13.389  0.3846  0.1206  0.0891
  372MPD2    C3 5618   0.817   1.824  13.347 -0.4499  0.3511  0.0578
  372MPD2    C4 5619   0.774   1.863  13.222  0.0261 -0.3277 -0.2461
  372MPD2    C5 5620   0.864   1.928  13.140  0.3895  0.5451  0.5872
  372MPD2     H 5621   0.978   1.835  13.489 -0.8054  0.5778  0.6257
  372MPD2    H1 5622   0.676   1.828  13.188 -0.1290  0.0866 -0.2207
  372MPD2    H2 5623   1.059   1.991  13.105 -0.1666  0.2228 -1.1486
  372MPD2    H3 5624   0.830   1.964  13.043  2.0035  1.0368  0.2073
  372MPD2     N 5625   0.742   1.741  13.436  0.4138  0.2221 -0.6513
  372MPD2    H5 5626   0.791   1.698  13.514  0.3613  1.2080 -0.0665
  372MPD2    N1 5627   1.160   1.928  13.351 -0.2223  0.5127  0.2424
  372MPD2    H7 5628   1.174   1.874  13.436  0.4538 -2.5341 -1.8283
  373TMC3    C1 5629   0.587   1.578  13.503  0.1747 -0.2225  0.2068
  373TMC3    C2 5630   0.617   1.607  13.635 -0.4533  0.3446 -0.4849
  373TMC3    C3 5631   0.609   1.501  13.726  0.3213 -0.7681  0.4282
  373TMC3    C4 5632   0.541   1.448  13.465  0.1360  0.0177 -0.1353
  373TMC3    C5 5633   0.531   1.350  13.563  0.1213  0.5182 -0.0085
  373TMC3    C6 5634   0.577   1.373  13.692 -0.7420 -0.5070 -0.3638
  373TMC3     C 5635   0.637   1.667  13.396 -0.1220 -0.0167  0.3559
  373TMC3     O 5636   0.579   1.654  13.290  0.0266  0.2736  0.3115
  373TMC3     H 5637   0.659   1.705  13.654  0.2733  0.3227 -1.9516
  373TMC3    H1 5638   0.515   1.428  13.362 -0.1975 -2.3014  0.3889
  373TMC3    H2 5639   0.569   1.301  13.772  0.2870 -0.9093 -0.6198
  373TMC3    C7 5640   0.545   1.216  13.520 -0.9564 -0.0656 -0.3798
  373TMC3    C8 5641   0.670   1.522  13.850 -0.1580 -0.0550 -0.3200
  373TMC3    O1 5642   0.555   1.192  13.396  0.7120 -0.0139 -0.2220
  373TMC3    O2 5643   0.671   1.633  13.897 -0.0364  0.3868 -1.0585
  374TMC3    C1 5644   0.978   1.931   9.945  0.0989 -0.1226  0.2785
  374TMC3    C2 5645   1.078   2.025   9.966  0.2764  0.4167 -0.1447
  374TMC3    C3 5646   1.100   2.119   9.865  0.1268 -0.4231  0.1435
  374TMC3    C4 5647   0.917   1.918   9.821  0.3022 -0.3586 -0.6465
  374TMC3    C5 5648   0.955   2.006   9.725  0.8267  0.1905 -1.1838
  374TMC3    C6 5649   1.034   2.115   9.742  0.2177 -0.5063 -0.1005
  374TMC3     C 5650   0.933   1.854  10.058  0.1192 -0.0180 -0.4243
  374TMC3     O 5651   0.866   1.764  10.022 -0.0201 -0.2470  0.4342
  374TMC3     H 5652   1.131   2.028  10.060 -1.0727 -0.2667  0.6399
  374TMC3    H1 5653   0.842   1.841   9.806  0.2558 -0.6966  1.3733
  374TMC3    H2 5654   1.071   2.171   9.657  0.5815 -0.0427  0.3687
  374TMC3    C7 5655   0.943   1.972   9.579 -0.3460  0.2595 -0.2477
  374TMC3    C8 5656   1.215   2.207   9.878  0.2578  0.2466 -0.8329
  374TMC3    O1 5657   0.967   2.061   9.498  0.2347 -0.4053 -0.5002
  374TMC3    O2 5658   1.215   2.303   9.808  0.2750  0.2860 -0.5320
  375MPD2     C 5659   1.610   1.848  16.938 -0.4485  0.4991  0.2046
  375MPD2    C1 5660   1.532   1.920  16.845 -0.7741  0.3024  0.6804
  375MPD2    C2 5661   1.557   1.905  16.711 -0.6922 -0.3850 -0.4071
  375MPD2    C3 5662   1.672   1.836  16.661 -0.2650 -0.5301 -0.6854
  375MPD2    C4 5663   1.755   1.780  16.756  0.3177 -0.0990 -0.0964
  375MPD2    C5 5664   1.718   1.784  16.889 -0.0577  0.2142  0.2526
  375MPD2     H 5665   1.485   1.951  16.645  0.2789  2.3039  0.3612
  375MPD2    H1 5666   1.850   1.738  16.727  1.8722  2.2671  1.6238
  375MPD2    H2 5667   1.599   1.853  17.046  3.3380 -0.3738  0.6230
  375MPD2    H3 5668   1.792   1.742  16.955  0.0262 -1.0124 -0.6053
  375MPD2     N 5669   1.699   1.829  16.523 -0.3623 -0.2292 -0.5537
  375MPD2    H5 5670   1.786   1.783  16.499 -0.0917 -1.1760  2.1735
  375MPD2    N1 5671   1.423   2.003  16.875  0.4606  0.5440  0.4019
  375MPD2    H7 5672   1.387   2.060  16.799 -2.2335  0.6690  1.7474
  376TMC3    C1 5673   1.669   1.851  16.296 -0.4808  0.2326  0.0054
  376TMC3    C2 5674   1.798   1.831  16.273 -0.0630  0.0950 -0.0340
  376TMC3    C3 5675   1.842   1.823  16.146  1.0304 -0.4691  0.7695
  376TMC3    C4 5676   1.591   1.893  16.194  0.0576  0.5137 -0.3066
  376TMC3    C5 5677   1.639   1.894  16.065 -0.2703 -0.0179  0.0250
  376TMC3    C6 5678   1.763   1.850  16.035 -0.7273  0.4376 -0.5216
  376TMC3     C 5679   1.620   1.884  16.426  0.1363  0.8855  0.3842
  376TMC3     O 5680   1.512   1.940  16.423 -0.1455  0.0304 -0.5114
  376TMC3     H 5681   1.870   1.800  16.349  1.2336  0.9196 -0.9287
  376TMC3    H1 5682   1.488   1.922  16.215  0.0592  1.2987 -1.3450
  376TMC3    H2 5683   1.812   1.853  15.939  0.4176 -2.7975 -0.0326
  376TMC3    C7 5684   1.569   1.979  15.973  0.0028  0.4930  0.3102
  376TMC3    C8 5685   1.976   1.761  16.124  0.5975 -0.1301 -0.4407
  376TMC3    O1 5686   1.470   2.034  16.017 -0.5606  0.2797 -0.0427
  376TMC3    O2 5687   2.070   1.788  16.198  0.6595  0.1380 -0.7609
  377MPD2     C 5688   0.078   1.885  12.955 -0.1353  0.4270  0.3017
  377MPD2    C1 5689   4.719   1.814  12.883  0.4937  0.2715  0.3453
  377MPD2    C2 5690   4.628   1.726  12.937  0.2679 -0.3553 -0.3276
  377MPD2    C3 5691   4.630   1.704  13.076 -0.2344  0.0738  0.1600
  377MPD2    C4 5692   4.725   1.777  13.147  0.0695 -0.3328  0.1704
  377MPD2    C5 5693   0.074   1.865  13.089  0.4996  0.9088 -0.0633
  377MPD2     H 5694   4.550   1.671  12.884  1.0126 -2.1308  0.4249
  377MPD2    H1 5695   4.734   1.768  13.255  1.8399 -0.6377  0.0047
  377MPD2    H2 5696   0.155   1.944  12.908  0.1336 -2.2376 -2.6326
  377MPD2    H3 5697   0.141   1.921  13.153  0.7298  0.4903  0.0586
  377MPD2     N 5698   4.538   1.622  13.149 -0.5235 -0.4325  0.0902
  377MPD2    H5 5699   4.561   1.600  13.245  0.4559 -0.5555 -0.1691
  377MPD2    N1 5700   4.727   1.836  12.741  0.3713 -0.6346  0.5868
  377MPD2    H7 5701   0.077   1.870  12.705  0.7063 -0.8566  1.2059
  378TMC3    C1 5702   4.633   1.797  12.293  0.2185 -0.3530  0.1905
  378TMC3    C2 5703   4.588   1.808  12.417 -0.7872 -0.4668 -0.7992
  378TMC3    C3 5704   4.674   1.845  12.517 -0.0556  0.3971  0.4494
  378TMC3    C4 5705   0.023   1.830  12.265 -0.0790 -0.2648 -0.3507
  378TMC3    C5 5706   0.102   1.877  12.366 -0.6053  0.1614 -0.4589
  378TMC3    C6 5707   0.062   1.885  12.493  0.4918 -0.0036 -0.1696
  378TMC3     C 5708   4.534   1.786  12.187  0.5253 -0.0091 -0.1179
  378TMC3     O 5709   4.419   1.755  12.221 -0.4632  0.1087  0.0620
  378TMC3     H 5710   4.492   1.765  12.444 -0.2976 -1.5880 -0.8229
  378TMC3    H1 5711   0.071   1.790  12.176  1.1665  2.1694 -0.7678
  378TMC3    H2 5712   0.129   1.924  12.569  0.3416  1.1264 -0.6112
  378TMC3    C7 5713   0.245   1.875  12.348 -0.5073  1.0132  0.7004
  378TMC3    C8 5714   4.626   1.822  12.649  0.0698  0.3051 -0.6771
  378TMC3    O1 5715   0.314   1.848  12.450 -0.1257  0.1883 -0.6301
  378TMC3    O2 5716   4.508   1.793  12.663  0.0798  0.0024  0.6058
  379MPD2     C 5717   0.752   0.004  15.804 -0.1388  0.1897  0.0715
  379MPD2    C1 5718   0.638   4.685  15.855 -0.1771 -0.8608  0.5783
  379MPD2    C2 5719   0.651   4.617  15.977 -0.0197  0.5329  0.0087
  379MPD2    C3 5720   0.774   4.593  16.040  0.1354 -0.2574  0.3870
  379MPD2    C4 5721   0.888   4.651  15.984  0.6073 -0.3083 -0.5068
  379MPD2    C5 5722   0.873   4.725  15.873 -0.0810 -0.1291  0.3165
  379MPD2     H 5723   0.559   4.580  16.021  0.7386 -0.0153  1.1482
  379MPD2    H1 5724   0.988   4.647  16.027  0.2925 -1.3366  0.1530
  379MPD2    H2 5725   0.756   0.043  15.703 -4.2368  0.3392 -0.0176
  379MPD2    H3 5726   0.959   0.031  15.823 -0.3216  1.0572  0.9670
  379MPD2     N 5727   0.784   4.523  16.162 -0.2995  0.6423  0.1396
  379MPD2    H5 5728   0.880   4.512  16.193  0.5417  3.3654 -1.4692
  379MPD2    N1 5729   0.519   4.697  15.777 -0.6817  0.4612  0.2144
  379MPD2    H7 5730   0.528   0.007  15.689  0.8685 -1.0227 -0.4320
  380TMC3    C1 5731   0.326   4.611  15.689  0.4867 -0.0964  0.1222
  380TMC3    C2 5732   0.392   4.533  15.598 -0.7958  0.3190  0.0185
  380TMC3    C3 5733   0.390   4.562  15.462 -0.2162  0.0116  0.1444
  380TMC3    C4 5734   0.252   4.718  15.649  0.4169 -0.0204 -0.2083
  380TMC3    C5 5735   0.249   0.002  15.516  0.0059  0.7098  0.4009
  380TMC3    C6 5736   0.319   4.672  15.422  0.0441 -0.3257 -0.8947
  380TMC3     C 5737   0.405   4.627  15.804 -0.2277  0.1025  0.2900
  380TMC3     O 5738   0.360   4.574  15.908  0.1289 -0.1269  0.4085
  380TMC3     H 5739   0.457   4.459  15.643 -1.3479  0.0957  0.4457
  380TMC3    H1 5740   0.196   0.040  15.719 -1.6709 -1.7627 -0.3581
  380TMC3    H2 5741   0.322   4.705  15.319 -0.3889 -0.0572 -0.8197
  380TMC3    C7 5742   0.188   0.117  15.463 -0.2258 -0.1919  0.4171
  380TMC3    C8 5743   0.516   4.562  15.394  0.0715  0.2931 -0.2135
  380TMC3    O1 5744   0.257   0.201  15.406  0.1833 -0.0688  0.7065
  380TMC3    O2 5745   0.523   4.592  15.274 -0.1570 -0.2110 -0.3583
  381TMC3    C1 5746   0.313   0.848  16.118  0.0811  0.8464  0.0997
  381TMC3    C2 5747   0.396   0.951  16.153 -0.1730  0.9719  0.5882
  381TMC3    C3 5748   0.356   1.058  16.218  0.4816  0.2532 -0.0367
  381TMC3    C4 5749   0.178   0.858  16.142 -0.3336  0.2719  0.5809
  381TMC3    C5 5750   0.138   0.983  16.190  0.2586 -0.2951 -0.5824
  381TMC3    C6 5751   0.226   1.084  16.228  0.1022  0.4605  0.1976
  381TMC3     C 5752   0.362   0.740  16.031 -0.3016  0.2289 -0.5533
  381TMC3     O 5753   0.485   0.722  16.030  0.1984  0.2614  0.7116
  381TMC3     H 5754   0.502   0.934  16.139 -0.3720  0.0031  0.2518
  381TMC3    H1 5755   0.118   0.769  16.130 -1.2814  0.8962  0.7361
  381TMC3    H2 5756   0.195   1.187  16.246  0.2152  0.6485 -0.7016
  381TMC3    C7 5757   0.017   0.979  16.264  0.1085  0.3191  0.9005
  381TMC3    C8 5758   0.444   1.177  16.209  0.5251 -1.1678  0.3349
  381TMC3    O1 5759   4.693   0.874  16.270 -0.2499 -0.2413 -0.0651
  381TMC3    O2 5760   0.527   1.179  16.113 -0.0294  0.5518 -0.1870
  382MPD2     C 5761   3.967   3.779  16.533 -0.1518  0.7531  0.2261
  382MPD2    C1 5762   3.997   3.777  16.671 -0.1210  0.9619  0.4104
  382MPD2    C2 5763   3.980   3.658  16.741  0.0922  0.8248  0.5959
  382MPD2    C3 5764   3.939   3.537  16.675 -0.5029  0.1432  0.4475
  382MPD2    C4 5765   3.914   3.537  16.541  0.1331  0.5226 -1.2175
  382MPD2    C5 5766   3.933   3.660  16.476  0.5006 -0.0154 -0.9938
  382MPD2     H 5767   3.982   3.660  16.849  3.0786  1.2834  0.5241
  382MPD2    H1 5768   3.874   3.453  16.486 -0.1713  0.1871 -0.4930
  382MPD2    H2 5769   3.975   3.867  16.470  0.6565 -1.8493 -3.3032
  382MPD2    H3 5770   3.921   3.649  16.369  0.1689 -2.9642 -0.6479
  382MPD2     N 5771   3.913   3.418  16.744 -0.3492  0.5276  0.0956
  382MPD2    H5 5772   3.871   3.345  16.686  0.8806  0.1199 -0.2903
  382MPD2    N1 5773   4.045   3.888  16.748 -0.2947 -0.2618  0.7615
  382MPD2    H7 5774   4.046   3.885  16.849 -1.8809  0.0312  0.7838
  383TMC3    C1 5775   3.933   3.261  16.924  0.7520 -0.1145 -0.9972
  383TMC3    C2 5776   3.812   3.203  16.906 -0.4793  0.5602  0.1777
  383TMC3    C3 5777   3.767   3.106  16.996  0.7362  0.3291  0.1489
  383TMC3    C4 5778   4.014   3.230  17.029 -0.6070  0.1767  0.7606
  383TMC3    C5 5779   3.961   3.137  17.119 -1.2205 -1.2313  0.2105
  383TMC3    C6 5780   3.840   3.075  17.109 -0.7891  0.2240  0.0018
  383TMC3     C 5781   3.967   3.387  16.866  0.0068  0.5704 -0.7393
  383TMC3     O 5782   4.049   3.456  16.932  0.4892 -0.3188 -0.2397
  383TMC3     H 5783   3.754   3.229  16.818  1.5561  0.9514 -1.0597
  383TMC3    H1 5784   4.104   3.284  17.057 -2.4534  2.7912  1.6406
  383TMC3    H2 5785   3.811   2.997  17.178  1.0309 -0.1228  0.3855
  383TMC3    C7 5786   4.044   3.113  17.234 -0.0784 -0.5039 -0.2568
  383TMC3    C8 5787   3.634   3.056  16.977 -0.1713 -0.2276  0.4374
  383TMC3    O1 5788   3.984   3.062  17.326  0.5073  0.9421 -0.0695
  383TMC3    O2 5789   3.572   3.090  16.881  0.2465 -0.3562 -0.0889
  384MPD2     C 5790   0.376   4.092  11.879 -0.2813  0.6651  0.5726
  384MPD2    C1 5791   0.400   4.075  12.016 -0.5520  0.5063  0.5021
  384MPD2    C2 5792   0.362   3.962  12.086 -0.4630  0.2349  0.3644
  384MPD2    C3 5793   0.299   3.863  12.014  0.0386  0.2592 -0.3016
  384MPD2    C4 5794   0.287   3.877  11.872 -0.1313 -0.4639 -0.1855
  384MPD2    C5 5795   0.331   3.990  11.805  0.0282  0.3801  0.2032
  384MPD2     H 5796   0.387   3.965  12.192  1.8142 -0.8820 -0.1277
  384MPD2    H1 5797   0.239   3.792  11.826  0.5391  0.1470 -1.9878
  384MPD2    H2 5798   0.394   4.188  11.830 -0.4137  0.2799 -0.2230
  384MPD2    H3 5799   0.323   3.995  11.697 -0.9214 -0.7265  0.2173
  384MPD2     N 5800   0.263   3.740  12.070 -0.2131  0.0691  0.4323
  384MPD2    H5 5801   0.227   3.670  12.006  0.5282  0.9607 -0.9683
  384MPD2    N1 5802   0.472   4.169  12.099  0.5069  0.3562 -0.4260
  384MPD2    H7 5803   0.494   4.143  12.195 -0.6649  0.4893 -0.1137
  385TMC3    C1 5804   0.270   3.562  12.237 -0.4146 -0.5281  0.0152
  385TMC3    C2 5805   0.295   3.474  12.135 -0.0105 -0.4226  0.1365
  385TMC3    C3 5806   0.397   3.380  12.146 -0.5565  0.9244  0.3836
  385TMC3    C4 5807   0.339   3.547  12.351  0.5179 -0.4266  0.2435
  385TMC3    C5 5808   0.441   3.457  12.364  0.0175 -0.0872 -0.3213
  385TMC3    C6 5809   0.462   3.369  12.262 -0.0706 -0.0912 -0.3153
  385TMC3     C 5810   0.284   3.708  12.207  0.7708  0.0631  0.0531
  385TMC3     O 5811   0.340   3.779  12.292 -0.1428 -0.2888 -0.3463
  385TMC3     H 5812   0.233   3.482  12.047  2.4300 -1.0017 -1.6354
  385TMC3    H1 5813   0.314   3.599  12.442  3.3813  0.7928  0.3507
  385TMC3    H2 5814   0.545   3.300  12.269  0.9927  1.1204 -1.0106
  385TMC3    C7 5815   0.565   3.511  12.417  0.4800 -0.4551 -0.1716
  385TMC3    C8 5816   0.391   3.256  12.067 -0.5668 -0.3909  0.1891
  385TMC3    O1 5817   0.661   3.438  12.439 -0.1599 -0.4201 -0.1957
  385TMC3    O2 5818   0.435   3.147  12.111 -0.1627  0.7169  0.0897
  386TMC3    C1 5819   1.204   1.977  11.329 -0.1904 -0.4426  0.0154
  386TMC3    C2 5820   1.201   2.028  11.199 -0.1355  0.5473 -0.3564
  386TMC3    C3 5821   1.122   2.135  11.177  0.0006 -0.6847  0.1574
  386TMC3    C4 5822   1.125   2.025  11.429 -0.1313  0.1593 -0.2270
  386TMC3    C5 5823   1.058   2.139  11.407  0.0247 -0.6532  0.0103
  386TMC3    C6 5824   1.055   2.197  11.280  0.4768 -0.4503  0.5244
  386TMC3     C 5825   1.286   1.862  11.352 -0.6372 -0.2269 -0.4325
  386TMC3     O 5826   1.390   1.860  11.289  1.0254 -0.0834 -0.2195
  386TMC3     H 5827   1.247   1.969  11.121  0.1817  0.0171  0.2308
  386TMC3    H1 5828   1.132   1.987  11.531 -1.7988 -1.8801 -0.8622
  386TMC3    H2 5829   1.011   2.294  11.259  0.7123 -0.7677 -1.4590
  386TMC3    C7 5830   0.949   2.167  11.494  0.3151  0.6074 -0.0984
  386TMC3    C8 5831   1.046   2.134  11.052 -0.5340  0.0770  0.3926
  386TMC3    O1 5832   0.947   2.133  11.612 -0.3508 -0.3042 -0.7087
  386TMC3    O2 5833   0.929   2.161  11.064  0.0898  0.3993  1.3126
  387MPD2     C 5834   3.255   2.519   9.690  0.3391 -0.7057  0.2954
  387MPD2    C1 5835   3.324   2.431   9.783 -0.1948 -0.1778  0.8944
  387MPD2    C2 5836   3.303   2.296   9.778  0.1616 -0.0465 -0.3460
  387MPD2    C3 5837   3.216   2.240   9.693 -1.0983  0.0379  0.6875
  387MPD2    C4 5838   3.140   2.323   9.608 -0.1859  0.0890  0.1420
  387MPD2    C5 5839   3.162   2.460   9.607  0.7337 -0.3960 -0.4353
  387MPD2     H 5840   3.346   2.233   9.855  2.8198 -0.3110 -2.0789
  387MPD2    H1 5841   3.061   2.271   9.554  0.0557  1.1070 -1.1957
  387MPD2    H2 5842   3.264   2.627   9.694 -1.7381 -0.5092 -0.4129
  387MPD2    H3 5843   3.100   2.521   9.543 -0.4614  0.9535  2.0582
  387MPD2     N 5844   3.215   2.104   9.694 -0.2066 -0.0923 -0.7705
  387MPD2    H5 5845   3.283   2.056   9.753 -1.5802 -0.3233  0.6114
  387MPD2    N1 5846   3.401   2.470   9.889 -0.1704 -0.0811  1.0503
  387MPD2    H7 5847   3.434   2.402   9.957  3.6344  2.3203  1.5557
  388TMC3    C1 5848   3.560   2.581  10.001 -0.1989 -0.0640  0.1704
  388TMC3    C2 5849   3.564   2.679  10.095  0.0805 -0.0278  0.2564
  388TMC3    C3 5850   3.652   2.651  10.199  0.5727  0.8140  0.2929
  388TMC3    C4 5851   3.627   2.458  10.005  0.4699  0.9780  0.2633
  388TMC3    C5 5852   3.711   2.437  10.114  0.4642  0.2273 -0.6799
  388TMC3    C6 5853   3.724   2.529  10.211 -0.5927  0.1257  0.4457
  388TMC3     C 5854   3.465   2.594   9.897 -0.0642 -0.9703 -0.0764
  388TMC3     O 5855   3.464   2.695   9.825  0.0271  0.1350 -0.1501
  388TMC3     H 5856   3.500   2.766  10.080  0.9792  0.4069 -1.0308
  388TMC3    H1 5857   3.618   2.385   9.925 -0.9753 -0.1837  1.4757
  388TMC3    H2 5858   3.781   2.504  10.300  0.0580 -2.3939 -0.6987
  388TMC3    C7 5859   3.783   2.304  10.118  0.1436  0.9665  0.1007
  388TMC3    C8 5860   3.645   2.736  10.315  0.3156 -0.9205 -0.2478
  388TMC3    O1 5861   3.893   2.293  10.167  0.4076 -0.4256 -0.3277
  388TMC3    O2 5862   3.662   2.685  10.426  0.6127  0.2588 -0.5678
  389MPD2     C 5863   2.728   0.138  10.703 -0.2481 -1.0361 -0.3005
  389MPD2    C1 5864   2.593   0.134  10.692 -0.2219  0.3420 -0.1179
  389MPD2    C2 5865   2.520   0.066  10.793  0.2639  0.5200  0.5531
  389MPD2    C3 5866   2.589   0.012  10.901  0.2061 -0.3092 -0.2839
  389MPD2    C4 5867   2.725   0.025  10.912 -0.7670  0.0489 -0.1858
  389MPD2    C5 5868   2.795   0.074  10.804 -0.5049  0.4358  0.5089
  389MPD2     H 5869   2.413   0.055  10.780  0.6748 -1.9822 -0.5705
  389MPD2    H1 5870   2.777   4.733  11.003 -0.1673  0.8098 -0.2770
  389MPD2    H2 5871   2.785   0.191  10.628  0.8361 -2.0785 -0.2273
  389MPD2    H3 5872   2.903   0.082  10.807 -0.6338  2.9964 -1.5886
  389MPD2     N 5873   2.519   4.684  11.005 -0.4196  0.5608  0.5010
  389MPD2    H5 5874   2.568   4.632  11.077 -1.4183 -3.7381 -1.9342
  389MPD2    N1 5875   2.534   0.185  10.576 -0.1171  0.6059 -0.4449
  389MPD2    H7 5876   2.602   0.226  10.512  0.2863  0.1065 -0.3338
  390TMC3    C1 5877   2.341   4.629  11.149 -1.0377  0.2507  0.2741
  390TMC3    C2 5878   2.209   4.603  11.149  0.1707 -0.1252  0.0054
  390TMC3    C3 5879   2.140   4.614  11.262 -0.5210  0.1025  0.7945
  390TMC3    C4 5880   2.408   4.664  11.258  0.1877  0.3703 -0.3909
  390TMC3    C5 5881   2.333   4.677  11.369  0.0045 -0.5268  0.3734
  390TMC3    C6 5882   2.204   4.647  11.378  0.0499 -0.8510 -0.4884
  390TMC3     C 5883   2.384   4.693  11.025 -0.4010  0.6238 -0.0695
  390TMC3     O 5884   2.297   0.022  10.963  0.4251  0.0130 -0.5118
  390TMC3     H 5885   2.157   4.598  11.054 -0.4551 -2.4782  0.4760
  390TMC3    H1 5886   2.514   4.683  11.253  0.7731 -2.5089  0.8140
  390TMC3    H2 5887   2.145   4.651  11.469  0.6143  3.0847 -0.2632
  390TMC3    C7 5888   2.407   4.736  11.475 -0.8368  0.1154  0.5604
  390TMC3    C8 5889   2.013   4.553  11.265 -0.2674  1.0142 -0.2519
  390TMC3    O1 5890   2.525   0.023  11.466 -0.7802 -0.0756 -0.1839
  390TMC3    O2 5891   1.976   4.485  11.171  0.1592  0.0106  0.4338
  391MPD2     C 5892   1.968   1.835  11.145 -0.9330 -0.5288 -0.0732
  391MPD2    C1 5893   2.076   1.901  11.093 -0.2967 -0.2577 -0.4318
  391MPD2    C2 5894   2.081   1.913  10.953  0.1711 -0.7769 -0.6117
  391MPD2    C3 5895   1.975   1.874  10.875 -0.2276  0.4634 -0.7161
  391MPD2    C4 5896   1.863   1.806  10.928 -0.3874  0.2978  0.3081
  391MPD2    C5 5897   1.864   1.791  11.065 -0.4107  0.7411 -0.1175
  391MPD2     H 5898   2.162   1.951  10.892 -0.9781  1.8211 -0.5517
  391MPD2    H1 5899   1.784   1.763  10.868 -0.4620 -0.9742  1.2998
  391MPD2    H2 5900   1.952   1.815  11.250  0.5577  2.2484  0.6709
  391MPD2    H3 5901   1.788   1.726  11.107  0.9649 -1.1686 -0.6119
  391MPD2     N 5902   1.983   1.896  10.734 -0.3907  0.3472  0.3454
  391MPD2    H5 5903   2.071   1.936  10.701 -1.9360  1.4429 -2.4656
  391MPD2    N1 5904   2.177   1.952  11.176 -0.1303  0.0011  0.0880
  391MPD2    H7 5905   2.171   1.918  11.272 -3.8810 -0.0773 -0.1979
  392TMC3    C1 5906   1.926   1.913  10.502  0.6068 -0.3977  0.6543
  392TMC3    C2 5907   1.825   1.920  10.405 -0.7121  0.4126 -0.1090
  392TMC3    C3 5908   1.855   1.942  10.277 -0.8597 -0.2022  0.1617
  392TMC3    C4 5909   2.057   1.917  10.468  0.0523  0.3894  0.2423
  392TMC3    C5 5910   2.089   1.942  10.334 -0.9975 -0.5320 -0.2784
  392TMC3    C6 5911   1.990   1.962  10.237  0.3195 -0.9584  0.0640
  392TMC3     C 5912   1.884   1.891  10.644 -0.0128 -0.2651  0.0951
  392TMC3     O 5913   1.764   1.868  10.662  0.0259 -0.6341  0.1381
  392TMC3     H 5914   1.724   1.890  10.430 -0.8889  0.7875 -0.3780
  392TMC3    H1 5915   2.136   1.903  10.540 -1.1963 -1.8746  1.1836
  392TMC3    H2 5916   2.018   1.999  10.139  2.5871 -0.4300  0.9089
  392TMC3    C7 5917   2.223   1.985  10.310  0.2171 -0.3258 -0.0309
  392TMC3    C8 5918   1.739   1.976  10.195 -0.2475 -0.2488 -0.4177
  392TMC3    O1 5919   2.293   1.992  10.411 -0.5115 -0.4951  0.2387
  392TMC3    O2 5920   1.627   1.929  10.222  0.2257  0.3505  0.1711
  393TMC3    C1 5921   0.517   0.126  11.113  0.8302  0.2490 -0.1775
  393TMC3    C2 5922   0.437   0.124  11.222 -0.2247 -0.1004 -0.1882
  393TMC3    C3 5923   0.345   0.016  11.224 -0.4469 -0.7511  0.1177
  393TMC3    C4 5924   0.519   0.027  11.014 -0.3317 -0.1839 -0.3681
  393TMC3    C5 5925   0.433   4.661  11.030 -0.0608 -0.6074  0.5607
  393TMC3    C6 5926   0.336   4.655  11.127 -0.1532  0.8410  0.9697
  393TMC3     C 5927   0.619   0.231  11.107  0.2755  0.8524 -0.1780
  393TMC3     O 5928   0.692   0.225  11.005  0.2740  0.3172 -0.0438
  393TMC3     H 5929   0.442   0.197  11.302  2.7674 -0.0068 -0.4528
  393TMC3    H1 5930   0.597   0.029  10.939  0.5891 -1.5942  0.5533
  393TMC3    H2 5931   0.268   4.570  11.125  1.8400 -0.7780  1.9119
  393TMC3    C7 5932   0.459   4.540  10.952 -0.0840 -0.4639  0.5529
  393TMC3    C8 5933   0.252   0.001  11.334 -0.3991 -0.3550  0.0359
  393TMC3    O1 5934   0.408   4.438  10.998  0.4477 -0.7506  0.6275
  393TMC3    O2 5935   0.195   4.629  11.343 -0.3311 -0.4088  0.6812
  394TMC3    C1 5936   2.389   0.176  10.376 -0.2583 -0.1869 -0.0451
  394TMC3    C2 5937   2.269   0.142  10.320 -0.2082  0.4009  0.4725
  394TMC3    C3 5938   2.213   0.220  10.224  0.1714  0.5511 -0.9764
  394TMC3    C4 5939   2.469   0.271  10.312 -0.4437 -0.3631  0.2348
  394TMC3    C5 5940   2.410   0.339  10.210 -0.2713  0.4233  0.8229
  394TMC3    C6 5941   2.283   0.318  10.167  0.7314 -0.4417  0.7487
  394TMC3     C 5942   2.410   0.157  10.520  0.8292 -0.0376 -0.7057
  394TMC3     O 5943   2.312   0.122  10.589 -0.3181  0.0603 -0.0491
  394TMC3     H 5944   2.213   0.065  10.372 -0.3528  0.0628 -0.1932
  394TMC3    H1 5945   2.571   0.284  10.346 -0.8342 -0.1774  1.3135
  394TMC3    H2 5946   2.254   0.355  10.069  0.7235  1.2349  1.3903
  394TMC3    C7 5947   2.496   0.401  10.109 -0.8850 -0.4507  0.2618
  394TMC3    C8 5948   2.115   0.153  10.147 -0.4133  0.1923 -1.2233
  394TMC3    O1 5949   2.444   0.490  10.037  0.1774 -0.2513 -0.2634
  394TMC3    O2 5950   2.017   0.211  10.099  0.7187 -0.3006  0.0569
  395TMC3    C1 5951   2.676   2.356  14.724 -0.8422  0.1224  0.2456
  395TMC3    C2 5952   2.608   2.318  14.617 -0.0754  0.0374 -0.3830
  395TMC3    C3 5953   2.647   2.368  14.495 -0.2067 -0.2582 -0.6008
  395TMC3    C4 5954   2.780   2.442  14.714 -0.1817 -0.7466  1.0137
  395TMC3    C5 5955   2.823   2.481  14.594  0.0389  0.8024 -0.3849
  395TMC3    C6 5956   2.755   2.445  14.480 -0.2491  0.2779  0.0672
  395TMC3     C 5957   2.631   2.316  14.862  1.1682 -1.3010  0.2722
  395TMC3     O 5958   2.637   2.405  14.945 -0.0586  0.2201 -0.3306
  395TMC3     H 5959   2.513   2.267  14.631  0.0878 -0.0344  0.4752
  395TMC3    H1 5960   2.825   2.478  14.806  0.7869 -0.5878  0.4755
  395TMC3    H2 5961   2.780   2.483  14.382 -0.5881 -0.9704 -0.4940
  395TMC3    C7 5962   2.941   2.566  14.605 -0.1059  0.0387  0.7436
  395TMC3    C8 5963   2.556   2.364  14.384  0.4920  0.8191  0.0518
  395TMC3    O1 5964   2.991   2.587  14.714 -0.2140  0.7798  0.0014
  395TMC3    O2 5965   2.589   2.422  14.282 -0.0232 -0.1807 -0.1606
  396MPD2     C 5966   1.914   2.936  16.794  0.0600 -0.2584 -0.6167
  396MPD2    C1 5967   2.015   2.937  16.896 -0.1279  0.2974 -0.1217
  396MPD2    C2 5968   2.102   3.048  16.898  0.5029  0.4948  0.2038
  396MPD2    C3 5969   2.084   3.150  16.805 -0.5837  0.1075 -0.3726
  396MPD2    C4 5970   1.976   3.150  16.716  0.2419  0.5404 -0.5563
  396MPD2    C5 5971   1.894   3.039  16.709  0.0296  0.4341  0.2057
  396MPD2     H 5972   2.180   3.070  16.969  0.8981 -0.0427 -0.0624
  396MPD2    H1 5973   1.957   3.229  16.645 -1.4392  2.3992  1.9479
  396MPD2    H2 5974   1.856   2.845  16.779  0.4052 -0.6503  0.4666
  396MPD2    H3 5975   1.814   3.029  16.637  0.8440  2.4191 -0.9875
  396MPD2     N 5976   2.177   3.258  16.814 -0.0174  0.2072  0.1516
  396MPD2    H5 5977   2.250   3.240  16.881 -1.6228  2.2282  2.4618
  396MPD2    N1 5978   2.031   2.817  16.966  0.4500 -0.4928 -0.7151
  396MPD2    H7 5979   1.982   2.736  16.928 -1.8056 -0.4034  2.0085
  397TMC3    C1 5980   2.152   2.668  17.101 -0.5524  0.1836 -0.0764
  397TMC3    C2 5981   2.276   2.641  17.056 -0.1236 -0.5625 -0.0173
  397TMC3    C3 5982   2.287   2.564  16.945 -0.1049 -0.1304  0.1905
  397TMC3    C4 5983   2.051   2.582  17.073  1.1272 -0.0341 -0.2235
  397TMC3    C5 5984   2.072   2.482  16.988 -0.2466 -0.3139 -0.7298
  397TMC3    C6 5985   2.189   2.468  16.924 -0.2007  0.4257  0.0494
  397TMC3     C 5986   2.128   2.803  17.063  0.0097  0.2396 -0.7357
  397TMC3     O 5987   2.176   2.897  17.128  0.5059 -0.4855  0.1921
  397TMC3     H 5988   2.334   2.732  17.069 -1.3287  0.0080  1.3107
  397TMC3    H1 5989   1.946   2.598  17.095  0.3560 -0.2664 -3.7656
  397TMC3    H2 5990   2.200   2.393  16.847 -0.1357 -1.2326  1.6874
  397TMC3    C7 5991   2.037   2.353  17.047  0.2959 -0.5471  0.3351
  397TMC3    C8 5992   2.325   2.635  16.822  0.6948  0.2216  0.3529
  397TMC3    O1 5993   2.076   2.245  16.998  0.1246  0.2456 -0.0966
  397TMC3    O2 5994   2.247   2.628  16.726  0.4047 -0.1228 -0.2484
  398MPD2     C 5995   0.068   4.636  17.307  0.0688 -0.4018  0.0269
  398MPD2    C1 5996   0.092   4.541  17.410  0.3335  0.0309 -0.2792
  398MPD2    C2 5997   0.159   4.568  17.525  0.2221 -0.2067  0.2874
  398MPD2    C3 5998   0.223   4.692  17.538 -0.2404  0.2271  0.3647
  398MPD2    C4 5999   0.198   0.051  17.442  0.0469 -0.4370  0.4544
  398MPD2    C5 6000   0.122   0.020  17.329  0.2830 -0.4090  0.2676
  398MPD2     H 6001   0.166   4.497  17.606 -0.6214  0.4433  0.9389
  398MPD2    H1 6002   0.247   0.148  17.450 -0.8352 -0.0011  0.5872
  398MPD2    H2 6003   0.015   4.624  17.214  1.3082  3.5062 -1.1897
  398MPD2    H3 6004   0.100   0.108  17.269 -4.5111 -1.3182  0.7068
  398MPD2     N 6005   0.310   4.701  17.653  0.1008  0.0096  0.2908
  398MPD2    H5 6006   0.298   4.627  17.722  1.2872 -1.3417 -0.9613
  398MPD2    N1 6007   0.056   4.408  17.401 -0.7327  0.7466  0.6815
  398MPD2    H7 6008   0.065   4.362  17.491 -1.1227 -1.2406 -0.3008
  399TMC3    C1 6009   0.053   4.195  17.306 -0.4624 -0.2769  0.0824
  399TMC3    C2 6010   0.144   4.163  17.403  0.0179  1.0628  0.4479
  399TMC3    C3 6011   0.158   4.027  17.422  0.3685  0.6347 -0.5250
  399TMC3    C4 6012   0.006   4.112  17.214  0.3204 -0.2604  0.3793
  399TMC3    C5 6013   0.027   3.974  17.234  1.1023 -0.7424 -0.7295
  399TMC3    C6 6014   0.098   3.934  17.347  0.4138 -0.2805 -0.6535
  399TMC3     C 6015   0.024   4.337  17.289  0.6912  0.1764 -0.4311
  399TMC3     O 6016   4.730   4.375  17.175  0.4492  0.4759  0.4284
  399TMC3     H 6017   0.197   4.223  17.476  1.1867 -0.3628  0.7759
  399TMC3    H1 6018   4.679   4.141  17.132  0.4109  2.1037  1.1498
  399TMC3    H2 6019   0.112   3.827  17.358  0.0190  0.1177  3.6996
  399TMC3    C7 6020   4.682   3.875  17.173 -0.0138 -0.0358 -0.1156
  399TMC3    C8 6021   0.253   3.990  17.525 -0.4735 -0.1468  0.3795
  399TMC3    O1 6022   4.681   3.767  17.225  0.4013 -0.1567  0.5708
  399TMC3    O2 6023   0.288   4.073  17.609 -0.0433  0.2967 -0.0668
  400TMC3    C1 6024   3.572   2.713  16.762  0.7260 -0.2410  0.1731
  400TMC3    C2 6025   3.464   2.632  16.775 -0.5594  0.2225 -0.3809
  400TMC3    C3 6026   3.347   2.670  16.708 -0.9015  0.4210 -0.2089
  400TMC3    C4 6027   3.568   2.831  16.697 -0.3510 -0.0016  0.0056
  400TMC3    C5 6028   3.447   2.864  16.633 -0.2768 -0.1518 -0.1119
  400TMC3    C6 6029   3.337   2.784  16.636 -0.8601 -0.0637 -0.8989
  400TMC3     C 6030   3.688   2.664  16.832  0.4294 -0.4231 -0.2361
  400TMC3     O 6031   3.682   2.553  16.883 -0.6985 -0.0741 -0.7534
  400TMC3     H 6032   3.476   2.533  16.818 -1.0665  0.4037  0.1841
  400TMC3    H1 6033   3.656   2.895  16.697 -0.6976  0.5034 -3.8518
  400TMC3    H2 6034   3.239   2.824  16.613 -0.8358  0.7611  0.4415
  400TMC3    C7 6035   3.438   2.996  16.568 -0.2514 -1.4867  0.3386
  400TMC3    C8 6036   3.233   2.578  16.721  0.1451 -1.3379  0.4337
  400TMC3    O1 6037   3.354   3.009  16.474 -0.0247  0.4478 -0.1554
  400TMC3    O2 6038   3.236   2.503  16.814  0.2464  0.1515  0.1647
  401MPD2     C 6039   1.811   1.444   0.760 -0.2606 -0.6560  0.7913
  401MPD2    C1 6040   1.920   1.358   0.760 -0.3691  0.0045 -0.1647
  401MPD2    C2 6041   1.901   1.226   0.725  0.4935  0.2065  0.0123
  401MPD2    C3 6042   1.774   1.184   0.691  0.1331 -0.1189 -0.4265
  401MPD2    C4 6043   1.669   1.271   0.697  0.6072 -0.5639  0.9100
  401MPD2    C5 6044   1.686   1.403   0.727 -0.0953 -0.3137  0.5335
  401MPD2     H 6045   1.981   1.153   0.717 -0.1740 -0.4230 -0.9385
  401MPD2    H1 6046   1.567   1.247   0.670  1.0456  0.8657 -2.0246
  401MPD2    H2 6047   1.821   1.552   0.772 -0.6728 -0.6116  0.7144
  401MPD2    H3 6048   1.608   1.478   0.716 -0.7460 -0.9323  0.9224
  401MPD2     N 6049   1.768   1.043   0.652  0.5240 -0.5543  0.4278
  401MPD2    H5 6050   1.843   0.989   0.695  2.6072  0.7340 -1.6497
  401MPD2    N1 6051   2.053   1.411   0.786  0.4069  0.0448 -0.0872
  401MPD2    H7 6052   2.124   1.339   0.795 -0.8124 -0.9070  1.8986
  402TMC3    C1 6053   1.689   0.866   0.524  0.2426  0.1000 -0.7184
  402TMC3    C2 6054   1.736   0.775   0.614 -0.7929  0.8748  0.4962
  402TMC3    C3 6055   1.744   0.642   0.568  0.5103  0.0197 -0.2589
  402TMC3    C4 6056   1.635   0.834   0.402 -0.0592  0.1209  0.1217
  402TMC3    C5 6057   1.641   0.703   0.364 -0.2568  0.0851 -0.4610
  402TMC3    C6 6058   1.690   0.606   0.448 -0.5844  0.6375  0.0142
  402TMC3     C 6059   1.685   1.006   0.554  0.8045 -0.1972  0.0471
  402TMC3     O 6060   1.606   1.076   0.496 -0.4621 -0.0913 -0.1357
  402TMC3     H 6061   1.750   0.811   0.715  0.8561  1.6243  0.0107
  402TMC3    H1 6062   1.592   0.913   0.341  1.8546 -1.0697 -2.7790
  402TMC3    H2 6063   1.702   0.504   0.412  0.1830  0.8376 -0.2895
  402TMC3    C7 6064   1.624   0.664   0.225  0.2364 -0.8758 -0.6446
  402TMC3    C8 6065   1.819   0.535   0.639 -0.1320  0.2124  0.1364
  402TMC3    O1 6066   1.631   0.545   0.203  0.2925 -0.9357 -0.3841
  402TMC3    O2 6067   1.838   0.427   0.584  0.5876 -0.5233 -0.0244
  403MPD2     C 6068   0.299   4.718  13.224 -0.1042 -0.2541  0.2703
  403MPD2    C1 6069   0.324   4.599  13.285  0.4972  0.3631  0.9814
  403MPD2    C2 6070   0.411   4.596  13.398 -0.3776  0.3921  0.4456
  403MPD2    C3 6071   0.457   4.707  13.452 -0.5697 -0.1373 -0.0765
  403MPD2    C4 6072   0.413   0.091  13.401 -0.0876 -0.2176  0.1836
  403MPD2    C5 6073   0.331   0.096  13.293  0.5349  0.4722 -0.7975
  403MPD2     H 6074   0.440   4.502  13.444 -0.9354 -0.0832 -0.1849
  403MPD2    H1 6075   0.451   0.183  13.446  0.3387 -0.5893  0.5922
  403MPD2    H2 6076   0.238   4.727  13.134 -0.7453  0.3109  0.7607
  403MPD2    H3 6077   0.290   0.195  13.274  0.5851  0.4962 -0.7819
  403MPD2     N 6078   0.562   4.693  13.541  0.0903 -0.4825 -0.7338
  403MPD2    H5 6079   0.604   4.602  13.554 -0.8671 -0.8510 -0.2344
  403MPD2    N1 6080   0.274   4.481  13.226 -0.2142  0.0921  0.0263
  403MPD2    H7 6081   0.215   4.499  13.145  0.4843  1.6276 -0.1278
  404TMC3    C1 6082   0.194   4.257  13.215 -0.8220 -0.5684  1.1287
  404TMC3    C2 6083   0.161   4.158  13.302 -0.1158 -0.5051 -0.0453
  404TMC3    C3 6084   0.108   4.042  13.249  0.5758 -0.3545 -0.1174
  404TMC3    C4 6085   0.190   4.247  13.075  0.1433 -0.0594  0.2174
  404TMC3    C5 6086   0.114   4.146  13.033  0.2966  0.1751 -0.0682
  404TMC3    C6 6087   0.094   4.032  13.108 -0.0376 -0.1692 -0.0972
  404TMC3     C 6088   0.284   4.354  13.276 -0.0593  0.1312  0.0906
  404TMC3     O 6089   0.350   4.319  13.374 -0.2041  0.4253  0.2055
  404TMC3     H 6090   0.186   4.166  13.407 -1.6445  0.6585  0.2353
  404TMC3    H1 6091   0.215   4.338  13.021  0.3528 -0.6662 -0.6938
  404TMC3    H2 6092   0.047   3.944  13.067 -1.8100  0.4678  0.5474
  404TMC3    C7 6093   0.047   4.163  12.902  0.7743 -0.4795  0.5419
  404TMC3    C8 6094   0.152   3.925  13.320  0.3035  0.0734  0.5518
  404TMC3    O1 6095   0.087   4.268  12.851 -0.1406 -0.0586  0.0296
  404TMC3    O2 6096   0.205   3.846  13.247 -0.2436 -0.2883 -0.4434
  405MPD2     C 6097   1.165   0.310  14.520  0.2845 -0.3814  0.3914
  405MPD2    C1 6098   1.115   0.286  14.397 -0.4187  0.1220 -0.0431
  405MPD2    C2 6099   1.069   0.396  14.321  0.0975 -0.0203  0.3390
  405MPD2    C3 6100   1.074   0.523  14.377 -0.2838 -0.9412 -0.4801
  405MPD2    C4 6101   1.128   0.540  14.503 -0.3877  0.0549 -0.9561
  405MPD2    C5 6102   1.174   0.435  14.567 -0.5540  0.0953 -0.3542
  405MPD2     H 6103   1.007   0.386  14.233 -1.7958 -1.0045  1.7669
  405MPD2    H1 6104   1.139   0.632  14.559 -1.0065  0.2351 -1.1269
  405MPD2    H2 6105   1.211   0.224  14.567  0.9666  1.1053  2.4336
  405MPD2    H3 6106   1.230   0.455  14.658 -0.8131  2.6484 -0.7428
  405MPD2     N 6107   1.016   0.621  14.304 -0.5625  0.0090  0.1138
  405MPD2    H5 6108   0.958   0.603  14.223 -1.0399 -1.5023  0.8035
  405MPD2    N1 6109   1.097   0.148  14.360  0.2870 -0.6982 -0.3524
  405MPD2    H7 6110   1.132   0.076  14.422 -0.4312 -1.1443 -0.4738
  406TMC3    C1 6111   0.829   1.006  14.140 -0.5591  0.0398 -0.7567
  406TMC3    C2 6112   0.831   0.949  14.012  0.2079  0.9626 -0.6537
  406TMC3    C3 6113   0.874   0.820  13.996 -0.1203 -0.5186 -0.3018
  406TMC3    C4 6114   0.898   0.937  14.235 -0.3765  0.5148 -0.8194
  406TMC3    C5 6115   0.968   0.820  14.206 -0.0374 -0.3179 -0.1620
  406TMC3    C6 6116   0.955   0.758  14.085 -0.4138 -0.0504 -0.1044
  406TMC3     C 6117   0.700   1.047  14.191  0.2157 -0.0026 -0.7353
  406TMC3     O 6118   0.697   1.108  14.299 -0.2006  0.1748 -0.4080
  406TMC3     H 6119   0.771   0.998  13.936 -0.2308  0.2206 -0.7851
  406TMC3    H1 6120   0.895   0.967  14.340  0.2867  0.1207 -0.6849
  406TMC3    H2 6121   0.999   0.660  14.069 -0.0365  0.1497 -0.3110
  406TMC3    C7 6122   1.026   0.755  14.326 -0.4933  1.3962  0.6470
  406TMC3    C8 6123   0.783   0.733  13.925  0.1288 -0.4946 -0.0884
  406TMC3    O1 6124   1.078   0.821  14.417 -0.3491 -0.3456  0.5944
  406TMC3    O2 6125   0.666   0.776  13.925  0.2422  0.8103 -1.0201
  407MPD2     C 6126   2.623   1.797   9.753  0.6144 -0.1814 -0.2655
  407MPD2    C1 6127   2.720   1.883   9.712  0.3352  0.0134 -0.9226
  407MPD2    C2 6128   2.776   1.962   9.806  0.2322 -0.1337  0.7833
  407MPD2    C3 6129   2.740   1.952   9.938  0.1963  0.0959  0.3281
  407MPD2    C4 6130   2.644   1.859   9.982  0.1552 -0.4460  0.2918
  407MPD2    C5 6131   2.590   1.781   9.882  0.3234  0.0017 -0.2219
  407MPD2     H 6132   2.854   2.034   9.783 -0.3595  0.8086  1.6782
  407MPD2    H1 6133   2.610   1.851  10.084 -0.5771  1.8803  0.2314
  407MPD2    H2 6134   2.559   1.737   9.689 -0.1856  0.7993 -0.3695
  407MPD2    H3 6135   2.511   1.709   9.905  1.0241 -1.8493 -3.6025
  407MPD2     N 6136   2.797   2.029  10.047 -0.5712  0.0297  0.1222
  407MPD2    H5 6137   2.756   2.030  10.140  0.6200  1.2767  0.6501
  407MPD2    N1 6138   2.758   1.915   9.581  0.2748  0.3160  0.2261
  407MPD2    H7 6139   2.837   1.977   9.569  1.8920 -1.0556  3.9852
  408TMC3    C1 6140   2.807   1.880   9.351  0.0830 -0.2933  0.2152
  408TMC3    C2 6141   2.869   1.773   9.289  0.1976 -0.1657  0.1772
  408TMC3    C3 6142   2.984   1.792   9.217  0.4391  0.9734 -0.0086
  408TMC3    C4 6143   2.849   2.008   9.328 -0.2384  0.2541  0.5450
  408TMC3    C5 6144   2.962   2.026   9.250 -0.2528 -0.0622  0.3178
  408TMC3    C6 6145   3.039   1.917   9.208 -0.3102  0.7687 -0.1107
  408TMC3     C 6146   2.721   1.848   9.465 -0.4332 -0.0000  0.4276
  408TMC3     O 6147   2.655   1.743   9.460 -0.0369  0.1118  0.6560
  408TMC3     H 6148   2.830   1.673   9.309 -0.4001  0.5060  2.3495
  408TMC3    H1 6149   2.792   2.087   9.376  0.7382  1.7191 -0.7238
  408TMC3    H2 6150   3.126   1.929   9.144  2.3409 -2.3197  2.9793
  408TMC3    C7 6151   3.026   2.156   9.248  0.0235  0.6867  0.1433
  408TMC3    C8 6152   3.079   1.681   9.211  0.0768  0.3212  0.1837
  408TMC3    O1 6153   3.145   2.152   9.221 -0.0400  0.2350  0.4184
  408TMC3    O2 6154   3.025   1.571   9.187 -0.0006  0.2896  0.2229
  409MPD2     C 6155   2.410   2.303  16.611  0.5370  0.0773 -0.0867
  409MPD2    C1 6156   2.488   2.334  16.728  0.1698  0.8093  0.0280
  409MPD2    C2 6157   2.574   2.446  16.723  0.7279 -0.1069 -0.1825
  409MPD2    C3 6158   2.578   2.527  16.616 -0.3269 -0.5078  0.1392
  409MPD2    C4 6159   2.519   2.496  16.503 -0.5942 -0.0371  0.6940
  409MPD2    C5 6160   2.430   2.391  16.508 -0.0370  0.2969 -0.2509
  409MPD2     H 6161   2.629   2.459  16.816 -0.2693 -1.2566  0.5830
  409MPD2    H1 6162   2.528   2.545  16.407 -0.1763 -0.6686  0.4071
  409MPD2    H2 6163   2.346   2.216  16.604  0.6906 -0.2239  2.1913
  409MPD2    H3 6164   2.390   2.354  16.414 -1.1791 -1.0799  0.7924
  409MPD2     N 6165   2.672   2.635  16.613  0.1322 -0.4372 -0.2847
  409MPD2    H5 6166   2.686   2.676  16.521  2.9912 -0.2870  0.2278
  409MPD2    N1 6167   2.488   2.259  16.841  0.2855  0.1236 -0.2977
  409MPD2    H7 6168   2.543   2.294  16.919 -0.1330 -0.4500  0.2583
  410TMC3    C1 6169   2.843   2.782  16.694 -0.1548  0.0929 -0.4059
  410TMC3    C2 6170   2.904   2.841  16.803  0.4144  0.4877 -0.1243
  410TMC3    C3 6171   2.987   2.947  16.775  0.1137  0.9627  0.2127
  410TMC3    C4 6172   2.846   2.819  16.560 -0.0707 -0.1920  0.0472
  410TMC3    C5 6173   2.938   2.922  16.549 -0.4949  0.0329 -0.5154
  410TMC3    C6 6174   3.010   2.982  16.647  0.5263  0.1457 -0.1199
  410TMC3     C 6175   2.744   2.674  16.722 -0.0266 -0.0699 -0.6811
  410TMC3     O 6176   2.724   2.650  16.840  0.1909 -0.2324 -0.1156
  410TMC3     H 6177   2.899   2.797  16.902 -0.6301 -0.6095 -0.6663
  410TMC3    H1 6178   2.835   2.765  16.467  1.9959  2.5939 -1.8237
  410TMC3    H2 6179   3.089   3.051  16.621  0.9063  0.1289  0.9836
  410TMC3    C7 6180   2.975   2.961  16.419 -0.6826  0.5176 -0.0588
  410TMC3    C8 6181   3.116   2.955  16.844  0.0210 -0.1588 -0.0625
  410TMC3    O1 6182   3.001   2.880  16.331  0.1461  0.3156  0.1123
  410TMC3    O2 6183   3.177   3.063  16.845  0.9745  0.1094  0.0086
  411MPD2     C 6184   3.430   3.712  14.581 -0.6434  0.5250  0.1152
  411MPD2    C1 6185   3.342   3.725  14.688  1.1003  0.4270  0.9161
  411MPD2    C2 6186   3.250   3.625  14.706 -0.3864 -0.3906  0.3534
  411MPD2    C3 6187   3.230   3.522  14.615  0.0766 -0.0623  0.5917
  411MPD2    C4 6188   3.327   3.507  14.517 -0.2532 -1.0818 -0.2052
  411MPD2    C5 6189   3.418   3.608  14.495 -0.3665  0.3823 -0.3425
  411MPD2     H 6190   3.187   3.638  14.794 -0.6675 -0.4311  0.1608
  411MPD2    H1 6191   3.319   3.433  14.438  2.3349 -0.3947 -1.1145
  411MPD2    H2 6192   3.513   3.780  14.565 -0.6127  0.7509  1.2540
  411MPD2    H3 6193   3.477   3.608  14.404 -2.6268  1.1084 -1.8049
  411MPD2     N 6194   3.121   3.434  14.614  0.6817  0.2246 -0.0113
  411MPD2    H5 6195   3.116   3.359  14.546 -1.2642  0.9554 -0.6751
  411MPD2    N1 6196   3.362   3.844  14.764  0.2619  0.7140 -0.0948
  411MPD2    H7 6197   3.454   3.882  14.740 -0.0993  0.6885 -1.5478
  412TMC3    C1 6198   2.920   3.342  14.698  0.0354 -0.4067  0.0030
  412TMC3    C2 6199   2.787   3.371  14.687 -0.5652  0.1139  0.2753
  412TMC3    C3 6200   2.702   3.273  14.716 -0.4967 -0.4690 -0.4011
  412TMC3    C4 6201   2.959   3.223  14.744 -0.6398  0.0874 -0.2552
  412TMC3    C5 6202   2.871   3.126  14.779 -0.4078  0.6758 -1.2041
  412TMC3    C6 6203   2.738   3.149  14.765 -0.7175 -0.2863 -0.2304
  412TMC3     C 6204   3.022   3.444  14.705  0.6030  0.2465  0.6037
  412TMC3     O 6205   2.985   3.525  14.786  0.0928  0.3421 -0.0468
  412TMC3     H 6206   2.770   3.465  14.636  1.8943 -1.5264 -3.5618
  412TMC3    H1 6207   3.065   3.210  14.760 -0.8821  0.4800  1.5832
  412TMC3    H2 6208   2.669   3.085  14.818 -2.6367  1.5846 -0.4551
  412TMC3    C7 6209   2.920   2.998  14.827 -0.2377  0.5764 -0.5449
  412TMC3    C8 6210   2.618   3.257  14.602 -0.4293 -0.5386  0.2207
  412TMC3    O1 6211   3.026   2.993  14.885 -0.1641 -0.3088  0.0353
  412TMC3    O2 6212   2.610   3.359  14.539  0.1865 -0.0139 -0.4289
  413MPD2     C 6213   4.603   1.521  15.441  0.5476  0.5445  0.4025
  413MPD2    C1 6214   4.532   1.460  15.337  0.1121  0.1404  0.4245
  413MPD2    C2 6215   4.596   1.368  15.259  0.1187 -0.0907 -0.9483
  413MPD2    C3 6216   4.728   1.338  15.284 -0.0658 -0.4395 -0.5755
  413MPD2    C4 6217   0.064   1.400  15.381 -0.2322  0.6078 -0.0886
  413MPD2    C5 6218   4.734   1.489  15.457 -0.1445  0.7162  0.4848
  413MPD2     H 6219   4.545   1.324  15.174 -2.1252 -0.2638  0.4909
  413MPD2    H1 6220   0.169   1.386  15.404 -0.4600  1.7415  1.6510
  413MPD2    H2 6221   4.570   1.600  15.506  1.6015  1.6141 -0.3639
  413MPD2    H3 6222   0.037   1.539  15.544 -0.1968 -1.2073  1.6369
  413MPD2     N 6223   0.046   1.239  15.195  1.1616 -0.1670  0.2725
  413MPD2    H5 6224   4.719   1.208  15.123 -1.0006  0.8176  1.8077
  413MPD2    N1 6225   4.393   1.488  15.333 -0.1023 -0.6960  0.4768
  413MPD2    H7 6226   4.352   1.533  15.414 -1.6480  1.8991 -1.7545
  414TMC3    C1 6227   0.198   1.072  15.120  0.3878  0.3865 -0.0510
  414TMC3    C2 6228   0.287   0.977  15.167  0.1142  0.3598 -0.0709
  414TMC3    C3 6229   0.318   0.869  15.091 -0.5084 -0.4481 -0.5039
  414TMC3    C4 6230   0.148   1.069  14.995  0.2163 -1.0951  0.1516
  414TMC3    C5 6231   0.197   0.969  14.921  0.6816 -0.0468 -0.4939
  414TMC3    C6 6232   0.255   0.856  14.972 -0.4438  0.0793 -0.2078
  414TMC3     C 6233   0.172   1.187  15.212 -0.0424 -0.2788  0.6043
  414TMC3     O 6234   0.258   1.217  15.293 -0.1880  0.6451 -0.3442
  414TMC3     H 6235   0.329   0.984  15.267  0.2315  1.5414 -0.2015
  414TMC3    H1 6236   0.107   1.159  14.950  2.7058 -1.0182 -1.9620
  414TMC3    H2 6237   0.278   0.769  14.911  2.8490  1.0554 -0.3816
  414TMC3    C7 6238   0.128   0.966  14.792  0.0285  0.3819  0.3070
  414TMC3    C8 6239   0.433   0.788  15.105  0.5829 -0.0925 -0.0617
  414TMC3    O1 6240   0.009   0.992  14.794  0.3287 -0.4116  0.3112
  414TMC3    O2 6241   0.462   0.712  15.016  0.5407  0.4251 -0.1795
  415TMC3    C1 6242   0.162   3.942   9.607 -1.0574 -0.5429 -0.5319
  415TMC3    C2 6243   0.170   4.063   9.551  0.3207 -0.3581 -0.0536
  415TMC3    C3 6244   0.079   4.092   9.449 -0.1565 -0.5022  0.6896
  415TMC3    C4 6245   0.067   3.848   9.583  0.1883  0.3325 -0.5955
  415TMC3    C5 6246   4.716   3.886   9.484 -0.0897 -0.5398 -0.1416
  415TMC3    C6 6247   4.722   4.003   9.410  0.2806 -0.3865  0.1710
  415TMC3     C 6248   0.214   3.940   9.741  0.1071 -0.0571  0.1250
  415TMC3     O 6249   0.129   3.886   9.814 -0.5284 -0.4800  0.0977
  415TMC3     H 6250   0.260   4.123   9.565 -0.3002  0.9815 -1.7710
  415TMC3    H1 6251   0.064   3.749   9.628 -0.3700  0.5378 -0.1872
  415TMC3    H2 6252   4.641   4.027   9.342  0.7828 -0.5488 -0.4835
  415TMC3    C7 6253   4.588   3.810   9.475  1.1018  0.1491  0.3849
  415TMC3    C8 6254   0.070   4.229   9.392 -0.5957  0.2758 -0.5936
  415TMC3    O1 6255   4.520   3.824   9.374  0.7312  0.1428  0.0647
  415TMC3    O2 6256   0.022   4.231   9.276 -0.2616 -0.3135 -0.9346
  416MPD2     C 6257   2.377   2.978  11.288 -0.3714  0.4277  0.0075
  416MPD2    C1 6258   2.273   2.989  11.209 -0.0848  0.2453 -0.2998
  416MPD2    C2 6259   2.296   2.965  11.078  0.2076  0.1985  0.6707
  416MPD2    C3 6260   2.418   2.926  11.022  0.4806  0.2132 -0.0149
  416MPD2    C4 6261   2.528   2.924  11.108  0.2385 -0.0186  1.0171
  416MPD2    C5 6262   2.500   2.944  11.236 -0.1075 -0.1624 -0.4859
  416MPD2     H 6263   2.216   2.968  11.005  0.0923  0.9818  0.8299
  416MPD2    H1 6264   2.617   2.870  11.077 -1.0854 -1.4501 -0.2781
  416MPD2    H2 6265   2.364   2.970  11.396 -3.1123  0.7289 -0.3224
  416MPD2    H3 6266   2.579   2.927  11.309  0.8171  0.7521 -1.2671
  416MPD2     N 6267   2.446   2.895  10.883  0.2073  0.0163 -0.2288
  416MPD2    H5 6268   2.543   2.890  10.855  0.0143 -2.8174 -0.3726
  416MPD2    N1 6269   2.138   2.980  11.257  0.3583  0.7258  0.0812
  416MPD2    H7 6270   2.134   2.992  11.358 -0.2895 -0.5569  0.2066
  417TMC3    C1 6271   1.915   3.045  11.262 -0.2427 -0.2808  0.3035
  417TMC3    C2 6272   1.919   3.034  11.398 -0.4235 -0.3376 -0.4503
  417TMC3    C3 6273   1.821   3.104  11.468  0.3291  0.9403  0.1684
  417TMC3    C4 6274   1.821   3.123  11.197  0.0730  0.0750 -0.5683
  417TMC3    C5 6275   1.727   3.182  11.266  0.4090  0.1758 -0.0825
  417TMC3    C6 6276   1.713   3.172  11.405 -0.8944 -0.5404 -0.7196
  417TMC3     C 6277   2.025   3.004  11.183  0.3053 -0.1825  0.0495
  417TMC3     O 6278   2.003   3.005  11.066 -0.1509 -0.6010 -0.1570
  417TMC3     H 6279   1.992   2.971  11.448 -0.1625  0.4676  0.1810
  417TMC3    H1 6280   1.822   3.133  11.089  1.7671  2.9418 -0.2782
  417TMC3    H2 6281   1.637   3.229  11.457 -1.8462 -0.6729 -1.9711
  417TMC3    C7 6282   1.613   3.258  11.202 -0.5072  0.1020  0.1957
  417TMC3    C8 6283   1.786   3.071  11.607  0.6496 -0.3215  0.1645
  417TMC3    O1 6284   1.641   3.331  11.110 -0.4029 -0.6599 -0.0649
  417TMC3    O2 6285   1.665   3.056  11.629  0.1930 -0.3369  0.1210
  418TMC3    C1 6286   0.644   0.050   0.223 -0.5173  0.5646  0.1366
  418TMC3    C2 6287   0.560   0.104   0.125  0.5896  0.8114  0.5216
  418TMC3    C3 6288   0.459   0.021   0.077 -0.3672  0.2878 -0.7122
  418TMC3    C4 6289   0.629   4.662   0.276 -0.3844 -0.0661 -0.6737
  418TMC3    C5 6290   0.520   4.594   0.236  0.0402 -0.0341 -0.9408
  418TMC3    C6 6291   0.435   4.634   0.137  0.2597 -0.3033 -0.5445
  418TMC3     C 6292   0.778   0.105   0.202  0.1942 -0.6712 -0.0479
  418TMC3     O 6293   0.785   0.226   0.182 -0.1948 -0.0222  0.1399
  418TMC3     H 6294   0.595   0.196   0.079  3.0347 -0.8924 -1.0381
  418TMC3    H1 6295   0.694   4.628   0.355 -1.9946 -2.3320 -0.3453
  418TMC3    H2 6296   0.356   4.564   0.111  1.5442 -1.7303 -0.5615
  418TMC3    C7 6297   0.501   4.461   0.285 -0.3126  0.2084 -0.6284
  418TMC3    C8 6298   0.404   0.058  17.696  0.1587  0.4818 -0.3958
  418TMC3    O1 6299   0.475   4.378   0.196 -0.0639 -0.3856  0.7944
  418TMC3    O2 6300   0.459   0.145  17.626  0.5087  0.6856  0.9340
  419MPD2     C 6301   3.566   2.601  12.667  0.2200 -0.2414  0.1016
  419MPD2    C1 6302   3.551   2.730  12.640  0.3554 -0.2877  0.0401
  419MPD2    C2 6303   3.624   2.821  12.715  0.6435  0.1817  0.3970
  419MPD2    C3 6304   3.720   2.779  12.809  0.4816 -0.0210 -0.6257
  419MPD2    C4 6305   3.737   2.649  12.826  0.6068 -0.0894 -0.2009
  419MPD2    C5 6306   3.656   2.558  12.759  0.4829  0.0821 -0.5756
  419MPD2     H 6307   3.612   2.927  12.695  0.4455  0.0272 -0.3136
  419MPD2    H1 6308   3.811   2.623  12.901 -0.3161 -0.3091  0.6280
  419MPD2    H2 6309   3.506   2.530  12.611  0.2624  1.4223 -2.0497
  419MPD2    H3 6310   3.667   2.452  12.776 -1.4285 -0.0999 -0.4494
  419MPD2     N 6311   3.794   2.881  12.869  0.0478  0.2605 -0.5030
  419MPD2    H5 6312   3.765   2.973  12.837  0.0857  0.4033 -0.1301
  419MPD2    N1 6313   3.462   2.779  12.540 -0.2315 -0.4796  0.6056
  419MPD2    H7 6314   3.466   2.881  12.535 -0.6638 -0.4237  1.5412
  420TMC3    C1 6315   3.928   3.000  13.040  0.0697  0.0595 -0.8174
  420TMC3    C2 6316   3.856   3.117  13.020  0.3415 -0.3504 -0.8953
  420TMC3    C3 6317   3.872   3.211  13.116 -0.0630  0.5852 -0.0416
  420TMC3    C4 6318   4.027   2.986  13.142 -0.0732  0.4063  0.7858
  420TMC3    C5 6319   4.032   3.091  13.234 -0.6373  0.5306 -0.2881
  420TMC3    C6 6320   3.962   3.208  13.218  0.0409 -0.2230  0.3347
  420TMC3     C 6321   3.892   2.877  12.963 -0.2796 -0.1089  0.0964
  420TMC3     O 6322   3.951   2.775  13.000 -0.0658  0.1719  0.2171
  420TMC3     H 6323   3.786   3.124  12.937 -2.3492 -0.8913  1.3411
  420TMC3    H1 6324   4.092   2.900  13.151 -0.4343  0.1490  0.9426
  420TMC3    H2 6325   3.946   3.275  13.302 -0.0448  1.0895 -0.7334
  420TMC3    C7 6326   4.114   3.069  13.343  0.4781  0.3622 -0.1002
  420TMC3    C8 6327   3.793   3.332  13.080  0.1486  0.3812 -0.5168
  420TMC3    O1 6328   4.150   2.953  13.369  0.6741 -0.2004  0.8208
  420TMC3    O2 6329   3.692   3.320  13.006 -0.5495  0.1617  0.0243
  421TMC3    C1 6330   0.760   0.025  13.645 -0.0832 -1.1595 -0.0493
  421TMC3    C2 6331   0.850   0.134  13.670  0.3730  0.0393  0.8136
  421TMC3    C3 6332   0.977   0.105  13.702  0.9695  0.1527  0.4378
  421TMC3    C4 6333   0.809   4.634  13.652  0.5524 -0.1635 -0.3380
  421TMC3    C5 6334   0.941   4.614  13.690  0.3320  0.1854 -0.3960
  421TMC3    C6 6335   1.022   4.718  13.718 -1.0127 -0.2278 -0.2196
  421TMC3     C 6336   0.635   0.062  13.582 -0.4001  0.3905 -0.1745
  421TMC3     O 6337   0.622   0.182  13.577  0.0225 -0.1108  0.2594
  421TMC3     H 6338   0.809   0.233  13.685 -0.2506  0.0068 -0.6792
  421TMC3    H1 6339   0.739   4.552  13.646  0.9561 -0.5008 -0.4904
  421TMC3    H2 6340   1.120   4.694  13.757 -1.0521 -0.9480 -0.5679
  421TMC3    C7 6341   0.985   4.493  13.749 -0.0219 -0.3107 -0.4131
  421TMC3    C8 6342   1.067   0.207  13.758 -0.2239  0.6719  0.0133
  421TMC3    O1 6343   1.074   4.498  13.830  0.2885  0.5416  0.0927
  421TMC3    O2 6344   1.165   0.178  13.827 -0.9454 -0.1424 -0.3089
  422TMC3    C1 6345   3.294   1.245  12.437 -1.3447  0.2691 -0.0145
  422TMC3    C2 6346   3.256   1.332  12.538  0.4076 -1.0066 -0.6672
  422TMC3    C3 6347   3.121   1.335  12.580  0.3940  0.6106 -0.0030
  422TMC3    C4 6348   3.201   1.162  12.379  0.5431  0.5898 -0.8113
  422TMC3    C5 6349   3.071   1.172  12.416 -0.5648  0.1829  0.5736
  422TMC3    C6 6350   3.025   1.253  12.520  0.0024 -0.0051 -0.0725
  422TMC3     C 6351   3.433   1.259  12.393 -0.6595 -0.2098 -0.0549
  422TMC3     O 6352   3.509   1.322  12.465 -0.0451 -0.5412  0.2477
  422TMC3     H 6353   3.329   1.398  12.581  0.3673 -0.5182 -1.3444
  422TMC3    H1 6354   3.222   1.105  12.289  4.1672  0.8381 -0.1222
  422TMC3    H2 6355   2.923   1.250  12.557 -0.4995  0.1200 -1.4381
  422TMC3    C7 6356   2.970   1.112  12.330  0.5388  0.1005 -0.3544
  422TMC3    C8 6357   3.095   1.419  12.686 -0.3015 -0.0420  0.3371
  422TMC3    O1 6358   3.015   1.086  12.220  0.5563 -0.1124  0.3709
  422TMC3    O2 6359   3.192   1.486  12.722  0.5941  0.4581 -0.1906
  423MPD2     C 6360   3.878   2.187   0.197 -0.0087 -0.6299 -0.6590
  423MPD2    C1 6361   3.951   2.082   0.252 -0.0104  0.0355 -0.1753
  423MPD2    C2 6362   4.024   1.993   0.172 -0.8923  0.1721  0.2277
  423MPD2    C3 6363   4.048   2.025   0.037  0.1919 -0.0563 -0.6476
  423MPD2    C4 6364   3.975   2.134  17.730  0.6079  0.2504 -0.0075
  423MPD2    C5 6365   3.889   2.205   0.055  0.2197  0.8945 -0.5387
  423MPD2     H 6366   4.063   1.901   0.212  0.1443  0.4326 -0.1839
  423MPD2    H1 6367   3.986   2.164  17.626  0.0727  0.4727 -0.0018
  423MPD2    H2 6368   3.816   2.248   0.261  0.5004  0.5451 -1.2751
  423MPD2    H3 6369   3.836   2.281  17.749 -0.0006  1.1963  0.0791
  423MPD2     N 6370   4.124   1.942  17.698 -0.5372  0.7879  0.6892
  423MPD2    H5 6371   4.131   1.971  17.601 -1.7118  0.0518  0.3710
  423MPD2    N1 6372   3.943   2.056   0.390 -0.4655  0.4402  0.0628
  423MPD2    H7 6373   4.008   1.985   0.423 -0.5191  0.8525  1.0478
  424TMC3    C1 6374   3.951   2.108   0.615 -0.2749 -0.1750  0.0156
  424TMC3    C2 6375   4.060   2.023   0.622 -0.0701 -0.0648 -0.2591
  424TMC3    C3 6376   4.129   2.015   0.739  0.1287  0.3398  0.8604
  424TMC3    C4 6377   3.892   2.169   0.721  0.0626 -0.4011 -0.1458
  424TMC3    C5 6378   3.966   2.155   0.843 -0.2646  0.0851 -0.0536
  424TMC3    C6 6379   4.083   2.075   0.849 -0.8617 -0.6719  0.3809
  424TMC3     C 6380   3.887   2.125   0.491  0.7026  0.2536 -1.2790
  424TMC3     O 6381   3.781   2.183   0.489  0.1536 -0.3439  0.3537
  424TMC3     H 6382   4.107   1.980   0.534  0.9329  1.1076 -0.3054
  424TMC3    H1 6383   3.805   2.233   0.720 -0.0841 -0.6145 -0.6808
  424TMC3    H2 6384   4.133   2.060   0.944 -0.8472  1.1819  0.6603
  424TMC3    C7 6385   3.899   2.153   0.974  0.5761 -0.9601 -0.1167
  424TMC3    C8 6386   4.234   1.910   0.746  0.1885 -0.1425  0.2267
  424TMC3    O1 6387   3.962   2.167   1.076 -0.1619 -0.2970  0.0177
  424TMC3    O2 6388   4.239   1.820   0.666  0.3446  0.0565 -0.3785
  425MPD2     C 6389   3.575   1.391  16.978  1.0755  0.3336 -0.1766
  425MPD2    C1 6390   3.530   1.271  17.028  0.0485  0.3391 -0.2640
  425MPD2    C2 6391   3.413   1.277  17.105  0.3731 -0.2169 -0.6529
  425MPD2    C3 6392   3.335   1.387  17.110  0.3675 -0.2164 -0.3023
  425MPD2    C4 6393   3.375   1.499  17.052 -0.0671 -0.4552 -0.9769
  425MPD2    C5 6394   3.498   1.502  16.990 -0.0551  0.1661 -0.1764
  425MPD2     H 6395   3.377   1.186  17.151 -0.5415  0.8360  0.6793
  425MPD2    H1 6396   3.326   1.596  17.063  0.0190 -0.3998 -1.0772
  425MPD2    H2 6397   3.671   1.409  16.932  1.4100 -1.3917 -0.1769
  425MPD2    H3 6398   3.527   1.595  16.942 -0.3469  0.6639  0.6093
  425MPD2     N 6399   3.201   1.374  17.165  0.6493  0.0576 -0.5369
  425MPD2    H5 6400   3.189   1.285  17.212  0.7338 -0.2917 -1.1750
  425MPD2    N1 6401   3.610   1.154  17.001  0.7264 -0.3569  0.8842
  425MPD2    H7 6402   3.695   1.163  16.947 -1.1328  1.3926 -1.7446
  426TMC3    C1 6403   3.656   0.927  16.970 -1.4658  0.1867 -0.0260
  426TMC3    C2 6404   3.743   0.954  16.871 -0.2959  0.2641  0.2570
  426TMC3    C3 6405   3.823   0.855  16.821 -0.1624  0.7174 -0.1731
  426TMC3    C4 6406   3.642   0.800  17.017 -1.0317  0.5602 -0.0111
  426TMC3    C5 6407   3.724   0.703  16.970 -0.2196 -0.2905 -0.0802
  426TMC3    C6 6408   3.824   0.729  16.885  0.5011 -0.1202 -0.8953
  426TMC3     C 6409   3.566   1.025  17.027 -0.8268 -1.1647  0.1367
  426TMC3     O 6410   3.462   0.994  17.081 -0.0211  0.7608 -0.4023
  426TMC3     H 6411   3.737   1.049  16.819 -0.3588 -0.4359 -1.0214
  426TMC3    H1 6412   3.571   0.784  17.097 -1.1871  2.6125  0.2471
  426TMC3    H2 6413   3.884   0.649  16.845 -0.4407  0.1852 -2.9305
  426TMC3    C7 6414   3.682   0.564  16.973 -0.8476 -0.5984 -0.1135
  426TMC3    C8 6415   3.852   0.834  16.679  0.4460 -0.6378  0.4118
  426TMC3    O1 6416   3.763   0.469  16.970  0.0152  0.0132 -0.6163
  426TMC3    O2 6417   3.916   0.740  16.635 -0.2505  0.1716 -0.4473
  427MPD2     C 6418   2.174   3.196  14.769  0.4325  0.5814  0.2997
  427MPD2    C1 6419   2.134   3.245  14.890  0.7554 -0.0208 -0.5948
  427MPD2    C2 6420   1.998   3.266  14.921  0.8824  0.6135  0.2379
  427MPD2    C3 6421   1.902   3.242  14.828  0.5879 -0.5497  0.3235
  427MPD2    C4 6422   1.944   3.194  14.709  0.0164  0.5641  0.3014
  427MPD2    C5 6423   2.072   3.169  14.678  0.4417  0.0471  0.1452
  427MPD2     H 6424   1.986   3.305  15.022  0.9591  2.9651 -0.6607
  427MPD2    H1 6425   1.866   3.158  14.643  0.6973 -0.6292  0.1554
  427MPD2    H2 6426   2.274   3.188  14.728  0.7189 -2.5310  1.6218
  427MPD2    H3 6427   2.096   3.120  14.584 -1.5415 -2.9613  1.2093
  427MPD2     N 6428   1.764   3.265  14.856  0.3869  0.4305  0.1623
  427MPD2    H5 6429   1.696   3.239  14.786  1.4882 -0.0531 -0.7308
  427MPD2    N1 6430   2.232   3.263  14.995 -0.4927  0.1740  0.2981
  427MPD2    H7 6431   2.195   3.285  15.087 -1.2273  0.9588 -0.1822
  428TMC3    C1 6432   2.438   3.239  15.113  1.1659  0.0806 -0.3469
  428TMC3    C2 6433   2.364   3.197  15.214  0.7096  0.2235  0.2144
  428TMC3    C3 6434   2.436   3.147  15.318 -0.1618 -0.7666 -0.3637
  428TMC3    C4 6435   2.572   3.240  15.115  0.2253  0.0290 -0.2164
  428TMC3    C5 6436   2.642   3.195  15.223  0.5710  0.1399 -0.2180
  428TMC3    C6 6437   2.574   3.150  15.331  0.1199  0.6596  0.6353
  428TMC3     C 6438   2.370   3.254  14.981 -0.0292  0.3564  0.1375
  428TMC3     O 6439   2.431   3.240  14.878 -0.0543 -0.2113 -0.1105
  428TMC3     H 6440   2.256   3.190  15.222  0.5456 -0.0854 -2.1851
  428TMC3    H1 6441   2.620   3.286  15.029  1.8893 -1.3955 -0.0673
  428TMC3    H2 6442   2.627   3.092  15.405 -0.2862  1.1426  1.3049
  428TMC3    C7 6443   2.783   3.166  15.219 -0.1037  0.6676 -0.5564
  428TMC3    C8 6444   2.362   3.075  15.419 -0.4014 -0.0982  0.4884
  428TMC3    O1 6445   2.810   3.065  15.287  0.1967 -0.0429  0.0733
  428TMC3    O2 6446   2.257   3.019  15.391 -0.1233 -0.2095 -0.2564
  429MPD2     C 6447   3.027   3.426  17.419 -0.0036 -0.0721  0.3235
  429MPD2    C1 6448   3.145   3.368  17.381 -0.2262  0.5958  0.6005
  429MPD2    C2 6449   3.231   3.426  17.293 -0.7437 -0.2532 -0.3010
  429MPD2    C3 6450   3.191   3.547  17.238  0.6073  0.8505 -0.7589
  429MPD2    C4 6451   3.065   3.611  17.269 -0.0724 -0.4248 -0.2876
  429MPD2    C5 6452   2.992   3.542  17.360  0.0400  0.4361 -0.8586
  429MPD2     H 6453   3.329   3.386  17.269  0.2925  2.1630 -0.0435
  429MPD2    H1 6454   3.024   3.702  17.229  3.3373  0.8464 -0.9464
  429MPD2    H2 6455   2.961   3.386  17.495  0.5355 -2.1039 -0.2649
  429MPD2    H3 6456   2.896   3.578  17.395 -0.6238  0.9202 -3.1824
  429MPD2     N 6457   3.289   3.616  17.168  0.5280 -0.1594 -0.0905
  429MPD2    H5 6458   3.370   3.557  17.153 -0.1135 -0.8843 -0.6945
  429MPD2    N1 6459   3.171   3.240  17.430  0.0846  0.8350  0.7145
  429MPD2    H7 6460   3.258   3.199  17.398  0.6162  2.5933 -0.0822
  430TMC3    C1 6461   3.403   3.772  17.039  0.3160 -0.3164 -0.7122
  430TMC3    C2 6462   3.389   3.873  16.944 -0.0052  0.1015 -0.0398
  430TMC3    C3 6463   3.471   3.883  16.834  0.0988  0.3813 -0.4422
  430TMC3    C4 6464   3.508   3.679  17.023  0.7607  0.4715 -0.4796
  430TMC3    C5 6465   3.578   3.694  16.903 -0.6270 -0.0286  0.3822
  430TMC3    C6 6466   3.570   3.796  16.822  0.0888 -0.3168 -0.0664
  430TMC3     C 6467   3.293   3.747  17.128  0.0924  0.3570  0.3466
  430TMC3     O 6468   3.211   3.841  17.139 -0.3245 -0.0606 -0.1372
  430TMC3     H 6469   3.310   3.947  16.949 -1.8169 -2.1356  4.0844
  430TMC3    H1 6470   3.520   3.599  17.095  1.6027  0.3845 -0.7163
  430TMC3    H2 6471   3.649   3.800  16.747  0.0203  2.3380  0.0162
  430TMC3    C7 6472   3.612   3.571  16.829 -0.2424  0.5148 -0.2628
  430TMC3    C8 6473   3.421   3.928  16.701 -0.2998 -0.0113 -0.1700
  430TMC3    O1 6474   3.621   3.472  16.902 -0.2158 -0.0643  0.0729
  430TMC3    O2 6475   3.461   3.860  16.608 -0.3231  0.1348 -0.3375
  431MPD2     C 6476   3.665   3.597  12.420 -1.2204 -0.7028 -0.0923
  431MPD2    C1 6477   3.759   3.502  12.381 -0.0568 -0.1540 -0.5485
  431MPD2    C2 6478   3.724   3.371  12.366 -0.2190 -0.2366  0.2532
  431MPD2    C3 6479   3.584   3.335  12.371  0.5399 -0.1228 -0.0119
  431MPD2    C4 6480   3.497   3.432  12.411 -1.2528  0.5761  0.0921
  431MPD2    C5 6481   3.538   3.557  12.440  0.5514 -0.1504 -0.1447
  431MPD2     H 6482   3.796   3.295  12.336 -2.6886 -2.4020 -0.1897
  431MPD2    H1 6483   3.392   3.413  12.433 -0.9033 -0.1866  1.0896
  431MPD2    H2 6484   3.692   3.698  12.446  0.5809 -0.8298 -1.4596
  431MPD2    H3 6485   3.461   3.630  12.462  0.7423  0.9243 -2.9637
  431MPD2     N 6486   3.550   3.210  12.317  0.4945  0.1571 -0.8873
  431MPD2    H5 6487   3.627   3.157  12.276  0.7021 -2.0613  2.3870
  431MPD2    N1 6488   3.896   3.547  12.379  0.5426 -0.1271 -0.5754
  431MPD2    H7 6489   3.913   3.647  12.379 -0.2469  0.0026 -1.6862
  432TMC3    C1 6490   3.412   3.018  12.276  0.2067 -0.9257  0.0179
  432TMC3    C2 6491   3.472   2.986  12.159 -0.0513 -0.2469 -0.0274
  432TMC3    C3 6492   3.471   2.854  12.114 -0.2876 -0.5482  1.3066
  432TMC3    C4 6493   3.357   2.925  12.359 -0.5593 -0.1761  0.0018
  432TMC3    C5 6494   3.373   2.793  12.319  0.2219 -0.3792 -0.0450
  432TMC3    C6 6495   3.435   2.758  12.199  0.1844  0.1325 -0.1746
  432TMC3     C 6496   3.417   3.162  12.312  0.7393 -0.0035  0.4471
  432TMC3     O 6497   3.324   3.208  12.378 -0.9345 -0.0931 -0.1572
  432TMC3     H 6498   3.511   3.064  12.095  0.0398  0.7706  1.2716
  432TMC3    H1 6499   3.312   2.958  12.452 -0.6643  1.8339 -0.7552
  432TMC3    H2 6500   3.444   2.654  12.169 -0.5996 -0.3585  1.2834
  432TMC3    C7 6501   3.422   2.707  12.427  0.3472  0.2157 -1.1784
  432TMC3    C8 6502   3.559   2.826  12.004 -0.2193  0.2909  0.4976
  432TMC3    O1 6503   3.441   2.593  12.392  0.0959 -0.0964 -0.1413
  432TMC3    O2 6504   3.561   2.898  11.908  0.7395  0.2412  0.1357
  433MPD2     C 6505   2.882   2.147  10.724 -0.0497 -0.2065 -0.1268
  433MPD2    C1 6506   2.912   2.034  10.797 -0.1219 -0.3615  0.6580
  433MPD2    C2 6507   2.953   2.038  10.933  0.3733 -0.2790 -0.8518
  433MPD2    C3 6508   2.970   2.162  10.991 -0.3208 -0.6141 -0.0526
  433MPD2    C4 6509   2.948   2.276  10.920 -0.4742  0.4855  0.0182
  433MPD2    C5 6510   2.898   2.264  10.794  0.2760 -0.1660 -0.6171
  433MPD2     H 6511   2.959   1.947  10.991 -1.4193  0.7345  0.9125
  433MPD2    H1 6512   2.968   2.378  10.952  3.1774  0.0454 -0.8513
  433MPD2    H2 6513   2.852   2.139  10.620 -0.0269  1.8838 -0.2803
  433MPD2    H3 6514   2.898   2.355  10.734 -0.8975  0.0351 -0.3007
  433MPD2     N 6515   3.020   2.149  11.122  0.5076 -0.2743 -0.2502
  433MPD2    H5 6516   3.029   2.060  11.169  1.0116 -1.1206 -1.9385
  433MPD2    N1 6517   2.899   1.913  10.724 -0.2602 -0.3397  0.3771
  433MPD2    H7 6518   2.894   1.933  10.625 -2.1855 -3.4191 -0.1271
  434TMC3    C1 6519   2.945   1.691  10.675  0.0758  0.1059 -0.0150
  434TMC3    C2 6520   3.031   1.589  10.714 -0.1959  0.6295  0.2864
  434TMC3    C3 6521   3.100   1.514  10.623 -0.0730 -0.0420  0.4377
  434TMC3    C4 6522   2.925   1.720  10.542  0.2421  0.7950  0.0362
  434TMC3    C5 6523   2.994   1.634  10.462  0.2162 -0.3508 -0.2670
  434TMC3    C6 6524   3.093   1.540  10.492 -0.1137  1.0587  0.3444
  434TMC3     C 6525   2.915   1.788  10.775  0.1612  0.7132 -0.0992
  434TMC3     O 6526   2.935   1.747  10.891 -0.3951 -0.1877 -0.1311
  434TMC3     H 6527   3.042   1.556  10.817  1.1264 -0.0469 -0.0757
  434TMC3    H1 6528   2.848   1.790  10.511  0.2726  0.0009 -1.8442
  434TMC3    H2 6529   3.162   1.483  10.431 -0.4588  0.1525  0.7924
  434TMC3    C7 6530   2.913   1.611  10.342 -0.6627  0.0414  0.0860
  434TMC3    C8 6531   3.213   1.445  10.689 -0.9212  0.3617  0.1994
  434TMC3    O1 6532   2.839   1.694  10.295 -0.2245  0.3239  0.5466
  434TMC3    O2 6533   3.182   1.370  10.781  0.0199  0.0414 -0.8844
  435MPD2     C 6534   0.534   2.113  15.384 -0.0621 -0.2879  0.5376
  435MPD2    C1 6535   0.477   2.076  15.506  0.0019  0.4576  0.7727
  435MPD2    C2 6536   0.556   2.000  15.588 -0.3035  0.1077  0.3393
  435MPD2    C3 6537   0.684   1.968  15.555  0.0312  0.0415  0.3193
  435MPD2    C4 6538   0.744   2.005  15.439  0.4833  0.3624  0.0221
  435MPD2    C5 6539   0.657   2.075  15.350  0.0410 -0.0461  0.4208
  435MPD2     H 6540   0.515   1.975  15.685  2.5550 -3.0831  0.7446
  435MPD2    H1 6541   0.844   1.979  15.406  0.6521  1.0508 -0.0045
  435MPD2    H2 6542   0.476   2.171  15.312  2.7521 -2.5188 -3.5590
  435MPD2    H3 6543   0.698   2.102  15.253  0.0628 -0.1253  0.4077
  435MPD2     N 6544   0.758   1.906  15.657 -0.1881 -0.1726 -0.3715
  435MPD2    H5 6545   0.719   1.894  15.750  1.5410 -2.0966  0.0974
  435MPD2    N1 6546   0.340   2.107  15.549 -0.4281  0.3810  0.0799
  435MPD2    H7 6547   0.301   2.060  15.631  2.2423  1.5913  2.0472
  436TMC3    C1 6548   0.009   2.263  15.748  0.3632 -0.3994 -0.1485
  436TMC3    C2 6549   0.122   2.215  15.687 -0.7867  0.0829  0.3829
  436TMC3    C3 6550   0.123   2.201  15.551 -0.0633  0.4185  0.1449
  436TMC3    C4 6551   4.639   2.312  15.676 -0.1386 -0.4223  0.5828
  436TMC3    C5 6552   4.653   2.304  15.544 -0.0547 -0.6036  0.1192
  436TMC3    C6 6553   0.017   2.251  15.476  0.5971 -0.0034 -0.1346
  436TMC3     C 6554   0.048   2.343  15.865 -0.2675  0.2454  0.2989
  436TMC3     O 6555   0.170   2.363  15.880  0.5666 -0.0552  0.1524
  436TMC3     H 6556   0.206   2.178  15.744 -0.4503 -0.6035 -0.5480
  436TMC3    H1 6557   4.552   2.351  15.728  0.0340 -1.4266  1.6355
  436TMC3    H2 6558   0.015   2.238  15.368  1.5471  1.0131 -0.2746
  436TMC3    C7 6559   4.549   2.364  15.462 -0.2427  0.2414 -0.0306
  436TMC3    C8 6560   0.245   2.181  15.477  0.6681 -0.2335  0.2160
  436TMC3    O1 6561   4.585   2.426  15.363  0.0517 -0.0325  0.3058
  436TMC3    O2 6562   0.256   2.230  15.362  0.2484  0.5326  0.8931
  437TMC3    C1 6563   3.372   4.531  12.389 -0.8787  0.1395  0.5365
  437TMC3    C2 6564   3.312   4.545  12.263  0.2812 -0.0116  0.3756
  437TMC3    C3 6565   3.368   4.622  12.167 -0.1232 -0.2638 -0.8685
  437TMC3    C4 6566   3.473   4.623  12.421 -0.0936  0.8979 -0.4550
  437TMC3    C5 6567   3.518   4.705  12.319  0.3135 -0.1836  0.5135
  437TMC3    C6 6568   3.467   4.709  12.195 -0.2909  0.8173  0.3834
  437TMC3     C 6569   3.315   4.447  12.494 -0.7024 -0.5191 -0.1700
  437TMC3     O 6570   3.199   4.416  12.471 -0.1053 -0.3176  0.1967
  437TMC3     H 6571   3.241   4.467  12.238 -1.1288  1.3633  0.0529
  437TMC3    H1 6572   3.503   4.642  12.523 -1.5564  0.6065  0.0292
  437TMC3    H2 6573   3.504   0.037  12.118 -1.2696  0.8793 -0.0453
  437TMC3    C7 6574   3.628   0.061  12.348 -0.0851  0.4141  0.5193
  437TMC3    C8 6575   3.307   4.618  12.038  0.2687  0.4592  0.2495
  437TMC3    O1 6576   3.637   0.152  12.260 -0.3245 -0.1754  0.4175
  437TMC3    O2 6577   3.187   4.608  12.039 -0.3006 -0.4367  0.7430
  438MPD2     C 6578   0.860   4.614  16.626  0.8885  0.3991  0.4139
  438MPD2    C1 6579   0.997   4.627  16.667  0.2560  0.4352  0.6637
  438MPD2    C2 6580   1.026   4.643  16.799 -0.7460 -0.3086 -0.4406
  438MPD2    C3 6581   0.922   4.669  16.894 -0.4258  0.6295  0.3208
  438MPD2    C4 6582   0.796   4.658  16.852 -0.2384 -0.3467 -0.2438
  438MPD2    C5 6583   0.766   4.630  16.723 -0.5737  0.6662 -0.0040
  438MPD2     H 6584   1.131   4.646  16.826 -0.9212 -0.3338  0.2482
  438MPD2    H1 6585   0.710   4.668  16.916  0.9929  2.6185  0.9677
  438MPD2    H2 6586   0.828   4.604  16.523 -1.6373 -0.4378  1.2955
  438MPD2    H3 6587   0.660   4.619  16.701  0.0737 -0.9708 -2.3793
  438MPD2     N 6588   0.949   4.686  17.031  0.0211  0.3974 -0.0423
  438MPD2    H5 6589   0.871   4.724  17.085  0.2857 -2.7657  2.5908
  438MPD2    N1 6590   1.108   4.615  16.582  0.0804 -0.3826 -0.0155
  438MPD2    H7 6591   1.202   4.613  16.619 -0.1082  1.5420  0.5769
  439TMC3    C1 6592   1.215   4.523  16.389  0.1318 -0.7853  0.0762
  439TMC3    C2 6593   1.203   4.463  16.272 -0.3465 -0.3411  0.4670
  439TMC3    C3 6594   1.287   4.366  16.228  0.8486 -0.3603 -0.3653
  439TMC3    C4 6595   1.325   4.492  16.473  0.2042  0.4078  0.3225
  439TMC3    C5 6596   1.410   4.398  16.428  0.5951  1.0359 -0.4850
  439TMC3    C6 6597   1.387   4.323  16.316 -0.1070  0.3385  0.7638
  439TMC3     C 6598   1.094   4.595  16.444  0.7053 -0.6562 -0.2592
  439TMC3     O 6599   0.991   4.600  16.374 -0.2759  0.2394 -0.0104
  439TMC3     H 6600   1.128   4.481  16.196 -2.4888 -1.7414  2.2725
  439TMC3    H1 6601   1.349   4.553  16.560 -1.4033 -1.4721  2.0738
  439TMC3    H2 6602   1.439   4.230  16.298 -0.0133  0.5938 -0.3357
  439TMC3    C7 6603   1.538   4.439  16.459 -0.1270 -0.3384 -0.3833
  439TMC3    C8 6604   1.334   4.379  16.094  1.0877 -0.0298  0.3148
  439TMC3    O1 6605   1.577   4.429  16.573  0.1058 -0.3025  0.4880
  439TMC3    O2 6606   1.257   4.425  16.014  0.6269 -0.1287 -0.2720
  440MPD2     C 6607   0.513   0.290  14.413  0.0009 -0.2407  0.7917
  440MPD2    C1 6608   0.510   0.365  14.531  0.0148  0.0935  0.5093
  440MPD2    C2 6609   0.623   0.369  14.609 -0.2866  0.1410  0.1357
  440MPD2    C3 6610   0.732   0.290  14.585  0.2811  0.0734  0.2099
  440MPD2    C4 6611   0.731   0.220  14.477 -0.3855  0.3344 -0.2639
  440MPD2    C5 6612   0.628   0.215  14.386  0.2376 -0.5104  0.3325
  440MPD2     H 6613   0.612   0.423  14.702  1.1604 -1.5036  1.2727
  440MPD2    H1 6614   0.810   0.146  14.462 -0.0852  0.7091 -0.5266
  440MPD2    H2 6615   0.432   0.282  14.341  0.0374  0.3397  0.6849
  440MPD2    H3 6616   0.625   0.147  14.301  1.8922 -0.5022  0.2643
  440MPD2     N 6617   0.841   0.267  14.672  0.0442 -1.0546  0.5357
  440MPD2    H5 6618   0.914   0.202  14.646 -0.4318 -1.1864 -0.4482
  440MPD2    N1 6619   0.394   0.439  14.568  0.2248  0.3267 -0.1528
  440MPD2    H7 6620   0.394   0.484  14.659  1.5445 -0.2806  0.1461
  441TMC3    C1 6621   0.979   0.292  14.865 -0.1366  1.1559  0.2045
  441TMC3    C2 6622   1.032   0.389  14.944 -0.3299 -0.2971  0.3362
  441TMC3    C3 6623   1.056   0.367  15.074  0.7316 -0.3341 -0.0789
  441TMC3    C4 6624   0.966   0.169  14.913 -0.5286 -0.1485 -0.3435
  441TMC3    C5 6625   1.009   0.142  15.038 -0.3055 -0.1882 -0.5305
  441TMC3    C6 6626   1.055   0.243  15.122  0.5059 -0.3943 -0.1135
  441TMC3     C 6627   0.867   0.346  14.783  0.9278 -0.3649  0.2268
  441TMC3     O 6628   0.818   0.453  14.815  0.2001 -0.0405  0.4934
  441TMC3     H 6629   1.048   0.488  14.903  0.5553  0.3441  2.2074
  441TMC3    H1 6630   0.914   0.092  14.857  1.5507 -2.8483  1.4343
  441TMC3    H2 6631   1.063   0.214  15.227 -1.6976  0.2844  0.2375
  441TMC3    C7 6632   0.925   0.045  15.115 -0.4254 -1.2107 -0.7766
  441TMC3    C8 6633   1.003   0.460  15.171  0.6550 -0.3291  0.0304
  441TMC3    O1 6634   0.817   0.009  15.072 -0.1167  0.6638  0.4550
  441TMC3    O2 6635   1.071   0.461  15.270  0.3522 -0.6311 -0.1367
  442MPD2     C 6636   3.299   1.025  16.413 -0.5745  1.0148  0.2298
  442MPD2    C1 6637   3.182   0.958  16.433 -0.2304 -0.3866 -0.7383
  442MPD2    C2 6638   3.177   0.819  16.408  0.9312  0.0924  0.3766
  442MPD2    C3 6639   3.286   0.747  16.363  0.4188  0.3586  0.4805
  442MPD2    C4 6640   3.400   0.825  16.345  0.6218 -0.3803 -0.6057
  442MPD2    C5 6641   3.406   0.953  16.371  0.2747 -0.1879 -0.1155
  442MPD2     H 6642   3.078   0.778  16.422  1.1913 -0.9857 -0.9326
  442MPD2    H1 6643   3.488   0.776  16.305  0.9932 -0.0026 -0.2495
  442MPD2    H2 6644   3.320   1.128  16.441  0.0753  0.4819  1.6817
  442MPD2    H3 6645   3.502   1.001  16.361  1.2900 -2.0460  0.7634
  442MPD2     N 6646   3.289   0.611  16.339  0.0094  0.3981 -0.3665
  442MPD2    H5 6647   3.377   0.569  16.311  1.3197  2.0323  1.3010
  442MPD2    N1 6648   3.059   1.020  16.469  0.4391  0.4242  0.0898
  442MPD2    H7 6649   2.978   0.960  16.486  0.8289  0.4761  2.2083
  443TMC3    C1 6650   2.904   1.182  16.547 -0.7923 -0.4845  0.2682
  443TMC3    C2 6651   2.831   1.287  16.498 -0.5621 -0.4114  0.1663
  443TMC3    C3 6652   2.699   1.272  16.502 -0.2798 -0.2240 -0.9299
  443TMC3    C4 6653   2.851   1.083  16.618  0.0297  0.2008 -0.2979
  443TMC3    C5 6654   2.719   1.093  16.653  0.6233  0.2821 -0.1873
  443TMC3    C6 6655   2.635   1.182  16.585  0.1294  0.0139 -0.4413
  443TMC3     C 6656   3.033   1.156  16.483  0.1419  0.2896 -0.2038
  443TMC3     O 6657   3.103   1.250  16.442 -0.3830 -0.1375 -0.6919
  443TMC3     H 6658   2.878   1.359  16.432 -0.7688 -0.8302 -0.4409
  443TMC3    H1 6659   2.910   1.017  16.680 -0.3975  0.5385  0.4584
  443TMC3    H2 6660   2.528   1.171  16.595 -0.1354  1.3055 -1.8545
  443TMC3    C7 6661   2.668   0.981  16.728 -0.4920  0.4977 -0.0929
  443TMC3    C8 6662   2.640   1.272  16.372 -0.1003 -0.3462  0.4610
  443TMC3    O1 6663   2.722   0.873  16.703 -0.0100  0.0852 -0.4021
  443TMC3    O2 6664   2.556   1.185  16.352 -0.2553  0.0442  0.0509
  444MPD2     C 6665   3.379   0.462  16.638 -0.2538  0.3045 -0.2806
  444MPD2    C1 6666   3.340   0.342  16.700  0.5366  0.5580  0.2431
  444MPD2    C2 6667   3.424   0.235  16.670 -0.3546 -0.3484 -0.1365
  444MPD2    C3 6668   3.539   0.246  16.602 -0.5722 -0.0737 -0.2548
  444MPD2    C4 6669   3.570   0.364  16.545  0.8627  0.5829  0.4490
  444MPD2    C5 6670   3.494   0.474  16.563  0.3862  0.0587 -0.1841
  444MPD2     H 6671   3.390   0.139  16.706  0.7413 -0.0435  1.6994
  444MPD2    H1 6672   3.659   0.380  16.485  0.9770 -0.8520  0.2315
  444MPD2    H2 6673   3.316   0.550  16.645  1.3683  1.1623  3.1530
  444MPD2    H3 6674   3.526   0.570  16.524 -0.5691  0.6654  0.5415
  444MPD2     N 6675   3.618   0.129  16.574 -0.6851 -0.1436  0.0824
  444MPD2    H5 6676   3.599   0.045  16.627 -0.6878 -0.3848 -0.2970
  444MPD2    N1 6677   3.226   0.312  16.778 -0.4312  0.3757  0.5299
  444MPD2    H7 6678   3.213   0.218  16.813 -0.3542  0.6956  1.4060
  445TMC3    C1 6679   3.791   4.719  16.493  0.5594 -0.4044  0.8938
  445TMC3    C2 6680   3.728   4.610  16.549 -0.0650 -0.2155  0.4930
  445TMC3    C3 6681   3.802   4.491  16.561  0.3764  0.0683  0.2055
  445TMC3    C4 6682   3.926   4.716  16.465  0.7854  0.1556 -0.4788
  445TMC3    C5 6683   4.000   4.601  16.472 -0.0574 -0.3414  0.5011
  445TMC3    C6 6684   3.934   4.487  16.527  0.6160  0.1277  0.3175
  445TMC3     C 6685   3.728   0.117  16.495 -0.2097 -0.0205 -0.1089
  445TMC3     O 6686   3.795   0.205  16.445  1.1266  0.1692  0.2247
  445TMC3     H 6687   3.621   4.606  16.565 -0.0903 -0.1882  0.3326
  445TMC3    H1 6688   3.969   0.069  16.423 -0.2362  0.6265 -0.4907
  445TMC3    H2 6689   3.994   4.399  16.544  2.0815  0.9779 -0.4697
  445TMC3    C7 6690   4.139   4.598  16.443  0.6536  0.0738 -0.3120
  445TMC3    C8 6691   3.756   4.384  16.641  0.3957 -0.7077  0.5115
  445TMC3    O1 6692   4.188   4.689  16.383 -0.7307 -0.2979 -0.3018
  445TMC3    O2 6693   3.798   4.274  16.613  0.3448 -0.1077  0.0671
  446MPD2     C 6694   2.958   1.210  11.132  0.0963  0.7686 -0.4505
  446MPD2    C1 6695   2.882   1.294  11.050  0.7501 -0.8502  0.2060
  446MPD2    C2 6696   2.936   1.421  11.032 -0.2735  0.0589  0.0958
  446MPD2    C3 6697   3.051   1.464  11.095 -0.2003 -0.3733 -0.3234
  446MPD2    C4 6698   3.118   1.383  11.185 -0.3025  0.4757 -0.1461
  446MPD2    C5 6699   3.075   1.255  11.196 -0.0772  0.0817 -0.1511
  446MPD2     H 6700   2.889   1.487  10.962 -0.3813  0.8389  0.9026
  446MPD2    H1 6701   3.210   1.408  11.237 -2.0767  0.9998  2.7401
  446MPD2    H2 6702   2.927   1.106  11.143  0.8232  0.6448  0.3630
  446MPD2    H3 6703   3.118   1.182  11.263 -0.8133  0.1038  0.3412
  446MPD2     N 6704   3.101   1.592  11.067  0.4728 -0.0782  0.3347
  446MPD2    H5 6705   3.040   1.655  11.016  0.0456  1.2850  2.5485
  446MPD2    N1 6706   2.769   1.254  10.978  0.6899 -0.5285 -0.2757
  446MPD2    H7 6707   2.713   1.327  10.936 -0.7555 -1.6240 -0.2983
  447TMC3    C1 6708   3.232   1.780  11.065 -0.3915  0.2019  0.2833
  447TMC3    C2 6709   3.251   1.789  10.928  0.1070 -0.2297  0.4369
  447TMC3    C3 6710   3.361   1.852  10.891  0.1783  0.2683  0.5440
  447TMC3    C4 6711   3.315   1.838  11.153  0.7863 -0.5673 -0.2546
  447TMC3    C5 6712   3.430   1.904  11.113  0.4462  0.1736  0.4168
  447TMC3    C6 6713   3.454   1.903  10.979  0.1944  0.5118  0.3622
  447TMC3     C 6714   3.217   1.650  11.114  0.5023 -0.1367 -0.0138
  447TMC3     O 6715   3.293   1.615  11.205  0.0939  0.8569 -0.1217
  447TMC3     H 6716   3.193   1.735  10.855  0.7151  1.0091 -0.9580
  447TMC3    H1 6717   3.278   1.838  11.255  0.9903  0.4280 -0.1825
  447TMC3    H2 6718   3.554   1.928  10.945  1.0215 -2.7185  0.5061
  447TMC3    C7 6719   3.548   1.868  11.188  0.1458 -0.3337  1.0025
  447TMC3    C8 6720   3.360   1.900  10.752 -0.1854 -0.3063  0.4624
  447TMC3    O1 6721   3.659   1.889  11.137  0.4575  0.5068  0.4187
  447TMC3    O2 6722   3.267   1.872  10.680  0.3864 -0.3543 -0.6904
  448TMC3    C1 6723   1.370   0.821  16.786  0.1423 -0.1127 -0.3444
  448TMC3    C2 6724   1.353   0.791  16.650  0.4807  0.2006 -0.7073
  448TMC3    C3 6725   1.276   0.686  16.624  0.0448 -0.5823  0.1327
  448TMC3    C4 6726   1.316   0.753  16.888  0.5767 -0.9466 -0.2989
  448TMC3    C5 6727   1.241   0.639  16.852 -0.2876  0.0010  0.0567
  448TMC3    C6 6728   1.225   0.605  16.718  0.3505 -0.6026 -0.0989
  448TMC3     C 6729   1.457   0.935  16.823 -0.0381  0.0397 -0.2752
  448TMC3     O 6730   1.481   0.960  16.940  0.2112 -0.0586 -0.4588
  448TMC3     H 6731   1.415   0.841  16.577  1.0240 -0.4611 -0.7061
  448TMC3    H1 6732   1.352   0.778  16.987 -2.4481  1.5068  0.1918
  448TMC3    H2 6733   1.160   0.521  16.695 -1.4443  0.9811 -0.8599
  448TMC3    C7 6734   1.197   0.551  16.956 -0.2921  0.0344  0.8164
  448TMC3    C8 6735   1.269   0.646  16.485  0.6395 -0.0234  0.4580
  448TMC3    O1 6736   1.162   0.439  16.921 -0.2234  0.0972 -0.6150
  448TMC3    O2 6737   1.269   0.523  16.465  0.6906  0.0551  0.3982
  449MPD2     C 6738   2.975   4.549  13.891 -0.1099  0.6189 -0.0775
  449MPD2    C1 6739   2.845   4.527  13.913 -0.0068 -0.6717  0.1136
  449MPD2    C2 6740   2.805   4.409  13.976  0.6880 -0.3041 -0.2945
  449MPD2    C3 6741   2.894   4.324  14.040 -0.2812  0.0241  0.0462
  449MPD2    C4 6742   3.029   4.354  14.029  0.2709  0.1172 -0.8098
  449MPD2    C5 6743   3.066   4.463  13.952  0.9797 -0.3294 -0.4281
  449MPD2     H 6744   2.698   4.398  13.984  0.9021 -2.0124  0.2639
  449MPD2    H1 6745   3.108   4.290  14.066 -0.7149 -1.0256 -0.6920
  449MPD2    H2 6746   3.019   4.625  13.828 -2.6230  1.3950 -0.9038
  449MPD2    H3 6747   3.170   4.488  13.932  1.1275 -0.4544  0.1781
  449MPD2     N 6748   2.843   4.209  14.104 -0.1876 -0.9387 -0.1477
  449MPD2    H5 6749   2.746   4.190  14.085 -0.1870  1.4454 -2.6258
  449MPD2    N1 6750   2.746   4.605  13.852 -0.4444  0.0386  0.5493
  449MPD2    H7 6751   2.650   4.578  13.869  0.0622 -2.7414 -0.7822
  450TMC3    C1 6752   2.629   0.002  13.703 -0.7355 -0.3053 -0.2005
  450TMC3    C2 6753   2.616   4.720  13.573 -0.0919 -0.2206 -0.0893
  450TMC3    C3 6754   2.506   4.646  13.530 -0.4576  1.2860  0.2699
  450TMC3    C4 6755   2.524   4.703  13.788 -0.4897  0.1168 -0.3067
  450TMC3    C5 6756   2.410   4.643  13.740 -0.3459 -0.3529 -0.0266
  450TMC3    C6 6757   2.404   4.614  13.603  0.2705 -0.0578  0.3304
  450TMC3     C 6758   2.761   4.711  13.760 -0.2541  0.0665 -0.3172
  450TMC3     O 6759   2.865   0.018  13.714  0.3388  0.2526 -0.0463
  450TMC3     H 6760   2.693   0.027  13.512  2.9918  0.1046  4.0462
  450TMC3    H1 6761   2.532   4.727  13.893  0.6115 -0.8003 -0.1792
  450TMC3    H2 6762   2.315   4.563  13.568  0.3052  1.4831 -1.9592
  450TMC3    C7 6763   2.389   4.521  13.818 -0.5459  0.2319  0.5324
  450TMC3    C8 6764   2.503   4.640  13.383  0.7155 -0.1766  0.2536
  450TMC3    O1 6765   2.475   4.505  13.902 -0.7203  0.3382 -0.2147
  450TMC3    O2 6766   2.396   4.638  13.329 -0.1085 -0.6881 -0.4420
  451MPD2     C 6767   3.398   3.310   1.162  0.6498  0.0181  0.1464
  451MPD2    C1 6768   3.476   3.400   1.094 -0.3822 -0.1104  0.4410
  451MPD2    C2 6769   3.553   3.352   0.995  0.1424 -0.9954  0.3340
  451MPD2    C3 6770   3.534   3.225   0.950  0.0714  0.6805  0.0864
  451MPD2    C4 6771   3.455   3.137   1.019 -0.2511 -0.6871  0.7465
  451MPD2    C5 6772   3.381   3.182   1.126 -0.1287  0.1359  0.1979
  451MPD2     H 6773   3.627   3.422   0.956  1.5411 -1.3770  2.2750
  451MPD2    H1 6774   3.447   3.030   1.003  3.0782 -0.5882 -1.5428
  451MPD2    H2 6775   3.324   3.342   1.235 -0.1484 -1.1844 -0.1485
  451MPD2    H3 6776   3.306   3.119   1.174 -1.5470 -0.2775 -2.5389
  451MPD2     N 6777   3.605   3.178   0.835 -0.2435  0.2585 -0.0251
  451MPD2    H5 6778   3.603   3.078   0.819 -1.1932  0.2680  0.0223
  451MPD2    N1 6779   3.494   3.530   1.145 -1.0306  0.2094 -1.1525
  451MPD2    H7 6780   3.444   3.542   1.233 -0.0695 -0.5734 -0.5037
  452TMC3    C1 6781   3.729   3.178   0.632 -0.2724 -0.1568  0.7037
  452TMC3    C2 6782   3.678   3.048   0.615  0.0040  0.5362 -0.1890
  452TMC3    C3 6783   3.731   2.988   0.504 -0.3310 -0.1448 -0.9280
  452TMC3    C4 6784   3.831   3.231   0.550  0.5174  0.3229  0.6239
  452TMC3    C5 6785   3.880   3.159   0.453 -0.1090 -0.0913  0.7517
  452TMC3    C6 6786   3.834   3.037   0.426  0.0026 -0.0988  0.5768
  452TMC3     C 6787   3.685   3.258   0.752  0.5208  0.0124  0.5155
  452TMC3     O 6788   3.697   3.382   0.739  0.3240  0.3330  0.2865
  452TMC3     H 6789   3.599   2.997   0.669 -0.2132  0.2475 -0.7679
  452TMC3    H1 6790   3.856   3.336   0.565 -1.8696  0.7806  1.4870
  452TMC3    H2 6791   3.879   2.990   0.339  0.7815  1.6194  0.0555
  452TMC3    C7 6792   3.941   3.226   0.341  0.0237  0.0501  0.1810
  452TMC3    C8 6793   3.663   2.869   0.468  0.4616 -0.3960 -0.0933
  452TMC3    O1 6794   3.910   3.185   0.233 -0.1237 -0.1406 -0.7671
  452TMC3    O2 6795   3.623   2.844   0.355 -0.0183  0.4435  0.3067
  453TMC3    C1 6796   0.541   0.779  11.995 -0.1744 -0.2040  0.0059
  453TMC3    C2 6797   0.431   0.710  12.049 -0.1960  0.3358 -0.3558
  453TMC3    C3 6798   0.305   0.745  12.006 -0.6036  0.2564  0.3907
  453TMC3    C4 6799   0.520   0.880  11.905  0.7377  0.3426  0.3068
  453TMC3    C5 6800   0.390   0.903  11.864 -0.0684  0.4553  0.4135
  453TMC3    C6 6801   0.283   0.829  11.904  0.4473  0.1959  0.4723
  453TMC3     C 6802   0.681   0.738  12.009  0.3250  0.1815  0.0343
  453TMC3     O 6803   0.770   0.796  11.941 -0.6801  0.0519  0.1029
  453TMC3     H 6804   0.445   0.655  12.141 -1.5540 -0.2004 -0.4629
  453TMC3    H1 6805   0.601   0.933  11.856  0.6610  0.5183  0.3713
  453TMC3    H2 6806   0.184   0.855  11.868 -0.8580 -1.0691  3.0776
  453TMC3    C7 6807   0.373   0.920  11.723 -0.8427  0.1387 -0.1465
  453TMC3    C8 6808   0.195   0.653  12.021 -0.3735  0.0520 -1.2524
  453TMC3    O1 6809   0.289   0.859  11.669  0.4634 -0.1450 -0.1426
  453TMC3    O2 6810   0.082   0.702  11.996 -0.1775  0.0033 -1.1630
  454MPD2     C 6811   4.339   4.715  16.035  0.5289 -0.6563 -0.1828
  454MPD2    C1 6812   4.312   0.032  15.911 -0.6591  0.4707 -0.1971
  454MPD2    C2 6813   4.311   0.172  15.904 -0.3238  0.0497 -0.4265
  454MPD2    C3 6814   4.317   0.256  16.016 -0.1570 -0.2057 -0.8137
  454MPD2    C4 6815   4.360   0.194  16.134  0.3704  0.5534 -0.2729
  454MPD2    C5 6816   4.379   0.057  16.138  0.4559 -0.0567 -0.3295
  454MPD2     H 6817   4.287   0.217  15.808  0.6851 -0.6669 -1.0167
  454MPD2    H1 6818   4.364   0.258  16.222 -2.7855 -0.0777  0.3068
  454MPD2    H2 6819   4.365   4.609  16.044  0.8644 -0.2606  3.6379
  454MPD2    H3 6820   4.414   0.004  16.225 -1.2878 -1.8298 -0.7029
  454MPD2     N 6821   4.247   0.379  16.026  0.5239  0.4866 -0.3719
  454MPD2    H5 6822   4.227   0.418  16.117  1.5539 -0.2917  0.1851
  454MPD2    N1 6823   4.265   4.693  15.801  0.6495  0.2949 -0.5912
  454MPD2    H7 6824   4.233   0.012  15.724 -1.1229 -0.1022 -0.1615
  455TMC3    C1 6825   4.027   0.426  15.959 -0.7418 -0.5691  0.2602
  455TMC3    C2 6826   3.987   0.523  16.049 -0.1847 -0.2656  0.0206
  455TMC3    C3 6827   3.880   0.487  16.136  0.3677 -0.4579  0.0012
  455TMC3    C4 6828   3.998   0.293  15.991 -0.3169 -0.9226 -0.0128
  455TMC3    C5 6829   3.906   0.264  16.093  0.3607  0.4927  0.6529
  455TMC3    C6 6830   3.831   0.362  16.155  0.3112 -0.5526 -0.1188
  455TMC3     C 6831   4.165   0.427  15.923 -0.7424 -0.1099  0.4017
  455TMC3     O 6832   4.185   0.426  15.800  0.1638  0.0660 -0.0093
  455TMC3     H 6833   4.015   0.627  16.039  2.0544 -1.0613 -1.7331
  455TMC3    H1 6834   4.042   0.211  15.935 -1.0579 -0.5215 -1.1780
  455TMC3    H2 6835   3.752   0.342  16.225 -0.9321  1.2727 -0.9863
  455TMC3    C7 6836   3.873   0.127  16.116  0.7405  0.2390 -0.0707
  455TMC3    C8 6837   3.833   0.596  16.227 -0.1431 -0.4106 -0.2504
  455TMC3    O1 6838   3.753   0.106  16.143  0.0486 -0.4161 -0.7479
  455TMC3    O2 6839   3.754   0.549  16.308  0.1855 -0.3247 -0.4031
  456MPD2     C 6840   2.041   0.241  15.520  0.8441  0.5690 -0.7510
  456MPD2    C1 6841   2.019   0.140  15.611  0.4739  0.3263 -0.6876
  456MPD2    C2 6842   1.894   0.116  15.658  0.2935 -0.2997  0.0388
  456MPD2    C3 6843   1.791   0.195  15.620 -0.4710 -0.4237  0.8610
  456MPD2    C4 6844   1.816   0.301  15.534  0.2114  0.3240  0.6332
  456MPD2    C5 6845   1.941   0.321  15.478  0.0354  0.5488 -0.1894
  456MPD2     H 6846   1.881   0.038  15.731 -1.0891  0.6401  0.8119
  456MPD2    H1 6847   1.732   0.355  15.490 -0.1011  0.4882  1.4330
  456MPD2    H2 6848   2.138   0.251  15.471  1.7963  0.3131  1.0645
  456MPD2    H3 6849   1.958   0.408  15.415 -0.3464  1.2607  0.6753
  456MPD2     N 6850   1.676   0.174  15.696 -0.3086  0.0008 -0.0841
  456MPD2    H5 6851   1.660   0.091  15.753  0.3478  0.8958  1.4104
  456MPD2    N1 6852   2.134   0.073  15.653  0.4409 -0.0674 -1.0015
  456MPD2    H7 6853   2.221   0.109  15.615  0.6367  2.5983  1.9395
  457TMC3    C1 6854   1.475   0.219  15.822  0.1453 -0.4661 -0.0328
  457TMC3    C2 6855   1.361   0.290  15.836 -0.0949  0.1254 -0.7583
  457TMC3    C3 6856   1.266   0.256  15.939 -0.5874  0.2747 -0.0199
  457TMC3    C4 6857   1.509   0.122  15.910 -0.5167 -0.4037  0.4090
  457TMC3    C5 6858   1.416   0.089  16.004  0.1407 -0.2853  0.6405
  457TMC3    C6 6859   1.288   0.144  16.012 -0.1182 -0.3952  0.9861
  457TMC3     C 6860   1.573   0.266  15.718  0.0851  0.0558  0.7656
  457TMC3     O 6861   1.555   0.378  15.667  0.0295  0.0552  0.0271
  457TMC3     H 6862   1.344   0.377  15.775  0.9095  1.1215  0.3811
  457TMC3    H1 6863   1.608   0.079  15.908 -0.0623  0.6284  0.7188
  457TMC3    H2 6864   1.222   0.112  16.092 -1.1840 -1.3417 -0.2731
  457TMC3    C7 6865   1.466   0.048  16.139 -0.1403  0.0941 -0.3673
  457TMC3    C8 6866   1.239   0.367  16.028 -0.6942 -0.2336 -0.4392
  457TMC3    O1 6867   1.405   4.697  16.197  0.3505 -0.3467  0.4795
  457TMC3    O2 6868   1.226   0.332  16.145 -0.1017 -0.3279  0.2284
  458MPD2     C 6869   4.079   0.187  12.536  0.3988 -0.6714 -0.4410
  458MPD2    C1 6870   4.043   0.065  12.593  0.9929  0.0819 -0.3091
  458MPD2    C2 6871   3.923   0.006  12.553 -0.2187 -0.1656 -0.2961
  458MPD2    C3 6872   3.832   0.075  12.474  0.0550 -0.6624 -0.0314
  458MPD2    C4 6873   3.867   0.196  12.426 -0.6371 -0.0220 -0.6949
  458MPD2    C5 6874   3.995   0.247  12.450 -0.7832  0.0977  0.3986
  458MPD2     H 6875   3.885   4.647  12.584 -0.1778  0.4354  1.6432
  458MPD2    H1 6876   3.810   0.259  12.359  0.9285  2.6849  0.5358
  458MPD2    H2 6877   4.175   0.230  12.560  0.5542 -0.5037 -1.3671
  458MPD2    H3 6878   4.046   0.330  12.402  0.8411 -0.7547  0.6248
  458MPD2     N 6879   3.714   0.018  12.438  0.2656  0.1129 -0.1973
  458MPD2    H5 6880   3.695   4.676  12.498 -1.5271  2.1085  1.8664
  458MPD2    N1 6881   4.138   0.008  12.678 -0.0713  0.0694  0.0704
  458MPD2    H7 6882   4.221   0.062  12.697 -0.7986  0.3499  2.5136
  459TMC3    C1 6883   4.259   4.563  12.783  0.1718 -0.6723  0.1115
  459TMC3    C2 6884   4.377   4.615  12.735  0.2236 -0.1029 -0.5244
  459TMC3    C3 6885   4.493   4.553  12.766  0.1463 -0.2804 -0.0081
  459TMC3    C4 6886   4.252   4.436  12.835  0.5769  0.6796  0.0573
  459TMC3    C5 6887   4.368   4.368  12.857  0.1242 -0.4384  0.0394
  459TMC3    C6 6888   4.487   4.423  12.812 -0.2688  0.0951  0.4601
  459TMC3     C 6889   4.128   4.623  12.752 -1.1986 -0.0836 -0.0573
  459TMC3     O 6890   4.032   4.553  12.764  0.1050  0.5382  0.0651
  459TMC3     H 6891   4.364   4.697  12.666  1.5672  0.3919 -0.1770
  459TMC3    H1 6892   4.158   4.394  12.869 -0.4296  1.3368 -1.9555
  459TMC3    H2 6893   4.577   4.366  12.834 -0.8155 -0.0607  2.2524
  459TMC3    C7 6894   4.373   4.228  12.912 -0.3397  0.0334 -0.1670
  459TMC3    C8 6895   4.620   4.581  12.698 -0.8273  0.3446  0.7862
  459TMC3    O1 6896   4.468   4.208  12.988 -0.0253  0.6377 -0.4273
  459TMC3    O2 6897   4.716   4.510  12.719 -0.2970 -0.0617 -0.3896
  460MPD2     C 6898   3.624   2.050  10.547 -0.4754 -0.6903 -0.0186
  460MPD2    C1 6899   3.497   2.023  10.590  0.2152  0.6993 -0.4954
  460MPD2    C2 6900   3.398   2.069  10.504 -0.4131  0.4678  0.1404
  460MPD2    C3 6901   3.422   2.140  10.393 -0.8005  0.4706  0.2661
  460MPD2    C4 6902   3.550   2.155  10.349 -0.1555  0.1401 -0.1409
  460MPD2    C5 6903   3.650   2.110  10.432  0.4055  0.5835  0.5326
  460MPD2     H 6904   3.295   2.059  10.536 -0.6054  0.0231 -0.6391
  460MPD2    H1 6905   3.579   2.206  10.258  0.8249  1.9552  1.1977
  460MPD2    H2 6906   3.713   2.028  10.606  0.1990  2.2473  0.0281
  460MPD2    H3 6907   3.751   2.140  10.407  0.1144 -0.0614 -1.4738
  460MPD2     N 6908   3.310   2.188  10.321  0.3186  0.0744 -0.1512
  460MPD2    H5 6909   3.216   2.172  10.353  0.0692 -2.2715 -2.0611
  460MPD2    N1 6910   3.483   1.961  10.715  0.0447 -0.4214 -0.3583
  460MPD2    H7 6911   3.568   1.948  10.768 -0.4097  2.9168  1.1696
  461TMC3    C1 6912   3.168   2.279  10.160 -0.5587  0.0830 -0.1460
  461TMC3    C2 6913   3.083   2.173  10.184 -0.3114  0.5436 -0.1631
  461TMC3    C3 6914   2.953   2.180  10.149  0.1125 -0.4982 -0.2328
  461TMC3    C4 6915   3.131   2.398  10.111  0.7194 -0.1150 -0.2584
  461TMC3    C5 6916   2.994   2.402  10.082 -0.5823  0.0457 -0.1828
  461TMC3    C6 6917   2.904   2.297  10.107 -0.0446  0.0930 -0.5413
  461TMC3     C 6918   3.307   2.253  10.197 -1.1419 -0.3790 -0.3621
  461TMC3     O 6919   3.400   2.287  10.122  0.4716 -0.3448 -0.1997
  461TMC3     H 6920   3.133   2.078  10.199 -0.8140  0.3822  0.4948
  461TMC3    H1 6921   3.212   2.469  10.093  0.7012 -0.4634 -1.7041
  461TMC3    H2 6922   2.810   2.294  10.053  0.4312 -1.8770 -1.2406
  461TMC3    C7 6923   2.942   2.514  10.009  0.3884  0.6908 -0.0956
  461TMC3    C8 6924   2.925   2.083  10.045  0.1175 -0.5585 -0.8243
  461TMC3    O1 6925   2.826   2.524   9.991 -0.0994  0.0730 -0.8652
  461TMC3    O2 6926   3.010   2.082   9.955 -0.0197 -0.6665  0.6655
  462TMC3    C1 6927   2.819   3.451   0.194  0.3182  0.3601  0.3542
  462TMC3    C2 6928   2.951   3.461   0.163  0.7183  0.4266  0.1424
  462TMC3    C3 6929   3.026   3.353   0.119  0.5797 -0.2989  0.3456
  462TMC3    C4 6930   2.758   3.325   0.176 -0.2162  0.8664  0.6098
  462TMC3    C5 6931   2.841   3.224   0.129  0.8864  0.2870 -0.2612
  462TMC3    C6 6932   2.975   3.229   0.103  0.2197  0.3030 -0.4374
  462TMC3     C 6933   2.745   3.560   0.239 -0.0650 -0.5244 -0.2112
  462TMC3     O 6934   2.626   3.549   0.247 -0.3388 -0.2461  0.1581
  462TMC3     H 6935   2.996   3.559   0.146  1.6798  0.0416  0.4809
  462TMC3    H1 6936   2.653   3.308   0.194  0.2773 -1.9914  0.7430
  462TMC3    H2 6937   3.020   3.154   0.039  1.5696  0.6997  0.0508
  462TMC3    C7 6938   2.777   3.097   0.104  0.1351  0.1248 -0.3231
  462TMC3    C8 6939   3.155   3.384   0.060  0.5983 -1.0944 -0.0943
  462TMC3    O1 6940   2.851   3.001   0.116 -0.8870  0.2001  0.0701
  462TMC3    O2 6941   3.176   3.497   0.014  0.0687 -0.2447 -0.4841
  463MPD2     C 6942   0.063   0.242   1.350 -0.2055 -0.2265  0.2045
  463MPD2    C1 6943   0.077   0.371   1.301  0.0413 -0.4185 -0.3691
  463MPD2    C2 6944   0.205   0.430   1.308 -0.2682 -0.7307  0.1258
  463MPD2    C3 6945   0.313   0.371   1.366 -0.1570  0.0826 -0.0237
  463MPD2    C4 6946   0.296   0.246   1.419 -0.0227 -0.4457 -0.0353
  463MPD2    C5 6947   0.178   0.183   1.407  0.7988 -0.9231  0.2399
  463MPD2     H 6948   0.219   0.530   1.268 -0.4371 -2.3367 -3.9350
  463MPD2    H1 6949   0.379   0.195   1.467  0.2840  2.0714  2.1499
  463MPD2    H2 6950   4.706   0.191   1.334  1.0136 -1.9307 -1.6798
  463MPD2    H3 6951   0.165   0.080   1.438 -0.2850 -0.0595  2.6961
  463MPD2     N 6952   0.447   0.413   1.350  0.0340  0.2214 -0.3964
  463MPD2    H5 6953   0.514   0.359   1.404 -0.2203  1.5695  1.2580
  463MPD2    N1 6954   4.712   0.431   1.226 -0.3431 -0.7019 -0.3345
  463MPD2    H7 6955   4.723   0.529   1.201 -0.4762 -1.0617 -1.8524
  464TMC3    C1 6956   4.504   0.459   1.115 -0.5167 -0.6778 -0.3281
  464TMC3    C2 6957   4.516   0.598   1.114 -0.6252  0.0737  0.8941
  464TMC3    C3 6958   4.432   0.672   1.035  0.3092  0.5477  0.4586
  464TMC3    C4 6959   4.396   0.396   1.063 -0.6961 -0.7709 -0.0232
  464TMC3    C5 6960   4.307   0.479   1.000  0.3733 -0.1032 -0.1657
  464TMC3    C6 6961   4.328   0.610   0.973  0.2247 -0.4657 -0.8146
  464TMC3     C 6962   4.592   0.373   1.186  0.3719 -0.4155 -0.1132
  464TMC3     O 6963   4.568   0.257   1.178 -0.2872 -0.3864 -0.2053
  464TMC3     H 6964   4.581   0.644   1.187  1.8656  0.0388 -1.2691
  464TMC3    H1 6965   4.381   0.289   1.065  2.2168 -1.1678  1.7801
  464TMC3    H2 6966   4.265   0.673   0.912 -0.8655 -0.3839  0.4090
  464TMC3    C7 6967   4.206   0.411   0.927  0.1879 -0.6092  0.2561
  464TMC3    C8 6968   4.438   0.814   1.028  0.4899 -0.1260  0.2882
  464TMC3    O1 6969   4.234   0.313   0.858  0.4926  0.3595  0.0052
  464TMC3    O2 6970   4.324   0.866   1.026  0.0618  0.2056  0.2553
  465MPD2     C 6971   0.841   0.763  16.917  0.2082 -0.7291 -0.0230
  465MPD2    C1 6972   0.785   0.640  16.914 -0.5212  0.2910 -0.2533
  465MPD2    C2 6973   0.787   0.563  16.793 -0.2170  0.3868 -0.0941
  465MPD2    C3 6974   0.860   0.612  16.691 -0.2573  0.2414  0.6473
  465MPD2    C4 6975   0.922   0.730  16.693  0.1857 -0.1079  0.0904
  465MPD2    C5 6976   0.909   0.803  16.804  0.3564  0.3864  0.4094
  465MPD2     H 6977   0.745   0.463  16.798 -0.4960  0.5821  1.4400
  465MPD2    H1 6978   0.990   0.773  16.620  0.8162  1.6856  1.7254
  465MPD2    H2 6979   0.825   0.834  16.997 -1.5483 -0.5784 -0.5069
  465MPD2    H3 6980   0.959   0.899  16.805 -3.1892  2.2341  1.9341
  465MPD2     N 6981   0.881   0.530  16.579  0.6511 -0.4845 -0.0495
  465MPD2    H5 6982   0.837   0.439  16.590  2.4325 -1.4455 -0.8605
  465MPD2    N1 6983   0.728   0.573  17.020 -0.5722 -0.4205  0.4016
  465MPD2    H7 6984   0.688   0.482  16.998  0.0984 -0.8565  0.9953
  466TMC3    C1 6985   0.892   0.222  16.350 -0.2326 -0.2649  0.0699
  466TMC3    C2 6986   0.860   0.235  16.218  0.2173 -0.1273  0.2136
  466TMC3    C3 6987   0.838   0.358  16.166 -0.0974  0.3213  0.1360
  466TMC3    C4 6988   0.931   0.333  16.424 -0.6311  0.2759  0.3272
  466TMC3    C5 6989   0.916   0.455  16.365 -0.7387 -0.5613 -0.2409
  466TMC3    C6 6990   0.867   0.472  16.241  0.6446 -0.7994 -0.1177
  466TMC3     C 6991   0.785   0.160  16.424 -0.7328  0.8992  0.8479
  466TMC3     O 6992   0.787   0.193  16.541 -0.3449  0.2579 -0.1930
  466TMC3     H 6993   0.834   0.147  16.161 -2.0213  0.9158 -0.3691
  466TMC3    H1 6994   0.966   0.320  16.526  0.2376 -2.2573 -0.2967
  466TMC3    H2 6995   0.862   0.569  16.193  1.6425 -1.0830 -0.7964
  466TMC3    C7 6996   0.921   0.568  16.450  0.2867  0.1126 -0.9625
  466TMC3    C8 6997   0.701   0.361  16.120  0.1309  0.6075 -0.2627
  466TMC3    O1 6998   0.960   0.667  16.389 -0.1610 -0.9371 -0.3549
  466TMC3    O2 6999   0.662   0.260  16.064 -0.0253  0.3492  0.3835
  467TMC3    C1 7000   1.812   3.406  13.702 -0.2938  0.2019  0.4385
  467TMC3    C2 7001   1.725   3.482  13.625  0.3901 -0.1778  0.1902
  467TMC3    C3 7002   1.596   3.449  13.625 -0.0269 -0.0155 -0.1960
  467TMC3    C4 7003   1.764   3.300  13.781 -1.0677 -0.2062  0.3598
  467TMC3    C5 7004   1.629   3.274  13.773 -0.5830 -0.7621  0.1409
  467TMC3    C6 7005   1.536   3.346  13.700 -0.4705  0.1688 -0.1739
  467TMC3     C 7006   1.937   3.459  13.733  0.1354 -0.6811 -0.1170
  467TMC3     O 7007   2.021   3.381  13.775  0.0297 -0.5012  0.0784
  467TMC3     H 7008   1.762   3.552  13.551  0.1163 -0.6846 -0.4197
  467TMC3    H1 7009   1.829   3.256  13.856 -2.2344  0.4153  1.7447
  467TMC3    H2 7010   1.430   3.326  13.701 -0.3413 -0.6208 -1.5359
  467TMC3    C7 7011   1.582   3.208  13.896  0.2118  0.3092 -0.4768
  467TMC3    C8 7012   1.502   3.537  13.562 -0.3910 -0.2538 -0.1489
  467TMC3    O1 7013   1.658   3.176  13.989  0.3276  0.1719  0.7825
  467TMC3    O2 7014   1.538   3.654  13.543 -0.2334  0.4216 -0.3516
  468MPD2     C 7015   0.053   1.738  10.721 -0.6855  0.0145  0.5124
  468MPD2    C1 7016   0.188   1.732  10.697  0.6452 -0.3865 -0.1932
  468MPD2    C2 7017   0.252   1.609  10.695  0.7597 -0.4872  0.1692
  468MPD2    C3 7018   0.175   1.495  10.728 -0.0897 -0.7379  0.0254
  468MPD2    C4 7019   0.042   1.500  10.747 -0.5435  0.4678  0.7731
  468MPD2    C5 7020   4.717   1.627  10.740 -0.7702 -0.2617 -0.0116
  468MPD2     H 7021   0.356   1.611  10.665  0.8166  0.3540  0.4183
  468MPD2    H1 7022   4.712   1.417  10.751  0.9619 -0.7866  0.4064
  468MPD2    H2 7023   0.003   1.834  10.712  0.0540  0.4469  1.0174
  468MPD2    H3 7024   4.609   1.636  10.741 -0.7165  0.4268 -0.7399
  468MPD2     N 7025   0.229   1.363  10.715 -0.6111 -0.7805  0.0653
  468MPD2    H5 7026   0.160   1.292  10.739  0.9819 -2.8235 -1.4625
  468MPD2    N1 7027   0.267   1.845  10.657  0.3611  0.6230 -0.0664
  468MPD2    H7 7028   0.365   1.824  10.637  1.0288  1.9839  1.7780
  469TMC3    C1 7029   0.339   2.061  10.600  0.4268  0.9536 -0.6818
  469TMC3    C2 7030   0.468   2.027  10.633 -0.1912 -0.4103 -0.5275
  469TMC3    C3 7031   0.555   2.128  10.609  0.1746 -0.2104 -0.3386
  469TMC3    C4 7032   0.300   2.189  10.562 -0.5266  0.3096 -0.2060
  469TMC3    C5 7033   0.392   2.282  10.554 -0.0380  0.2283 -0.2290
  469TMC3    C6 7034   0.517   2.257  10.581 -0.2161 -0.7297  0.3819
  469TMC3     C 7035   0.228   1.975  10.635 -0.1575  0.4685 -0.4453
  469TMC3     O 7036   0.116   2.017  10.641  0.3101  0.0354  0.4013
  469TMC3     H 7037   0.511   1.927  10.643  1.8542  0.6917  1.7137
  469TMC3    H1 7038   0.197   2.204  10.533  0.5706  3.3186 -2.6042
  469TMC3    H2 7039   0.595   2.332  10.575 -1.6426  0.6667 -0.7026
  469TMC3    C7 7040   0.357   2.420  10.555  0.3368  0.0195 -0.4211
  469TMC3    C8 7041   0.688   2.109  10.665  0.0015  1.0532 -0.1592
  469TMC3    O1 7042   0.442   2.499  10.525  0.7349  0.4083  0.1849
  469TMC3    O2 7043   0.706   2.019  10.748  0.2099 -0.1071  0.5232
  470TMC3    C1 7044   2.577   2.487   0.695 -0.9826 -0.1814  0.2495
  470TMC3    C2 7045   2.567   2.625   0.703 -1.1556 -0.6246 -0.4453
  470TMC3    C3 7046   2.653   2.686   0.796 -0.0388 -0.6702  0.5307
  470TMC3    C4 7047   2.665   2.415   0.772  0.4360 -0.3012  0.3623
  470TMC3    C5 7048   2.755   2.484   0.847  0.1938  0.2707 -0.2477
  470TMC3    C6 7049   2.749   2.620   0.858 -0.2035  0.2132  1.0547
  470TMC3     C 7050   2.532   2.431   0.564 -0.5923 -0.0208 -0.1503
  470TMC3     O 7051   2.517   2.508   0.471 -0.1805  0.0127  0.2578
  470TMC3     H 7052   2.496   2.687   0.649 -1.1910 -3.2289 -3.3883
  470TMC3    H1 7053   2.681   2.309   0.753 -3.6313 -0.2707 -3.3258
  470TMC3    H2 7054   2.799   2.671   0.940  0.1208 -2.0974  2.3081
  470TMC3    C7 7055   2.836   2.419   0.940 -0.0787 -0.0262 -0.2470
  470TMC3    C8 7056   2.663   2.835   0.789 -0.5378 -0.2890 -0.1158
  470TMC3    O1 7057   2.937   2.484   0.965 -0.3157 -0.1968 -0.5271
  470TMC3    O2 7058   2.555   2.888   0.782 -0.7991  0.4103  0.7432
  471MPD2     C 7059   3.148   4.236  16.392 -0.0939  0.6839 -0.5878
  471MPD2    C1 7060   3.174   4.099  16.385  0.7742 -0.3584  0.5142
  471MPD2    C2 7061   3.249   4.040  16.483  0.2498 -0.2733  0.1390
  471MPD2    C3 7062   3.300   4.107  16.588  0.1329  0.3369 -0.5982
  471MPD2    C4 7063   3.276   4.245  16.597 -0.6485 -0.5240  0.9966
  471MPD2    C5 7064   3.203   4.309  16.495 -0.6741  0.2772  0.1370
  471MPD2     H 7065   3.263   3.933  16.471  0.7031  0.0707 -2.3327
  471MPD2    H1 7066   3.318   4.302  16.678 -0.6968 -1.4049  1.6436
  471MPD2    H2 7067   3.106   4.288  16.307  0.5183 -3.4509 -3.4128
  471MPD2    H3 7068   3.184   4.416  16.488  1.5634  0.6542 -0.3486
  471MPD2     N 7069   3.371   4.055  16.700  0.0326  0.2184  0.0430
  471MPD2    H5 7070   3.383   4.114  16.782 -1.5065  1.4407 -0.5963
  471MPD2    N1 7071   3.110   4.008  16.292  0.0301 -0.1000  0.1108
  471MPD2    H7 7072   3.128   3.909  16.300 -0.3798 -0.2802 -1.2401
  472TMC3    C1 7073   2.954   3.937  16.123  0.0309 -0.1739 -0.6894
  472TMC3    C2 7074   2.831   3.961  16.077  0.4454  0.7441 -0.1835
  472TMC3    C3 7075   2.735   3.865  16.084 -0.6446  0.0614  0.0241
  472TMC3    C4 7076   2.987   3.808  16.157  0.1664  0.1470 -0.6159
  472TMC3    C5 7077   2.890   3.707  16.159 -0.4470 -0.0485  0.2431
  472TMC3    C6 7078   2.760   3.734  16.128  0.1864 -0.3144  0.9953
  472TMC3     C 7079   3.020   4.046  16.197  0.8016  0.0013 -0.0941
  472TMC3     O 7080   2.980   4.158  16.178 -0.6246  0.1973  0.3489
  472TMC3     H 7081   2.797   4.064  16.069 -1.5977 -0.0579 -1.9769
  472TMC3    H1 7082   3.083   3.772  16.190 -1.0182 -0.4650  2.1667
  472TMC3    H2 7083   2.685   3.656  16.130 -0.2979  0.0925 -2.2524
  472TMC3    C7 7084   2.911   3.573  16.203 -0.7230 -0.4433  0.4749
  472TMC3    C8 7085   2.594   3.899  16.054  0.0462  0.1951 -0.0605
  472TMC3    O1 7086   2.814   3.524  16.257 -0.0560 -0.2304 -0.0760
  472TMC3    O2 7087   2.573   3.989  15.978  0.8027  0.7599 -0.0951
  473MPD2     C 7088   3.392   0.871  13.963 -0.2159 -0.3965  0.2518
  473MPD2    C1 7089   3.300   0.967  13.930  0.2571 -0.5271  0.6459
  473MPD2    C2 7090   3.314   1.086  14.006 -0.6477 -0.7806 -0.6172
  473MPD2    C3 7091   3.416   1.105  14.097 -0.1315 -0.3754  0.0621
  473MPD2    C4 7092   3.499   1.003  14.126  0.1730  0.2164  0.1137
  473MPD2    C5 7093   3.491   0.890  14.056  0.2038 -0.1279 -0.6967
  473MPD2     H 7094   3.234   1.158  13.996 -0.6814 -0.9230 -1.3420
  473MPD2    H1 7095   3.580   1.015  14.197 -0.4626  2.5103  0.4470
  473MPD2    H2 7096   3.397   0.774  13.915  2.1851  0.0762 -0.4702
  473MPD2    H3 7097   3.559   0.810  14.085  0.1846  0.1147  0.0207
  473MPD2     N 7098   3.421   1.217  14.181 -0.1357  0.7330  0.1357
  473MPD2    H5 7099   3.482   1.195  14.259 -0.4526 -3.2249 -0.7288
  473MPD2    N1 7100   3.186   0.943  13.846 -0.1209 -0.0973 -0.2018
  473MPD2    H7 7101   3.107   1.006  13.846  0.3518  0.4943 -1.1694
  474TMC3    C1 7102   3.346   1.381  14.320  0.2924 -0.4236 -0.7695
  474TMC3    C2 7103   3.242   1.445  14.377  0.2759 -0.1450  0.1107
  474TMC3    C3 7104   3.261   1.537  14.476 -0.2475 -0.0493  0.2241
  474TMC3    C4 7105   3.469   1.413  14.350 -0.3545 -0.7682  0.2200
  474TMC3    C5 7106   3.491   1.499  14.459 -0.6770 -0.0490  0.1627
  474TMC3    C6 7107   3.387   1.561  14.521 -0.1445  0.0471  0.7348
  474TMC3     C 7108   3.324   1.313  14.196  0.1736  0.1673 -0.3917
  474TMC3     O 7109   3.219   1.334  14.136 -0.1498 -0.7422  0.0979
  474TMC3     H 7110   3.140   1.425  14.343  0.6749 -1.6510 -0.2145
  474TMC3    H1 7111   3.561   1.378  14.305 -0.2064 -0.1943  0.0788
  474TMC3    H2 7112   3.418   1.644  14.583  0.1456  1.5226 -1.3561
  474TMC3    C7 7113   3.627   1.540  14.477 -0.1570 -0.6561 -0.3069
  474TMC3    C8 7114   3.151   1.621  14.510 -0.0946  0.5550 -0.0425
  474TMC3    O1 7115   3.706   1.540  14.387  0.3662  0.1988  0.4311
  474TMC3    O2 7116   3.040   1.576  14.492  0.0290  0.1521  0.4787
  475MPD2     C 7117   0.788   4.336  10.628 -0.7505 -0.3704  0.0423
  475MPD2    C1 7118   0.748   4.456  10.571  0.2364  0.2106 -0.0023
  475MPD2    C2 7119   0.664   4.528  10.646 -1.0441 -0.0724  0.6239
  475MPD2    C3 7120   0.607   4.479  10.762 -0.2896  0.3913 -0.1467
  475MPD2    C4 7121   0.652   4.363  10.820  0.4424  0.7194  0.2451
  475MPD2    C5 7122   0.752   4.292  10.752  0.0388 -0.6388 -0.4648
  475MPD2     H 7123   0.632   4.625  10.610  0.4838  0.5050  0.7937
  475MPD2    H1 7124   0.626   4.324  10.918 -1.1588  0.7274 -0.1761
  475MPD2    H2 7125   0.855   4.273  10.571  0.5567  0.0381  1.1359
  475MPD2    H3 7126   0.797   4.206  10.800  1.0100  1.4561  2.3830
  475MPD2     N 7127   0.523   4.561  10.835  0.0434 -0.0112  0.0585
  475MPD2    H5 7128   0.532   4.661  10.815  0.2026  0.4725  2.5610
  475MPD2    N1 7129   0.810   4.491  10.450 -0.6269 -0.5738  0.9462
  475MPD2    H7 7130   0.897   4.448  10.423 -0.7438  1.2798 -2.3096
  476TMC3    C1 7131   0.870   4.619  10.270 -0.5259  0.1365 -0.0394
  476TMC3    C2 7132   0.826   4.681  10.155  0.8527 -0.2994 -0.6590
  476TMC3    C3 7133   0.917   4.677  10.054 -0.0629 -1.1404  0.2857
  476TMC3    C4 7134   1.001   4.575  10.293 -0.2837 -0.5225 -0.4249
  476TMC3    C5 7135   1.083   4.583  10.187 -0.1906 -0.1257  0.0688
  476TMC3    C6 7136   1.046   4.639  10.068 -0.4546 -0.8282 -0.0052
  476TMC3     C 7137   0.777   4.601  10.382 -0.1022 -0.3316  0.3827
  476TMC3     O 7138   0.669   4.663  10.385  0.1682 -0.4403  0.0300
  476TMC3     H 7139   0.722   4.709  10.151  0.9652  0.1965 -0.0431
  476TMC3    H1 7140   1.038   4.518  10.377  0.5932  2.1719  1.0171
  476TMC3    H2 7141   1.120   4.670   9.995 -1.9868  0.4644 -1.0061
  476TMC3    C7 7142   1.223   4.581  10.219  0.3487 -0.5679  0.0841
  476TMC3    C8 7143   0.877   0.021   9.939 -0.1786 -0.8712 -0.2566
  476TMC3    O1 7144   1.304   4.558  10.130  0.5187 -0.1794  0.2566
  476TMC3    O2 7145   0.802   0.120   9.952 -1.0580  0.6805 -0.0078
  477MPD2     C 7146   4.092   1.211  11.607  0.5682 -0.0222  0.0763
  477MPD2    C1 7147   3.971   1.152  11.651  0.7446 -0.4806 -0.0329
  477MPD2    C2 7148   3.955   1.080  11.770  0.5103  0.3870  0.1573
  477MPD2    C3 7149   4.068   1.061  11.849  0.7288 -0.0240 -0.5671
  477MPD2    C4 7150   4.190   1.121  11.805  0.1405 -0.0897 -0.3532
  477MPD2    C5 7151   4.200   1.197  11.689  0.0424  0.4409 -0.1760
  477MPD2     H 7152   3.857   1.044  11.801 -0.1245  1.7470 -0.2405
  477MPD2    H1 7153   4.282   1.112  11.861  0.4214  1.3721 -0.5939
  477MPD2    H2 7154   4.110   1.273  11.520 -1.0083  0.8153  0.3485
  477MPD2    H3 7155   4.296   1.234  11.654  0.6338  1.4991  2.5661
  477MPD2     N 7156   4.059   0.990  11.976  0.5156 -0.2896  0.2631
  477MPD2    H5 7157   3.969   0.950  11.999  0.0537  0.4275 -0.2945
  477MPD2    N1 7158   3.863   1.170  11.555  0.0354 -0.3088  0.6285
  477MPD2    H7 7159   3.878   1.224  11.470  1.5318 -1.0740  0.4146
  478TMC3    C1 7160   3.653   1.179  11.468  0.0586  0.5817 -0.2461
  478TMC3    C2 7161   3.522   1.191  11.497 -0.3211 -0.4212 -0.1776
  478TMC3    C3 7162   3.444   1.290  11.443 -0.5645  0.1853 -0.2860
  478TMC3    C4 7163   3.704   1.247  11.361  0.2958 -0.1497 -0.3347
  478TMC3    C5 7164   3.616   1.338  11.296  0.0540 -0.5749  0.2449
  478TMC3    C6 7165   3.493   1.370  11.345  0.0307  0.5986  0.8014
  478TMC3     C 7166   3.734   1.126  11.569 -0.0693 -0.2138 -0.7772
  478TMC3     O 7167   3.686   1.064  11.666  0.5652  0.7283 -0.5775
  478TMC3     H 7168   3.477   1.123  11.569 -0.0871 -1.7093 -1.2395
  478TMC3    H1 7169   3.796   1.217  11.312 -0.1340 -1.4242 -0.3537
  478TMC3    H2 7170   3.444   1.455  11.297  0.0267 -0.3943 -0.9554
  478TMC3    C7 7171   3.663   1.404  11.178 -0.0528  0.1579  0.6728
  478TMC3    C8 7172   3.336   1.330  11.526  0.5580 -0.6957  0.1010
  478TMC3    O1 7173   3.786   1.406  11.164 -0.2129  0.4656 -0.4379
  478TMC3    O2 7174   3.302   1.255  11.614 -0.5836  0.2741  0.1956
  479MPD2     C 7175   3.080   3.351  15.125  0.6854 -0.8645 -0.2731
  479MPD2    C1 7176   2.999   3.274  15.204 -0.0949 -0.6202  0.2119
  479MPD2    C2 7177   3.060   3.213  15.317 -0.3020  1.1654 -0.2146
  479MPD2    C3 7178   3.192   3.237  15.352 -0.3713 -0.1895 -0.1201
  479MPD2    C4 7179   3.270   3.316  15.265  0.5658 -0.2080  0.0090
  479MPD2    C5 7180   3.214   3.369  15.154 -0.0803  0.3518 -0.3207
  479MPD2     H 7181   2.998   3.158  15.387 -1.2107 -0.5466 -2.3783
  479MPD2    H1 7182   3.373   3.340  15.285  0.9319 -0.4693 -1.5152
  479MPD2    H2 7183   3.047   3.406  15.038  1.5657 -1.5103 -1.0103
  479MPD2    H3 7184   3.276   3.423  15.085  1.1572  0.2891  0.7484
  479MPD2     N 7185   3.265   3.201  15.467  0.5915 -0.5274  0.1625
  479MPD2    H5 7186   3.364   3.223  15.454  0.7195  0.7281  3.1860
  479MPD2    N1 7187   2.865   3.261  15.173  0.5463  0.2174  0.5336
  479MPD2    H7 7188   2.821   3.324  15.106 -0.8760 -2.8480 -1.4195
  480TMC3    C1 7189   2.923   2.979  15.719  0.2989 -0.2166  0.8209
  480TMC3    C2 7190   2.836   3.085  15.723 -0.1031 -0.5345  0.6804
  480TMC3    C3 7191   2.879   3.203  15.659  0.2055 -0.0941  0.4139
  480TMC3    C4 7192   3.051   2.986  15.675 -0.7566  0.6018  0.0119
  480TMC3    C5 7193   3.090   3.106  15.618 -0.8618 -0.0913 -0.0645
  480TMC3    C6 7194   3.011   3.222  15.617 -0.3618 -0.3393  0.1399
  480TMC3     C 7195   2.862   2.845  15.745  0.3076  0.7472  0.3174
  480TMC3     O 7196   2.879   2.763  15.658 -1.2858 -0.4585 -0.2521
  480TMC3     H 7197   2.735   3.076  15.761 -0.6853  1.8320 -0.2890
  480TMC3    H1 7198   3.107   2.896  15.699  1.0143  2.4724  2.8488
  480TMC3    H2 7199   3.061   3.313  15.588 -0.4044  0.0120  1.1725
  480TMC3    C7 7200   3.231   3.120  15.573  0.7103  0.2778  0.0320
  480TMC3    C8 7201   2.770   3.267  15.593  0.5114  0.2899  0.3747
  480TMC3    O1 7202   3.318   3.076  15.653 -0.8262 -0.2597 -0.0703
  480TMC3    O2 7203   2.657   3.231  15.623 -0.0012 -0.2677  0.2763
  481MPD2     C 7204   4.659   3.033  14.500  0.4321 -0.2740  0.6752
  481MPD2    C1 7205   4.604   2.906  14.487  1.0942 -0.1905  0.1668
  481MPD2    C2 7206   4.618   2.813  14.590  0.1043  0.3003  0.7381
  481MPD2    C3 7207   4.682   2.851  14.708 -0.1311 -0.4364 -0.7273
  481MPD2    C4 7208   4.730   2.985  14.718 -0.6417 -0.5734  0.3176
  481MPD2    C5 7209   4.707   3.076  14.620 -0.3043  0.4756  0.4931
  481MPD2     H 7210   4.583   2.710  14.586 -0.5243  0.5156  0.6262
  481MPD2    H1 7211   0.033   3.008  14.815 -0.0229  0.9729 -0.3210
  481MPD2    H2 7212   4.657   3.099  14.413 -2.4587 -1.9880 -0.5460
  481MPD2    H3 7213   0.006   3.178  14.616  0.4384  0.2093  0.5484
  481MPD2     N 7214   4.709   2.764  14.816  0.3850  0.5308  0.2216
  481MPD2    H5 7215   0.045   2.789  14.881  0.6885 -1.7926  0.7457
  481MPD2    N1 7216   4.532   2.882  14.364 -0.2867  0.4553  0.0942
  481MPD2    H7 7217   4.532   2.963  14.304 -2.5852 -0.0886 -0.6259
  482TMC3    C1 7218   4.395   2.795  14.206  0.0281 -0.0059  0.2740
  482TMC3    C2 7219   4.296   2.706  14.176  0.1685  0.6442  0.8632
  482TMC3    C3 7220   4.202   2.735  14.079 -0.6880  0.2848  0.3098
  482TMC3    C4 7221   4.404   2.908  14.132  0.5864  0.2513 -0.3615
  482TMC3    C5 7222   4.311   2.934  14.041 -0.1615 -0.2895  0.6862
  482TMC3    C6 7223   4.205   2.855  14.014 -0.5284  0.5165  0.1018
  482TMC3     C 7224   4.464   2.775  14.331  0.0395  0.1983 -0.8379
  482TMC3     O 7225   4.442   2.660  14.380 -0.3489  0.1749 -0.1925
  482TMC3     H 7226   4.293   2.608  14.221  3.0967  0.9390  1.6868
  482TMC3    H1 7227   4.480   2.978  14.163 -1.9614  1.7872  2.4055
  482TMC3    H2 7228   4.144   2.865  13.925 -1.0125  2.2153  0.6072
  482TMC3    C7 7229   4.336   3.048  13.965 -0.2764 -0.3023 -0.0674
  482TMC3    C8 7230   4.104   2.633  14.059 -0.4614  0.5846 -0.7292
  482TMC3    O1 7231   4.412   3.134  14.013  0.0810  0.3348 -0.4564
  482TMC3    O2 7232   4.127   2.517  14.088 -0.2167 -0.3284 -0.3118
  483TMC3    C1 7233   2.235   1.560   0.814 -0.0744 -0.2328  0.7420
  483TMC3    C2 7234   2.292   1.678   0.768 -0.3717  0.1214  0.6527
  483TMC3    C3 7235   2.423   1.698   0.771 -0.2734 -0.9659 -0.0995
  483TMC3    C4 7236   2.317   1.467   0.879  0.2657 -0.3825 -0.6192
  483TMC3    C5 7237   2.451   1.500   0.891  0.1210  0.4325 -0.2415
  483TMC3    C6 7238   2.503   1.615   0.838  0.5431 -0.4200 -0.2331
  483TMC3     C 7239   2.091   1.544   0.783 -0.2341 -0.3511 -0.7938
  483TMC3     O 7240   2.026   1.649   0.775  0.1923 -0.0305 -0.2976
  483TMC3     H 7241   2.233   1.751   0.712  3.9993  1.2451 -2.5542
  483TMC3    H1 7242   2.284   1.373   0.921  0.1603 -0.2504 -0.4082
  483TMC3    H2 7243   2.609   1.637   0.831  0.9114 -1.4953  1.8057
  483TMC3    C7 7244   2.540   1.387   0.883  0.0565  0.0034 -0.0288
  483TMC3    C8 7245   2.478   1.813   0.714 -0.6144  0.1416  0.5413
  483TMC3    O1 7246   2.490   1.286   0.839  0.2455  0.2857 -0.6129
  483TMC3    O2 7247   2.421   1.854   0.614 -0.0264 -0.6059 -0.6520
  484MPD2     C 7248   4.712   0.139  12.490  0.4328 -0.5398  0.4200
  484MPD2    C1 7249   4.725   0.013  12.550 -0.0521  0.5094 -0.2343
  484MPD2    C2 7250   0.111   4.686  12.526 -0.5255  0.1193 -0.2699
  484MPD2    C3 7251   0.201   4.730  12.432 -0.3434  0.5876  0.0450
  484MPD2    C4 7252   0.192   0.126  12.384  0.6341  0.5562 -0.5935
  484MPD2    C5 7253   0.079   0.198  12.426  0.4195  0.0752  0.2923
  484MPD2     H 7254   0.126   4.585  12.561 -0.4143 -0.3012 -1.5381
  484MPD2    H1 7255   0.276   0.166  12.329 -1.5741  2.7191 -2.3795
  484MPD2    H2 7256   4.621   0.199  12.496  0.0279 -1.0057 -1.0413
  484MPD2    H3 7257   0.069   0.296  12.381  1.3194 -0.7079 -1.6235
  484MPD2     N 7258   0.320   4.648  12.391  0.0622  0.0890  0.0091
  484MPD2    H5 7259   0.386   4.695  12.330 -1.8095  2.3010 -0.3618
  484MPD2    N1 7260   4.614   4.697  12.627  0.3772 -0.5882  0.4892
  484MPD2    H7 7261   4.526   0.010  12.626  0.2702 -0.8189 -1.4599
  485TMC3    C1 7262   0.472   4.471  12.375  0.1027 -0.5261 -0.6800
  485TMC3    C2 7263   0.533   4.372  12.451 -0.5530 -0.4718 -0.3863
  485TMC3    C3 7264   0.614   4.285  12.393 -0.6211 -0.5720  0.6616
  485TMC3    C4 7265   0.477   4.471  12.239  0.0739  0.3181 -0.1545
  485TMC3    C5 7266   0.546   4.374  12.178 -0.0943  0.8508 -0.1818
  485TMC3    C6 7267   0.624   4.284  12.256 -0.0513 -0.0253 -0.0726
  485TMC3     C 7268   0.351   4.523  12.432 -0.0552 -0.5239 -0.5962
  485TMC3     O 7269   0.292   4.442  12.501  0.2508 -0.6020 -0.3081
  485TMC3     H 7270   0.501   4.368  12.554 -0.4008  0.6410 -0.2944
  485TMC3    H1 7271   0.399   4.522  12.184  1.0273  1.4245 -0.4674
  485TMC3    H2 7272   0.669   4.191  12.221  2.3880  1.2182 -0.2515
  485TMC3    C7 7273   0.480   4.304  12.071 -0.0357  1.0175  0.2438
  485TMC3    C8 7274   0.591   4.156  12.441  0.1311 -0.1250  0.3376
  485TMC3    O1 7275   0.441   4.371  11.980  0.2607 -0.0456  0.1004
  485TMC3    O2 7276   0.491   4.102  12.402  0.2979 -0.6619  0.2878
  486MPD2     C 7277   2.247   3.421  13.337 -0.1012 -0.0711 -0.6219
  486MPD2    C1 7278   2.277   3.444  13.207 -0.1010 -0.0183 -0.1984
  486MPD2    C2 7279   2.194   3.523  13.133  0.1337 -0.0626  0.9939
  486MPD2    C3 7280   2.078   3.581  13.182  0.5472  0.3238 -0.4388
  486MPD2    C4 7281   2.034   3.538  13.303  0.2323 -1.3331  0.4040
  486MPD2    C5 7282   2.124   3.463  13.378  0.2169  0.1081 -0.0971
  486MPD2     H 7283   2.218   3.556  13.032 -1.7459 -0.8763  0.2846
  486MPD2    H1 7284   1.946   3.570  13.357 -0.2424 -0.9272 -0.6077
  486MPD2    H2 7285   2.309   3.362  13.405  1.8509  2.3102 -0.3500
  486MPD2    H3 7286   2.105   3.427  13.479 -1.3535 -1.6746 -1.0248
  486MPD2     N 7287   2.008   3.677  13.105  0.0521 -0.3878  0.4096
  486MPD2    H5 7288   2.060   3.704  13.022 -0.9541 -0.2978 -0.1915
  486MPD2    N1 7289   2.386   3.374  13.151 -0.0959  0.7210  0.3357
  486MPD2    H7 7290   2.418   3.304  13.218 -1.1189  0.8329  0.9516
  487TMC3    C1 7291   2.550   3.282  13.006  0.4425 -0.3997  0.5537
  487TMC3    C2 7292   2.527   3.195  12.905 -0.5349 -0.3591 -0.1220
  487TMC3    C3 7293   2.562   3.062  12.920  0.0634  0.4928  0.7140
  487TMC3    C4 7294   2.613   3.245  13.116 -0.3001  0.4569 -0.5299
  487TMC3    C5 7295   2.660   3.117  13.124 -0.5330 -0.2825 -0.2170
  487TMC3    C6 7296   2.636   3.024  13.029 -0.6179 -0.9975  0.1631
  487TMC3     C 7297   2.432   3.369  13.024  0.0390  0.2507  0.1290
  487TMC3     O 7298   2.392   3.441  12.930 -0.0187 -0.0109 -0.5608
  487TMC3     H 7299   2.461   3.225  12.824 -2.1626  0.0508  1.3770
  487TMC3    H1 7300   2.607   3.316  13.198  0.9902  1.4643 -1.3069
  487TMC3    H2 7301   2.661   2.918  13.037  0.9534 -0.7341 -1.2848
  487TMC3    C7 7302   2.711   3.068  13.253  0.1062  0.1419  0.6021
  487TMC3    C8 7303   2.457   2.968  12.889 -0.2182 -0.2781 -0.3624
  487TMC3    O1 7304   2.733   3.153  13.335 -0.1526  0.2689  0.0991
  487TMC3    O2 7305   2.459   2.859  12.949  0.2550 -0.4101  0.2632
  488MPD2     C 7306   2.272   0.277  15.982 -0.1307  0.1111  0.2320
  488MPD2    C1 7307   2.348   0.364  16.056 -0.6964  0.1457  0.1559
  488MPD2    C2 7308   2.360   0.356  16.195  0.4483 -0.1971  0.7784
  488MPD2    C3 7309   2.301   0.252  16.259 -0.1678 -0.5804 -0.3919
  488MPD2    C4 7310   2.212   0.172  16.194 -0.4908  0.4921  0.2527
  488MPD2    C5 7311   2.203   0.179  16.054  0.5964 -0.0535 -0.1486
  488MPD2     H 7312   2.414   0.433  16.248  0.5514  0.6551 -0.5618
  488MPD2    H1 7313   2.161   0.090  16.243  0.7526 -0.0745  0.6119
  488MPD2    H2 7314   2.268   0.277  15.874  0.0699  0.4415  0.2222
  488MPD2    H3 7315   2.142   0.109  15.998  0.8589  0.4163 -1.0203
  488MPD2     N 7316   2.323   0.254  16.399  0.2587 -0.4285 -0.1435
  488MPD2    H5 7317   2.383   0.328  16.435 -0.1142  0.2599 -0.9584
  488MPD2    N1 7318   2.432   0.466  16.006  0.9962  0.3593  0.0644
  488MPD2    H7 7319   2.468   0.534  16.073 -1.0622  2.0988 -0.5885
  489TMC3    C1 7320   2.305   0.212  16.629  0.4458  0.4545 -0.2856
  489TMC3    C2 7321   2.367   0.335  16.650  0.0648  0.6165  0.3282
  489TMC3    C3 7322   2.421   0.359  16.772 -0.9356  0.2392  0.1347
  489TMC3    C4 7323   2.278   0.124  16.730  0.1529  0.5915  0.4983
  489TMC3    C5 7324   2.326   0.159  16.851  0.1020 -0.1097 -0.6470
  489TMC3    C6 7325   2.397   0.276  16.877  0.2496  0.3083 -0.0690
  489TMC3     C 7326   2.267   0.172  16.496  0.5747 -0.6620  0.0459
  489TMC3     O 7327   2.202   0.073  16.475 -0.2996  0.5442  0.1257
  489TMC3     H 7328   2.396   0.402  16.570  1.0909  0.0480  0.2360
  489TMC3    H1 7329   2.224   0.033  16.707 -0.2172  0.6915  0.9547
  489TMC3    H2 7330   2.447   0.284  16.973 -1.1914 -4.2079  1.0488
  489TMC3    C7 7331   2.349   0.059  16.952  0.1908 -0.1233 -0.2473
  489TMC3    C8 7332   2.477   0.489  16.790 -0.0583 -0.7179  0.2027
  489TMC3    O1 7333   2.430   0.081  17.043 -0.8421 -0.5139 -0.1758
  489TMC3    O2 7334   2.528   0.538  16.689  0.3496  0.1971 -0.0977
  490MPD2     C 7335   3.388   4.091   0.094  0.1587 -0.2290 -0.6802
  490MPD2    C1 7336   3.279   4.162   0.035  0.1106  0.1465  0.4038
  490MPD2    C2 7337   3.303   4.283  17.730  0.3608  0.0010 -0.4964
  490MPD2    C3 7338   3.429   4.340  17.732  0.4711 -0.2484  0.2768
  490MPD2    C4 7339   3.539   4.260   0.033 -0.8309 -0.8336  0.1645
  490MPD2    C5 7340   3.512   4.137   0.093 -0.8824  0.0781  0.0036
  490MPD2     H 7341   3.224   4.342  17.684 -0.3717 -1.0504 -0.5863
  490MPD2    H1 7342   3.637   4.305   0.036 -1.8533  1.7335 -4.2091
  490MPD2    H2 7343   3.380   3.998   0.150 -1.6726  0.3875  0.0896
  490MPD2    H3 7344   3.591   4.076   0.135 -0.9752  0.9116  1.4044
  490MPD2     N 7345   3.461   4.471  17.685  0.4526 -0.1740  0.1805
  490MPD2    H5 7346   3.556   4.504  17.698 -0.1012  1.6290 -0.2043
  490MPD2    N1 7347   3.147   4.109   0.019  0.4944 -0.3369 -0.4456
  490MPD2    H7 7348   3.080   4.166  17.718  0.8171  1.3355  1.0167
  491TMC3    C1 7349   2.974   3.959   0.023 -0.2605  0.1027  0.2913
  491TMC3    C2 7350   2.885   4.063   0.037 -0.2005  0.0106 -0.4613
  491TMC3    C3 7351   2.763   4.051  17.733 -0.0567  0.3920 -0.2480
  491TMC3    C4 7352   2.949   3.853  17.691 -0.0916 -0.3738  0.4701
  491TMC3    C5 7353   2.821   3.844  17.643  0.1442 -0.3541  0.1148
  491TMC3    C6 7354   2.722   3.940  17.665 -0.3393  0.1171  0.0711
  491TMC3     C 7355   3.105   3.990   0.061  0.8996 -0.3698 -0.1550
  491TMC3     O 7356   3.171   3.891   0.103  0.0018 -0.0587  0.3478
  491TMC3     H 7357   2.914   4.140   0.108  0.4121  0.5759 -1.3217
  491TMC3    H1 7358   3.012   3.765  17.687  0.5668  0.0440  2.0971
  491TMC3    H2 7359   2.624   3.926  17.623 -1.1488 -0.3445  2.1313
  491TMC3    C7 7360   2.767   3.708  17.609 -0.2568 -0.3866 -0.5736
  491TMC3    C8 7361   2.664   4.153   0.005 -0.1406 -0.2989 -0.9942
  491TMC3    O1 7362   2.825   3.616  17.658 -0.1159 -0.0183  0.6416
  491TMC3    O2 7363   2.547   4.118  17.731  0.3195  0.2942 -0.4088
  492MPD2     C 7364   3.608   4.687  10.516  0.5818 -0.3268 -0.6346
  492MPD2    C1 7365   3.528   4.574  10.502  0.2512 -0.0302 -0.0280
  492MPD2    C2 7366   3.484   4.502  10.608 -0.3895 -0.0503 -0.1624
  492MPD2    C3 7367   3.531   4.529  10.734 -0.2295 -0.0821  0.1147
  492MPD2    C4 7368   3.615   4.636  10.759  0.0382 -0.0176  0.3918
  492MPD2    C5 7369   3.653   4.711  10.652  0.4489 -0.2082  0.5996
  492MPD2     H 7370   3.433   4.408  10.590  0.7727 -0.7709  0.2630
  492MPD2    H1 7371   3.638   4.662  10.861 -1.1828 -1.6520  1.0837
  492MPD2    H2 7372   3.631   0.023  10.440 -1.2661 -0.8743 -1.7151
  492MPD2    H3 7373   3.709   0.066  10.658 -1.1564  0.7785  0.1084
  492MPD2     N 7374   3.494   4.454  10.848 -0.3966 -0.5535 -0.1571
  492MPD2    H5 7375   3.544   4.471  10.935 -1.3834 -1.1400  0.5339
  492MPD2    N1 7376   3.468   4.562  10.370 -0.5018 -0.4163 -0.0819
  492MPD2    H7 7377   3.517   4.616  10.299 -0.0543  1.9184  2.0037
  493TMC3    C1 7378   3.308   4.516  10.209  0.1206  0.2453  0.2299
  493TMC3    C2 7379   3.298   4.645  10.156  0.5073  0.7584 -0.5027
  493TMC3    C3 7380   3.249   4.655  10.029 -0.3678 -0.5563 -0.1681
  493TMC3    C4 7381   3.273   4.408  10.130  0.1778  0.0034 -1.2424
  493TMC3    C5 7382   3.236   4.424   9.995  0.0157  1.1013  0.3942
  493TMC3    C6 7383   3.213   4.546   9.947 -0.0613  0.5373  0.0885
  493TMC3     C 7384   3.371   4.477  10.331  0.2385  1.1098  0.4935
  493TMC3     O 7385   3.308   4.394  10.391  0.0545  0.0608 -0.4246
  493TMC3     H 7386   3.325   4.736  10.209  2.1389  1.0935 -1.8998
  493TMC3    H1 7387   3.306   4.310  10.162  0.2038  0.4648  0.1635
  493TMC3    H2 7388   3.183   4.554   9.843  0.4734 -3.8972 -0.4093
  493TMC3    C7 7389   3.173   4.317   9.926  0.8098  0.4037  0.0323
  493TMC3    C8 7390   3.258   0.048   9.958  0.4217 -0.1863  0.0960
  493TMC3    O1 7391   3.199   4.309   9.808  0.5608 -0.0280  0.2809
  493TMC3    O2 7392   3.324   0.140  10.003 -0.4466 -0.0809 -0.1543
  494TMC3    C1 7393   3.926   1.426   0.120  0.7976 -0.5230 -0.7354
  494TMC3    C2 7394   3.934   1.292   0.106  0.7126  0.2920 -0.2676
  494TMC3    C3 7395   3.916   1.240  17.730 -0.4917  0.0854 -0.8292
  494TMC3    C4 7396   3.926   1.510   0.016  0.0773  0.0898 -0.4468
  494TMC3    C5 7397   3.929   1.448  17.638  0.2118  0.2754  0.3704
  494TMC3    C6 7398   3.916   1.317  17.617  0.2318 -0.7096 -0.1130
  494TMC3     C 7399   3.949   1.489   0.250  0.2274  0.6342  0.3422
  494TMC3     O 7400   4.022   1.420   0.320 -0.0737 -0.0902  0.3417
  494TMC3     H 7401   3.921   1.237   0.198  0.3402 -0.5517 -0.8225
  494TMC3    H1 7402   3.943   1.616   0.031  2.6284 -0.2220 -1.1719
  494TMC3    H2 7403   3.904   1.274  17.518  1.2590 -2.1996  0.4212
  494TMC3    C7 7404   3.950   1.525  17.521  0.3664 -0.1839 -0.1686
  494TMC3    C8 7405   3.873   1.099  17.723  0.2422  0.3099 -0.1008
  494TMC3    O1 7406   3.979   1.462  17.422  0.2530  0.0298 -0.2129
  494TMC3    O2 7407   3.815   1.043   0.064 -0.5422  0.6659  0.2675
  495TMC3    C1 7408   3.160   3.851  14.885 -0.2691  0.6434 -1.0215
  495TMC3    C2 7409   3.080   3.860  14.776  0.5739  0.3935 -0.2199
  495TMC3    C3 7410   2.946   3.836  14.806 -0.4900 -0.3731  0.2886
  495TMC3    C4 7411   3.112   3.833  15.014 -0.6557  0.1943  0.3234
  495TMC3    C5 7412   2.977   3.820  15.041 -0.2861  0.4439 -0.0577
  495TMC3    C6 7413   2.893   3.815  14.929 -0.0758 -0.4592 -0.3880
  495TMC3     C 7414   3.297   3.888  14.871 -0.6886 -0.0727 -0.3137
  495TMC3     O 7415   3.337   3.965  14.957  0.4160 -0.1655 -0.5459
  495TMC3     H 7416   3.120   3.906  14.686 -3.0272  2.4015 -0.8019
  495TMC3    H1 7417   3.184   3.842  15.094  0.3880  0.1851 -0.6079
  495TMC3    H2 7418   2.797   3.766  14.943 -0.8514  0.8630 -1.0785
  495TMC3    C7 7419   2.958   3.732  15.158 -0.1694 -0.8584 -0.0989
  495TMC3    C8 7420   2.861   3.784  14.694  0.5912  0.1829 -0.4671
  495TMC3    O1 7421   3.050   3.685  15.227 -0.0410 -0.1861 -0.2838
  495TMC3    O2 7422   2.747   3.760  14.729 -0.3108  0.2968 -0.1346
  496MPD2     C 7423   0.124   3.794  15.414 -0.1014 -0.4347 -0.4310
  496MPD2    C1 7424   0.065   3.687  15.346  0.1771  0.5014 -0.2855
  496MPD2    C2 7425   4.670   3.659  15.363  0.6796  0.3577 -0.2808
  496MPD2    C3 7426   4.588   3.732  15.449 -0.1215 -0.1240  0.2426
  496MPD2    C4 7427   4.651   3.829  15.515  0.1777  0.1261  0.1221
  496MPD2    C5 7428   0.046   3.857  15.506  0.1450  0.0239 -0.0144
  496MPD2     H 7429   4.626   3.572  15.316 -0.8493  1.2583 -0.4826
  496MPD2    H1 7430   4.593   3.883  15.589 -1.8338 -0.5852 -0.9475
  496MPD2    H2 7431   0.229   3.823  15.414 -0.3480  0.4793 -0.3618
  496MPD2    H3 7432   0.082   3.944  15.559  1.7128 -0.5483 -0.1327
  496MPD2     N 7433   4.455   3.707  15.477  0.2738 -0.2741  0.1820
  496MPD2    H5 7434   4.414   3.764  15.550 -1.1886 -2.3174  0.9575
  496MPD2    N1 7435   0.132   3.599  15.260  1.0525 -0.8409  0.3957
  496MPD2    H7 7436   0.086   3.515  15.227 -2.5478  1.2757  0.0740
  497TMC3    C1 7437   4.262   3.566  15.492 -0.1230  0.2804  0.2891
  497TMC3    C2 7438   4.190   3.479  15.418  0.0297 -0.0226  0.5827
  497TMC3    C3 7439   4.153   3.363  15.475 -0.3556  0.3494 -0.1804
  497TMC3    C4 7440   4.293   3.554  15.625  0.3249  0.3645  0.7979
  497TMC3    C5 7441   4.238   3.440  15.684  0.2451  0.7591 -0.3991
  497TMC3    C6 7442   4.172   3.342  15.607  0.3476 -0.5376 -0.2712
  497TMC3     C 7443   4.382   3.599  15.421 -0.0475  0.1374 -0.2431
  497TMC3     O 7444   4.401   3.535  15.321  0.7313 -0.4482  0.3607
  497TMC3     H 7445   4.187   3.502  15.312  0.0125  2.4976  1.1282
  497TMC3    H1 7446   4.343   3.633  15.679 -0.8942  0.5982  1.5924
  497TMC3    H2 7447   4.149   3.251  15.661  0.7588 -0.7068 -0.3814
  497TMC3    C7 7448   4.277   3.400  15.813  0.1605  0.7734  0.0435
  497TMC3    C8 7449   4.132   3.254  15.385  0.5935  0.1905 -0.2871
  497TMC3    O1 7450   4.193   3.334  15.873  0.9330 -0.4649  0.1088
  497TMC3    O2 7451   4.105   3.280  15.267 -0.3261 -0.7753  0.3425
  498MPD2     C 7452   0.275   4.703   9.370 -0.3758  1.2034  0.0923
  498MPD2    C1 7453   0.303   4.649   9.496  0.3552  0.4721 -0.1141
  498MPD2    C2 7454   0.267   4.521   9.523  0.5327 -0.6705 -0.3495
  498MPD2    C3 7455   0.194   4.449   9.430 -0.1904 -0.0709 -0.1974
  498MPD2    C4 7456   0.168   4.504   9.304  0.1463 -0.1911 -0.4274
  498MPD2    C5 7457   0.213   4.629   9.275 -0.3305 -0.2596  0.1836
  498MPD2     H 7458   0.300   4.476   9.616 -1.1129 -0.3417  0.4030
  498MPD2    H1 7459   0.106   4.456   9.229 -3.0443  2.0678  0.7753
  498MPD2    H2 7460   0.309   0.065   9.347 -0.9516  1.1249 -1.1479
  498MPD2    H3 7461   0.184   4.684   9.187 -0.2386 -0.0481  0.2858
  498MPD2     N 7462   0.140   4.319   9.472  0.5536 -0.0016 -0.1062
  498MPD2    H5 7463   0.160   4.293   9.568 -0.4796 -1.1350 -0.2104
  498MPD2    N1 7464   0.368   4.733   9.597 -0.8791  0.6173 -0.2293
  498MPD2    H7 7465   0.387   4.669   9.674  0.9223  1.3143 -0.0983
  499TMC3    C1 7466   0.474   0.160   9.718 -0.2728  0.5266  0.4063
  499TMC3    C2 7467   0.408   0.115   9.831  0.0640 -0.0193  0.1120
  499TMC3    C3 7468   0.445   0.168   9.949 -0.6011 -0.4427 -0.3142
  499TMC3    C4 7469   0.545   0.273   9.726 -0.6338 -0.1154 -0.5248
  499TMC3    C5 7470   0.576   0.326   9.852  0.1266  0.4944  0.3385
  499TMC3    C6 7471   0.529   0.274   9.966  0.4873  0.2925  0.0627
  499TMC3     C 7472   0.420   0.120   9.589  0.0953  0.3730  0.1644
  499TMC3     O 7473   0.447   0.184   9.486  0.0152  0.2795 -0.6536
  499TMC3     H 7474   0.332   0.038   9.828  0.9915 -0.9251 -0.3063
  499TMC3    H1 7475   0.608   0.313   9.647 -1.0282  1.8380  0.1281
  499TMC3    H2 7476   0.563   0.303  10.065 -0.0278  1.6716 -0.1720
  499TMC3    C7 7477   0.676   0.428   9.868 -0.8019 -0.0918 -0.4333
  499TMC3    C8 7478   0.386   0.104  10.070 -0.3485 -0.0884 -0.6182
  499TMC3    O1 7479   0.683   0.520   9.790 -0.4986 -0.0551 -0.1764
  499TMC3    O2 7480   0.302   0.014  10.052  0.4058  0.7842 -0.6888
  500MPD2     C 7481   2.351   0.595  10.561  0.0146  0.4080 -0.2299
  500MPD2    C1 7482   2.408   0.711  10.514 -0.0817 -0.7815  0.0777
  500MPD2    C2 7483   2.326   0.828  10.521 -0.2982  0.3819 -0.1115
  500MPD2    C3 7484   2.195   0.822  10.567 -0.0179 -0.1903 -0.5041
  500MPD2    C4 7485   2.136   0.697  10.592 -0.4261  0.6105 -0.9166
  500MPD2    C5 7486   2.217   0.585  10.597  0.7019  0.6798 -0.1011
  500MPD2     H 7487   2.374   0.919  10.487  0.3786  0.2557  0.5183
  500MPD2    H1 7488   2.032   0.679  10.616  0.1276  0.1919  1.1624
  500MPD2    H2 7489   2.406   0.501  10.566 -2.1142 -0.7395  1.5812
  500MPD2    H3 7490   2.179   0.487  10.626 -0.2761  1.6564  1.9375
  500MPD2     N 7491   2.114   0.931  10.576  0.2340 -0.1454 -0.2316
  500MPD2    H5 7492   2.019   0.912  10.608  0.3321  0.8015  0.6570
  500MPD2    N1 7493   2.534   0.721  10.451  0.6003 -0.1191 -0.4057
  500MPD2    H7 7494   2.566   0.813  10.421 -0.7894  0.3177 -0.5269
  501TMC3    C1 7495   2.733   0.664  10.333  0.9066 -0.4719  1.3302
  501TMC3    C2 7496   2.743   0.793  10.287 -0.1283  1.1475  0.1102
  501TMC3    C3 7497   2.859   0.828  10.239  0.5176 -0.1868  0.6371
  501TMC3    C4 7498   2.828   0.570  10.318 -0.0159 -0.3375 -0.3296
  501TMC3    C5 7499   2.950   0.614  10.281  0.5542 -0.2558 -0.2322
  501TMC3    C6 7500   2.969   0.748  10.249 -0.0481 -0.4835 -0.4316
  501TMC3     C 7501   2.614   0.616  10.415 -0.1960  0.0843  0.6944
  501TMC3     O 7502   2.613   0.500  10.454  0.0629  0.3254 -0.4068
  501TMC3     H 7503   2.661   0.862  10.301 -0.7511  0.3862  0.2440
  501TMC3    H1 7504   2.817   0.469  10.356  0.3786 -0.2320  0.0693
  501TMC3    H2 7505   3.060   0.773  10.196  0.1091 -1.7787 -0.7874
  501TMC3    C7 7506   3.061   0.532  10.329  0.2693  0.0328 -0.7381
  501TMC3    C8 7507   2.889   0.964  10.219  0.0596  0.5767 -0.4028
  501TMC3    O1 7508   3.045   0.413  10.353  0.8635 -0.0697 -0.4377
  501TMC3    O2 7509   3.009   0.997  10.225  0.3099  0.0809 -0.1927
  502TMC3    C1 7510   2.447   4.349  15.098 -0.2163  0.3695  0.4478
  502TMC3    C2 7511   2.409   4.446  15.006 -0.5325 -0.1547  0.0881
  502TMC3    C3 7512   2.285   4.468  14.970 -0.4543 -0.2111  0.3980
  502TMC3    C4 7513   2.354   4.268  15.141 -0.3018  0.1244  0.3950
  502TMC3    C5 7514   2.225   4.299  15.107 -0.6713 -1.1282  0.3036
  502TMC3    C6 7515   2.185   4.400  15.031 -0.4457 -0.1784  0.5650
  502TMC3     C 7516   2.570   4.361  15.172  0.4375  0.7062 -0.8760
  502TMC3     O 7517   2.658   4.429  15.128 -0.4389 -0.2428 -0.4890
  502TMC3     H 7518   2.482   4.515  14.966 -1.1543  0.4349 -0.0300
  502TMC3    H1 7519   2.373   4.178  15.200  1.0963 -0.0027 -0.2624
  502TMC3    H2 7520   2.088   4.409  14.983 -0.1275 -0.7679 -0.1968
  502TMC3    C7 7521   2.128   4.194  15.148 -0.4141 -0.1345  0.4638
  502TMC3    C8 7522   2.260   4.604  14.929  0.5598  0.2920  0.0706
  502TMC3    O1 7523   2.170   4.079  15.152  0.0663  0.3729  0.0523
  502TMC3    O2 7524   2.348   4.656  14.864  0.0159 -0.3757 -0.4590
  503MPD2     C 7525   4.445   0.615  16.372  0.3544 -0.8728  0.5199
  503MPD2    C1 7526   4.385   0.589  16.496 -0.6729  0.1065  0.0638
  503MPD2    C2 7527   4.395   0.462  16.555  0.2660 -0.2325  0.1060
  503MPD2    C3 7528   4.470   0.367  16.491 -0.2336 -0.1972 -0.7764
  503MPD2    C4 7529   4.536   0.394  16.371  0.0757 -0.2173  0.0613
  503MPD2    C5 7530   4.513   0.515  16.314 -0.2886 -0.8624 -0.0424
  503MPD2     H 7531   4.342   0.447  16.649 -0.6665  0.7495 -0.2648
  503MPD2    H1 7532   4.604   0.331  16.314  0.4440  1.3766 -1.2558
  503MPD2    H2 7533   4.441   0.707  16.316 -1.5666 -0.2340  1.7132
  503MPD2    H3 7534   4.558   0.535  16.218  0.0246 -0.9386  0.0890
  503MPD2     N 7535   4.486   0.237  16.555  0.4811  0.5010 -1.0334
  503MPD2    H5 7536   4.423   0.229  16.634  0.7241  0.4647 -0.8425
  503MPD2    N1 7537   4.316   0.693  16.565 -0.4543  0.0332 -0.3902
  503MPD2    H7 7538   4.265   0.659  16.646 -1.1097  1.4826 -0.1901
  504TMC3    C1 7539   4.523   0.009  16.589  0.1358 -0.6652  0.2856
  504TMC3    C2 7540   4.436   0.026  16.696 -0.2503 -0.1676  0.4180
  504TMC3    C3 7541   4.443   4.669  16.793 -0.2176 -0.6045 -0.1106
  504TMC3    C4 7542   4.609   4.645  16.571 -0.5668  1.1039 -0.5850
  504TMC3    C5 7543   4.616   4.556  16.672 -0.3400  0.0832 -0.4740
  504TMC3    C6 7544   4.531   4.561  16.780 -0.6990 -0.4816  0.6487
  504TMC3     C 7545   4.546   0.126  16.503 -0.2911  0.9087  0.0167
  504TMC3     O 7546   4.619   0.119  16.406 -0.2268 -0.7151 -0.1673
  504TMC3     H 7547   4.366   0.106  16.719  0.9495 -0.0751  3.7681
  504TMC3    H1 7548   4.680   4.647  16.489  0.0694 -0.7465 -0.0929
  504TMC3    H2 7549   4.564   4.500  16.864 -0.8297 -0.3286  0.8128
  504TMC3    C7 7550   4.738   4.481  16.687 -0.3123  0.3752  0.0439
  504TMC3    C8 7551   4.376   4.697  16.920  0.2986  0.4682  0.1050
  504TMC3    O1 7552   0.057   4.437  16.589  0.2926  0.0025  0.1696
  504TMC3    O2 7553   4.327   0.072  16.920  0.5249 -0.2122  0.1228
  505MPD2     C 7554   4.201   3.822  10.726 -0.2239 -1.0180 -0.1731
  505MPD2    C1 7555   4.270   3.795  10.604  0.6720 -0.3217 -1.2099
  505MPD2    C2 7556   4.407   3.841  10.595  0.4034  0.2205 -0.6933
  505MPD2    C3 7557   4.469   3.904  10.700  0.3469  0.2501  0.1456
  505MPD2    C4 7558   4.399   3.917  10.823 -0.1874 -0.5756 -0.0358
  505MPD2    C5 7559   4.269   3.878  10.832 -0.1199  0.0536 -0.3127
  505MPD2     H 7560   4.472   3.817  10.512 -0.3505 -1.4031 -0.8134
  505MPD2    H1 7561   4.447   3.954  10.913  1.1457 -1.9067 -0.2064
  505MPD2    H2 7562   4.098   3.790  10.735 -0.5956 -0.0267 -0.7803
  505MPD2    H3 7563   4.228   3.896  10.931  0.2261  1.2480 -0.3954
  505MPD2     N 7564   4.602   3.956  10.695  0.2026  0.6350  0.1767
  505MPD2    H5 7565   4.649   3.995  10.776 -2.0676  1.4730  1.0914
  505MPD2    N1 7566   4.206   3.721  10.505 -0.1998 -0.1244 -0.1868
  505MPD2    H7 7567   4.119   3.681  10.536 -0.7755  1.8384  0.7613
  506TMC3    C1 7568   4.223   3.581  10.314  0.2991 -0.8305  0.0687
  506TMC3    C2 7569   4.229   3.568  10.181  0.6291  0.4215 -0.2952
  506TMC3    C3 7570   4.238   3.443  10.133 -0.2087  0.3055 -0.6490
  506TMC3    C4 7571   4.235   3.471  10.395 -0.1991 -0.0328  0.6407
  506TMC3    C5 7572   4.248   3.351  10.342  0.8429 -0.1367 -0.7897
  506TMC3    C6 7573   4.246   3.335  10.210 -0.3577  0.1083 -0.7930
  506TMC3     C 7574   4.247   3.711  10.375  0.1475 -0.4264  0.0431
  506TMC3     O 7575   4.321   3.789  10.317 -0.0665 -0.2078 -0.0033
  506TMC3     H 7576   4.231   3.654  10.115  1.9133 -0.2794 -1.1641
  506TMC3    H1 7577   4.256   3.496  10.499  2.0842 -2.0355  0.6630
  506TMC3    H2 7578   4.267   3.235  10.176  0.2106 -0.6681  1.8151
  506TMC3    C7 7579   4.359   3.277  10.405  0.1612  0.3415 -0.2748
  506TMC3    C8 7580   4.234   3.419   9.989  0.3716  0.2439 -0.7816
  506TMC3    O1 7581   4.341   3.158  10.421 -0.4877 -0.4512  0.1869
  506TMC3    O2 7582   4.171   3.321   9.949 -0.1912  0.2308  0.2772
  507TMC3    C1 7583   0.817   4.611  14.312  0.1010 -0.9270 -0.0961
  507TMC3    C2 7584   0.747   4.624  14.204 -0.3711  0.0861 -0.1753
  507TMC3    C3 7585   0.810   4.669  14.093 -0.2814 -0.5163  1.0685
  507TMC3    C4 7586   0.945   4.665  14.314 -0.0715  0.1668 -0.7061
  507TMC3    C5 7587   1.010   4.724  14.210  0.2828  0.2133  0.0381
  507TMC3    C6 7588   0.940   4.712  14.093 -0.5830  0.3680 -0.3918
  507TMC3     C 7589   0.746   4.597  14.442  0.1491  0.0266 -0.0764
  507TMC3     O 7590   0.818   4.601  14.542  0.6981 -0.1970 -0.5214
  507TMC3     H 7591   0.646   4.587  14.200 -0.0562 -0.5713 -1.8762
  507TMC3    H1 7592   1.001   4.663  14.406 -0.9761 -1.3844 -0.2034
  507TMC3    H2 7593   0.996   0.003  14.005  1.1955 -0.6425  0.4012
  507TMC3    C7 7594   1.046   0.122  14.236 -0.0208  0.2718  0.1462
  507TMC3    C8 7595   0.721   0.019  14.022  0.3618  0.1050 -0.0858
  507TMC3    O1 7596   1.027   0.194  14.139  0.4008  0.1671  0.8935
  507TMC3    O2 7597   0.603   4.733  14.018  0.1355  0.1023  0.7031
  508MPD2     C 7598   1.658   2.056  15.620  0.5254  0.0377 -0.3696
  508MPD2    C1 7599   1.583   2.068  15.740 -0.0674 -0.5347  0.3534
  508MPD2    C2 7600   1.506   2.181  15.760 -0.3528  0.5551 -0.4064
  508MPD2    C3 7601   1.493   2.277  15.663 -0.4866  0.2087  0.2469
  508MPD2    C4 7602   1.552   2.255  15.540  0.8443  0.2132 -0.0621
  508MPD2    C5 7603   1.628   2.144  15.523 -0.1189 -0.3562 -0.1120
  508MPD2     H 7604   1.454   2.199  15.853 -0.7648 -0.3535 -0.4582
  508MPD2    H1 7605   1.543   2.323  15.455  1.8009  2.4793  1.6489
  508MPD2    H2 7606   1.722   1.974  15.591  2.3416 -0.1687  4.1409
  508MPD2    H3 7607   1.671   2.118  15.427  1.1423 -2.7203  1.0799
  508MPD2     N 7608   1.432   2.401  15.693  0.2363  0.9510 -0.0550
  508MPD2    H5 7609   1.409   2.420  15.790 -2.0165  2.6036 -0.9167
  508MPD2    N1 7610   1.621   1.986  15.848  0.0687  0.7873 -0.8345
  508MPD2    H7 7611   1.705   1.931  15.833 -0.4934 -0.1813 -0.4591
  509TMC3    C1 7612   1.242   2.788  15.733 -0.0301 -0.8024  0.0026
  509TMC3    C2 7613   1.266   2.777  15.868 -0.2508 -0.1148  0.1429
  509TMC3    C3 7614   1.362   2.692  15.922  0.1173  0.3555  0.3619
  509TMC3    C4 7615   1.317   2.717  15.642 -0.0798  0.3269 -0.0801
  509TMC3    C5 7616   1.405   2.629  15.697 -0.2153 -0.3734 -0.4130
  509TMC3    C6 7617   1.429   2.611  15.831  0.1656  0.1116  0.4199
  509TMC3     C 7618   1.151   2.888  15.689 -0.4804  0.3432  0.5081
  509TMC3     O 7619   1.057   2.913  15.765  0.4474  0.3090  0.5201
  509TMC3     H 7620   1.240   2.865  15.925 -0.3789 -1.3133  1.9386
  509TMC3    H1 7621   1.295   2.711  15.536 -1.9364  3.4168  0.1155
  509TMC3    H2 7622   1.513   2.546  15.854  0.5710  0.5719  0.2544
  509TMC3    C7 7623   1.426   2.512  15.614 -0.6545  0.2853  0.6455
  509TMC3    C8 7624   1.456   2.748  16.016  0.4107  0.0182  0.3544
  509TMC3    O1 7625   1.452   2.526  15.498 -0.3463 -0.4045 -0.3772
  509TMC3    O2 7626   1.466   2.871  16.006 -0.0754 -0.3427  0.8596
  510MPD2     C 7627   4.247   4.033  14.594  0.4605  0.2897  0.4663
  510MPD2    C1 7628   4.300   3.924  14.652  0.0260 -0.6706  0.1438
  510MPD2    C2 7629   4.429   3.882  14.610 -0.0914 -0.3896 -0.1740
  510MPD2    C3 7630   4.490   3.940  14.498  0.9695 -0.3543  1.0482
  510MPD2    C4 7631   4.422   4.044  14.435 -0.6484  0.2009  0.2458
  510MPD2    C5 7632   4.304   4.086  14.484  0.3733 -0.1812 -0.8148
  510MPD2     H 7633   4.480   3.795  14.650  0.1416  0.4222  1.3203
  510MPD2    H1 7634   4.450   4.089  14.341  0.3535  0.0200  0.4492
  510MPD2    H2 7635   4.141   4.056  14.606  0.1676 -1.0004  0.3794
  510MPD2    H3 7636   4.251   4.158  14.423  2.1536  2.3201  0.5728
  510MPD2     N 7637   4.615   3.892  14.451  0.5325 -0.0713  0.7080
  510MPD2    H5 7638   4.658   3.827  14.515  0.1119 -0.6679  0.3801
  510MPD2    N1 7639   4.217   3.858  14.747 -0.2413 -0.1527  0.1872
  510MPD2    H7 7640   4.134   3.907  14.778  0.1345  0.3791  0.3380
  511TMC3    C1 7641   4.149   3.674  14.881 -0.2159 -0.0033 -0.4917
  511TMC3    C2 7642   4.050   3.738  14.949 -0.3317 -0.6768  0.5746
  511TMC3    C3 7643   3.946   3.660  14.995  0.3616 -0.1704  0.3502
  511TMC3    C4 7644   4.141   3.547  14.845 -0.1784  0.4747 -0.3328
  511TMC3    C5 7645   4.034   3.475  14.871 -0.3205  0.1286 -0.3726
  511TMC3    C6 7646   3.931   3.529  14.948 -0.2135  0.0352  0.3187
  511TMC3     C 7647   4.254   3.744  14.816 -1.1030 -0.0991 -0.5413
  511TMC3     O 7648   4.365   3.692  14.823  0.2034  0.0161 -0.1420
  511TMC3     H 7649   4.048   3.843  14.974  1.1662 -0.0587 -1.9776
  511TMC3    H1 7650   4.214   3.503  14.778  1.2650 -1.9808  2.8264
  511TMC3    H2 7651   3.840   3.472  14.964 -0.8365  0.9137 -0.0817
  511TMC3    C7 7652   3.994   3.387  14.769 -0.1855  0.8139  0.1197
  511TMC3    C8 7653   3.854   3.721  15.085  0.5273  0.3996 -0.1697
  511TMC3    O1 7654   4.050   3.397  14.661 -0.3471 -0.5536 -0.1752
  511TMC3    O2 7655   3.871   3.840  15.116 -0.2414  0.5071 -0.1242
  512TMC3    C1 7656   3.066   3.304  13.322 -0.3218  0.0768  0.2979
  512TMC3    C2 7657   3.165   3.276  13.410 -0.0957  0.3922 -0.3763
  512TMC3    C3 7658   3.249   3.164  13.397 -0.2306  0.0984  0.4948
  512TMC3    C4 7659   3.044   3.218  13.221  1.2602  0.1501 -0.5605
  512TMC3    C5 7660   3.127   3.107  13.210 -0.0320  0.0415  0.0320
  512TMC3    C6 7661   3.221   3.074  13.299 -0.2130  0.0266  0.2220
  512TMC3     C 7662   2.962   3.400  13.350  0.3210 -0.6221  0.2978
  512TMC3     O 7663   2.953   3.435  13.465 -0.0104 -0.3594 -0.1063
  512TMC3     H 7664   3.191   3.357  13.477  0.1995  0.5102 -0.6334
  512TMC3    H1 7665   2.967   3.242  13.148  0.4546 -1.3137 -0.2031
  512TMC3    H2 7666   3.284   2.988  13.278  0.8773  0.9223 -0.2077
  512TMC3    C7 7667   3.074   3.002  13.124  0.5918 -0.4142  0.1181
  512TMC3    C8 7668   3.382   3.152  13.447 -0.5491 -0.0483 -0.2019
  512TMC3    O1 7669   3.008   3.046  13.027 -0.3101  0.0183  0.0834
  512TMC3    O2 7670   3.428   3.041  13.466 -0.1449 -0.0981  0.6915
  513MPD2     C 7671   4.627   2.871  13.583  0.4544 -0.3669  0.2976
  513MPD2    C1 7672   4.681   2.763  13.531 -0.2350 -0.5805 -0.9718
  513MPD2    C2 7673   0.074   2.768  13.491  0.0246 -0.0594 -0.1191
  513MPD2    C3 7674   0.151   2.881  13.512  0.1996 -0.1406  0.4643
  513MPD2    C4 7675   0.089   2.997  13.567  0.2224  0.5742 -0.6737
  513MPD2    C5 7676   4.699   2.986  13.604 -0.2255 -0.1823 -0.3044
  513MPD2     H 7677   0.120   2.692  13.430  0.9938 -1.1600  1.9794
  513MPD2    H1 7678   0.145   3.089  13.573  0.9624 -0.0715  2.0556
  513MPD2    H2 7679   4.521   2.879  13.606  0.3775  1.0554 -0.5540
  513MPD2    H3 7680   4.646   3.071  13.644 -0.7325  0.4949 -2.3985
  513MPD2     N 7681   0.284   2.881  13.453 -0.2399  1.0206  0.1932
  513MPD2    H5 7682   0.309   2.804  13.392 -0.3209  1.8638 -0.9125
  513MPD2    N1 7683   4.600   2.653  13.491  0.0548  0.0324  0.2123
  513MPD2    H7 7684   4.502   2.669  13.469  0.5821  1.2677 -1.2457
  514TMC3    C1 7685   4.546   2.437  13.417 -0.2710  0.9737 -0.3648
  514TMC3    C2 7686   4.422   2.480  13.360 -0.4495  0.3402  0.2774
  514TMC3    C3 7687   4.385   2.409  13.252  0.1171  0.9138 -0.4479
  514TMC3    C4 7688   4.612   2.320  13.382 -0.6109 -0.3085  0.2901
  514TMC3    C5 7689   4.563   2.244  13.280 -0.2646  0.7227  0.1992
  514TMC3    C6 7690   4.453   2.298  13.216  0.4502  0.3416 -0.2120
  514TMC3     C 7691   4.652   2.530  13.468  0.6444 -0.7566 -0.4294
  514TMC3     O 7692   0.021   2.483  13.504  0.0335  0.6121  0.4703
  514TMC3     H 7693   4.381   2.579  13.373 -0.2579  0.3233  1.0308
  514TMC3    H1 7694   4.688   2.278  13.446 -1.4019 -2.4600 -0.1740
  514TMC3    H2 7695   4.408   2.237  13.138  0.5073  0.0894 -0.0482
  514TMC3    C7 7696   4.668   2.213  13.174 -0.1056 -0.4560 -0.1061
  514TMC3    C8 7697   4.286   2.453  13.158  0.3474 -0.7251  0.1158
  514TMC3    O1 7698   4.628   2.187  13.060  0.0250  0.7329 -0.0969
  514TMC3    O2 7699   4.184   2.501  13.200  0.1047 -0.1000  0.5031
  515MPD2     C 7700   3.439   4.425  14.730  0.2749 -0.1386  1.1594
  515MPD2    C1 7701   3.339   4.493  14.665  0.2387 -0.7933  0.3557
  515MPD2    C2 7702   3.327   4.632  14.698  0.0389 -0.2167  0.1513
  515MPD2    C3 7703   3.410   4.690  14.789 -0.4967 -0.6245  0.3266
  515MPD2    C4 7704   3.506   4.618  14.858 -0.3746  0.3819 -0.4050
  515MPD2    C5 7705   3.519   4.484  14.828 -0.1791 -0.5404 -0.8204
  515MPD2     H 7706   3.250   4.689  14.647 -0.3347 -2.0130 -1.3118
  515MPD2    H1 7707   3.580   4.667  14.920  0.3355  0.0364 -0.9837
  515MPD2    H2 7708   3.455   4.322  14.699  0.2447  0.2465 -0.1477
  515MPD2    H3 7709   3.612   4.434  14.853 -0.8079 -1.5692 -0.5503
  515MPD2     N 7710   3.394   0.090  14.817 -0.3932  0.2436 -0.4718
  515MPD2    H5 7711   3.465   0.122  14.883 -1.2394 -0.6716  0.8859
  515MPD2    N1 7712   3.246   4.426  14.590 -0.7543 -0.8861 -0.0037
  515MPD2    H7 7713   3.175   4.491  14.557 -0.3815 -1.5088 -2.0205
  516TMC3    C1 7714   3.108   4.254  14.511  0.1968 -0.9250 -0.3103
  516TMC3    C2 7715   3.043   4.356  14.448  0.2275  0.6067  0.0828
  516TMC3    C3 7716   2.919   4.393  14.496 -0.3323 -0.4764 -0.2594
  516TMC3    C4 7717   3.047   4.184  14.608 -0.1992 -0.3410  0.9201
  516TMC3    C5 7718   2.930   4.221  14.666 -0.1910 -0.2031  0.1040
  516TMC3    C6 7719   2.873   4.326  14.607 -0.7006  0.5615 -0.2627
  516TMC3     C 7720   3.239   4.285  14.557  0.1152  0.4776 -0.2774
  516TMC3     O 7721   3.307   4.185  14.573  0.4849  0.2824  0.0112
  516TMC3     H 7722   3.090   4.408  14.365 -0.9245  0.4118 -0.6893
  516TMC3    H1 7723   3.119   4.116  14.653  0.5441  0.2063  0.5583
  516TMC3    H2 7724   2.780   4.359  14.653 -1.4072 -1.0817 -0.5079
  516TMC3    C7 7725   2.907   4.191  14.805  0.1430 -0.0530 -0.1524
  516TMC3    C8 7726   2.833   4.480  14.421 -0.1260 -0.1048 -0.0264
  516TMC3    O1 7727   3.006   4.192  14.882 -0.3730 -0.2328  0.9391
  516TMC3    O2 7728   2.717   4.473  14.456 -0.0992  0.3581 -0.7186
  517MPD2     C 7729   2.476   1.753  17.304 -1.1345  0.3200  0.3601
  517MPD2    C1 7730   2.584   1.741  17.383 -0.1849 -0.0642 -1.1628
  517MPD2    C2 7731   2.622   1.847  17.469 -1.6051  0.7564  0.2272
  517MPD2    C3 7732   2.536   1.953  17.485 -0.0887 -0.2340  0.3480
  517MPD2    C4 7733   2.420   1.956  17.409  0.5005 -0.2206 -0.1931
  517MPD2    C5 7734   2.390   1.858  17.315  0.2809 -1.2096 -0.0892
  517MPD2     H 7735   2.723   1.844  17.510 -0.9913  2.2272 -1.1827
  517MPD2    H1 7736   2.357   2.044  17.405 -1.3350 -1.4545  1.8539
  517MPD2    H2 7737   2.445   1.668  17.244 -2.9543  1.8799 -0.8918
  517MPD2    H3 7738   2.311   1.864  17.241  0.6549  0.7048 -0.3315
  517MPD2     N 7739   2.555   2.056  17.576 -0.0360 -0.6838 -0.2614
  517MPD2    H5 7740   2.487   2.131  17.581  0.8699  0.2503 -1.7166
  517MPD2    N1 7741   2.667   1.628  17.371  0.2527 -0.2596 -0.0708
  517MPD2    H7 7742   2.745   1.629  17.437  2.2034 -0.8725 -2.3689
  518TMC3    C1 7743   2.768   1.428  17.310 -0.4822 -0.2684  0.0984
  518TMC3    C2 7744   2.744   1.293  17.282 -0.0436 -0.0703  0.0638
  518TMC3    C3 7745   2.835   1.223  17.208 -0.8836  0.3865  0.0953
  518TMC3    C4 7746   2.891   1.487  17.287  0.4788 -0.7838 -0.4584
  518TMC3    C5 7747   2.975   1.405  17.214  0.4708 -0.0808  0.0010
  518TMC3    C6 7748   2.955   1.273  17.187 -0.2461 -0.5974  0.2776
  518TMC3     C 7749   2.646   1.509  17.318 -0.1071 -0.0346 -0.1067
  518TMC3     O 7750   2.546   1.470  17.253  0.1664 -0.1115 -0.4683
  518TMC3     H 7751   2.640   1.265  17.297 -0.3738  1.5403  0.8583
  518TMC3    H1 7752   2.923   1.587  17.315  1.2205 -1.7241  2.0751
  518TMC3    H2 7753   3.020   1.219  17.119 -1.0960 -1.3104  0.0364
  518TMC3    C7 7754   3.105   1.461  17.169 -0.6953 -0.0035  0.5746
  518TMC3    C8 7755   2.819   1.081  17.192 -0.3600 -0.5173  0.0886
  518TMC3    O1 7756   3.110   1.581  17.162 -0.3900  0.1826 -0.0091
  518TMC3    O2 7757   2.881   1.036  17.096  0.1363 -0.3256  0.7363
  519MPD2     C 7758   4.420   0.117  14.261 -0.2748 -0.2201 -0.0720
  519MPD2    C1 7759   4.390   0.133  14.128 -0.3307 -0.0281 -0.2279
  519MPD2    C2 7760   4.476   0.086  14.029  0.2884  0.2170  0.1460
  519MPD2    C3 7761   4.587   0.015  14.063 -0.3443  0.2673 -0.3085
  519MPD2    C4 7762   4.624   4.734  14.194  0.3240 -0.8963  0.6254
  519MPD2    C5 7763   4.535   0.046  14.291 -0.0592  1.0017 -0.3449
  519MPD2     H 7764   4.458   0.103  13.924 -0.7091  0.4084  0.3528
  519MPD2    H1 7765   4.709   4.672  14.220  1.1131  0.9668  2.4750
  519MPD2    H2 7766   4.345   0.139  14.336  0.0490  1.1241 -0.1515
  519MPD2    H3 7767   4.534   0.031  14.398 -0.1719 -1.0501 -0.6161
  519MPD2     N 7768   4.663   4.696  13.955  0.4619 -0.5513 -0.7389
  519MPD2    H5 7769   4.644   4.710  13.856  1.6165 -1.3174 -1.0660
  519MPD2    N1 7770   4.272   0.202  14.099 -0.1133 -0.5348  0.6169
  519MPD2    H7 7771   4.208   0.224  14.174  1.4019  0.1870  1.7118
  520TMC3    C1 7772   0.067   4.545  13.847  0.1521  0.7855 -0.2650
  520TMC3    C2 7773   0.008   4.571  13.726  0.1675  0.2566  0.0179
  520TMC3    C3 7774   0.022   4.484  13.622 -0.0732 -0.7216  0.0138
  520TMC3    C4 7775   0.165   4.455  13.850 -0.1928 -0.9839 -0.2020
  520TMC3    C5 7776   0.197   4.375  13.737  0.3868  0.5999 -0.2256
  520TMC3    C6 7777   0.119   4.386  13.624  0.0274  0.1031  0.1304
  520TMC3     C 7778   0.028   4.601  13.971 -0.2959 -0.0102  0.3433
  520TMC3     O 7779   0.072   4.562  14.077 -0.0554  0.4208 -0.4307
  520TMC3     H 7780   4.684   4.654  13.696  0.6909  0.6272 -0.0310
  520TMC3    H1 7781   0.234   4.451  13.933  1.0726 -0.6205 -1.2231
  520TMC3    H2 7782   0.131   4.320  13.539  0.1002  0.1605  0.0973
  520TMC3    C7 7783   0.308   4.279  13.756 -0.4002  0.0289 -0.5305
  520TMC3    C8 7784   4.688   4.497  13.495  0.1342 -0.1158  0.0738
  520TMC3    O1 7785   0.349   4.262  13.869  0.0207  0.4300  0.0088
  520TMC3    O2 7786   4.732   4.430  13.403  0.7586  0.2429 -0.0749
  521MPD2     C 7787   0.613   2.258  17.570 -0.6939 -0.4480  0.4464
  521MPD2    C1 7788   0.594   2.319  17.448  0.1626 -0.0650 -0.2496
  521MPD2    C2 7789   0.690   2.316  17.350 -0.0187 -0.3432  0.6302
  521MPD2    C3 7790   0.802   2.238  17.366 -0.4455  0.7822  0.0360
  521MPD2    C4 7791   0.815   2.165  17.479 -0.0523 -0.3943  0.0545
  521MPD2    C5 7792   0.730   2.183  17.583 -0.3942 -0.0965  0.2277
  521MPD2     H 7793   0.674   2.354  17.250  0.2888 -1.8424 -0.0050
  521MPD2    H1 7794   0.896   2.101  17.510 -0.5390 -0.2887  1.5107
  521MPD2    H2 7795   0.538   2.257  17.649  2.3890  1.3492  3.3819
  521MPD2    H3 7796   0.746   2.115  17.666 -0.2414  0.0480  0.3162
  521MPD2     N 7797   0.891   2.238  17.257 -0.5795  1.1323  0.3733
  521MPD2    H5 7798   0.859   2.278  17.169 -1.0982  3.5583  1.6690
  521MPD2    N1 7799   0.470   2.377  17.430  0.6848 -0.6871  0.2790
  521MPD2    H7 7800   0.394   2.359  17.495 -0.6411  0.5684 -0.9272
  522TMC3    C1 7801   1.088   2.191  17.135 -0.8714  0.1057  0.1770
  522TMC3    C2 7802   1.183   2.093  17.122 -0.1904 -0.3793 -0.0032
  522TMC3    C3 7803   1.260   2.107  17.010 -0.1231  0.1318 -0.4875
  522TMC3    C4 7804   1.066   2.298  17.047 -0.6391 -0.2011  0.4281
  522TMC3    C5 7805   1.155   2.301  16.935 -0.1927  0.2751 -0.0989
  522TMC3    C6 7806   1.252   2.207  16.914  0.6139  0.5054 -0.7903
  522TMC3     C 7807   1.017   2.185  17.256  0.2878  0.3990  0.4838
  522TMC3     O 7808   1.072   2.116  17.341  0.1098  0.1179  0.3272
  522TMC3     H 7809   1.189   2.002  17.180  0.3210 -0.3311  0.0213
  522TMC3    H1 7810   0.982   2.365  17.051  1.4259  2.2403  2.8532
  522TMC3    H2 7811   1.303   2.212  16.818 -1.0184 -1.2536 -1.7560
  522TMC3    C7 7812   1.120   2.386  16.813 -0.2616  0.7076  0.3910
  522TMC3    C8 7813   1.362   2.005  16.998  0.3353  0.1063  0.7775
  522TMC3    O1 7814   1.197   2.362  16.718 -0.0963 -0.1295  0.0184
  522TMC3    O2 7815   1.395   1.957  17.105  0.1734  0.2655 -1.2088
  523MPD2     C 7816   3.114   2.797   9.853  0.6422  0.1538 -0.0596
  523MPD2    C1 7817   3.023   2.700   9.869  0.5063  0.2417 -0.3427
  523MPD2    C2 7818   2.933   2.680   9.764 -0.4342  0.8960  1.0882
  523MPD2    C3 7819   2.939   2.760   9.652  0.5375 -0.5856  0.5123
  523MPD2    C4 7820   3.031   2.865   9.642  0.4417  0.3028 -0.3921
  523MPD2    C5 7821   3.120   2.882   9.745  0.4234  0.1650  0.7266
  523MPD2     H 7822   2.868   2.593   9.755  0.9027  0.1915 -1.6441
  523MPD2    H1 7823   3.045   2.927   9.555  2.5929 -2.3288 -1.9068
  523MPD2    H2 7824   3.183   2.816   9.934 -0.4061  1.6583  0.4805
  523MPD2    H3 7825   3.188   2.965   9.732 -0.1085  0.9390  2.9358
  523MPD2     N 7826   2.853   2.758   9.545  0.0796 -0.1544 -0.3027
  523MPD2    H5 7827   2.856   2.843   9.490  0.4246  0.8109  1.2007
  523MPD2    N1 7828   3.039   2.608   9.976  0.3305 -0.2743  0.1528
  523MPD2    H7 7829   3.127   2.618  10.027 -0.1727  2.0805  0.5860
  524TMC3    C1 7830   2.669   2.666   9.414  0.3033  0.1688 -0.0483
  524TMC3    C2 7831   2.607   2.562   9.353  0.2926 -0.3757 -0.7777
  524TMC3    C3 7832   2.512   2.581   9.260  0.1325 -0.0293 -0.0913
  524TMC3    C4 7833   2.625   2.790   9.390 -0.1394  0.0813 -0.6250
  524TMC3    C5 7834   2.525   2.807   9.297 -0.4479  0.5940 -0.2272
  524TMC3    C6 7835   2.459   2.708   9.226  0.6985  0.6036 -0.2414
  524TMC3     C 7836   2.774   2.645   9.514 -0.4160  0.6047 -0.2166
  524TMC3     O 7837   2.765   2.532   9.559  0.0188 -0.0456 -0.0652
  524TMC3     H 7838   2.656   2.466   9.361 -2.3426 -1.5255  1.3049
  524TMC3    H1 7839   2.666   2.872   9.447  1.9951 -0.7614 -0.9622
  524TMC3    H2 7840   2.396   2.728   9.140 -0.1779 -0.8085  0.0823
  524TMC3    C7 7841   2.480   2.947   9.287  0.4930 -0.1293 -0.1156
  524TMC3    C8 7842   2.466   2.473   9.180 -0.7529  0.3482  0.2188
  524TMC3    O1 7843   2.546   3.039   9.328  0.5680  0.0019 -0.4500
  524TMC3    O2 7844   2.490   2.356   9.214  0.3275 -0.1705 -0.2504
  525MPD2     C 7845   1.140   4.009  14.230 -0.5102  0.3813 -0.0817
  525MPD2    C1 7846   1.256   4.022  14.309 -1.0261 -0.7821 -0.4864
  525MPD2    C2 7847   1.346   4.121  14.277  0.1888  0.2708 -0.5328
  525MPD2    C3 7848   1.320   4.215  14.174 -0.4361 -0.0497  0.4667
  525MPD2    C4 7849   1.205   4.196  14.096  0.4207  0.0889  0.3002
  525MPD2    C5 7850   1.125   4.086  14.124  0.0634 -0.3356 -0.2984
  525MPD2     H 7851   1.428   4.139  14.345  2.5767 -0.6216 -3.2042
  525MPD2    H1 7852   1.177   4.267  14.020 -1.8433 -0.1582  0.8948
  525MPD2    H2 7853   1.066   3.938  14.263  0.4244 -1.1164 -1.2235
  525MPD2    H3 7854   1.039   4.076  14.058  0.0097  0.4584 -0.3593
  525MPD2     N 7855   1.388   4.338  14.169 -0.2418  0.2466 -0.3152
  525MPD2    H5 7856   1.342   4.411  14.115 -0.5352 -1.4158 -2.3243
  525MPD2    N1 7857   1.283   3.946  14.424  0.4641  0.5494  0.2083
  525MPD2    H7 7858   1.380   3.947  14.455  0.9200 -0.6294 -1.1914
  526TMC3    C1 7859   1.249   3.805  14.606  0.1194 -0.0614 -0.3984
  526TMC3    C2 7860   1.171   3.788  14.723 -0.5055 -0.0290  0.0978
  526TMC3    C3 7861   1.235   3.730  14.831 -0.4400 -0.4064  0.4893
  526TMC3    C4 7862   1.375   3.757  14.590 -0.4987 -0.3186  0.5913
  526TMC3    C5 7863   1.434   3.698  14.696  0.8325 -0.1304 -0.3565
  526TMC3    C6 7864   1.368   3.689  14.821  0.7842  0.6002  0.4395
  526TMC3     C 7865   1.191   3.877  14.498 -0.4854 -0.3660 -0.4728
  526TMC3     O 7866   1.073   3.890  14.510 -0.1537 -0.1455  0.1294
  526TMC3     H 7867   1.067   3.818  14.720 -0.3534  0.4378 -0.7631
  526TMC3    H1 7868   1.423   3.751  14.493 -0.0374 -1.7015  0.9039
  526TMC3    H2 7869   1.411   3.634  14.904  0.4545 -0.8376 -0.3511
  526TMC3    C7 7870   1.573   3.653  14.686  0.0021  0.0334 -0.0368
  526TMC3    C8 7871   1.174   3.735  14.958 -0.4862  0.2937  0.2626
  526TMC3    O1 7872   1.606   3.632  14.568  0.0614  0.5167  0.9308
  526TMC3    O2 7873   1.231   3.664  15.042  0.7816  0.0848  0.6032
  527MPD2     C 7874   3.509   1.980   1.246  0.6149  0.0825  0.5205
  527MPD2    C1 7875   3.466   1.984   1.118 -0.0721  1.0563  0.0761
  527MPD2    C2 7876   3.555   2.039   1.023 -0.0818 -0.1901  0.6423
  527MPD2    C3 7877   3.680   2.084   1.058 -0.0343  0.1983  0.3994
  527MPD2    C4 7878   3.711   2.103   1.192  0.4800  0.0375  0.4543
  527MPD2    C5 7879   3.627   2.045   1.279 -0.2117 -0.0551 -0.7255
  527MPD2     H 7880   3.522   2.027   0.921 -1.1796 -0.4213  1.0193
  527MPD2    H1 7881   3.811   2.124   1.229  0.3363  0.5229  0.5645
  527MPD2    H2 7882   3.453   1.931   1.325  0.8605 -0.5380  0.3120
  527MPD2    H3 7883   3.652   2.032   1.384  0.6354 -0.8509 -1.0233
  527MPD2     N 7884   3.770   2.111   0.954  0.6470  0.0158  0.2261
  527MPD2    H5 7885   3.736   2.109   0.858  0.1095 -0.0828  0.4231
  527MPD2    N1 7886   3.341   1.951   1.072  0.6769 -0.1344  0.0064
  527MPD2    H7 7887   3.318   1.975   0.976  0.5864 -1.4743 -0.3067
  528TMC3    C1 7888   3.124   1.849   1.073  0.1866  0.1923  0.6829
  528TMC3    C2 7889   3.140   1.833   0.934  0.2819  0.4783 -0.3107
  528TMC3    C3 7890   3.035   1.789   0.854  0.1227 -0.2826 -0.0186
  528TMC3    C4 7891   3.004   1.819   1.134 -0.2811  0.0464  0.4909
  528TMC3    C5 7892   2.909   1.765   1.050 -0.9533  0.2035  0.5203
  528TMC3    C6 7893   2.917   1.756   0.915 -0.0459  0.4106  0.4324
  528TMC3     C 7894   3.235   1.898   1.151  0.2131  0.2268  0.0533
  528TMC3     O 7895   3.228   1.887   1.274 -0.3752  0.3482  0.5580
  528TMC3     H 7896   3.235   1.853   0.887  0.4742  0.6820  0.1639
  528TMC3    H1 7897   2.983   1.841   1.238  0.5576 -1.8726  1.0588
  528TMC3    H2 7898   2.826   1.733   0.860 -1.0133  1.1601  1.7186
  528TMC3    C7 7899   2.778   1.741   1.102  0.2338 -0.3312  0.1355
  528TMC3    C8 7900   3.033   1.838   0.720  0.4610 -0.3850 -0.0433
  528TMC3    O1 7901   2.686   1.727   1.023  0.4673 -0.1653 -0.0896
  528TMC3    O2 7902   3.126   1.918   0.704 -0.2699 -0.6311 -0.7794
  529MPD2     C 7903   1.521   0.693   0.859 -0.6330 -0.5886 -0.6799
  529MPD2    C1 7904   1.513   0.571   0.798  0.5949 -0.2389  0.6134
  529MPD2    C2 7905   1.432   0.556   0.685  0.3267 -0.1831  0.3511
  529MPD2    C3 7906   1.396   0.667   0.615 -0.0461  0.1629  0.6132
  529MPD2    C4 7907   1.419   0.788   0.670 -0.0623  0.4278  0.1612
  529MPD2    C5 7908   1.472   0.799   0.794 -0.4226  0.0455  0.9955
  529MPD2     H 7909   1.401   0.457   0.655 -0.2332 -0.2617  1.2134
  529MPD2    H1 7910   1.379   0.878   0.625 -0.4911  0.4798  0.6429
  529MPD2    H2 7911   1.573   0.710   0.953 -0.9135  0.9133 -0.7997
  529MPD2    H3 7912   1.478   0.894   0.845  2.2571  0.4998 -0.1617
  529MPD2     N 7913   1.323   0.661   0.488 -0.2097 -0.3897 -0.7270
  529MPD2    H5 7914   1.288   0.748   0.448 -4.5214 -2.2087 -0.9685
  529MPD2    N1 7915   1.578   0.461   0.868  0.2000  0.3871 -0.5455
  529MPD2    H7 7916   1.613   0.480   0.961  1.4607 -0.5433 -0.8406
  530TMC3    C1 7917   1.643   0.231   0.898 -0.6036 -0.1174 -0.9141
  530TMC3    C2 7918   1.717   0.263   1.007 -0.2174 -0.0805 -0.0218
  530TMC3    C3 7919   1.781   0.163   1.069 -0.2163  0.1832  0.0223
  530TMC3    C4 7920   1.611   0.104   0.865  0.3669 -0.3561  0.2299
  530TMC3    C5 7921   1.670   0.008   0.941 -0.3721 -0.3300 -0.7464
  530TMC3    C6 7922   1.762   0.031   1.043  0.3851  1.0726 -0.1718
  530TMC3     C 7923   1.592   0.333   0.813 -0.3344 -1.0030 -0.3003
  530TMC3     O 7924   1.550   0.297   0.702 -0.0808 -0.2867  0.1797
  530TMC3     H 7925   1.738   0.363   1.042 -0.8996  1.3171 -3.5784
  530TMC3    H1 7926   1.546   0.085   0.780  1.5151  0.1465 -0.7651
  530TMC3    H2 7927   1.805   4.684   1.094  1.0437  2.2600  1.2495
  530TMC3    C7 7928   1.685   4.618   0.890  0.1456 -0.0968  0.2760
  530TMC3    C8 7929   1.868   0.192   1.177  0.5899 -0.9326 -0.1030
  530TMC3    O1 7930   1.800   4.577   0.900  0.0513 -0.2227 -0.6602
  530TMC3    O2 7931   1.866   0.294   1.238 -0.5956  0.2623  0.3162
  531MPD2     C 7932   0.404   2.348  13.021 -0.7542  0.1110  0.1992
  531MPD2    C1 7933   0.377   2.416  13.136 -0.2026  0.2935  0.1653
  531MPD2    C2 7934   0.257   2.383  13.200  0.2139  0.4899  0.0892
  531MPD2    C3 7935   0.165   2.299  13.140  0.5273 -0.1664 -0.4418
  531MPD2    C4 7936   0.194   2.235  13.020 -0.1509 -1.1691 -0.0769
  531MPD2    C5 7937   0.318   2.261  12.957 -0.4789  0.8453 -0.5851
  531MPD2     H 7938   0.234   2.422  13.299 -1.5099 -3.1368  1.0880
  531MPD2    H1 7939   0.125   2.163  12.977 -0.6524  1.0474 -2.9871
  531MPD2    H2 7940   0.499   2.375  12.976 -0.4426  0.3389  0.9839
  531MPD2    H3 7941   0.335   2.226  12.856 -0.5432 -0.8362 -0.0151
  531MPD2     N 7942   0.049   2.264  13.213 -0.1434 -0.6660 -0.1117
  531MPD2    H5 7943   0.047   2.296  13.310 -0.9346 -0.5988 -0.1514
  531MPD2    N1 7944   0.469   2.514  13.186  0.0991  0.0266 -0.3324
  531MPD2    H7 7945   0.565   2.521  13.157  0.5965 -0.2198  1.2351
  532TMC3    C1 7946   0.501   2.738  13.249 -0.1829 -0.5115 -0.3032
  532TMC3    C2 7947   0.431   2.856  13.269 -0.3921 -0.9113  0.0904
  532TMC3    C3 7948   0.476   2.953  13.350  0.0840 -0.2552  0.1688
  532TMC3    C4 7949   0.628   2.718  13.298  0.0500 -0.0234  0.1006
  532TMC3    C5 7950   0.676   2.825  13.378  0.1183  0.4653  0.2638
  532TMC3    C6 7951   0.599   2.941  13.402 -0.1299  0.2835  0.0715
  532TMC3     C 7952   0.412   2.627  13.246 -0.3947  0.3308 -0.2986
  532TMC3     O 7953   0.295   2.660  13.256 -0.1279 -0.0417 -0.1102
  532TMC3     H 7954   0.344   2.872  13.207  0.0841  2.8562  0.4344
  532TMC3    H1 7955   0.680   2.623  13.288  0.2205  0.0993 -0.1795
  532TMC3    H2 7956   0.642   3.012  13.471  1.3126 -1.0304  0.5232
  532TMC3    C7 7957   0.807   2.864  13.355 -0.0085 -0.0369  0.0055
  532TMC3    C8 7958   0.373   2.987  13.444 -0.4905  0.2427  0.6918
  532TMC3    O1 7959   0.825   2.973  13.303  0.3508 -0.4580 -0.5894
  532TMC3    O2 7960   0.378   3.102  13.487  0.8451 -0.3294 -0.0508
  533TMC3    C1 7961   1.535   4.520  14.231 -0.1668  0.0128 -0.1019
  533TMC3    C2 7962   1.663   4.548  14.262  0.3256 -0.1445  0.5221
  533TMC3    C3 7963   1.697   4.669  14.321 -0.3007 -1.0146 -0.0112
  533TMC3    C4 7964   1.442   4.614  14.272 -0.2540 -0.2222  0.2011
  533TMC3    C5 7965   1.476   4.722  14.341  0.6626 -0.1675 -0.1188
  533TMC3    C6 7966   1.606   0.018  14.366  0.5980  0.6446 -0.3436
  533TMC3     C 7967   1.505   4.370  14.233 -0.2284  0.2579 -0.1069
  533TMC3     O 7968   1.579   4.307  14.311 -0.2501 -0.0015 -0.0125
  533TMC3     H 7969   1.742   4.479  14.234  1.0501  0.3228  1.4274
  533TMC3    H1 7970   1.338   4.587  14.267 -0.4209  0.2661  1.1607
  533TMC3    H2 7971   1.639   0.115  14.401  2.1807  0.0421 -0.1462
  533TMC3    C7 7972   1.396   0.002  14.463 -0.6765  0.7606  0.4682
  533TMC3    C8 7973   1.833   4.721  14.320  0.2116 -0.1702 -0.3626
  533TMC3    O1 7974   1.288   4.681  14.464 -0.3091  0.0685  0.0657
  533TMC3    O2 7975   1.844   0.097  14.279  0.3784  0.6065 -0.0264
  534MPD2     C 7976   3.938   0.288   0.867 -0.2301 -0.3855 -0.0402
  534MPD2    C1 7977   3.957   0.425   0.898  0.0418  0.2423 -0.8804
  534MPD2    C2 7978   3.848   0.506   0.911 -0.0419  0.1588 -0.2712
  534MPD2    C3 7979   3.719   0.463   0.877 -0.0086 -0.5514  0.8090
  534MPD2    C4 7980   3.706   0.326   0.851  0.3460  0.2489  0.3256
  534MPD2    C5 7981   3.814   0.237   0.844 -0.6886  0.3284  0.0572
  534MPD2     H 7982   3.864   0.610   0.938  0.7140  0.0876 -0.4512
  534MPD2    H1 7983   3.619   0.267   0.823 -0.0319  0.4354  1.1241
  534MPD2    H2 7984   4.019   0.216   0.856 -1.2126 -1.4300 -0.4911
  534MPD2    H3 7985   3.800   0.133   0.820 -3.1453  0.5861  0.3714
  534MPD2     N 7986   3.603   0.543   0.872  0.1362  0.2728 -0.9540
  534MPD2    H5 7987   3.517   0.497   0.844 -0.2405  0.7411 -0.5696
  534MPD2    N1 7988   4.085   0.480   0.938 -0.2622 -0.9424 -0.1668
  534MPD2    H7 7989   4.084   0.571   0.983  2.4205 -1.0837  0.1617
  535TMC3    C1 7990   3.463   0.727   0.840  0.2990 -0.1013  0.2831
  535TMC3    C2 7991   3.354   0.638   0.845  0.0729  0.6082 -0.0984
  535TMC3    C3 7992   3.236   0.681   0.797  0.1591  0.6182 -0.0551
  535TMC3    C4 7993   3.453   0.848   0.782 -0.3102 -0.3430  0.0019
  535TMC3    C5 7994   3.331   0.880   0.727 -0.5138 -0.2411  0.0357
  535TMC3    C6 7995   3.231   0.791   0.723 -0.0495  0.2573  0.9653
  535TMC3     C 7996   3.598   0.679   0.871  0.2245  0.1164 -0.2748
  535TMC3     O 7997   3.685   0.763   0.888  0.3413  0.2191  0.3935
  535TMC3     H 7998   3.361   0.537   0.884  0.7407  0.7963  0.2751
  535TMC3    H1 7999   3.539   0.914   0.790 -1.1926  1.3146 -3.8457
  535TMC3    H2 8000   3.133   0.830   0.695 -0.1659 -0.2387  0.6708
  535TMC3    C7 8001   3.337   0.984   0.626 -0.7919 -0.7520 -0.0518
  535TMC3    C8 8002   3.139   0.574   0.767 -0.2507 -0.2679 -0.1836
  535TMC3    O1 8003   3.264   0.956   0.529 -0.6482  0.0624 -0.6624
  535TMC3    O2 8004   3.082   0.517   0.860 -0.3287 -0.3644  0.4412
  536MPD2     C 8005   2.732   3.986  16.529 -0.0575  0.3835 -0.0745
  536MPD2    C1 8006   2.611   3.927  16.509 -0.0672 -0.1513  0.2354
  536MPD2    C2 8007   2.526   3.983  16.423  0.1415 -0.0441  0.0082
  536MPD2    C3 8008   2.575   4.094  16.347  0.3801 -0.2241 -0.1214
  536MPD2    C4 8009   2.703   4.143  16.356  0.6572  0.2586  0.1498
  536MPD2    C5 8010   2.786   4.078  16.443 -0.0695 -0.5944  0.4292
  536MPD2     H 8011   2.427   3.942  16.412 -1.1099  2.7190  0.9527
  536MPD2    H1 8012   2.728   4.230  16.298  0.7667  0.0644 -0.0955
  536MPD2    H2 8013   2.805   3.933  16.590  1.2565  0.6168 -1.4350
  536MPD2    H3 8014   2.889   4.099  16.470  0.1790 -1.4382  0.1424
  536MPD2     N 8015   2.498   4.153  16.251  0.1649  0.1302 -0.0493
  536MPD2    H5 8016   2.535   4.220  16.185  2.4372 -3.0167 -1.9392
  536MPD2    N1 8017   2.579   3.810  16.583  0.3292 -0.3968 -0.4091
  536MPD2    H7 8018   2.641   3.787  16.660 -1.1079 -0.6242  0.6795
  537TMC3    C1 8019   2.449   3.624  16.648  0.3070 -0.4020 -0.2568
  537TMC3    C2 8020   2.490   3.644  16.781 -0.6541  0.7327  0.7684
  537TMC3    C3 8021   2.431   3.579  16.885 -0.4771  0.0446  0.1751
  537TMC3    C4 8022   2.352   3.529  16.629  0.4206  0.1961 -0.0843
  537TMC3    C5 8023   2.304   3.451  16.736 -0.2221  0.0271 -1.2687
  537TMC3    C6 8024   2.340   3.481  16.868  0.5999  0.0859 -0.2978
  537TMC3     C 8025   2.473   3.725  16.551 -0.4177  0.5595  0.4990
  537TMC3     O 8026   2.409   3.711  16.448 -0.4770 -0.0689  0.3565
  537TMC3     H 8027   2.543   3.736  16.800 -0.1825  0.2984  1.5666
  537TMC3    H1 8028   2.313   3.513  16.529 -2.4278 -0.7063  1.1888
  537TMC3    H2 8029   2.306   3.416  16.948  1.9251 -0.5505 -0.2462
  537TMC3    C7 8030   2.193   3.360  16.717  0.0167 -0.1755  0.6674
  537TMC3    C8 8031   2.497   3.601  17.019 -0.2478 -0.0169  0.1735
  537TMC3    O1 8032   2.114   3.391  16.629  0.3212  0.0468  0.1415
  537TMC3    O2 8033   2.577   3.694  17.023  0.2865 -0.1453 -0.0485
  538TMC3    C1 8034   3.521   2.274  10.940 -0.2421 -0.3649 -0.1543
  538TMC3    C2 8035   3.659   2.289  10.931  0.0322 -0.3036 -0.6096
  538TMC3    C3 8036   3.709   2.324  10.810  0.0521 -0.3996  0.0815
  538TMC3    C4 8037   3.441   2.295  10.834 -0.5564  0.0161 -0.0117
  538TMC3    C5 8038   3.489   2.334  10.715  0.0739  0.3131 -0.2619
  538TMC3    C6 8039   3.629   2.351  10.699  0.4995  0.4630 -0.0484
  538TMC3     C 8040   3.459   2.280  11.070 -0.3373  0.0636 -0.3343
  538TMC3     O 8041   3.343   2.313  11.079  0.0693  0.1210 -0.6068
  538TMC3     H 8042   3.726   2.275  11.015 -2.4717 -1.2610  1.2350
  538TMC3    H1 8043   3.334   2.283  10.841 -0.7061  0.9142 -0.7731
  538TMC3    H2 8044   3.675   2.382  10.605  0.4712 -1.5689 -0.7451
  538TMC3    C7 8045   3.395   2.407  10.632 -0.2271  0.2488  0.1223
  538TMC3    C8 8046   3.856   2.334  10.805 -0.0396 -0.3692  0.1407
  538TMC3    O1 8047   3.279   2.361  10.630  0.3755 -0.3423 -0.3838
  538TMC3    O2 8048   3.928   2.253  10.858 -0.3576  0.0764 -0.0789
  539MPD2     C 8049   3.123   1.475  11.667 -0.0689  1.4433  0.3559
  539MPD2    C1 8050   3.195   1.532  11.571  0.7217  0.5257  0.3713
  539MPD2    C2 8051   3.182   1.669  11.553  0.0054 -0.3937 -0.4034
  539MPD2    C3 8052   3.096   1.748  11.626 -0.3022  0.2361 -0.0933
  539MPD2    C4 8053   3.023   1.686  11.724 -0.3249 -0.1116 -0.4948
  539MPD2    C5 8054   3.040   1.550  11.744 -0.2066 -0.5782 -0.2665
  539MPD2     H 8055   3.234   1.719  11.472  1.7574 -1.1304  0.2664
  539MPD2    H1 8056   2.953   1.745  11.783  0.7071 -0.0973  0.6994
  539MPD2    H2 8057   3.117   1.369  11.687 -0.4891  0.9765 -2.2606
  539MPD2    H3 8058   2.984   1.503  11.823  0.1628  1.7314  1.3738
  539MPD2     N 8059   3.094   1.895  11.616 -0.0820 -0.2281  0.0446
  539MPD2    H5 8060   3.014   1.934  11.664 -0.4607  1.2720 -1.8155
  539MPD2    N1 8061   3.295   1.461  11.503 -0.1462 -0.5984 -0.4496
  539MPD2    H7 8062   3.352   1.511  11.435 -0.4973  0.0033 -0.2965
  540TMC3    C1 8063   3.122   2.089  11.511  0.1744  0.3588 -0.8745
  540TMC3    C2 8064   3.115   2.122  11.377 -0.3480  0.7684 -0.5518
  540TMC3    C3 8065   3.047   2.233  11.345  0.0359  0.8483  0.0039
  540TMC3    C4 8066   3.044   2.154  11.603 -0.2937  0.0446 -0.9041
  540TMC3    C5 8067   2.978   2.266  11.568  1.1420  0.4025  0.2085
  540TMC3    C6 8068   2.984   2.314  11.440  0.5050 -0.3144 -0.3893
  540TMC3     C 8069   3.180   1.964  11.542 -0.2010  0.0136 -0.6018
  540TMC3     O 8070   3.280   1.930  11.484  0.5695  0.1585 -0.3768
  540TMC3     H 8071   3.169   2.067  11.301 -1.0269 -0.4704 -0.1366
  540TMC3    H1 8072   3.044   2.129  11.708  1.0396 -0.2324 -0.9723
  540TMC3    H2 8073   2.928   2.403  11.415 -2.6525 -1.5142  2.3594
  540TMC3    C7 8074   2.867   2.314  11.646  0.0658  0.3304  0.1985
  540TMC3    C8 8075   3.028   2.263  11.200  0.2567  0.4525  0.8302
  540TMC3    O1 8076   2.780   2.234  11.681 -0.0149  0.5219  0.6722
  540TMC3    O2 8077   3.005   2.379  11.164  0.6359  0.1904  0.1469
  541MPD2     C 8078   1.228   2.742  12.949 -0.4995  0.2615 -0.6823
  541MPD2    C1 8079   1.353   2.745  12.881  0.3666  0.0620 -0.1747
  541MPD2    C2 8080   1.357   2.802  12.752 -0.0212 -0.1984  0.9377
  541MPD2    C3 8081   1.248   2.867  12.703 -0.5351  0.7229  0.6273
  541MPD2    C4 8082   1.132   2.875  12.776  0.2832  0.4534  0.2653
  541MPD2    C5 8083   1.123   2.814  12.899 -0.5940 -0.2763 -0.2624
  541MPD2     H 8084   1.452   2.804  12.700 -0.2251  2.3432  0.6483
  541MPD2    H1 8085   1.041   2.918  12.736 -0.6153  1.1137  3.0036
  541MPD2    H2 8086   1.208   2.691  13.043 -2.9568  0.6610 -0.9785
  541MPD2    H3 8087   1.025   2.805  12.945 -1.4817 -0.4910 -2.1759
  541MPD2     N 8088   1.252   2.954  12.582 -0.8427 -0.5914 -0.5047
  541MPD2    H5 8089   1.165   2.991  12.545 -0.3784 -0.0019 -1.0099
  541MPD2    N1 8090   1.455   2.669  12.937  0.0365 -0.3076 -0.5851
  541MPD2    H7 8091   1.431   2.608  13.014 -3.0013 -0.0728 -1.3461
  542TMC3    C1 8092   1.343   3.057  12.390  0.0128  0.0753 -0.0010
  542TMC3    C2 8093   1.444   3.050  12.303 -0.0164 -0.3336 -0.5224
  542TMC3    C3 8094   1.441   3.134  12.195 -0.5217 -0.5325  0.7373
  542TMC3    C4 8095   1.243   3.152  12.383  0.3183  0.1217  0.1500
  542TMC3    C5 8096   1.233   3.224  12.266  0.8527  0.5137 -0.2807
  542TMC3    C6 8097   1.334   3.217  12.173 -0.1949  0.5185  0.0715
  542TMC3     C 8098   1.369   2.979  12.512 -0.5291 -0.5601  0.1304
  542TMC3     O 8099   1.485   2.955  12.546  0.1645  0.3657 -0.4664
  542TMC3     H 8100   1.516   2.970  12.314  0.2891  0.3511  2.3689
  542TMC3    H1 8101   1.169   3.173  12.459 -0.4176 -1.1492 -0.2152
  542TMC3    H2 8102   1.336   3.277  12.083 -0.2647  2.6390  1.4831
  542TMC3    C7 8103   1.101   3.264  12.217  0.2643 -0.0357 -0.4049
  542TMC3    C8 8104   1.533   3.105  12.088 -0.3990  0.3954 -0.4319
  542TMC3    O1 8105   1.045   3.352  12.282  0.1034  0.1343 -0.2022
  542TMC3    O2 8106   1.490   3.132  11.979 -0.4398 -0.1513 -0.1828
  543TMC3    C1 8107   1.069   4.696  17.238  1.3118  0.2766  0.0088
  543TMC3    C2 8108   1.150   4.615  17.315  0.0639  0.3014 -0.4211
  543TMC3    C3 8109   1.109   4.594  17.444  0.1617 -0.2038  0.1984
  543TMC3    C4 8110   0.957   0.024  17.290  0.3558 -0.9121 -0.0980
  543TMC3    C5 8111   0.928   4.737  17.422  0.6773 -0.7716  0.7676
  543TMC3    C6 8112   1.007   4.664  17.501 -0.2716  0.4190 -0.8495
  543TMC3     C 8113   1.061   4.661  17.098 -0.5437  0.3683 -0.0335
  543TMC3     O 8114   1.146   4.580  17.067  0.1915 -0.3524  0.3832
  543TMC3     H 8115   1.226   4.549  17.275  1.3153  0.4291  1.7361
  543TMC3    H1 8116   0.887   0.087  17.237  0.4798 -0.5802  0.1314
  543TMC3    H2 8117   0.986   4.648  17.606 -0.9428  1.6702 -0.7831
  543TMC3    C7 8118   0.861   0.093  17.500  0.1058 -0.0422  0.5155
  543TMC3    C8 8119   1.140   4.456  17.498  0.6189  0.7781  0.2994
  543TMC3    O1 8120   0.799   0.045  17.597 -0.1554  0.6200 -0.4380
  543TMC3    O2 8121   1.249   4.405  17.467 -0.2530  0.1902 -0.1998
  544MPD2     C 8122   0.934   4.003  17.592 -0.0268  0.0316 -0.1591
  544MPD2    C1 8123   1.056   4.040  17.541 -0.0337 -0.1056 -0.3691
  544MPD2    C2 8124   1.087   4.171  17.521  0.5358  0.0002  0.4830
  544MPD2    C3 8125   0.997   4.267  17.561  0.1098 -0.4799 -0.0245
  544MPD2    C4 8126   0.875   4.234  17.623 -0.4189 -0.0562  0.2796
  544MPD2    C5 8127   0.848   4.101  17.636  0.1019  0.0208 -0.1670
  544MPD2     H 8128   1.181   4.190  17.471  0.2846 -1.5022 -0.5569
  544MPD2    H1 8129   0.811   4.314  17.659  2.7228  2.1332  0.9671
  544MPD2    H2 8130   0.896   3.902  17.606 -3.6086  0.9807 -2.9494
  544MPD2    H3 8131   0.759   4.071  17.691  0.6667 -0.6980  0.3573
  544MPD2     N 8132   1.029   4.401  17.547  0.3439 -0.1243 -0.3207
  544MPD2    H5 8133   0.960   4.472  17.571 -1.4354 -2.8119  2.6904
  544MPD2    N1 8134   1.146   3.938  17.499  0.2281  0.1704 -0.2655
  544MPD2    H7 8135   1.116   3.841  17.501 -0.6457  0.4497  0.3480
  545TMC3    C1 8136   1.315   3.826  17.394  0.1411  0.8453  0.1123
  545TMC3    C2 8137   1.427   3.784  17.452  0.2102 -0.0284 -0.1035
  545TMC3    C3 8138   1.468   3.660  17.420  0.0076  0.1499 -0.7410
  545TMC3    C4 8139   1.240   3.746  17.308 -0.8895  0.1151  0.0749
  545TMC3    C5 8140   1.286   3.619  17.285  0.1192 -0.1080 -0.1765
  545TMC3    C6 8141   1.403   3.569  17.343  0.7561  0.3691  0.4472
  545TMC3     C 8142   1.270   3.954  17.438 -0.0365  0.6546  0.6259
  545TMC3     O 8143   1.352   4.045  17.436  0.0014 -0.0370 -0.1529
  545TMC3     H 8144   1.479   3.856  17.514 -0.8504 -0.6470  1.4850
  545TMC3    H1 8145   1.137   3.771  17.282 -0.7659 -1.1374 -1.5949
  545TMC3    H2 8146   1.431   3.465  17.350 -1.5774 -0.2685  0.2990
  545TMC3    C7 8147   1.183   3.521  17.258 -0.2869  0.7012 -0.7347
  545TMC3    C8 8148   1.576   3.597  17.492  0.2259  0.1552 -0.2806
  545TMC3    O1 8149   1.112   3.542  17.158 -0.2532  0.0841  0.1682
  545TMC3    O2 8150   1.653   3.525  17.430  0.4562 -0.0767  0.5278
  546MPD2     C 8151   2.872   4.287  16.721 -0.3092  0.2257 -0.2310
  546MPD2    C1 8152   2.766   4.364  16.733  0.3361 -0.3975  0.0525
  546MPD2    C2 8153   2.784   4.496  16.765 -0.2294 -0.2326  0.2382
  546MPD2    C3 8154   2.917   4.545  16.788  0.5617  0.2235  0.1683
  546MPD2    C4 8155   3.019   4.465  16.775 -0.3616 -0.0643  0.1742
  546MPD2    C5 8156   3.002   4.333  16.746  0.1007  0.9241 -0.3378
  546MPD2     H 8157   2.698   4.560  16.782 -1.3516 -1.5205 -0.5845
  546MPD2    H1 8158   3.122   4.498  16.786 -0.4566 -0.0376  0.9891
  546MPD2    H2 8159   2.859   4.182  16.695  1.7270 -0.3352  1.0250
  546MPD2    H3 8160   3.088   4.267  16.744 -1.3114 -0.8767 -1.2679
  546MPD2     N 8161   2.936   4.676  16.837  0.0303  0.1798 -0.2327
  546MPD2    H5 8162   3.033   4.701  16.853  0.5678 -2.0193 -0.0705
  546MPD2    N1 8163   2.643   4.300  16.717 -0.2935  0.4997 -0.2277
  546MPD2    H7 8164   2.646   4.199  16.715 -2.1064  0.4266  1.0748
  547TMC3    C1 8165   2.414   4.263  16.669  0.1107  0.0457 -0.1139
  547TMC3    C2 8166   2.302   4.319  16.607  0.1352 -0.1392  0.3242
  547TMC3    C3 8167   2.186   4.247  16.599  0.2622 -0.1982 -0.3166
  547TMC3    C4 8168   2.418   4.140  16.715  0.0339  0.2313  1.1096
  547TMC3    C5 8169   2.301   4.069  16.698 -0.1980  0.0915 -0.1402
  547TMC3    C6 8170   2.178   4.115  16.645  0.0566  0.7350 -0.3514
  547TMC3     C 8171   2.517   4.361  16.701  0.0843 -0.2465  0.0609
  547TMC3     O 8172   2.494   4.480  16.694 -0.2414  0.8168 -0.1802
  547TMC3     H 8173   2.296   4.426  16.592  1.3428 -0.0671  0.3813
  547TMC3    H1 8174   2.509   4.093  16.751  0.9211  0.1080 -1.3087
  547TMC3    H2 8175   2.093   4.048  16.644  0.9083 -0.2807 -2.4430
  547TMC3    C7 8176   2.286   3.973  16.799  0.3141  0.5637  0.3521
  547TMC3    C8 8177   2.062   4.299  16.540  0.7515 -0.1352  0.1105
  547TMC3    O1 8178   2.359   3.986  16.897 -0.2708 -0.3421  0.2109
  547TMC3    O2 8179   1.965   4.222  16.533 -0.3915 -0.3586 -0.2341
  548MPD2     C 8180   2.419   4.659  12.538 -0.1671  0.4241  0.2844
  548MPD2    C1 8181   2.348   4.613  12.650  0.1598 -0.2783  0.1160
  548MPD2    C2 8182   2.312   4.484  12.656 -1.0880 -0.2043 -0.2149
  548MPD2    C3 8183   2.351   4.396  12.558 -0.0501  0.2163  0.0200
  548MPD2    C4 8184   2.435   4.436  12.457  0.6821  0.8043 -0.1296
  548MPD2    C5 8185   2.466   4.568  12.446 -0.1970 -0.5185  0.1090
  548MPD2     H 8186   2.232   4.463  12.726  0.9447 -2.3940  1.4847
  548MPD2    H1 8187   2.479   4.372  12.382  0.8389  0.1154  0.5444
  548MPD2    H2 8188   2.435   0.024  12.509 -0.7013  1.0178  2.1013
  548MPD2    H3 8189   2.521   4.598  12.358 -0.2592  0.7110  0.4966
  548MPD2     N 8190   2.317   4.260  12.581 -0.0446 -0.2515 -0.7712
  548MPD2    H5 8191   2.269   4.232  12.666  0.6439  0.4848 -0.1312
  548MPD2    N1 8192   2.292   4.706  12.741  0.3128 -0.4290 -0.3163
  548MPD2    H7 8193   2.319   0.065  12.725  0.0297 -0.0816  1.2952
  549TMC3    C1 8194   2.172   0.066  12.908 -0.7140 -0.4532 -0.3379
  549TMC3    C2 8195   2.134   0.170  12.835  0.0481 -0.6270 -0.5824
  549TMC3    C3 8196   2.037   0.253  12.878 -0.1836 -0.6308 -0.3202
  549TMC3    C4 8197   2.125   0.058  13.036  0.6793 -0.2671 -0.0574
  549TMC3    C5 8198   2.036   0.147  13.083 -0.0676  0.3431  0.1772
  549TMC3    C6 8199   1.987   0.242  13.001 -0.3485 -0.5784  0.6562
  549TMC3     C 8200   2.221   4.680  12.854  0.3444 -0.1003  0.2505
  549TMC3     O 8201   2.190   4.577  12.914 -0.2955 -0.4087 -0.6155
  549TMC3     H 8202   2.147   0.162  12.728 -1.1489  2.7054 -0.9539
  549TMC3    H1 8203   2.167   4.718  13.100 -1.5297 -0.8219  0.7340
  549TMC3    H2 8204   1.892   0.291  13.015 -0.5229 -0.6276 -0.3366
  549TMC3    C7 8205   1.934   0.092  13.174 -0.2530  0.5378  0.1547
  549TMC3    C8 8206   1.987   0.357  12.796 -0.7180  0.4332 -0.1105
  549TMC3    O1 8207   1.853   0.172  13.222  0.2023  0.1574 -0.1008
  549TMC3    O2 8208   1.886   0.415  12.834 -0.3662  0.1558 -0.4164
  550TMC3    C1 8209   0.780   2.941  12.449 -0.3388  0.3197  0.1274
  550TMC3    C2 8210   0.762   3.038  12.543  1.0568  0.1108 -0.2480
  550TMC3    C3 8211   0.634   3.074  12.583 -0.2870 -0.4672  0.5271
  550TMC3    C4 8212   0.676   2.864  12.408  0.6299 -0.0085 -0.0325
  550TMC3    C5 8213   0.550   2.897  12.460  0.1223  0.4820 -0.6271
  550TMC3    C6 8214   0.528   2.993  12.553 -0.2035 -0.2234  0.3910
  550TMC3     C 8215   0.908   2.941  12.372  0.2772  0.3555  0.0803
  550TMC3     O 8216   1.007   2.974  12.435  0.0230  0.0579 -0.3650
  550TMC3     H 8217   0.845   3.106  12.551  1.8636 -1.1047  1.7835
  550TMC3    H1 8218   0.681   2.787  12.332  1.2572  0.2646 -0.2674
  550TMC3    H2 8219   0.430   3.034  12.575 -0.1966 -1.2018  2.2115
  550TMC3    C7 8220   0.426   2.840  12.406 -0.2532  0.3960  0.0691
  550TMC3    C8 8221   0.606   3.200  12.656 -0.1944  0.2630 -0.6786
  550TMC3    O1 8222   0.321   2.864  12.465 -0.2095 -0.0427  0.1067
  550TMC3    O2 8223   0.493   3.245  12.655 -0.7151  0.0806  0.0124
  551TMC3    C1 8224   3.230   0.858  13.264 -0.2164  0.5329 -0.3493
  551TMC3    C2 8225   3.319   0.849  13.164 -0.0213  0.0033 -0.2160
  551TMC3    C3 8226   3.450   0.827  13.197  0.0921 -0.3303 -0.2649
  551TMC3    C4 8227   3.269   0.862  13.397  0.1393  0.6498  0.1829
  551TMC3    C5 8228   3.404   0.848  13.429 -0.0171 -1.0124  0.3607
  551TMC3    C6 8229   3.494   0.825  13.331 -0.1026  0.3528  0.0688
  551TMC3     C 8230   3.098   0.890  13.228  0.0037  0.5212 -0.1801
  551TMC3     O 8231   3.041   0.967  13.307 -0.2412  0.0140  0.9487
  551TMC3     H 8232   3.291   0.865  13.060 -0.5647 -0.0616 -0.0830
  551TMC3    H1 8233   3.196   0.863  13.477 -0.5231 -0.7759 -0.4051
  551TMC3    H2 8234   3.599   0.840  13.350 -0.1640  1.5304 -0.4738
  551TMC3    C7 8235   3.459   0.917  13.547  0.7941  0.6105 -0.1283
  551TMC3    C8 8236   3.552   0.866  13.097  0.2654  0.5183  0.0879
  551TMC3    O1 8237   3.567   0.868  13.581 -0.6146  0.1962  0.2989
  551TMC3    O2 8238   3.524   0.830  12.982  0.1738  0.0803 -0.2571
  552MPD2     C 8239   1.023   2.852  13.783  0.5632  0.3071  0.1506
  552MPD2    C1 8240   0.983   2.810  13.914 -0.5725  0.0833 -0.5735
  552MPD2    C2 8241   1.090   2.763  13.997  0.5989  0.5422  0.0069
  552MPD2    C3 8242   1.219   2.772  13.953 -0.1285 -0.0513 -0.3121
  552MPD2    C4 8243   1.245   2.817  13.831 -0.0270  0.3255  0.9655
  552MPD2    C5 8244   1.151   2.858  13.747  0.1594  0.8549  0.2366
  552MPD2     H 8245   1.066   2.747  14.101 -0.0282 -3.7253 -0.8096
  552MPD2    H1 8246   1.348   2.821  13.799 -0.2087  1.7886  0.5656
  552MPD2    H2 8247   0.956   2.889  13.706  2.2484 -0.4696 -1.7071
  552MPD2    H3 8248   1.182   2.889  13.648  0.1384  0.3018  0.0581
  552MPD2     N 8249   1.327   2.750  14.045 -0.5048  0.4743  0.9298
  552MPD2    H5 8250   1.418   2.782  14.012  0.6684 -1.9609  1.7901
  552MPD2    N1 8251   0.849   2.809  13.951  0.2716  0.9305  0.0147
  552MPD2    H7 8252   0.824   2.762  14.037  3.4268  0.3956  0.6625
  553TMC3    C1 8253   0.618   2.777  13.898  0.5550 -0.2041 -0.2576
  553TMC3    C2 8254   0.528   2.765  13.789 -0.1691  0.1079 -0.7207
  553TMC3    C3 8255   0.440   2.659  13.782  0.2242 -0.2257  0.1037
  553TMC3    C4 8256   0.623   2.678  13.990 -0.0606  0.4544 -0.5929
  553TMC3    C5 8257   0.534   2.574  13.978 -1.0653 -0.3060  0.1500
  553TMC3    C6 8258   0.446   2.562  13.874 -0.3464 -0.0965  0.5424
  553TMC3     C 8259   0.743   2.851  13.873 -0.5502 -0.0820  0.2279
  553TMC3     O 8260   0.744   2.921  13.770  0.0420  0.3583  0.2367
  553TMC3     H 8261   0.541   2.846  13.718 -0.3005  0.8162  0.0602
  553TMC3    H1 8262   0.677   2.689  14.083 -0.8867 -1.2883  0.0842
  553TMC3    H2 8263   0.385   2.473  13.864 -2.6729  1.5510  0.1555
  553TMC3    C7 8264   0.554   2.459  14.070  0.1462 -0.0267 -0.0859
  553TMC3    C8 8265   0.466   2.605  13.651  0.3415  0.8114 -0.3768
  553TMC3    O1 8266   0.465   2.445  14.152 -0.1069  0.2883 -0.8523
  553TMC3    O2 8267   0.554   2.654  13.582  0.1575 -0.0442  0.1760
  554TMC3    C1 8268   2.532   2.004  11.386  0.0678  0.0257  0.3274
  554TMC3    C2 8269   2.414   1.975  11.320 -0.4549 -0.4611 -0.8143
  554TMC3    C3 8270   2.355   2.089  11.256 -0.5271 -0.1427 -0.3458
  554TMC3    C4 8271   2.581   2.133  11.390  0.2840  0.0283 -0.6854
  554TMC3    C5 8272   2.518   2.234  11.324  0.0517 -0.2814  0.3334
  554TMC3    C6 8273   2.405   2.218  11.252  0.1546  0.3094 -0.8478
  554TMC3     C 8274   2.639   1.896  11.402  0.2020  1.2832 -0.5708
  554TMC3     O 8275   2.751   1.933  11.423  0.0791 -0.3195 -0.2969
  554TMC3     H 8276   2.374   1.877  11.298 -1.5487  0.3256 -2.4069
  554TMC3    H1 8277   2.671   2.158  11.444 -0.8299  0.8893  0.7666
  554TMC3    H2 8278   2.359   2.296  11.192 -0.4388  0.3345 -0.3694
  554TMC3    C7 8279   2.602   2.353  11.298 -0.1402 -0.5874 -0.2729
  554TMC3    C8 8280   2.258   2.059  11.153  0.2995  0.2624 -0.6263
  554TMC3    O1 8281   2.667   2.398  11.389 -0.5590  0.3262 -0.2772
  554TMC3    O2 8282   2.274   2.115  11.044 -0.4467 -0.0397  0.4682
  555TMC3    C1 8283   1.704   1.478  15.376 -0.3376 -0.5430  0.6199
  555TMC3    C2 8284   1.725   1.460  15.515  0.9457  0.0627 -0.3280
  555TMC3    C3 8285   1.762   1.340  15.561 -0.3779 -0.2642  0.3805
  555TMC3    C4 8286   1.733   1.380  15.290  0.0632 -0.1231  0.6516
  555TMC3    C5 8287   1.782   1.268  15.339  0.0075  0.1215 -0.1352
  555TMC3    C6 8288   1.796   1.241  15.473  0.7788  0.6534  0.1720
  555TMC3     C 8289   1.727   1.610  15.327  0.3406  0.0719 -0.1027
  555TMC3     O 8290   1.814   1.673  15.383 -0.0099  0.1098  0.4276
  555TMC3     H 8291   1.694   1.544  15.576 -0.9404 -0.3919 -0.6484
  555TMC3    H1 8292   1.747   1.392  15.183  0.4947 -0.1869  0.7004
  555TMC3    H2 8293   1.833   1.146  15.509 -1.4919  0.3905  1.8314
  555TMC3    C7 8294   1.816   1.164  15.245  0.3081  0.1921 -0.2766
  555TMC3    C8 8295   1.797   1.319  15.702  0.0395  0.0401  0.0492
  555TMC3    O1 8296   1.845   1.199  15.131  0.5484 -0.1111  0.1178
  555TMC3    O2 8297   1.869   1.226  15.729 -0.4933 -0.1081  0.2831
  556MPD2     C 8298   3.900   3.444  10.372  0.2020 -0.1647  0.3895
  556MPD2    C1 8299   3.931   3.336  10.453  0.5087 -0.0557 -0.0525
  556MPD2    C2 8300   3.946   3.214  10.396 -0.4884 -0.5910 -0.6970
  556MPD2    C3 8301   3.948   3.196  10.259  0.0833  0.7490  0.6787
  556MPD2    C4 8302   3.926   3.308  10.185 -0.8170 -0.1555 -0.1358
  556MPD2    C5 8303   3.895   3.423  10.242 -0.5678  0.8360  0.5780
  556MPD2     H 8304   3.956   3.127  10.460 -0.0500  1.6771  2.3269
  556MPD2    H1 8305   3.938   3.318  10.078  0.2747  0.4402  0.0403
  556MPD2    H2 8306   3.887   3.549  10.399  1.9426  0.6367 -1.8550
  556MPD2    H3 8307   3.873   3.507  10.177  0.7972  0.8244  0.1082
  556MPD2     N 8308   3.949   3.060  10.207  0.1442  0.4766  0.0685
  556MPD2    H5 8309   3.948   2.982  10.271 -0.5402  0.1515 -0.3350
  556MPD2    N1 8310   3.949   3.344  10.597 -0.7056  0.3867  0.1092
  556MPD2    H7 8311   3.958   3.261  10.656  0.3911  0.9359  0.6992
  557TMC3    C1 8312   3.948   2.884  10.048  0.3932 -0.4668  0.7387
  557TMC3    C2 8313   3.893   2.834   9.935  0.4805 -0.5502  0.5805
  557TMC3    C3 8314   3.906   2.702   9.903 -0.8004 -0.5579 -0.3490
  557TMC3    C4 8315   4.028   2.809  10.133 -0.2188 -0.4720  0.0483
  557TMC3    C5 8316   4.040   2.679  10.092 -0.0124  0.6352  0.0129
  557TMC3    C6 8317   3.984   2.625   9.978  0.2200 -0.2239  0.2367
  557TMC3     C 8318   3.918   3.030  10.080 -0.4999  0.7774 -0.2021
  557TMC3     O 8319   3.891   3.104   9.989 -0.3722 -0.5778 -0.1701
  557TMC3     H 8320   3.821   2.892   9.877  1.8434 -0.9044 -1.4811
  557TMC3    H1 8321   4.087   2.848  10.214 -1.0971  1.6364 -0.3443
  557TMC3    H2 8322   3.995   2.518   9.964  3.2767  0.2918 -1.2737
  557TMC3    C7 8323   4.109   2.593  10.183  0.3072 -0.1172  0.0790
  557TMC3    C8 8324   3.827   2.648   9.792  0.5568  0.2513 -0.0493
  557TMC3    O1 8325   4.165   2.499  10.129 -0.1318  0.3009  0.0721
  557TMC3    O2 8326   3.729   2.706   9.759  0.2150  0.0881  0.2982
  558TMC3    C1 8327   2.020   1.137  10.543 -0.4142  0.4004 -0.3687
  558TMC3    C2 8328   1.923   1.110  10.632  0.8387 -0.0742 -0.4170
  558TMC3    C3 8329   1.804   1.181  10.619  0.5678  0.2687  0.3270
  558TMC3    C4 8330   2.000   1.226  10.442  0.4223 -0.0613  0.5797
  558TMC3    C5 8331   1.881   1.293  10.430  0.1649  0.4123 -0.3137
  558TMC3    C6 8332   1.782   1.264  10.513 -0.6969  0.5163 -0.5460
  558TMC3     C 8333   2.139   1.065  10.538  0.6596  0.2719  0.5427
  558TMC3     O 8334   2.241   1.111  10.488 -0.1942 -0.0443  0.4380
  558TMC3     H 8335   1.945   1.053  10.721  2.3380 -0.4796 -1.0474
  558TMC3    H1 8336   2.071   1.240  10.361 -1.6753  0.1479 -1.2258
  558TMC3    H2 8337   1.700   1.336  10.513  0.9936  2.4239  0.6113
  558TMC3    C7 8338   1.865   1.370  10.306 -0.7362  0.6044 -0.4273
  558TMC3    C8 8339   1.686   1.126  10.679  0.4323  0.3560  0.3728
  558TMC3    O1 8340   1.962   1.435  10.268 -0.0435 -0.7632  0.1245
  558TMC3    O2 8341   1.577   1.176  10.650 -0.0095  0.5683  0.0446
  559MPD2     C 8342   1.954   1.589  10.565 -0.4671  0.0647  0.5337
  559MPD2    C1 8343   1.912   1.531  10.685 -0.8361 -0.5025 -0.0434
  559MPD2    C2 8344   2.001   1.454  10.754  0.0791  0.2107  0.7713
  559MPD2    C3 8345   2.128   1.424  10.711  0.2755 -0.3507  0.3842
  559MPD2    C4 8346   2.167   1.480  10.589  0.3511  0.1580 -0.4026
  559MPD2    C5 8347   2.085   1.571  10.525  0.0713  0.4079 -0.1631
  559MPD2     H 8348   1.970   1.411  10.849 -1.3404 -1.5328 -0.4750
  559MPD2    H1 8349   2.266   1.463  10.549 -0.3780 -1.2672 -1.5836
  559MPD2    H2 8350   1.885   1.648  10.506  2.2306  0.4647 -2.1883
  559MPD2    H3 8351   2.135   1.616  10.440 -0.7498  1.7456  0.0614
  559MPD2     N 8352   2.210   1.337  10.787  0.3514 -0.2146  0.8442
  559MPD2    H5 8353   2.164   1.288  10.863  0.1888 -1.2359  0.0882
  559MPD2    N1 8354   1.769   1.533  10.712 -0.0762  0.8907  0.0625
  559MPD2    H7 8355   1.710   1.592  10.655  0.5515  0.8186 -0.6723
  560TMC3    C1 8356   2.399   1.221  10.860 -0.0363 -0.1789  0.4291
  560TMC3    C2 8357   2.337   1.098  10.869  0.4350 -0.1661  0.0262
  560TMC3    C3 8358   2.413   0.985  10.897  0.0986 -0.5172  0.0892
  560TMC3    C4 8359   2.533   1.223  10.869 -0.8191  0.1973 -0.5428
  560TMC3    C5 8360   2.605   1.110  10.888 -0.2164 -0.2259  0.3302
  560TMC3    C6 8361   2.551   0.984  10.900  1.1282 -0.0281 -0.3009
  560TMC3     C 8362   2.346   1.319  10.765  0.6185  0.2640  0.0486
  560TMC3     O 8363   2.426   1.379  10.696  0.8864  0.1266 -0.3076
  560TMC3     H 8364   2.229   1.100  10.862  0.5404 -0.2802 -1.5699
  560TMC3    H1 8365   2.577   1.320  10.848  0.0977 -0.6073 -2.3310
  560TMC3    H2 8366   2.609   0.897  10.931  1.0050 -0.1981 -0.5468
  560TMC3    C7 8367   2.729   1.124  10.958  0.3318  0.7343 -0.2954
  560TMC3    C8 8368   2.334   0.864  10.919  0.0755  0.2836  0.1165
  560TMC3    O1 8369   2.789   1.022  10.994 -0.3403 -0.2450  0.3934
  560TMC3    O2 8370   2.216   0.876  10.961  0.3600  0.0744 -0.3034
  561TMC3    C1 8371   4.606   0.250  11.304 -0.0834  0.6584 -0.6910
  561TMC3    C2 8372   4.523   0.220  11.407 -0.2529  0.5470  0.3243
  561TMC3    C3 8373   4.479   0.312  11.499  0.3141  0.4027  0.2241
  561TMC3    C4 8374   4.650   0.373  11.291 -0.6313  0.0747 -0.2233
  561TMC3    C5 8375   4.610   0.461  11.385 -0.3714 -0.0038  0.8248
  561TMC3    C6 8376   4.525   0.438  11.490 -0.2968  0.0342 -0.2830
  561TMC3     C 8377   4.637   0.144  11.206  0.2206 -0.2669 -0.8102
  561TMC3     O 8378   4.623   0.027  11.247  0.3943 -0.3440  0.5341
  561TMC3     H 8379   4.494   0.116  11.423 -5.0870  1.9300  0.5875
  561TMC3    H1 8380   4.727   0.395  11.217  0.5912  1.5656  1.4751
  561TMC3    H2 8381   4.488   0.518  11.553 -0.1493 -0.7623  0.8207
  561TMC3    C7 8382   4.672   0.589  11.386 -0.2997  0.5383  0.1885
  561TMC3    C8 8383   4.425   0.258  11.622 -0.5253 -0.8912  0.1919
  561TMC3    O1 8384   4.689   0.634  11.498  0.1178 -0.3651 -0.3387
  561TMC3    O2 8385   4.381   0.143  11.621  0.2891  0.2640 -0.0108
  562TMC3    C1 8386   1.300   1.634  16.149 -0.2195 -0.1252  0.0240
  562TMC3    C2 8387   1.263   1.763  16.110 -0.3456 -0.0688  0.6759
  562TMC3    C3 8388   1.254   1.784  15.974  0.2135 -0.4259 -0.2613
  562TMC3    C4 8389   1.327   1.535  16.057  0.4984  0.2935 -0.1280
  562TMC3    C5 8390   1.333   1.571  15.921  0.7319  0.9307  0.8636
  562TMC3    C6 8391   1.308   1.701  15.880 -0.1525  0.0041  0.8712
  562TMC3     C 8392   1.313   1.593  16.287 -0.2577  0.4469  0.7782
  562TMC3     O 8393   1.394   1.506  16.310  0.2908 -0.1148  0.0735
  562TMC3     H 8394   1.248   1.843  16.182  1.3967  0.9838 -0.1458
  562TMC3    H1 8395   1.338   1.430  16.085 -0.3868  0.7100  1.7922
  562TMC3    H2 8396   1.315   1.725  15.774  2.3317  0.0263  1.0558
  562TMC3    C7 8397   1.380   1.484  15.814  0.4190  0.2336 -0.1720
  562TMC3    C8 8398   1.172   1.897  15.939 -0.4042  0.7780  0.1860
  562TMC3    O1 8399   1.382   1.525  15.700  0.2286  0.6529 -0.5032
  562TMC3    O2 8400   1.085   1.923  16.020 -0.9265 -0.2033 -0.1128
  563MPD2     C 8401   3.818   2.856  15.615  0.6318  0.8328  0.3634
  563MPD2    C1 8402   3.825   2.903  15.739 -0.3300  0.1246  0.1132
  563MPD2    C2 8403   3.948   2.895  15.808 -0.0940 -0.2965  0.8970
  563MPD2    C3 8404   4.056   2.827  15.750  0.3691  0.1722 -0.3023
  563MPD2    C4 8405   4.046   2.768  15.625  0.0948 -0.5789  0.2236
  563MPD2    C5 8406   3.924   2.789  15.555 -0.0297 -0.4319  0.2316
  563MPD2     H 8407   3.945   2.924  15.912 -0.4842  2.4071  0.1250
  563MPD2    H1 8408   4.132   2.738  15.566  1.4022 -2.1581  2.9128
  563MPD2    H2 8409   3.722   2.868  15.566  0.8853 -2.5010 -0.9957
  563MPD2    H3 8410   3.920   2.765  15.449 -0.3776 -1.0354  0.3796
  563MPD2     N 8411   4.164   2.813  15.836 -0.2701  0.6160 -0.0237
  563MPD2    H5 8412   4.159   2.864  15.924 -1.7352  1.2595 -0.4816
  563MPD2    N1 8413   3.714   2.954  15.805  0.0477 -0.0717 -0.3790
  563MPD2    H7 8414   3.627   2.931  15.759  0.3678 -2.1544  0.0468
  564TMC3    C1 8415   3.607   3.029  15.989 -0.0598 -0.2339 -0.1470
  564TMC3    C2 8416   3.498   2.966  15.946 -0.0677  0.0097  0.2896
  564TMC3    C3 8417   3.415   2.904  16.038 -0.0025  0.3212 -0.7499
  564TMC3    C4 8418   3.638   3.031  16.121  0.0356  0.3725 -0.1561
  564TMC3    C5 8419   3.555   2.969  16.213  0.3641  0.5220  0.0503
  564TMC3    C6 8420   3.438   2.915  16.173  0.0905  0.3753 -0.2759
  564TMC3     C 8421   3.719   3.046  15.904 -0.1177 -0.2447  0.5172
  564TMC3     O 8422   3.807   3.131  15.930 -0.0129  0.1161  0.1768
  564TMC3     H 8423   3.464   2.969  15.844 -2.4112  2.8430  1.1542
  564TMC3    H1 8424   3.712   3.102  16.155 -0.7470  0.5591  1.1610
  564TMC3    H2 8425   3.365   2.879  16.244  1.3581  1.5221  1.6129
  564TMC3    C7 8426   3.632   2.895  16.313 -0.5323 -0.4885 -0.6215
  564TMC3    C8 8427   3.300   2.830  15.992  0.1576  0.0966 -0.7041
  564TMC3    O1 8428   3.748   2.926  16.344 -0.2890  0.2690  0.4432
  564TMC3    O2 8429   3.207   2.809  16.069 -0.6097 -0.1802 -0.0387
  565TMC3    C1 8430   4.283   4.470  10.046  0.5107 -0.6474 -0.1673
  565TMC3    C2 8431   4.237   4.354  10.099  0.3358 -0.2526 -0.1757
  565TMC3    C3 8432   4.230   4.254  10.002 -1.0303 -0.1472 -0.0461
  565TMC3    C4 8433   4.325   4.491   9.918  0.3071 -0.3443 -0.1591
  565TMC3    C5 8434   4.314   4.384   9.835 -0.7010 -0.2642 -0.0137
  565TMC3    C6 8435   4.253   4.273   9.871  0.2366  0.2957 -0.0059
  565TMC3     C 8436   4.268   4.596  10.115  0.1309 -0.7005 -0.0264
  565TMC3     O 8437   4.232   4.695  10.057  0.0260  0.3727  0.2599
  565TMC3     H 8438   4.202   4.344  10.201  0.0156  1.2246 -0.1413
  565TMC3    H1 8439   4.379   4.580   9.887  0.1555 -0.1770  0.0618
  565TMC3    H2 8440   4.274   4.184   9.812 -2.7702 -0.3670 -0.0760
  565TMC3    C7 8441   4.287   4.412   9.695  0.2096  0.7556 -0.8435
  565TMC3    C8 8442   4.170   4.126  10.041  0.2124 -0.5877  0.5494
  565TMC3    O1 8443   4.268   4.314   9.619  0.3205 -0.1980 -0.4625
  565TMC3    O2 8444   4.140   4.121  10.158 -0.1934  0.0136 -0.2227
  566MPD2     C 8445   0.975   1.342  14.215 -0.1252 -0.7769  0.0809
  566MPD2    C1 8446   1.007   1.273  14.098  0.8197  0.2183  0.9676
  566MPD2    C2 8447   0.920   1.294  13.994  0.2934 -0.3730 -0.5994
  566MPD2    C3 8448   0.832   1.396  13.992  0.5359  0.1815  0.5085
  566MPD2    C4 8449   0.817   1.479  14.099  0.4871  0.2243 -0.0585
  566MPD2    C5 8450   0.889   1.450  14.210 -0.5881 -0.4389  0.0206
  566MPD2     H 8451   0.950   1.253  13.898  0.3273 -1.3529 -0.1645
  566MPD2    H1 8452   0.766   1.575  14.096  2.0885  1.0307 -1.3684
  566MPD2    H2 8453   1.025   1.315  14.308 -0.7376  0.0959  0.6667
  566MPD2    H3 8454   0.876   1.517  14.294 -0.5969 -1.2781  0.6931
  566MPD2     N 8455   0.753   1.414  13.873  0.3874  0.0157  0.3312
  566MPD2    H5 8456   0.775   1.360  13.790  2.4603  0.6880  0.4374
  566MPD2    N1 8457   1.106   1.176  14.110 -0.0081 -0.2130  0.2158
  566MPD2    H7 8458   1.155   1.180  14.198  0.9232 -0.9645 -0.2750
  567TMC3    C1 8459   1.282   1.044  14.046  0.2922  0.1209  0.4375
  567TMC3    C2 8460   1.378   1.091  13.956 -0.5420  0.4162  0.0472
  567TMC3    C3 8461   1.496   1.133  14.006  0.2918  0.3165  0.3062
  567TMC3    C4 8462   1.309   1.028  14.177 -0.1463 -0.4161  1.2884
  567TMC3    C5 8463   1.430   1.062  14.220 -0.1877  0.1656 -0.1985
  567TMC3    C6 8464   1.532   1.111  14.136  0.2365 -0.0651 -0.1904
  567TMC3     C 8465   1.152   1.089  14.011 -0.0572  0.0130 -0.4232
  567TMC3     O 8466   1.107   1.070  13.897  0.2104  0.1050  0.0566
  567TMC3     H 8467   1.347   1.109  13.853  0.9068 -1.8042 -0.7810
  567TMC3    H1 8468   1.236   0.979  14.241 -2.7134  0.6149 -0.8864
  567TMC3    H2 8469   1.609   1.162  14.192  0.8021 -2.0028  0.8171
  567TMC3    C7 8470   1.481   0.993  14.340  0.0271  0.0525  0.7327
  567TMC3    C8 8471   1.539   1.254  13.933  0.0533  0.0112  0.1801
  567TMC3    O1 8472   1.604   0.984  14.350  0.1970 -0.1969  0.4660
  567TMC3    O2 8473   1.498   1.270  13.821 -0.0075  0.3719 -0.2473
  568MPD2     C 8474   3.190   1.522  16.022 -0.1929 -0.1050  0.2613
  568MPD2    C1 8475   3.146   1.593  16.131  0.0363  0.1015  0.3871
  568MPD2    C2 8476   3.058   1.698  16.119 -1.0535 -0.1483  0.3961
  568MPD2    C3 8477   3.023   1.743  15.993 -0.0399 -0.1647 -0.1625
  568MPD2    C4 8478   3.071   1.676  15.884 -0.6128 -0.0602  0.3752
  568MPD2    C5 8479   3.148   1.566  15.896 -0.2377  0.3892 -0.1298
  568MPD2     H 8480   3.024   1.747  16.210  0.5858  0.0858  0.8859
  568MPD2    H1 8481   3.043   1.705  15.783  1.5282  0.6853 -0.0048
  568MPD2    H2 8482   3.254   1.435  16.032  0.1810  0.1389 -0.0345
  568MPD2    H3 8483   3.190   1.511  15.812 -0.5311 -1.7145  1.0994
  568MPD2     N 8484   2.944   1.859  15.960 -0.1546  0.5725 -0.2291
  568MPD2    H5 8485   2.927   1.889  15.864 -0.4186 -0.3477 -0.4701
  568MPD2    N1 8486   3.197   1.554  16.259  0.3585 -0.2170 -0.3361
  568MPD2    H7 8487   3.250   1.468  16.268  0.0328 -0.4188 -0.3365
  569TMC3    C1 8488   2.791   2.049  16.000  0.2775 -0.6336 -0.0881
  569TMC3    C2 8489   2.734   2.115  16.104 -0.2104 -0.8866 -0.2016
  569TMC3    C3 8490   2.748   2.252  16.118 -0.5725 -0.1175 -0.6758
  569TMC3    C4 8491   2.852   2.119  15.900 -0.6558  0.7432 -0.8549
  569TMC3    C5 8492   2.867   2.254  15.912  0.1438  0.2939  0.2802
  569TMC3    C6 8493   2.817   2.321  16.022  0.7209  0.0905  0.4507
  569TMC3     C 8494   2.877   1.941  16.051  0.1209 -0.1427  0.2026
  569TMC3     O 8495   2.881   1.936  16.178  0.7030  0.7570 -0.4854
  569TMC3     H 8496   2.678   2.053  16.172 -0.7858  0.1978  0.3237
  569TMC3    H1 8497   2.892   2.064  15.816  1.6583  1.8201 -0.4864
  569TMC3    H2 8498   2.823   2.430  16.020  2.0167 -0.0177 -1.5691
  569TMC3    C7 8499   2.931   2.322  15.807 -0.1095  0.0578  0.5749
  569TMC3    C8 8500   2.739   2.291  16.254 -0.1389 -0.7646  0.4524
  569TMC3    O1 8501   2.962   2.260  15.703  0.3902  0.3422  0.3468
  569TMC3    O2 8502   2.663   2.222  16.321 -0.5779  0.2536 -0.6472
  570TMC3    C1 8503   2.547   0.596  15.842 -0.3086  0.9218  0.2340
  570TMC3    C2 8504   2.625   0.584  15.735  1.0425 -0.4856  0.2764
  570TMC3    C3 8505   2.722   0.675  15.719 -0.1810 -0.2686 -0.1661
  570TMC3    C4 8506   2.545   0.705  15.926  0.8276  0.2031  0.4872
  570TMC3    C5 8507   2.639   0.800  15.904  0.3523  0.7830  0.0561
  570TMC3    C6 8508   2.736   0.779  15.810  0.1115 -0.7193 -0.3138
  570TMC3     C 8509   2.464   0.481  15.879 -0.1792 -0.2906 -0.4254
  570TMC3     O 8510   2.458   0.399  15.788 -0.3205 -0.1959 -0.1108
  570TMC3     H 8511   2.624   0.503  15.663 -1.1024 -1.5131  1.4362
  570TMC3    H1 8512   2.468   0.709  16.003  0.8400  0.5397  0.4836
  570TMC3    H2 8513   2.812   0.850  15.780 -1.2816  1.2262  0.8092
  570TMC3    C7 8514   2.624   0.924  15.971  0.8868 -0.1204 -0.7181
  570TMC3    C8 8515   2.835   0.636  15.643  0.2242 -0.1066  0.3714
  570TMC3    O1 8516   2.554   0.921  16.066  0.6407  0.4722  0.4051
  570TMC3    O2 8517   2.939   0.652  15.703  0.7092 -0.4885  0.1756
  571MPD2     C 8518   0.121   2.039   0.192 -0.0525 -0.3978  0.5717
  571MPD2    C1 8519   0.207   2.087   0.095 -0.2741  0.9465 -0.1406
  571MPD2    C2 8520   0.303   2.184   0.132 -0.6378 -0.2814 -0.0839
  571MPD2    C3 8521   0.327   2.199   0.273 -0.8173 -0.5620  0.1444
  571MPD2    C4 8522   0.254   2.125   0.356 -0.4081  0.1142  0.1826
  571MPD2    C5 8523   0.153   2.052   0.323  0.2311  0.0797  0.1458
  571MPD2     H 8524   0.355   2.247   0.062  1.0142 -2.2213 -0.6039
  571MPD2    H1 8525   0.281   2.143   0.459 -1.8901 -0.0386  0.5860
  571MPD2    H2 8526   0.044   1.968   0.164 -0.6656  1.0145 -1.2722
  571MPD2    H3 8527   0.080   2.019   0.396  1.1373  0.8858  1.4268
  571MPD2     N 8528   0.399   2.301   0.339  0.2854  0.2688 -0.4608
  571MPD2    H5 8529   0.430   2.282   0.434 -2.1049  1.7913  0.6355
  571MPD2    N1 8530   0.189   2.042  17.713 -0.2327 -0.3662 -0.0601
  571MPD2    H7 8531   0.118   1.971  17.697  0.9178 -1.1124 -1.9100
  572TMC3    C1 8532   0.559   2.477   0.353 -0.1165 -0.0093  0.1987
  572TMC3    C2 8533   0.638   2.401   0.429  0.4089 -0.3398  0.5303
  572TMC3    C3 8534   0.748   2.446   0.492  0.1092  0.1271  0.8581
  572TMC3    C4 8535   0.589   2.610   0.341  0.1826  0.7623  0.6599
  572TMC3    C5 8536   0.701   2.657   0.401 -0.8456  0.2488 -0.4575
  572TMC3    C6 8537   0.784   2.581   0.478 -0.1998 -0.1738  0.4561
  572TMC3     C 8538   0.459   2.407   0.278  0.7501  0.3714 -0.1406
  572TMC3     O 8539   0.453   2.441   0.160  0.1309  0.1665  0.7892
  572TMC3     H 8540   0.620   2.294   0.432  1.4150 -0.5574 -0.9999
  572TMC3    H1 8541   0.525   2.673   0.280 -0.4970  0.8761  1.4834
  572TMC3    H2 8542   0.875   2.611   0.528  0.2663 -1.8130  0.5895
  572TMC3    C7 8543   0.757   2.783   0.357  0.1472  0.2487  0.4417
  572TMC3    C8 8544   0.839   2.351   0.550  0.6775 -0.4259  0.2389
  572TMC3    O1 8545   0.673   2.854   0.300 -0.1101  0.3669 -0.0056
  572TMC3    O2 8546   0.948   2.400   0.573 -0.0437 -0.1562  0.1537
  573MPD2     C 8547   1.726   2.646   0.425  0.3453 -0.7395 -0.3221
  573MPD2    C1 8548   1.673   2.762   0.368 -0.6644  0.2717 -0.1580
  573MPD2    C2 8549   1.591   2.760   0.258  0.0807 -0.2639 -0.4723
  573MPD2    C3 8550   1.557   2.641   0.198  0.2091  0.3454  0.8079
  573MPD2    C4 8551   1.622   2.520   0.242 -0.4873  0.3368  0.7412
  573MPD2    C5 8552   1.691   2.529   0.360  0.3209  0.1920  0.8929
  573MPD2     H 8553   1.554   2.856   0.225  1.9360  0.6414  0.0539
  573MPD2    H1 8554   1.593   2.422   0.205  1.0290  1.0033 -2.2212
  573MPD2    H2 8555   1.784   2.639   0.517  2.5734 -0.7537 -1.7447
  573MPD2    H3 8556   1.725   2.439   0.410  1.3185 -0.4425 -0.9051
  573MPD2     N 8557   1.459   2.630   0.101 -0.1325  0.8682 -0.6140
  573MPD2    H5 8558   1.435   2.533   0.080 -1.6341  0.6616  2.0748
  573MPD2    N1 8559   1.708   2.882   0.437 -0.5223  1.2598  0.0272
  573MPD2    H7 8560   1.755   2.868   0.526 -0.9147  1.4362  0.2636
  574TMC3    C1 8561   1.262   2.694  17.740 -0.2933  0.2878 -0.4582
  574TMC3    C2 8562   1.207   2.784  17.661 -0.2075 -0.0661  0.3949
  574TMC3    C3 8563   1.073   2.799  17.662  0.2999 -1.3122 -0.1587
  574TMC3    C4 8564   1.186   2.613   0.073 -0.4095 -0.5460  0.3537
  574TMC3    C5 8565   1.049   2.632   0.064  0.6112  0.7384 -0.7337
  574TMC3    C6 8566   0.990   2.722  17.732 -0.2751  0.5475 -0.0408
  574TMC3     C 8567   1.398   2.725   0.027  0.2728  0.4686  0.6825
  574TMC3     O 8568   1.434   2.840   0.020  0.0285 -0.3900 -0.0852
  574TMC3     H 8569   1.276   2.841  17.600  1.3178  0.2707  2.4312
  574TMC3    H1 8570   1.227   2.539   0.141  0.1228 -0.7231 -0.1562
  574TMC3    H2 8571   0.885   2.746  17.724 -0.7729 -1.4695  0.5723
  574TMC3    C7 8572   0.956   2.524   0.090 -0.4999  0.1609  0.6339
  574TMC3    C8 8573   1.009   2.888  17.569  0.7732 -0.1758 -0.2850
  574TMC3    O1 8574   0.833   2.548   0.093  0.1026  0.0956 -0.1095
  574TMC3    O2 8575   0.893   2.862  17.532  0.0372 -0.4294  0.3262
  575TMC3    C1 8576   3.644   3.697  10.598 -0.7286 -0.0297  0.1890
  575TMC3    C2 8577   3.537   3.624  10.556  0.3980 -0.0305 -0.1068
  575TMC3    C3 8578   3.521   3.634  10.420 -0.1805  0.7457  0.8655
  575TMC3    C4 8579   3.728   3.765  10.515  0.0324  0.0637  1.0447
  575TMC3    C5 8580   3.709   3.770  10.379  0.5003  0.6760 -0.6259
  575TMC3    C6 8581   3.603   3.703  10.333  0.2525  0.0942  0.4404
  575TMC3     C 8582   3.662   3.697  10.739  0.1473 -0.5717  0.1039
  575TMC3     O 8583   3.585   3.623  10.805 -0.1881 -0.2948 -0.7409
  575TMC3     H 8584   3.462   3.577  10.618 -0.0080 -0.9291 -1.2705
  575TMC3    H1 8585   3.816   3.814  10.556  1.6244 -0.8994 -1.2359
  575TMC3    H2 8586   3.570   3.711  10.230 -1.7690  0.1218  1.0871
  575TMC3    C7 8587   3.824   3.798  10.301  0.2887  0.3621  0.1658
  575TMC3    C8 8588   3.398   3.585  10.350 -0.5049  0.0071  0.3219
  575TMC3    O1 8589   3.928   3.821  10.363  0.4554 -0.4332  0.5973
  575TMC3    O2 8590   3.397   3.570  10.227 -0.1795  0.0698  0.7109
  576MPD2     C 8591   3.544   0.763  12.402 -0.0680  0.4443 -0.4024
  576MPD2    C1 8592   3.641   0.850  12.444 -0.3185 -0.1498 -0.2832
  576MPD2    C2 8593   3.608   0.958  12.525 -0.1831 -0.1698  0.1555
  576MPD2    C3 8594   3.483   0.960  12.580 -0.0236 -0.6221  0.3105
  576MPD2    C4 8595   3.384   0.866  12.543  0.2370  0.7196 -0.5480
  576MPD2    C5 8596   3.419   0.779  12.449 -0.1486 -0.2750  0.2150
  576MPD2     H 8597   3.674   1.039  12.556 -0.6649  0.8995 -1.6210
  576MPD2    H1 8598   3.279   0.871  12.568  0.2317  2.5980 -0.9638
  576MPD2    H2 8599   3.569   0.681  12.336 -0.5889 -0.1771  0.1683
  576MPD2    H3 8600   3.351   0.709  12.403  1.8850 -1.9189 -0.2779
  576MPD2     N 8601   3.456   1.065  12.675  0.0864 -0.2048  0.2792
  576MPD2    H5 8602   3.532   1.125  12.705  0.5165 -1.8862  2.5513
  576MPD2    N1 8603   3.769   0.853  12.387 -0.0566 -0.1030 -0.0063
  576MPD2    H7 8604   3.833   0.928  12.411  1.8241 -1.2330 -1.5019
  577TMC3    C1 8605   3.966   0.776  12.297 -0.4656  0.6686  0.1586
  577TMC3    C2 8606   4.060   0.680  12.337  0.4171 -0.2590  0.2197
  577TMC3    C3 8607   4.189   0.696  12.297  0.1218  0.2101  0.3791
  577TMC3    C4 8608   3.997   0.878  12.214  0.3497  0.4074  0.5863
  577TMC3    C5 8609   4.128   0.880  12.166  0.6352 -0.4269  0.2632
  577TMC3    C6 8610   4.224   0.791  12.209 -0.2363  0.0217  0.1848
  577TMC3     C 8611   3.829   0.745  12.337 -0.7856  0.2668  0.2574
  577TMC3     O 8612   3.786   0.630  12.325  0.2388 -0.0836  0.5973
  577TMC3     H 8613   4.023   0.608  12.409 -2.4741  2.3831  1.4080
  577TMC3    H1 8614   3.922   0.950  12.185 -0.4045  0.5314  2.8309
  577TMC3    H2 8615   4.326   0.797  12.174 -0.3631 -0.8412 -0.3275
  577TMC3    C7 8616   4.171   0.960  12.055 -0.0330  0.1967  0.0761
  577TMC3    C8 8617   4.249   0.565  12.263  0.4189  0.2365  0.3987
  577TMC3    O1 8618   4.290   0.984  12.049  0.2574 -0.1904 -0.2716
  577TMC3    O2 8619   4.234   0.482  12.351  0.6798 -0.2382 -0.0718
  578MPD2     C 8620   1.967   0.593   0.967  0.5500  0.0450  0.0387
  578MPD2    C1 8621   1.956   0.526   0.847  1.4781  0.1946  0.8048
  578MPD2    C2 8622   2.038   0.420   0.814 -0.3266  0.2795 -0.0558
  578MPD2    C3 8623   2.141   0.384   0.899  0.5091 -0.6336  0.1657
  578MPD2    C4 8624   2.144   0.441   1.025  0.3647 -0.5599  0.6268
  578MPD2    C5 8625   2.052   0.536   1.063  0.6638  0.2508 -0.3722
  578MPD2     H 8626   2.028   0.381   0.713  4.8359  0.9249 -0.7766
  578MPD2    H1 8627   2.205   0.403   1.106  0.1417 -1.2407  0.4740
  578MPD2    H2 8628   1.901   0.672   0.999 -1.5890 -1.5293 -0.4868
  578MPD2    H3 8629   2.044   0.569   1.166 -0.0661  3.2975 -1.4254
  578MPD2     N 8630   2.226   0.282   0.848  0.1212 -0.6474 -0.0745
  578MPD2    H5 8631   2.205   0.240   0.758  0.5029 -1.4285  0.2074
  578MPD2    N1 8632   1.863   0.586   0.757 -0.5158 -0.3824 -0.0148
  578MPD2    H7 8633   1.826   0.674   0.790 -0.3134  0.0096 -0.8350
  579TMC3    C1 8634   2.411   0.145   0.846  0.0295  0.0727  0.3267
  579TMC3    C2 8635   2.540   0.159   0.796 -0.5059 -0.7968  0.1763
  579TMC3    C3 8636   2.588   0.065   0.702  0.3541  0.3750 -0.0611
  579TMC3    C4 8637   2.323   0.047   0.798 -0.0988  0.2422  0.0646
  579TMC3    C5 8638   2.377   4.693   0.719  0.0493  0.0386 -0.3965
  579TMC3    C6 8639   2.502   4.692   0.669  0.2759  0.3320  0.5789
  579TMC3     C 8640   2.347   0.258   0.912 -0.2993  0.0882  0.3070
  579TMC3     O 8641   2.412   0.323   0.991  0.2670  0.3834  0.1481
  579TMC3     H 8642   2.614   0.216   0.850 -2.2629  2.0081 -0.3598
  579TMC3    H1 8643   2.245   0.020   0.868  0.5112  2.3108  1.5475
  579TMC3    H2 8644   2.542   4.624   0.594  0.1714  0.1750  0.6658
  579TMC3    C7 8645   2.295   4.583   0.678 -0.4100  0.7073  0.5072
  579TMC3    C8 8646   2.693   0.101   0.608  0.1434  0.0068  0.2866
  579TMC3    O1 8647   2.350   4.480   0.645 -0.4274 -0.0631  0.0575
  579TMC3    O2 8648   2.709   0.022   0.515  0.0026 -0.3809 -0.7147
  580TMC3    C1 8649   1.964   0.156  12.362 -0.2528 -0.0301 -0.3907
  580TMC3    C2 8650   2.071   0.177  12.283  0.3265  0.2541 -0.0419
  580TMC3    C3 8651   2.152   0.075  12.246  0.1591 -0.2172  0.0247
  580TMC3    C4 8652   1.939   0.030  12.412 -1.2634  0.0650  0.2057
  580TMC3    C5 8653   2.022   4.667  12.373 -0.0306 -0.4603 -0.1048
  580TMC3    C6 8654   2.130   4.687  12.287  0.4496 -0.3090 -0.0326
  580TMC3     C 8655   1.855   0.229  12.304 -0.4654 -0.1617 -0.1956
  580TMC3     O 8656   1.878   0.280  12.197  0.1335 -0.0901  0.6093
  580TMC3     H 8657   2.090   0.281  12.255  1.5704  0.0469  0.0203
  580TMC3    H1 8658   1.844   0.001  12.457 -0.9027 -0.3086  0.7338
  580TMC3    H2 8659   2.204   4.610  12.275  2.8411  1.9403  0.1895
  580TMC3    C7 8660   2.015   4.540  12.441  0.0594  0.2585  0.5570
  580TMC3    C8 8661   2.260   0.117  12.168 -0.3533  1.2846 -0.3892
  580TMC3    O1 8662   1.940   4.540  12.540 -0.1819  0.2040 -0.3259
  580TMC3    O2 8663   2.316   0.223  12.203  0.5354  0.1268  0.1094
  581MPD2     C 8664   0.050   4.258  14.435 -0.3930  0.4259  0.5059
  581MPD2    C1 8665   4.704   4.265  14.544  0.3505 -0.2896 -0.1089
  581MPD2    C2 8666   4.579   4.328  14.530 -0.2236  0.6788 -0.4059
  581MPD2    C3 8667   4.529   4.384  14.416 -0.2885  0.1343  0.0432
  581MPD2    C4 8668   4.618   4.374  14.309 -0.3611 -0.5061  0.3632
  581MPD2    C5 8669   0.006   4.320  14.316 -0.1516 -0.2121 -0.1260
  581MPD2     H 8670   4.509   4.335  14.613  0.3622  0.6741  0.0908
  581MPD2    H1 8671   4.599   4.412  14.210  0.0025  3.0353  1.6417
  581MPD2    H2 8672   0.142   4.200  14.437 -1.3383 -1.1587 -1.7360
  581MPD2    H3 8673   0.060   4.307  14.223 -0.0934 -1.4218  0.0668
  581MPD2     N 8674   4.400   4.441  14.411  0.0058 -0.5743  0.5778
  581MPD2    H5 8675   4.357   4.460  14.501 -0.4234  1.1146  0.0223
  581MPD2    N1 8676   4.732   4.191  14.656  0.3002 -0.0011  0.7115
  581MPD2    H7 8677   0.083   4.144  14.649 -0.0626 -0.3634 -1.5424
  582TMC3    C1 8678   4.708   4.084  14.863 -0.1238  0.1599 -0.3955
  582TMC3    C2 8679   0.100   4.096  14.899 -0.1427  0.1634  0.0479
  582TMC3    C3 8680   0.126   4.051  15.030 -0.2081  0.2240 -0.0602
  582TMC3    C4 8681   4.619   4.017  14.951 -0.1786 -0.2588 -0.2380
  582TMC3    C5 8682   4.653   3.973  15.078  0.0466 -1.0150  0.2393
  582TMC3    C6 8683   0.044   3.980  15.117 -0.4339 -0.4630  0.3010
  582TMC3     C 8684   4.649   4.167  14.764  0.0783 -0.1085 -0.2473
  582TMC3     O 8685   4.537   4.217  14.785 -0.2988  0.5146 -0.2113
  582TMC3     H 8686   0.153   4.170  14.840 -1.2729  0.0427 -1.1355
  582TMC3    H1 8687   4.514   4.018  14.927 -0.1202 -2.5743 -0.5578
  582TMC3    H2 8688   0.063   3.971  15.223  0.7612 -0.5086  0.0799
  582TMC3    C7 8689   4.564   4.033  15.172  0.2872 -0.1337 -0.4975
  582TMC3    C8 8690   0.207   4.140  15.115 -0.0825 -0.0530 -0.7297
  582TMC3    O1 8691   4.595   4.140  15.221 -0.2495  0.3883 -0.4940
  582TMC3    O2 8692   0.158   4.246  15.145  0.0976 -0.3758 -0.4771
  583MPD2     C 8693   4.605   1.000  16.517  0.8773 -0.3363  0.1288
  583MPD2    C1 8694   4.649   1.110  16.453 -0.3506 -0.3574  0.1303
  583MPD2    C2 8695   4.608   1.238  16.505 -0.6845  0.3368 -0.1304
  583MPD2    C3 8696   4.533   1.253  16.621 -0.0198 -1.0122  0.0691
  583MPD2    C4 8697   4.515   1.138  16.689 -0.2481  0.7159  0.4663
  583MPD2    C5 8698   4.552   1.012  16.641  0.1736  0.3451  0.2383
  583MPD2     H 8699   4.636   1.331  16.456  0.0092 -1.4575 -3.1559
  583MPD2    H1 8700   4.466   1.144  16.785 -3.2530 -1.5941 -0.9288
  583MPD2    H2 8701   4.632   0.900  16.486 -1.1591 -0.1720 -2.2161
  583MPD2    H3 8702   4.518   0.920  16.687  2.0917 -0.6776 -0.3841
  583MPD2     N 8703   4.491   1.377  16.667  0.5722  0.2558 -0.0527
  583MPD2    H5 8704   4.525   1.457  16.615 -0.4371  1.1485  0.6584
  583MPD2    N1 8705   4.734   1.098  16.339  0.0518  0.3901 -0.2375
  583MPD2    H7 8706   0.036   1.188  16.314  0.3141  0.0090 -1.2206
  584TMC3    C1 8707   4.389   1.534  16.810 -0.1107  0.1049  0.8204
  584TMC3    C2 8708   4.440   1.647  16.742 -0.1067  0.3820  0.3948
  584TMC3    C3 8709   4.422   1.770  16.802 -0.8783 -0.3981  0.0946
  584TMC3    C4 8710   4.332   1.550  16.928  1.0485 -0.1623 -0.3522
  584TMC3    C5 8711   4.304   1.676  16.977  0.0752 -0.1947  0.1066
  584TMC3    C6 8712   4.344   1.792  16.911  0.1215  0.6674 -0.2021
  584TMC3     C 8713   4.405   1.396  16.771  0.1076 -0.0952 -0.0985
  584TMC3     O 8714   4.351   1.310  16.841  0.4503  0.4101 -0.3188
  584TMC3     H 8715   4.489   1.627  16.648  1.4246 -0.5699  1.3997
  584TMC3    H1 8716   4.289   1.469  16.986 -2.3071 -1.0259 -4.0850
  584TMC3    H2 8717   4.298   1.887  16.938  1.1281  0.7423  1.3050
  584TMC3    C7 8718   4.242   1.676  17.109  0.1912 -0.4824  0.0637
  584TMC3    C8 8719   4.506   1.872  16.741  0.0308  0.6589 -0.2720
  584TMC3    O1 8720   4.261   1.583  17.187  0.4727 -0.5984  0.1517
  584TMC3    O2 8721   4.570   1.848  16.645 -0.2425 -0.0787  0.3701
  585MPD2     C 8722   3.126   0.637   0.081  0.1999  0.2690 -0.4491
  585MPD2    C1 8723   3.215   0.663  17.730 -0.2640 -0.3732  0.3517
  585MPD2    C2 8724   3.262   0.555  17.657 -0.3199 -0.3795  0.2622
  585MPD2    C3 8725   3.226   0.426  17.689 -1.1747 -0.9229  0.2012
  585MPD2    C4 8726   3.134   0.404   0.038 -0.1757 -0.0288 -0.1797
  585MPD2    C5 8727   3.080   0.508   0.106  0.3445  0.5001  0.0544
  585MPD2     H 8728   3.339   0.577  17.585 -0.6291 -0.1691 -0.0065
  585MPD2    H1 8729   3.103   0.304   0.067 -2.8819  1.7052  2.8498
  585MPD2    H2 8730   3.095   0.712   0.153 -4.2030 -0.0466 -1.9887
  585MPD2    H3 8731   3.005   0.493   0.183  0.1698  2.0808  0.1935
  585MPD2     N 8732   3.285   0.309  17.633 -0.2043  0.2673  0.5463
  585MPD2    H5 8733   3.253   0.224  17.678  1.7668 -1.0451 -0.4993
  585MPD2    N1 8734   3.259   0.798  17.708  0.1008  0.3766 -0.2385
  585MPD2    H7 8735   3.208   0.869   0.010 -0.5300 -0.9289  0.9314
  586TMC3    C1 8736   3.426   0.168  17.512  0.6547 -0.1618  0.4444
  586TMC3    C2 8737   3.555   0.159  17.467  0.1494  0.2062  0.1087
  586TMC3    C3 8738   3.620   0.042  17.478  0.5089  0.0931 -0.0779
  586TMC3    C4 8739   3.370   0.060  17.576 -0.0131 -0.3186 -0.1318
  586TMC3    C5 8740   3.443   4.680  17.586 -0.6796  0.2264 -0.3468
  586TMC3    C6 8741   3.573   4.675  17.555  0.8916  0.3532  0.0772
  586TMC3     C 8742   3.385   0.308  17.538  0.1948  0.3300  0.3504
  586TMC3     O 8743   3.431   0.402  17.475 -0.5275 -0.1710 -0.0551
  586TMC3     H 8744   3.600   0.246  17.421  1.4069 -1.1969 -1.2727
  586TMC3    H1 8745   3.265   0.067  17.605  0.4224  1.8207  0.9034
  586TMC3    H2 8746   3.632   4.584  17.552 -0.9913 -0.9114  1.6539
  586TMC3    C7 8747   3.374   4.560  17.629 -0.6172  0.5112 -0.5620
  586TMC3    C8 8748   3.731   0.008  17.382  0.0009  0.5721 -0.5855
  586TMC3    O1 8749   3.252   4.560  17.622 -0.2881  0.4327  0.4068
  586TMC3    O2 8750   3.812   4.661  17.423  0.1746  0.5412 -0.1870
  587TMC3    C1 8751   1.295   3.660  15.923  0.1460 -0.7043  0.3786
  587TMC3    C2 8752   1.339   3.750  16.015 -0.0294  0.1601 -0.4679
  587TMC3    C3 8753   1.450   3.710  16.083  0.4310 -0.7163  0.2582
  587TMC3    C4 8754   1.356   3.542  15.894 -0.0872 -0.4869  0.5800
  587TMC3    C5 8755   1.481   3.513  15.954  0.2534  0.0927 -0.2790
  587TMC3    C6 8756   1.526   3.597  16.053 -0.1780 -0.0454  0.5831
  587TMC3     C 8757   1.150   3.655  15.895 -0.3644  0.9043 -0.1623
  587TMC3     O 8758   1.102   3.545  15.880 -0.3999  0.1700 -0.3188
  587TMC3     H 8759   1.284   3.839  16.041  0.1666 -0.1679  1.0278
  587TMC3    H1 8760   1.306   3.470  15.830  1.2833 -2.0483  1.2406
  587TMC3    H2 8761   1.623   3.576  16.095 -0.8299 -2.1389  1.0243
  587TMC3    C7 8762   1.560   3.399  15.919  0.6057 -0.0270  0.7491
  587TMC3    C8 8763   1.475   3.789  16.198  0.2726  0.1966  0.9225
  587TMC3    O1 8764   1.660   3.381  15.988 -0.2108 -0.2243 -0.1870
  587TMC3    O2 8765   1.594   3.798  16.233  0.3263  0.1833 -0.8511
  588TMC3    C1 8766   3.202   1.878   9.605 -0.4249  0.7609 -0.7277
  588TMC3    C2 8767   3.129   1.772   9.555 -0.1317  0.5654 -0.5747
  588TMC3    C3 8768   3.190   1.650   9.572 -0.3298  0.2800  0.5787
  588TMC3    C4 8769   3.330   1.867   9.643 -0.1167 -0.8423 -0.4983
  588TMC3    C5 8770   3.385   1.746   9.652 -0.3221 -0.0733 -1.2034
  588TMC3    C6 8771   3.323   1.634   9.615 -0.0663  0.0023  0.0550
  588TMC3     C 8772   3.142   2.015   9.611 -0.4952  0.1396 -0.1904
  588TMC3     O 8773   3.033   2.034   9.558  0.7954 -0.9399 -0.4078
  588TMC3     H 8774   3.024   1.785   9.533 -0.3172 -0.3055 -0.1803
  588TMC3    H1 8775   3.396   1.954   9.647 -0.2515 -0.8326  1.3974
  588TMC3    H2 8776   3.376   1.540   9.629 -2.1614 -0.9578  1.6527
  588TMC3    C7 8777   3.512   1.740   9.726 -0.3233 -0.1436 -0.4912
  588TMC3    C8 8778   3.101   1.537   9.552 -0.0046 -0.0783  0.2343
  588TMC3    O1 8779   3.584   1.648   9.698 -0.1981 -0.4009  0.1935
  588TMC3    O2 8780   2.984   1.564   9.550 -0.3511  0.0104  0.0242
  589TMC3    C1 8781   2.308   3.649   0.844  0.2841 -0.4260  0.8116
  589TMC3    C2 8782   2.377   3.742   0.912  0.0709 -0.0225  0.0824
  589TMC3    C3 8783   2.507   3.722   0.950  0.3218 -0.2233 -0.1340
  589TMC3    C4 8784   2.369   3.526   0.816  0.3063  0.2532 -1.3504
  589TMC3    C5 8785   2.492   3.501   0.872 -0.1884  0.0461 -0.0541
  589TMC3    C6 8786   2.563   3.594   0.939 -0.2305  0.0865 -0.0299
  589TMC3     C 8787   2.178   3.665   0.787  0.3798  0.3017  0.5170
  589TMC3     O 8788   2.152   3.583   0.699 -0.4258 -0.1303 -0.7613
  589TMC3     H 8789   2.329   3.839   0.916 -0.3036 -0.1109 -2.4493
  589TMC3    H1 8790   2.327   3.446   0.756 -1.2323 -0.9367  1.3512
  589TMC3    H2 8791   2.655   3.572   0.992 -1.0333  2.0875  2.1557
  589TMC3    C7 8792   2.553   3.366   0.851  0.5345  0.3228 -0.1044
  589TMC3    C8 8793   2.567   3.817   1.038  0.1320  0.1356  0.3983
  589TMC3    O1 8794   2.498   3.289   0.772  0.3305 -0.6914  0.3854
  589TMC3    O2 8795   2.476   3.888   1.085 -0.4060  0.3394 -0.6188
  590MPD2     C 8796   2.052   1.566  15.817  0.2071 -1.4249  0.3564
  590MPD2    C1 8797   2.081   1.658  15.921  0.3656  0.0927  0.5427
  590MPD2    C2 8798   2.199   1.731  15.918 -0.0699 -0.3070  0.0760
  590MPD2    C3 8799   2.294   1.715  15.817  0.0902 -0.7955  0.6193
  590MPD2    C4 8800   2.269   1.620  15.724 -1.1143 -0.5961  0.5932
  590MPD2    C5 8801   2.160   1.538  15.732 -0.6064 -0.6046  0.4279
  590MPD2     H 8802   2.209   1.813  15.988  1.1249 -1.3987  1.1804
  590MPD2    H1 8803   2.337   1.598  15.642 -1.4281 -0.1548  0.2132
  590MPD2    H2 8804   1.964   1.503  15.809 -1.1695  0.8011 -1.8908
  590MPD2    H3 8805   2.134   1.467  15.655  0.4324  0.0959 -0.5676
  590MPD2     N 8806   2.398   1.812  15.805 -0.1358  0.2670 -0.1964
  590MPD2    H5 8807   2.397   1.879  15.881 -0.7591 -0.8168  0.7302
  590MPD2    N1 8808   1.967   1.687  16.005 -0.2225 -0.0370 -0.0147
  590MPD2    H7 8809   1.876   1.652  15.977 -0.8193  2.3035 -0.9763
  591TMC3    C1 8810   2.536   1.964  15.686 -0.5307 -0.1156 -0.2249
  591TMC3    C2 8811   2.613   1.984  15.582  0.0679 -0.4305 -0.0800
  591TMC3    C3 8812   2.669   2.109  15.556  0.1687  0.5938  0.0870
  591TMC3    C4 8813   2.499   2.069  15.766  0.3559 -0.5769  0.6775
  591TMC3    C5 8814   2.562   2.184  15.743  0.2074 -0.0192  0.5528
  591TMC3    C6 8815   2.643   2.211  15.634 -0.0379 -0.5831 -0.2598
  591TMC3     C 8816   2.478   1.832  15.694 -0.0463  0.0398  0.1499
  591TMC3     O 8817   2.475   1.767  15.589 -0.4687  0.1357 -0.5248
  591TMC3     H 8818   2.641   1.901  15.518  2.5839  0.0612  0.3931
  591TMC3    H1 8819   2.427   2.052  15.846  0.2211 -1.5262  0.3499
  591TMC3    H2 8820   2.715   2.292  15.643  0.4113 -0.8859 -1.0747
  591TMC3    C7 8821   2.532   2.291  15.833  0.7252 -0.4044  0.4853
  591TMC3    C8 8822   2.771   2.119  15.459 -0.8255 -0.3175  0.1168
  591TMC3    O1 8823   2.480   2.262  15.939  0.2995  0.8817  0.2770
  591TMC3    O2 8824   2.830   2.013  15.436  0.1212  0.0400 -0.0576
  592MPD2     C 8825   2.425   3.765  11.257  0.9196  0.0254 -0.1607
  592MPD2    C1 8826   2.350   3.853  11.331 -0.0012 -0.3215 -0.0692
  592MPD2    C2 8827   2.239   3.799  11.403  0.6551 -0.0587  0.3077
  592MPD2    C3 8828   2.222   3.665  11.415  0.9299 -0.4044  0.4580
  592MPD2    C4 8829   2.302   3.580  11.345  0.5402  1.3257  1.0208
  592MPD2    C5 8830   2.396   3.629  11.255  0.8144  0.6465  0.2754
  592MPD2     H 8831   2.183   3.870  11.464 -0.7721 -0.5917 -0.3885
  592MPD2    H1 8832   2.302   3.472  11.354 -1.3137  1.5135  3.1985
  592MPD2    H2 8833   2.520   3.799  11.217 -0.0827  2.7524 -0.1826
  592MPD2    H3 8834   2.468   3.565  11.205 -0.3075 -0.2569 -0.1688
  592MPD2     N 8835   2.129   3.622  11.517 -0.0375  0.8587  0.1100
  592MPD2    H5 8836   2.059   3.691  11.545  0.3485  0.1339  2.8459
  592MPD2    N1 8837   2.391   3.992  11.328  0.3856  0.7117  0.1135
  592MPD2    H7 8838   2.467   4.018  11.267  2.1793  0.8866  2.4116
  593TMC3    C1 8839   2.422   4.218  11.420  0.3252 -0.6914 -0.0307
  593TMC3    C2 8840   2.465   4.264  11.539 -0.0051 -0.5279 -0.7215
  593TMC3    C3 8841   2.555   4.369  11.544  0.4768 -0.8934  0.4870
  593TMC3    C4 8842   2.482   4.261  11.303 -0.3702  0.0419 -0.2228
  593TMC3    C5 8843   2.573   4.367  11.322  0.7451  0.6272 -1.2246
  593TMC3    C6 8844   2.607   4.429  11.433  0.1114 -0.5106  0.9368
  593TMC3     C 8845   2.351   4.087  11.418  0.2114 -0.2377 -0.3352
  593TMC3     O 8846   2.291   4.064  11.518  0.1507  0.1024  0.0928
  593TMC3     H 8847   2.430   4.206  11.623  0.3952 -2.2613 -1.7360
  593TMC3    H1 8848   2.453   4.212  11.210 -0.1126 -2.2596  0.8918
  593TMC3    H2 8849   2.681   4.508  11.439 -1.3841  1.1635 -2.6806
  593TMC3    C7 8850   2.648   4.400  11.204  0.0143 -0.3367  0.2741
  593TMC3    C8 8851   2.541   4.444  11.665 -0.3829  0.3300 -0.6087
  593TMC3    O1 8852   2.685   4.513  11.210 -0.7943 -0.4169 -0.0292
  593TMC3    O2 8853   2.440   4.420  11.735  0.0637 -0.3027 -0.7215
  594MPD2     C 8854   1.940   2.913  13.903  0.6335 -0.5842 -0.4922
  594MPD2    C1 8855   1.907   2.922  14.038  0.5665 -0.1758 -0.0418
  594MPD2    C2 8856   1.971   3.016  14.122 -0.2555 -0.2151  0.2343
  594MPD2    C3 8857   2.066   3.102  14.066  0.4030  0.1982 -0.5408
  594MPD2    C4 8858   2.101   3.087  13.936  0.3286  0.1797  0.4269
  594MPD2    C5 8859   2.035   3.000  13.850 -0.1424  0.1576 -0.5348
  594MPD2     H 8860   1.947   3.018  14.227  1.3768 -1.8714  0.6306
  594MPD2    H1 8861   2.179   3.151  13.897  0.2469 -0.4495 -0.7847
  594MPD2    H2 8862   1.911   2.834  13.835  0.8142 -0.4728 -0.6983
  594MPD2    H3 8863   2.066   2.991  13.747 -1.1198  2.4430 -1.0313
  594MPD2     N 8864   2.110   3.200  14.152  0.7994 -0.2599 -0.2032
  594MPD2    H5 8865   2.069   3.197  14.245 -0.1703  2.5257 -0.5454
  594MPD2    N1 8866   1.807   2.838  14.082 -0.3747 -0.0751 -0.2186
  594MPD2    H7 8867   1.756   2.792  14.008  1.2267  3.2052 -3.3558
  595TMC3    C1 8868   2.340   3.560  14.346  0.3782 -0.3179  0.3857
  595TMC3    C2 8869   2.329   3.467  14.239 -0.4848 -0.5099  0.2873
  595TMC3    C3 8870   2.217   3.382  14.237  0.0913 -0.2319  0.8308
  595TMC3    C4 8871   2.248   3.557  14.443  0.0478 -0.0282  0.0127
  595TMC3    C5 8872   2.142   3.477  14.432 -0.7213  0.1506  0.1589
  595TMC3    C6 8873   2.118   3.388  14.329 -0.5038  0.2712  0.0214
  595TMC3     C 8874   2.465   3.617  14.377  0.4890 -0.1920 -0.7797
  595TMC3     O 8875   2.456   3.721  14.435  0.3203  0.1693  0.0874
  595TMC3     H 8876   2.387   3.477  14.148  0.0043  1.0796  0.7753
  595TMC3    H1 8877   2.248   3.639  14.512 -0.1482 -1.5984  1.8730
  595TMC3    H2 8878   2.029   3.326  14.331  2.1417 -3.5761 -0.9787
  595TMC3    C7 8879   2.030   3.505  14.511 -0.5577  0.0475 -0.3008
  595TMC3    C8 8880   2.188   3.306  14.125 -1.0367  0.1230 -0.6437
  595TMC3    O1 8881   1.920   3.489  14.461 -0.3385 -0.0005  0.0643
  595TMC3    O2 8882   2.240   3.339  14.019  1.0737 -1.2874  0.9807
  596MPD2     C 8883   0.633   1.070  16.707 -0.6674 -0.3007  0.2732
  596MPD2    C1 8884   0.653   1.183  16.638  0.2477  0.0116  0.1531
  596MPD2    C2 8885   0.692   1.167  16.505 -0.3087  0.7154  0.0731
  596MPD2    C3 8886   0.711   1.041  16.447  0.7044 -0.7652 -0.3183
  596MPD2    C4 8887   0.676   0.931  16.518  1.0575 -0.1215 -0.4691
  596MPD2    C5 8888   0.638   0.952  16.647  0.0381 -0.3972 -0.1244
  596MPD2     H 8889   0.719   1.254  16.445  1.2155 -0.6357 -1.2181
  596MPD2    H1 8890   0.674   0.832  16.474  1.1130 -0.1424 -0.4231
  596MPD2    H2 8891   0.609   1.082  16.812  1.7589 -0.9725  0.9090
  596MPD2    H3 8892   0.604   0.861  16.695 -0.5241 -0.6769 -1.0660
  596MPD2     N 8893   0.763   1.016  16.312  0.4705  0.0360 -0.1795
  596MPD2    H5 8894   0.748   0.919  16.285  0.0917 -0.0834  0.4532
  596MPD2    N1 8895   0.622   1.310  16.688  0.7808  0.6941 -0.2180
  596MPD2    H7 8896   0.652   1.388  16.630 -0.6866  1.1380 -0.3845
  597TMC3    C1 8897   0.509   1.489  16.793  0.5615  0.0945 -0.5320
  597TMC3    C2 8898   0.565   1.584  16.707  0.3036 -0.1614 -0.4480
  597TMC3    C3 8899   0.545   1.713  16.741  0.8444  0.2790  0.4316
  597TMC3    C4 8900   0.427   1.529  16.896  0.2690  0.2667 -0.6508
  597TMC3    C5 8901   0.413   1.655  16.940 -0.3053  0.2748 -0.4403
  597TMC3    C6 8902   0.475   1.748  16.861 -0.1936 -0.1863 -0.1688
  597TMC3     C 8903   0.531   1.345  16.782 -0.7023 -0.2918  0.4065
  597TMC3     O 8904   0.459   1.272  16.845 -0.1734  0.0887 -0.4317
  597TMC3     H 8905   0.630   1.556  16.625 -0.5941 -3.0092 -0.2053
  597TMC3    H1 8906   0.380   1.452  16.956  1.4937  0.3194  0.3788
  597TMC3    H2 8907   0.463   1.852  16.890 -2.9877  0.3734 -3.3025
  597TMC3    C7 8908   0.290   1.678  17.011  0.3156 -0.5198 -0.0117
  597TMC3    C8 8909   0.636   1.800  16.663 -0.0276 -0.1246 -0.3669
  597TMC3    O1 8910   0.239   1.590  17.079  0.2125 -0.1511 -0.2861
  597TMC3    O2 8911   0.715   1.742  16.590 -0.0755 -0.1049  0.3549
  598TMC3    C1 8912   3.507   2.602  14.991  0.3474 -0.1775  0.0276
  598TMC3    C2 8913   3.399   2.519  14.953 -0.0049  0.2387  0.8949
  598TMC3    C3 8914   3.364   2.511  14.824  0.3543 -0.6720  0.2131
  598TMC3    C4 8915   3.568   2.689  14.904 -0.2038  0.4998  0.0539
  598TMC3    C5 8916   3.521   2.684  14.773 -1.0052 -0.4835 -0.2966
  598TMC3    C6 8917   3.424   2.593  14.734 -0.5512  0.7035  0.5932
  598TMC3     C 8918   3.556   2.602  15.128 -0.2677  0.0509  0.2597
  598TMC3     O 8919   3.638   2.690  15.154 -0.1898 -0.3157 -0.0712
  598TMC3     H 8920   3.362   2.443  15.020 -1.6017 -0.1929 -0.4675
  598TMC3    H1 8921   3.636   2.761  14.949 -1.4713  0.3955  2.1389
  598TMC3    H2 8922   3.395   2.594  14.629  1.2369  0.1128  0.0919
  598TMC3    C7 8923   3.572   2.783  14.676 -0.1862 -0.1935  0.6559
  598TMC3    C8 8924   3.299   2.389  14.780  0.2686  0.2100 -0.0720
  598TMC3    O1 8925   3.542   2.773  14.555 -0.4085  0.2877  0.3095
  598TMC3    O2 8926   3.330   2.348  14.670  0.4770  0.0885  0.2071
  599MPD2     C 8927   3.785   0.313  15.748  0.0637 -0.0713  1.0698
  599MPD2    C1 8928   3.736   0.188  15.791 -0.0875  0.0840  0.3253
  599MPD2    C2 8929   3.619   0.183  15.864 -0.1033 -0.0149 -0.5977
  599MPD2    C3 8930   3.568   0.301  15.917 -0.8808 -0.1281 -0.4185
  599MPD2    C4 8931   3.628   0.422  15.879  0.7569  0.4987 -0.0037
  599MPD2    C5 8932   3.735   0.429  15.788  0.0674  0.0341 -0.7719
  599MPD2     H 8933   3.582   0.085  15.893  1.3199  0.2057  1.9293
  599MPD2    H1 8934   3.584   0.511  15.924  0.1358  0.6619 -0.9412
  599MPD2    H2 8935   3.866   0.311  15.676  1.8325 -1.4689  3.1165
  599MPD2    H3 8936   3.774   0.521  15.746 -0.9950 -0.4775 -2.8868
  599MPD2     N 8937   3.465   0.310  16.019  0.0438  0.0423  0.0036
  599MPD2    H5 8938   3.451   0.406  16.049  1.1222 -0.0637  0.8532
  599MPD2    N1 8939   3.812   0.073  15.751 -0.8229 -0.3750 -0.3406
  599MPD2    H7 8940   3.900   0.104  15.711 -1.2360 -1.0124 -1.7607
  600TMC3    C1 8941   3.305   0.246  16.181 -0.2617 -0.4277 -0.3487
  600TMC3    C2 8942   3.266   0.138  16.256  0.2828 -0.3509  0.0411
  600TMC3    C3 8943   3.202   0.166  16.373  0.1695 -0.1356  0.7791
  600TMC3    C4 8944   3.295   0.381  16.218  1.0648  0.3964 -0.6319
  600TMC3    C5 8945   3.226   0.395  16.337  0.2297 -0.4061  0.0585
  600TMC3    C6 8946   3.171   0.292  16.413 -0.1650  0.0994  0.3324
  600TMC3     C 8947   3.399   0.207  16.074  0.0388 -0.7319  0.1387
  600TMC3     O 8948   3.409   0.084  16.053  0.3522  0.5999 -0.6873
  600TMC3     H 8949   3.292   0.035  16.233 -0.3854 -0.2026 -1.3867
  600TMC3    H1 8950   3.320   0.464  16.153 -0.7759  3.6879  2.8995
  600TMC3    H2 8951   3.121   0.319  16.505  0.5315  3.9767 -0.4235
  600TMC3    C7 8952   3.179   0.528  16.360 -0.4424  0.2277  0.0127
  600TMC3    C8 8953   3.095   0.068  16.400 -0.5817 -0.2371 -0.3961
  600TMC3    O1 8954   3.068   0.539  16.409  0.3942 -0.1588 -0.5548
  600TMC3    O2 8955   3.106   0.012  16.510  0.0539 -0.0488 -0.1986
  601MPD2     C 8956   1.150   3.069   0.189 -0.0798  0.2025  0.3212
  601MPD2    C1 8957   1.015   3.073   0.170 -0.4984 -0.3017  0.9529
  601MPD2    C2 8958   0.928   2.978   0.228 -0.2902 -0.7887 -0.2350
  601MPD2    C3 8959   0.978   2.882   0.309  0.4175 -1.3403  0.2359
  601MPD2    C4 8960   1.119   2.880   0.324 -0.1588 -0.1527  0.9939
  601MPD2    C5 8961   1.208   2.973   0.265 -0.6286 -0.0446 -0.3900
  601MPD2     H 8962   0.822   2.982   0.205 -0.6496  1.9128  2.0187
  601MPD2    H1 8963   1.171   2.796   0.368  0.5198 -1.7601 -2.9685
  601MPD2    H2 8964   1.223   3.126   0.133  1.2961 -0.7404  1.1499
  601MPD2    H3 8965   1.316   2.960   0.263 -0.0264  4.7895  0.0599
  601MPD2     N 8966   0.895   2.788   0.368  0.1048 -0.0664 -0.2682
  601MPD2    H5 8967   0.936   2.709   0.416 -2.5115 -2.4335 -1.9129
  601MPD2    N1 8968   0.956   3.156   0.079 -0.1128 -0.2147 -0.0949
  601MPD2    H7 8969   0.855   3.146   0.068 -0.2171  0.9179 -0.1545
  602TMC3    C1 8970   0.928   3.316  17.670 -0.0613  1.0531  0.1703
  602TMC3    C2 8971   0.963   3.439  17.616 -0.0991 -0.4043  0.1794
  602TMC3    C3 8972   0.897   3.477  17.507 -0.3707 -0.3160  0.2608
  602TMC3    C4 8973   0.829   3.238  17.625 -0.2791 -0.0694  0.8520
  602TMC3    C5 8974   0.774   3.273  17.502 -0.1165  0.5594 -0.4007
  602TMC3    C6 8975   0.802   3.396  17.450  1.2709  0.1265  0.8137
  602TMC3     C 8976   1.017   3.262   0.017  0.3590  0.1138  0.0814
  602TMC3     O 8977   1.132   3.304   0.014 -0.0755 -0.0953 -0.3297
  602TMC3     H 8978   1.037   3.505  17.659  0.9669 -1.2337 -0.3928
  602TMC3    H1 8979   0.808   3.136  17.653 -2.9865  0.0637 -0.7023
  602TMC3    H2 8980   0.768   3.414  17.349 -0.5675 -1.9469  1.0489
  602TMC3    C7 8981   0.665   3.184  17.454  0.3989  0.4247  0.1174
  602TMC3    C8 8982   0.898   3.617  17.455 -0.7128 -0.1694 -0.0093
  602TMC3    O1 8983   0.635   3.087  17.518 -1.0160  0.4088 -0.1613
  602TMC3    O2 8984   1.000   3.684  17.467  0.0308  0.2348 -0.0807
  603TMC3    C1 8985   3.255   3.903  11.119 -0.4595 -0.3191  0.2934
  603TMC3    C2 8986   3.345   3.877  11.222  0.3733 -0.0703 -0.3401
  603TMC3    C3 8987   3.473   3.914  11.200 -0.3896  0.0341 -0.1862
  603TMC3    C4 8988   3.295   3.947  10.991  0.5650 -0.8075  0.0362
  603TMC3    C5 8989   3.429   3.974  10.976  0.2323  0.3464 -0.4327
  603TMC3    C6 8990   3.522   3.961  11.084 -0.0384  0.5754  0.6463
  603TMC3     C 8991   3.121   3.846  11.135  0.3360 -0.9145 -0.4235
  603TMC3     O 8992   3.046   3.821  11.038  0.4057  0.0977  0.0174
  603TMC3     H 8993   3.315   3.829  11.315 -1.9438 -1.5884 -1.8834
  603TMC3    H1 8994   3.220   3.978  10.920  0.3813 -2.4040 -0.4605
  603TMC3    H2 8995   3.621   4.005  11.085  0.8204 -1.3656  2.5848
  603TMC3    C7 8996   3.475   4.016  10.845  0.2922 -0.6465 -0.0134
  603TMC3    C8 8997   3.568   3.872  11.300 -0.4576 -0.6287  1.0042
  603TMC3    O1 8998   3.574   4.082  10.862 -0.6132  0.0583 -0.2639
  603TMC3    O2 8999   3.528   3.778  11.366 -0.2635 -0.3747 -0.0671
  604MPD2     C 9000   4.704   2.519  16.347  0.4681  0.4466 -0.0466
  604MPD2    C1 9001   4.595   2.441  16.308  0.0603  0.1106  0.2112
  604MPD2    C2 9002   4.599   2.383  16.183  0.0294  0.1578  0.5572
  604MPD2    C3 9003   4.701   2.403  16.093 -0.7761  0.1956  0.4870
  604MPD2    C4 9004   0.068   2.484  16.132 -0.0137  0.0496  0.3817
  604MPD2    C5 9005   0.071   2.537  16.262 -0.4430  0.3525  0.1845
  604MPD2     H 9006   4.523   2.311  16.157  1.1496 -0.4620 -1.0080
  604MPD2    H1 9007   0.146   2.502  16.059 -1.7644 -2.1665 -2.0471
  604MPD2    H2 9008   4.707   2.573  16.441  1.6385 -2.6507  1.6851
  604MPD2    H3 9009   0.160   2.589  16.296 -0.7178  0.6529  0.4487
  604MPD2     N 9010   4.690   2.345  15.964 -0.1394  0.2062  0.0791
  604MPD2    H5 9011   4.602   2.301  15.938 -0.0603  0.6465 -0.9540
  604MPD2    N1 9012   4.490   2.425  16.400  0.4515 -0.6798  0.6711
  604MPD2    H7 9013   4.504   2.467  16.491 -0.1323  1.2431 -0.1401
  605TMC3    C1 9014   4.290   2.361  16.499  0.6715 -1.0889 -0.8884
  605TMC3    C2 9015   4.365   2.402  16.604 -0.5390  0.4577 -0.0932
  605TMC3    C3 9016   4.338   2.515  16.680 -0.6503 -0.0234 -0.6602
  605TMC3    C4 9017   4.169   2.421  16.483 -0.3251  0.7680  0.6603
  605TMC3    C5 9018   4.142   2.534  16.554 -0.1530 -0.2920  0.0311
  605TMC3    C6 9019   4.224   2.588  16.648  0.0154  0.2467 -0.0276
  605TMC3     C 9020   4.370   2.365  16.375  0.3752 -0.8667 -0.1014
  605TMC3     O 9021   4.329   2.312  16.275  0.2261 -0.0005  0.0026
  605TMC3     H 9022   4.458   2.351  16.626 -2.2822 -2.0977  1.2598
  605TMC3    H1 9023   4.113   2.409  16.391  0.3229  1.6162  0.1593
  605TMC3    H2 9024   4.200   2.685  16.692 -2.8201  0.3131 -1.7093
  605TMC3    C7 9025   4.018   2.600  16.521  0.0009 -1.0389  0.1714
  605TMC3    C8 9026   4.455   2.592  16.727 -0.4352 -0.2054 -0.0905
  605TMC3    O1 9027   4.008   2.722  16.526  0.2201  0.4059 -0.7349
  605TMC3    O2 9028   4.560   2.586  16.662  0.0541  0.3268  0.1784
  606TMC3    C1 9029   0.310   1.276  17.666 -0.3872 -0.1552  0.4783
  606TMC3    C2 9030   0.320   1.192   0.018 -0.3213 -0.5139 -0.4943
  606TMC3    C3 9031   0.344   1.060  17.740  0.0581  0.3341  0.0580
  606TMC3    C4 9032   0.307   1.243  17.534 -0.2072 -0.0966  0.1912
  606TMC3    C5 9033   0.317   1.107  17.506  0.5322 -0.0167  0.0275
  606TMC3    C6 9034   0.340   1.016  17.608  0.0212  0.0216 -0.1553
  606TMC3     C 9035   0.304   1.418  17.699 -0.7172 -0.0377  0.2841
  606TMC3     O 9036   0.250   1.446   0.053 -0.3118  0.0780 -0.3515
  606TMC3     H 9037   0.332   1.238   0.116 -2.3788  1.1191 -1.0239
  606TMC3    H1 9038   0.288   1.317  17.458 -0.9310  0.3130  0.7772
  606TMC3    H2 9039   0.348   0.911  17.581 -1.2071  0.0313 -0.5299
  606TMC3    C7 9040   0.337   1.072  17.369  0.5841 -0.4576  0.9006
  606TMC3    C8 9041   0.441   0.998   0.081 -0.2860 -0.4571  0.0593
  606TMC3    O1 9042   0.353   1.171  17.299 -0.2623  0.1455 -0.1103
  606TMC3    O2 9043   0.527   1.070   0.126  0.4959  0.0315  0.0550
  607MPD2     C 9044   2.850   4.085  11.314  0.5255  0.5866 -0.0810
  607MPD2    C1 9045   2.923   4.191  11.359 -0.3023  0.3289  0.0900
  607MPD2    C2 9046   2.916   4.231  11.490  0.3621 -0.4130  0.3796
  607MPD2    C3 9047   2.831   4.169  11.581 -0.2800  0.6578  0.6451
  607MPD2    C4 9048   2.751   4.079  11.537  0.8063  0.4103  0.2461
  607MPD2    C5 9049   2.761   4.038  11.408 -0.3004  0.4273 -0.2186
  607MPD2     H 9050   2.993   4.300  11.524  0.7410 -0.6533 -0.0064
  607MPD2    H1 9051   2.684   4.024  11.602  0.4479 -0.9529 -1.2917
  607MPD2    H2 9052   2.838   4.066  11.208  4.3715  2.5556 -0.8677
  607MPD2    H3 9053   2.697   3.959  11.371 -2.1705  1.1804  1.3769
  607MPD2     N 9054   2.848   4.197  11.724  0.1846 -0.3488 -0.4436
  607MPD2    H5 9055   2.929   4.254  11.744 -1.1606  0.9245  1.4168
  607MPD2    N1 9056   3.014   4.265  11.274  0.0581 -0.1402 -0.2840
  607MPD2    H7 9057   3.070   4.337  11.318  3.3437 -2.8599  0.0383
  608TMC3    C1 9058   3.184   4.295  11.131 -0.0573 -0.4164 -0.4599
  608TMC3    C2 9059   3.268   4.292  11.233  0.7278  0.3196  0.4420
  608TMC3    C3 9060   3.396   4.320  11.210 -0.1130 -0.2223 -1.3391
  608TMC3    C4 9061   3.225   4.294  11.000 -0.0465 -0.1208  0.6527
  608TMC3    C5 9062   3.358   4.315  10.982  0.2157 -0.2601 -0.4106
  608TMC3    C6 9063   3.445   4.319  11.088  0.0450 -0.2704 -0.1256
  608TMC3     C 9064   3.063   4.230  11.153 -0.5369 -0.4830  0.6002
  608TMC3     O 9065   3.031   4.142  11.077  0.1015  0.3317  0.4776
  608TMC3     H 9066   3.234   4.265  11.332  3.0494 -1.2859  0.7911
  608TMC3    H1 9067   3.148   4.296  10.923  1.5051 -2.0067 -0.9320
  608TMC3    H2 9068   3.553   4.327  11.078 -0.1021  2.3624  0.5877
  608TMC3    C7 9069   3.386   4.372  10.848 -0.1586 -0.5338  0.2462
  608TMC3    C8 9070   3.491   4.304  11.323 -0.2887  0.7015 -1.0924
  608TMC3    O1 9071   3.296   4.370  10.768  0.2384  0.0805  0.1985
  608TMC3    O2 9072   3.589   4.232  11.303 -0.3247  0.1288 -0.2859
  609TMC3    C1 9073   1.393   2.496   9.157 -0.0077 -0.2415 -0.8450
  609TMC3    C2 9074   1.366   2.393   9.075 -0.1824 -0.1427  0.4585
  609TMC3    C3 9075   1.470   2.292   9.076  0.2150 -0.5810  0.8414
  609TMC3    C4 9076   1.517   2.516   9.220 -0.2898  0.4454  0.2438
  609TMC3    C5 9077   1.609   2.411   9.221  0.1769  0.7992 -0.3271
  609TMC3    C6 9078   1.586   2.304   9.140  0.2905 -1.0483 -0.1032
  609TMC3     C 9079   1.281   2.585   9.180 -0.3594 -0.2150 -0.2410
  609TMC3     O 9080   1.170   2.529   9.164 -0.2452 -0.1736  0.1068
  609TMC3     H 9081   1.290   2.398   8.998 -1.8552 -1.9001  2.0333
  609TMC3    H1 9082   1.545   2.599   9.284 -0.0378 -0.0628  0.7924
  609TMC3    H2 9083   1.654   2.220   9.140 -0.4218 -1.6276 -1.5267
  609TMC3    C7 9084   1.738   2.438   9.270 -0.2657 -0.0868 -0.3132
  609TMC3    C8 9085   1.477   2.195   8.975  0.1763 -0.0930  0.2733
  609TMC3    O1 9086   1.766   2.557   9.293  0.0006  0.0201  0.8339
  609TMC3    O2 9087   1.588   2.165   8.933 -0.2541 -0.0153  0.2663
  610TMC3    C1 9088   3.253   3.838  12.589  0.0575 -0.4799 -0.2929
  610TMC3    C2 9089   3.334   3.913  12.511 -0.6238  0.5468 -0.5011
  610TMC3    C3 9090   3.463   3.926  12.557 -0.1931 -0.6627 -0.1699
  610TMC3    C4 9091   3.296   3.766  12.706 -0.6217 -0.2914 -0.1749
  610TMC3    C5 9092   3.426   3.780  12.738 -0.1355 -0.3250  0.2600
  610TMC3    C6 9093   3.510   3.861  12.664 -0.2362  0.1795 -0.1470
  610TMC3     C 9094   3.116   3.863  12.576  0.1070  0.1408 -0.3483
  610TMC3     O 9095   3.071   3.977  12.549  0.5971  0.3432  0.0767
  610TMC3     H 9096   3.284   3.981  12.443 -0.8441  1.8733  0.9914
  610TMC3    H1 9097   3.227   3.700  12.758 -0.5732 -0.0746  0.1676
  610TMC3    H2 9098   3.617   3.861  12.678 -0.4647  2.3601  1.5847
  610TMC3    C7 9099   3.474   3.712  12.853 -0.6378 -0.5274  0.2471
  610TMC3    C8 9100   3.551   4.021  12.499 -1.2060  0.1566  0.4279
  610TMC3    O1 9101   3.431   3.602  12.879  0.8436 -0.2717  0.0978
  610TMC3    O2 9102   3.657   4.037  12.557 -0.7719 -0.3267  0.0754
  611MPD2     C 9103   2.486   3.641  10.496  0.3523 -0.9126 -0.0567
  611MPD2    C1 9104   2.472   3.677  10.361  0.3693 -0.3660 -0.3466
  611MPD2    C2 9105   2.586   3.692  10.284  0.2125 -0.0993 -0.2218
  611MPD2    C3 9106   2.710   3.687  10.348  0.6230  0.3755  0.1051
  611MPD2    C4 9107   2.725   3.662  10.483  0.4904  0.9210 -0.9700
  611MPD2    C5 9108   2.612   3.624  10.556  0.2571  0.1155 -0.4005
  611MPD2     H 9109   2.579   3.729  10.183  0.1591  0.0246 -0.1735
  611MPD2    H1 9110   2.820   3.682  10.532 -0.0185  0.5565  0.1830
  611MPD2    H2 9111   2.398   3.613  10.554 -0.6307 -3.0188 -2.6019
  611MPD2    H3 9112   2.616   3.606  10.663  0.9923  2.1098 -0.0823
  611MPD2     N 9113   2.829   3.712  10.277 -0.0989 -0.1829 -0.0143
  611MPD2    H5 9114   2.910   3.736  10.335 -0.6183  2.3246 -0.2974
  611MPD2    N1 9115   2.345   3.686  10.306  0.0325 -0.3110  0.0939
  611MPD2    H7 9116   2.266   3.650  10.359  0.5344 -2.4089 -0.5472
  612TMC3    C1 9117   2.975   3.745  10.089  0.3036  0.3794  0.3076
  612TMC3    C2 9118   3.054   3.838  10.153 -0.5044 -0.6992  0.4426
  612TMC3    C3 9119   3.175   3.871  10.095  0.0951 -0.2833  0.1984
  612TMC3    C4 9120   3.010   3.684   9.970  0.0839 -0.1570  0.4022
  612TMC3    C5 9121   3.132   3.723   9.917  0.0694  0.4306 -0.0541
  612TMC3    C6 9122   3.217   3.814   9.976  0.7581 -0.6472  0.0995
  612TMC3     C 9123   2.838   3.724  10.135 -0.6978 -0.7556 -0.1768
  612TMC3     O 9124   2.761   3.673  10.054  0.6558  0.0753  0.0574
  612TMC3     H 9125   3.020   3.885  10.244 -0.8943  2.2962 -1.2413
  612TMC3    H1 9126   2.956   3.603   9.924  0.8363 -0.1813 -0.4225
  612TMC3    H2 9127   3.312   3.838   9.931  0.0675  0.4059 -0.8050
  612TMC3    C7 9128   3.174   3.667   9.796  0.3665  0.2050 -0.0349
  612TMC3    C8 9129   3.263   3.959  10.160  0.7511 -0.4800 -0.5419
  612TMC3    O1 9130   3.290   3.682   9.766 -0.2095  0.2472 -0.0823
  612TMC3    O2 9131   3.331   4.032  10.087 -0.3716  0.0946  0.0899
  613MPD2     C 9132   1.680   0.582  16.777 -0.6834  1.1583  0.6674
  613MPD2    C1 9133   1.724   0.687  16.697 -0.0215  0.6372 -0.4479
  613MPD2    C2 9134   1.680   0.672  16.565 -0.3071  0.5800 -0.5913
  613MPD2    C3 9135   1.615   0.562  16.515  0.1860  0.2012 -0.0100
  613MPD2    C4 9136   1.571   0.458  16.599  0.5683  0.4160 -0.1915
  613MPD2    C5 9137   1.609   0.470  16.728 -0.5281 -0.5025  0.5960
  613MPD2     H 9138   1.701   0.750  16.493 -1.9662  0.5468 -1.1139
  613MPD2    H1 9139   1.510   0.378  16.559 -0.0142  0.5016  0.5309
  613MPD2    H2 9140   1.704   0.576  16.882 -3.5051  0.4305  1.2543
  613MPD2    H3 9141   1.558   0.407  16.800  1.4216  0.1713  2.5795
  613MPD2     N 9142   1.593   0.548  16.376  0.2420 -0.1897  0.0704
  613MPD2    H5 9143   1.563   0.457  16.340  2.5419 -0.9991  0.2106
  613MPD2    N1 9144   1.800   0.787  16.760 -0.2349  0.5032  0.3727
  613MPD2    H7 9145   1.795   0.775  16.861  0.0533  3.0275  0.6786
  614TMC3    C1 9146   1.873   0.929  16.568 -0.1675  0.2948 -0.1340
  614TMC3    C2 9147   1.926   0.829  16.485 -0.2153 -0.3741  0.2881
  614TMC3    C3 9148   1.982   0.865  16.363  0.6643 -0.0799 -0.6121
  614TMC3    C4 9149   1.864   1.057  16.532  0.1159 -0.2587  0.3495
  614TMC3    C5 9150   1.916   1.090  16.405 -1.1373  0.6949  0.1077
  614TMC3    C6 9151   1.973   0.998  16.319  0.7329  0.6483 -0.7501
  614TMC3     C 9152   1.869   0.899  16.710  0.2708  0.0068  0.8536
  614TMC3     O 9153   1.909   0.990  16.780 -0.1830 -0.0017  0.1223
  614TMC3     H 9154   1.935   0.728  16.523 -0.8668 -1.1019 -1.4932
  614TMC3    H1 9155   1.826   1.131  16.602  2.3288  1.1427  0.0926
  614TMC3    H2 9156   2.024   1.034  16.230  1.2871 -2.2445 -1.6141
  614TMC3    C7 9157   1.876   1.222  16.356  0.2802 -0.3561  0.0022
  614TMC3    C8 9158   2.000   0.759  16.268 -0.0785 -0.1041  0.1107
  614TMC3    O1 9159   1.856   1.314  16.437  0.1940  0.4159 -0.1606
  614TMC3    O2 9160   1.964   0.648  16.302 -0.1021  0.0852  0.7812
  615MPD2     C 9161   0.849   2.624  16.125 -0.6766  0.0960  0.2081
  615MPD2    C1 9162   0.867   2.681  15.998 -0.7119  0.2015 -0.3450
  615MPD2    C2 9163   0.819   2.615  15.889 -0.3364  0.0912  0.3696
  615MPD2    C3 9164   0.739   2.504  15.891 -0.2353 -0.3999  1.4285
  615MPD2    C4 9165   0.725   2.446  16.013  0.2337  0.2747 -0.2509
  615MPD2    C5 9166   0.775   2.503  16.127  0.0171  0.4447 -0.0176
  615MPD2     H 9167   0.855   2.654  15.794 -3.2870  1.2799 -0.2661
  615MPD2    H1 9168   0.661   2.362  16.039  1.2252 -1.0007 -1.9913
  615MPD2    H2 9169   0.888   2.666  16.218 -0.9778  0.1937  0.2884
  615MPD2    H3 9170   0.758   2.443  16.216 -1.4202  1.2548  0.2526
  615MPD2     N 9171   0.685   2.458  15.765 -0.7511 -0.2505 -0.1548
  615MPD2    H5 9172   0.711   2.508  15.680  1.8670  1.8866  1.8977
  615MPD2    N1 9173   0.929   2.806  15.980  0.5270  0.3143  0.2090
  615MPD2    H7 9174   0.933   2.849  15.888  2.7611  1.8165  0.9971
  616TMC3    C1 9175   0.998   3.024  16.028 -0.6141  0.0489  0.4342
  616TMC3    C2 9176   1.067   3.100  16.118 -0.3830  0.0536  0.7199
  616TMC3    C3 9177   1.069   3.237  16.093 -0.2814 -0.0429  0.0320
  616TMC3    C4 9178   0.912   3.087  15.941  0.3863  0.1248 -0.3932
  616TMC3    C5 9179   0.911   3.226  15.923 -0.2728  0.5450 -0.1657
  616TMC3    C6 9180   0.987   3.300  16.002 -0.5296 -0.2002 -0.5944
  616TMC3     C 9181   0.963   2.893  16.080 -0.6061  0.4631 -0.1751
  616TMC3     O 9182   0.998   2.864  16.195 -0.6274  0.0038  0.6249
  616TMC3     H 9183   1.133   3.067  16.197  0.0941 -0.5777  0.0541
  616TMC3    H1 9184   0.850   3.033  15.871 -0.1192 -0.1838  0.2868
  616TMC3    H2 9185   0.989   3.408  16.002 -0.2540 -0.2441  4.3589
  616TMC3    C7 9186   0.814   3.291  15.837  0.2271 -0.2944 -0.9788
  616TMC3    C8 9187   1.126   3.326  16.193 -0.1894 -0.0524 -0.3076
  616TMC3    O1 9188   0.725   3.229  15.783  1.1374 -0.1096  0.2554
  616TMC3    O2 9189   1.062   3.429  16.217 -0.0888  0.1870  0.0627
  617MPD2     C 9190   4.170   0.848  13.435  0.5022  0.0251 -0.0697
  617MPD2    C1 9191   4.198   0.762  13.544 -0.4486  0.6074  0.3156
  617MPD2    C2 9192   4.098   0.739  13.635  0.5443 -0.2680  0.3680
  617MPD2    C3 9193   3.968   0.791  13.616  0.5096 -0.3480 -0.2175
  617MPD2    C4 9194   3.947   0.866  13.498  0.1399  0.2622 -0.4609
  617MPD2    C5 9195   4.049   0.888  13.412  0.2158  0.3230 -0.4263
  617MPD2     H 9196   4.115   0.685  13.728 -2.3811 -1.5832  0.1303
  617MPD2    H1 9197   3.850   0.911  13.477 -0.2971 -0.7442 -0.6208
  617MPD2    H2 9198   4.245   0.874  13.361  0.9655 -1.0207  0.0243
  617MPD2    H3 9199   4.041   0.942  13.318 -2.3071  0.3840 -0.1611
  617MPD2     N 9200   3.859   0.769  13.703 -0.0975 -0.3842  0.1178
  617MPD2    H5 9201   3.769   0.799  13.667  1.6054  2.3950 -1.8122
  617MPD2    N1 9202   4.330   0.720  13.569  0.2246 -0.3045  0.2391
  617MPD2    H7 9203   4.406   0.774  13.529 -0.4757 -1.1712 -2.2968
  618TMC3    C1 9204   4.504   0.596  13.619 -0.0060 -0.1963 -0.0213
  618TMC3    C2 9205   4.547   0.506  13.528  1.0093 -0.1887 -0.0267
  618TMC3    C3 9206   4.677   0.515  13.473 -0.3793 -0.0140 -0.0037
  618TMC3    C4 9207   4.570   0.710  13.641  0.8921 -0.4895 -0.5518
  618TMC3    C5 9208   4.700   0.710  13.602  0.4436 -0.1134  0.3991
  618TMC3    C6 9209   0.020   0.620  13.513 -0.4700  0.2377 -0.7547
  618TMC3     C 9210   4.360   0.601  13.629  1.2866  0.5131  0.4429
  618TMC3     O 9211   4.288   0.503  13.641  0.3933  0.1630  0.2926
  618TMC3     H 9212   4.480   0.430  13.489  0.3233  0.7434 -0.6542
  618TMC3    H1 9213   4.536   0.773  13.723  0.0552 -0.9110 -0.5796
  618TMC3    H2 9214   0.125   0.634  13.490  0.0055 -2.0634 -0.0103
  618TMC3    C7 9215   0.048   0.814  13.665  0.1500  0.6184  0.4760
  618TMC3    C8 9216   4.698   0.466  13.343  0.0362  0.3635  0.5641
  618TMC3    O1 9217   0.038   0.825  13.790  0.2390  0.3969  0.2521
  618TMC3    O2 9218   4.603   0.410  13.289  0.0003  0.3365 -0.4307
  619MPD2     C 9219   0.954   2.031  14.016 -0.7807 -0.1687 -0.5745
  619MPD2    C1 9220   0.875   2.093  13.923  0.0221  0.4321 -0.5418
  619MPD2    C2 9221   0.740   2.110  13.941 -0.3546  0.4708  0.2945
  619MPD2    C3 9222   0.684   2.078  14.067 -0.2345 -0.7290  0.3088
  619MPD2    C4 9223   0.770   2.016  14.159  0.3928 -0.8601  0.0680
  619MPD2    C5 9224   0.898   1.991  14.128 -0.8633  0.6743  0.2855
  619MPD2     H 9225   0.684   2.160  13.863  0.7257  1.2859  0.0435
  619MPD2    H1 9226   0.731   1.988  14.256 -3.6171  0.9908 -1.0001
  619MPD2    H2 9227   1.061   2.018  14.006 -0.7684  0.5489 -1.4177
  619MPD2    H3 9228   0.965   1.950  14.203  1.1567  1.0219 -1.3459
  619MPD2     N 9229   0.551   2.092  14.108  0.3828  0.9111 -0.1170
  619MPD2    H5 9230   0.521   2.055  14.198 -0.6381 -2.1256 -1.7058
  619MPD2    N1 9231   0.916   2.136  13.797  0.6567 -0.6320  0.3908
  619MPD2    H7 9232   0.855   2.196  13.743  1.1769 -0.3927  0.0740
  620TMC3    C1 9233   1.054   2.183  13.609  0.3152  0.1323 -0.0562
  620TMC3    C2 9234   0.946   2.176  13.520  0.4049 -0.0827  0.1814
  620TMC3    C3 9235   0.942   2.252  13.398  0.4832 -0.7477 -0.2902
  620TMC3    C4 9236   1.168   2.255  13.576  0.7719 -0.1807 -0.1359
  620TMC3    C5 9237   1.158   2.329  13.460  0.5546 -0.1875  0.2920
  620TMC3    C6 9238   1.054   2.327  13.370  0.6262 -0.0919  0.1949
  620TMC3     C 9239   1.040   2.137  13.744  0.2047  0.0520  0.2092
  620TMC3     O 9240   1.144   2.114  13.809 -0.0263  0.0598  0.2336
  620TMC3     H 9241   0.853   2.131  13.553 -1.1267  1.3555 -2.1508
  620TMC3    H1 9242   1.254   2.267  13.641  0.4347  2.0364 -0.0956
  620TMC3    H2 9243   1.058   2.385  13.278  0.2044 -1.5806 -0.7588
  620TMC3    C7 9244   1.290   2.380  13.425  0.3679 -0.2607 -0.1204
  620TMC3    C8 9245   0.816   2.322  13.373 -0.9156  0.3157  0.2665
  620TMC3    O1 9246   1.370   2.286  13.430  0.6251  0.1305  0.2233
  620TMC3    O2 9247   0.815   2.439  13.395 -0.2038  0.2267 -0.1934
  621MPD2     C 9248   0.796   3.058   9.777  0.2777  0.1492  0.2949
  621MPD2    C1 9249   0.887   2.991   9.856 -0.1978  0.5035  0.2895
  621MPD2    C2 9250   1.014   3.035   9.856  0.1016  0.3199  0.0297
  621MPD2    C3 9251   1.061   3.138   9.772  0.3844  0.2342 -0.4470
  621MPD2    C4 9252   0.970   3.206   9.694 -0.3436  0.1037 -0.1983
  621MPD2    C5 9253   0.843   3.150   9.685  0.3638 -0.0582 -0.5071
  621MPD2     H 9254   1.091   2.987   9.916 -0.2586 -0.3316 -0.0314
  621MPD2    H1 9255   0.999   3.291   9.634  2.1962 -0.2416  0.5304
  621MPD2    H2 9256   0.689   3.042   9.784  0.4024 -0.3203  1.1534
  621MPD2    H3 9257   0.784   3.186   9.602  0.5006  1.1940 -0.0629
  621MPD2     N 9258   1.196   3.178   9.786  0.3126 -0.1009  0.4659
  621MPD2    H5 9259   1.256   3.133   9.855 -0.9838  0.1280  1.7612
  621MPD2    N1 9260   0.840   2.902   9.966 -0.2437  1.0116 -0.3888
  621MPD2    H7 9261   0.741   2.892   9.984 -0.0362  0.7119  0.6109
  622TMC3    C1 9262   0.860   2.776  10.160  0.5396  0.3374 -0.7593
  622TMC3    C2 9263   0.759   2.847  10.218  0.2879 -0.0161 -0.4934
  622TMC3    C3 9264   0.671   2.774  10.302  0.0010 -0.0781  0.4700
  622TMC3    C4 9265   0.883   2.644  10.197  0.8326  0.2983 -0.3951
  622TMC3    C5 9266   0.798   2.577  10.287 -0.0458 -0.6478  0.1040
  622TMC3    C6 9267   0.695   2.644  10.342 -0.2352 -0.4551  0.2205
  622TMC3     C 9268   0.930   2.836  10.047  0.1560  0.4803  0.3834
  622TMC3     O 9269   1.043   2.792  10.036  0.4364 -0.4621 -0.1296
  622TMC3     H 9270   0.747   2.951  10.190 -2.8295 -0.3893 -0.5687
  622TMC3    H1 9271   0.956   2.583  10.145 -0.8521  0.1736 -2.5807
  622TMC3    H2 9272   0.626   2.581  10.396 -2.1135  0.9937 -0.4874
  622TMC3    C7 9273   0.789   2.439  10.289 -0.2500  0.2695  0.9113
  622TMC3    C8 9274   0.539   2.819  10.292  0.0901 -0.2189 -0.5794
  622TMC3    O1 9275   0.773   2.392  10.403 -0.0454  0.3430  0.3136
  622TMC3    O2 9276   0.525   2.926  10.233 -0.5481  0.0983 -0.0986
  623MPD2     C 9277   0.132   2.998  16.071 -0.3788  0.1164 -0.1001
  623MPD2    C1 9278   0.086   2.916  16.174  0.2804 -0.2224 -0.1103
  623MPD2    C2 9279   0.141   2.933  16.302  0.0664 -0.3257 -0.2867
  623MPD2    C3 9280   0.228   3.039  16.339  0.6965 -0.8101 -0.0858
  623MPD2    C4 9281   0.270   3.113  16.238 -0.1445  1.1672  0.3278
  623MPD2    C5 9282   0.217   3.100  16.111  0.3269 -0.3092  0.0490
  623MPD2     H 9283   0.106   2.871  16.384 -0.4263  2.6295  1.7291
  623MPD2    H1 9284   0.343   3.192  16.254  0.1809  0.8762  0.2693
  623MPD2    H2 9285   0.102   2.994  15.967  1.9417  0.2550 -0.7652
  623MPD2    H3 9286   0.247   3.181  16.046  0.1308  1.6955  2.4697
  623MPD2     N 9287   0.268   3.046  16.476 -0.2984  0.2569  0.2173
  623MPD2    H5 9288   0.233   2.975  16.538 -1.3144 -0.7535 -1.5007
  623MPD2    N1 9289   4.735   2.813  16.147  0.3890 -0.2175  0.0469
  623MPD2    H7 9290   4.699   2.776  16.235  0.4656 -0.6999 -0.1270
  624TMC3    C1 9291   0.503   2.896  16.757  0.1041 -0.1329 -0.4147
  624TMC3    C2 9292   0.391   2.871  16.834  0.4682  0.2609  0.1029
  624TMC3    C3 9293   0.285   2.954  16.821  0.2447 -0.2859  0.1784
  624TMC3    C4 9294   0.517   3.002  16.672  0.9963  0.1023 -0.2594
  624TMC3    C5 9295   0.404   3.081  16.656  0.0972 -0.1114  0.3071
  624TMC3    C6 9296   0.291   3.058  16.727 -0.6019  0.4935  0.3331
  624TMC3     C 9297   0.613   2.806  16.773  0.0262 -0.4539  0.1839
  624TMC3     O 9298   0.620   2.746  16.881 -0.7102  0.4060 -0.1445
  624TMC3     H 9299   0.376   2.788  16.903 -0.3264  2.4630  2.5784
  624TMC3    H1 9300   0.611   3.010  16.619  0.0719 -0.0494 -1.9097
  624TMC3    H2 9301   0.198   3.113  16.716 -0.7825  0.1562  0.1789
  624TMC3    C7 9302   0.375   3.118  16.521  0.9451 -0.2191  0.4057
  624TMC3    C8 9303   0.152   2.897  16.835 -0.6508 -0.8394 -0.4431
  624TMC3    O1 9304   0.444   3.202  16.463 -0.2480 -0.1080 -0.1649
  624TMC3    O2 9305   0.090   2.889  16.731 -0.3718 -0.4970  0.2333
  625MPD2     C 9306   4.717   3.638  17.566 -0.4700  0.2149 -0.1871
  625MPD2    C1 9307   4.736   3.730  17.666 -0.1911 -0.0366  0.8180
  625MPD2    C2 9308   0.099   3.713   0.015 -0.5508  0.9777 -0.8460
  625MPD2    C3 9309   0.163   3.594   0.022 -0.0133 -0.0629 -0.8637
  625MPD2    C4 9310   0.148   3.502  17.670 -0.2947 -0.9777  0.1550
  625MPD2    C5 9311   0.065   3.532  17.566  0.4123 -0.0195  0.2105
  625MPD2     H 9312   0.118   3.789   0.089  0.2402  0.5413 -0.5989
  625MPD2    H1 9313   0.211   3.414  17.669  1.0848 -0.0177  1.2562
  625MPD2    H2 9314   4.647   3.658  17.486  0.7137 -0.8664 -1.4950
  625MPD2    H3 9315   0.061   3.469  17.478  0.6118  2.0447 -1.2817
  625MPD2     N 9316   0.237   3.580   0.145  0.1951  0.3098 -0.5156
  625MPD2    H5 9317   0.228   3.663   0.203 -1.1066 -0.8749  0.9796
  625MPD2    N1 9318   4.656   3.850  17.685  0.5545  0.2090 -0.5470
  625MPD2    H7 9319   4.695   3.921  17.746 -2.3140 -0.6157  2.2466
  626TMC3    C1 9320   4.501   4.026  17.641 -0.0007  0.6318 -0.8207
  626TMC3    C2 9321   4.462   4.099  17.529 -0.1441 -0.4788 -0.0129
  626TMC3    C3 9322   4.435   4.236  17.559  0.1928  0.7131 -0.6306
  626TMC3    C4 9323   4.517   4.080   0.008  0.9236 -0.1024 -0.5257
  626TMC3    C5 9324   4.473   4.208   0.034  0.0441  0.2228  0.0665
  626TMC3    C6 9325   4.437   4.292  17.687  0.2770 -0.3864 -0.1702
  626TMC3     C 9326   4.551   3.894  17.605 -0.1446  0.3577  0.1892
  626TMC3     O 9327   4.492   3.834  17.515  0.3962  0.3450  0.0213
  626TMC3     H 9328   4.457   4.057  17.429 -0.1355 -1.0144  0.2131
  626TMC3    H1 9329   4.547   4.016   0.091  2.4194 -0.0761 -1.0592
  626TMC3    H2 9330   4.441   4.399  17.705  0.3613 -0.1256 -1.7466
  626TMC3    C7 9331   4.498   4.255   0.169 -0.4381  0.5924  0.2898
  626TMC3    C8 9332   4.409   4.312  17.443  0.4563  0.0852 -1.1232
  626TMC3    O1 9333   4.590   4.212   0.234 -0.0022  0.1099  0.0291
  626TMC3    O2 9334   4.447   4.280  17.335 -0.3086 -0.2531 -0.4729
  627MPD2     C 9335   3.645   4.312  14.038 -0.1933 -0.1070 -0.1834
  627MPD2    C1 9336   3.760   4.247  14.067  0.3484  0.0186  0.3202
  627MPD2    C2 9337   3.777   4.114  14.048  1.0326  0.3793 -0.4914
  627MPD2    C3 9338   3.672   4.036  14.011 -0.3666  0.4651  0.2572
  627MPD2    C4 9339   3.548   4.101  13.985 -0.3858 -0.3465 -0.2273
  627MPD2    C5 9340   3.541   4.239  13.995  0.6922 -1.2064 -0.0430
  627MPD2     H 9341   3.868   4.066  14.083  1.0787  1.3848  0.7885
  627MPD2    H1 9342   3.452   4.056  13.961 -1.0599  0.3620  1.1061
  627MPD2    H2 9343   3.625   4.418  14.036 -4.2030 -0.8432  1.3848
  627MPD2    H3 9344   3.453   4.290  13.959  1.8028 -0.2709 -1.4136
  627MPD2     N 9345   3.689   3.891  14.013 -0.1107  0.0148 -0.2668
  627MPD2    H5 9346   3.777   3.849  14.041  1.0910  1.9478 -1.1267
  627MPD2    N1 9347   3.868   4.314  14.133  0.2720  0.4631  0.4918
  627MPD2    H7 9348   3.952   4.265  14.163  0.7462  1.2067  0.3855
  628TMC3    C1 9349   3.974   4.497  14.264 -0.1457 -0.4004 -0.7766
  628TMC3    C2 9350   4.098   4.445  14.240 -0.4342 -0.4069 -0.6975
  628TMC3    C3 9351   4.194   4.502  14.314 -0.0658 -0.4126  0.5336
  628TMC3    C4 9352   3.950   4.608  14.340  0.1658  0.3325 -0.0840
  628TMC3    C5 9353   4.060   4.668  14.402 -0.5645  0.5659  0.2981
  628TMC3    C6 9354   4.179   4.614  14.389  0.3133 -0.3400 -0.5152
  628TMC3     C 9355   3.853   4.439  14.196  0.4391  0.0036 -0.4810
  628TMC3     O 9356   3.749   4.503  14.210  0.5067 -0.1257  0.6808
  628TMC3     H 9357   4.117   4.372  14.162 -0.3487 -1.5820  0.4388
  628TMC3    H1 9358   3.849   4.646  14.346  0.5230  1.3749 -0.5596
  628TMC3    H2 9359   4.262   4.674  14.424 -0.6567  0.1291  0.9564
  628TMC3    C7 9360   4.050   0.066  14.454 -1.3330 -0.1791  0.3940
  628TMC3    C8 9361   4.332   4.453  14.295  0.4981  0.2107 -0.2365
  628TMC3    O1 9362   4.141   0.106  14.521  0.1016 -0.5179 -0.1841
  628TMC3    O2 9363   4.371   4.419  14.185 -0.1383  0.2696  0.0297
  629MPD2     C 9364   1.546   3.498  16.426 -0.5950  0.2298 -0.4223
  629MPD2    C1 9365   1.577   3.380  16.363  0.4576  0.5273 -0.2050
  629MPD2    C2 9366   1.481   3.317  16.296 -0.4083 -0.1153 -0.5323
  629MPD2    C3 9367   1.345   3.367  16.295 -0.0546 -0.3894 -0.1938
  629MPD2    C4 9368   1.311   3.475  16.367 -0.1698 -0.2972 -0.4233
  629MPD2    C5 9369   1.413   3.543  16.428 -0.5007  0.9696  0.0073
  629MPD2     H 9370   1.505   3.226  16.242  1.2063 -0.8225  1.3470
  629MPD2    H1 9371   1.211   3.511  16.387 -0.6060 -3.1906  2.4510
  629MPD2    H2 9372   1.615   3.555  16.487  2.0475 -3.5888  0.1312
  629MPD2    H3 9373   1.386   3.622  16.498  0.9205  1.9910 -0.6091
  629MPD2     N 9374   1.253   3.293  16.213  0.3085  0.0767 -0.3306
  629MPD2    H5 9375   1.289   3.210  16.168  2.6879  1.0782 -0.2715
  629MPD2    N1 9376   1.708   3.341  16.367 -0.9541  0.1073 -0.1461
  629MPD2    H7 9377   1.775   3.398  16.419 -0.6721  0.7802 -1.2560
  630TMC3    C1 9378   1.895   3.241  16.333  0.6347 -0.2797  0.0273
  630TMC3    C2 9379   1.963   3.360  16.308  0.3756  0.5850  0.7075
  630TMC3    C3 9380   2.097   3.356  16.319  0.6442 -0.6117  0.0035
  630TMC3    C4 9381   1.951   3.126  16.366 -0.6992 -0.3394  0.2466
  630TMC3    C5 9382   2.087   3.129  16.376 -0.6500 -0.6626 -0.4627
  630TMC3    C6 9383   2.162   3.242  16.350 -0.1615 -0.6926  0.2948
  630TMC3     C 9384   1.760   3.233  16.304  0.4400  0.1994  0.6388
  630TMC3     O 9385   1.709   3.129  16.260 -0.2799 -0.0792 -0.3169
  630TMC3     H 9386   1.910   3.445  16.268 -2.4762 -1.0423  1.0476
  630TMC3    H1 9387   1.891   3.047  16.409  2.0867 -1.8216  1.3924
  630TMC3    H2 9388   2.269   3.244  16.333 -0.0650 -1.1901  0.8518
  630TMC3    C7 9389   2.154   3.025  16.463 -0.2234  0.6173  0.5650
  630TMC3    C8 9390   2.179   3.474  16.300 -0.3149 -0.0380  1.0979
  630TMC3    O1 9391   2.097   2.920  16.481 -0.4617 -0.2182  0.5405
  630TMC3    O2 9392   2.300   3.453  16.316  0.4102  0.4964  0.6389
  631MPD2     C 9393   0.041   3.025  15.428 -0.0010  0.4921 -0.0710
  631MPD2    C1 9394   0.157   3.014  15.361  0.1984  0.1637  0.5809
  631MPD2    C2 9395   0.237   2.898  15.379  0.0466 -0.0400 -0.0591
  631MPD2    C3 9396   0.192   2.791  15.452 -0.2980 -0.1049  0.0635
  631MPD2    C4 9397   0.085   2.813  15.538 -0.2749  0.2269  0.5344
  631MPD2    C5 9398   0.016   2.926  15.518  0.0560  0.2798 -0.7158
  631MPD2     H 9399   0.334   2.882  15.335 -0.4017  2.6612 -2.0101
  631MPD2    H1 9400   0.046   2.739  15.607 -0.5213  0.3373  0.5110
  631MPD2    H2 9401   4.727   3.121  15.424 -0.9032  0.0292  0.6184
  631MPD2    H3 9402   4.671   2.944  15.584  0.0600  0.7904 -0.8536
  631MPD2     N 9403   0.265   2.677  15.449  0.2979  0.3627  0.5714
  631MPD2    H5 9404   0.354   2.688  15.401 -0.5061 -3.2493 -1.7169
  631MPD2    N1 9405   0.201   3.122  15.282 -0.1508 -0.4258 -0.6963
  631MPD2    H7 9406   0.132   3.197  15.288  1.1738  0.6095  1.4841
  632TMC3    C1 9407   0.339   3.265  15.147  0.1722 -0.4101  0.7807
  632TMC3    C2 9408   0.284   3.380  15.202  0.4800  0.4522 -0.6771
  632TMC3    C3 9409   0.319   3.503  15.158 -0.3667 -0.2674 -0.4504
  632TMC3    C4 9410   0.437   3.277  15.053 -0.1901  0.2664  0.8924
  632TMC3    C5 9411   0.478   3.407  15.015  0.0060  0.0537 -0.3530
  632TMC3    C6 9412   0.420   3.517  15.070  0.2866 -0.1642 -1.0525
  632TMC3     C 9413   0.314   3.133  15.209 -0.1852 -0.1954  0.1412
  632TMC3     O 9414   0.394   3.039  15.187 -0.1016 -0.4687 -0.4043
  632TMC3     H 9415   0.229   3.363  15.294  3.8869  0.1776  1.3291
  632TMC3    H1 9416   0.484   3.190  15.007 -2.3898  0.7004 -2.1447
  632TMC3    H2 9417   0.439   3.619  15.037  0.9369  0.1857  0.4071
  632TMC3    C7 9418   0.513   3.413  14.872  0.1845 -0.0184  0.7207
  632TMC3    C8 9419   0.270   3.617  15.231 -0.1253  0.0077 -0.0427
  632TMC3    O1 9420   0.552   3.310  14.814 -0.6194  0.5432  0.7259
  632TMC3    O2 9421   0.354   3.701  15.261 -0.6263 -0.2322  0.4327
  633MPD2     C 9422   4.546   0.610  16.912 -0.3294 -0.3850  0.0255
  633MPD2    C1 9423   4.666   0.558  16.868  0.5613  0.1041 -0.0991
  633MPD2    C2 9424   4.686   0.424  16.873 -0.1806  0.0135 -0.5549
  633MPD2    C3 9425   4.598   0.333  16.933 -0.5480 -0.1276  0.4249
  633MPD2    C4 9426   4.486   0.383  16.994  0.2582  0.1003  0.0298
  633MPD2    C5 9427   4.459   0.520  16.969 -0.4150  0.6422 -0.0331
  633MPD2     H 9428   0.035   0.382  16.824 -1.3385  1.0606 -3.5165
  633MPD2    H1 9429   4.410   0.323  17.043 -0.1574  0.9904  0.4753
  633MPD2    H2 9430   4.524   0.715  16.899 -1.6112 -0.8671 -1.6591
  633MPD2    H3 9431   4.357   0.547  16.996 -1.1098  0.1297 -2.1402
  633MPD2     N 9432   4.614   0.195  16.968  1.0022  0.0392  0.6330
  633MPD2    H5 9433   4.531   0.149  17.005  0.6866  0.1624  0.0821
  633MPD2    N1 9434   0.027   0.640  16.813 -0.7504 -0.2359 -0.1149
  633MPD2    H7 9435   0.104   0.597  16.763 -0.3282  1.9230 -1.3368
  634TMC3    C1 9436   0.141   0.831  16.753 -0.3299 -0.6203 -0.3064
  634TMC3    C2 9437   0.214   0.754  16.672 -1.0221 -0.4485  0.0130
  634TMC3    C3 9438   0.292   0.819  16.579 -0.8244  0.0050 -0.9643
  634TMC3    C4 9439   0.147   0.971  16.756  0.4978  0.7444  0.2484
  634TMC3    C5 9440   0.230   1.031  16.661 -0.2136  0.1410 -0.3548
  634TMC3    C6 9441   0.307   0.957  16.578 -0.2068 -0.1105  0.4667
  634TMC3     C 9442   0.027   0.778  16.824  0.0415 -0.3328 -0.2840
  634TMC3     O 9443   4.698   0.853  16.891  0.0137 -0.5704  0.3347
  634TMC3     H 9444   0.218   0.645  16.679  0.2707 -0.4480 -0.6927
  634TMC3    H1 9445   0.074   1.022  16.817 -0.3945 -1.5061  1.0656
  634TMC3    H2 9446   0.384   1.010  16.524  0.0462  0.4066  1.3275
  634TMC3    C7 9447   0.226   1.175  16.642  0.8158 -1.3655 -0.6363
  634TMC3    C8 9448   0.362   0.742  16.486 -0.3391 -1.0596  0.1962
  634TMC3    O1 9449   0.270   1.219  16.532  0.0543  0.2704 -0.2796
  634TMC3    O2 9450   0.444   0.795  16.414 -0.4255 -0.4082 -0.1737
  635TMC3    C1 9451   0.210   2.021  17.480 -0.5762 -0.4904 -0.3368
  635TMC3    C2 9452   0.144   1.910  17.505 -0.6189  0.6425 -0.2479
  635TMC3    C3 9453   0.176   1.798  17.436 -0.3687  0.1431  0.1237
  635TMC3    C4 9454   0.313   2.020  17.389 -0.2005  0.2869 -0.1724
  635TMC3    C5 9455   0.337   1.911  17.307  0.2730 -0.1321  0.3129
  635TMC3    C6 9456   0.278   1.788  17.343 -0.5640  0.1585  0.3572
  635TMC3     C 9457   0.238   2.101  17.599  0.2570  0.0348  0.5143
  635TMC3     O 9458   0.303   2.199  17.579  0.1774 -0.7845  0.4736
  635TMC3     H 9459   0.055   1.910  17.567  1.6032 -0.4021  2.9482
  635TMC3    H1 9460   0.380   2.102  17.366  0.4834  0.0706  1.0555
  635TMC3    H2 9461   0.303   1.693  17.297 -0.8675 -0.3337  1.2102
  635TMC3    C7 9462   0.462   1.900  17.239 -0.4536 -0.0530 -0.2570
  635TMC3    C8 9463   0.111   1.674  17.476 -0.4425  0.4817 -0.6122
  635TMC3    O1 9464   0.514   1.790  17.228  0.1707  0.0567 -0.0006
  635TMC3    O2 9465   0.035   1.676  17.573  0.1599 -0.0298  0.3372
  636MPD2     C 9466   1.464   1.246  15.645 -0.1508 -0.8862 -0.6862
  636MPD2    C1 9467   1.460   1.251  15.784 -0.2382  0.8162 -0.0929
  636MPD2    C2 9468   1.509   1.143  15.854  0.8525  0.2491  0.5119
  636MPD2    C3 9469   1.543   1.023  15.791 -0.6274 -0.3835 -0.2940
  636MPD2    C4 9470   1.550   1.024  15.650  0.5866  0.0838  0.4247
  636MPD2    C5 9471   1.509   1.135  15.582  0.0346 -0.1019 -0.7025
  636MPD2     H 9472   1.513   1.148  15.963 -0.3615 -0.4049  0.5882
  636MPD2    H1 9473   1.563   0.935  15.589  0.1047 -0.8729  1.7155
  636MPD2    H2 9474   1.431   1.328  15.583  0.4680  0.2464  0.4869
  636MPD2    H3 9475   1.518   1.135  15.474 -0.7993 -1.4809 -0.7700
  636MPD2     N 9476   1.556   0.910  15.876  0.5493 -0.5152  0.2356
  636MPD2    H5 9477   1.548   0.922  15.976  0.0702  2.1963 -0.1191
  636MPD2    N1 9478   1.406   1.355  15.862 -0.6012 -0.2486  0.1195
  636MPD2    H7 9479   1.408   1.342  15.963 -1.5894  0.2110  0.2047
  637TMC3    C1 9480   1.635   0.684  15.930  0.1785 -0.6941 -0.0546
  637TMC3    C2 9481   1.572   0.698  16.056  0.7380 -0.0013 -0.3159
  637TMC3    C3 9482   1.596   0.604  16.152 -0.4865  0.3333  0.3455
  637TMC3    C4 9483   1.709   0.573  15.899 -0.0261  0.0856  0.0466
  637TMC3    C5 9484   1.734   0.477  16.000  0.0987  0.3924  0.1298
  637TMC3    C6 9485   1.669   0.491  16.128 -0.5883  1.0191 -0.1473
  637TMC3     C 9486   1.617   0.788  15.834 -0.0467 -0.1751 -0.0744
  637TMC3     O 9487   1.642   0.758  15.717 -0.1496  0.4144  0.4207
  637TMC3     H 9488   1.498   0.773  16.079  0.2856 -0.5362 -0.0228
  637TMC3    H1 9489   1.749   0.560  15.799 -2.0360  0.7766 -0.8609
  637TMC3    H2 9490   1.709   0.432  16.210  0.0322  2.2200  0.4150
  637TMC3    C7 9491   1.828   0.371  15.972 -0.1753  0.2338 -0.4509
  637TMC3    C8 9492   1.600   0.648  16.283 -0.1567  0.1370  0.2640
  637TMC3    O1 9493   1.769   0.261  15.967  0.1799 -0.4702  0.2647
  637TMC3    O2 9494   1.612   0.772  16.291 -0.3475 -0.5398 -0.0856
  638MPD2     C 9495   1.444   0.185  14.774  0.1528 -0.1194  0.1481
  638MPD2    C1 9496   1.400   0.086  14.691 -0.0340 -0.1395  0.2352
  638MPD2    C2 9497   1.332   4.726  14.750 -0.0387  0.0370 -0.2484
  638MPD2    C3 9498   1.316   4.707  14.890  0.2768  0.8309  0.0053
  638MPD2    C4 9499   1.362   0.073  14.975 -0.0205 -0.3892  0.4824
  638MPD2    C5 9500   1.430   0.178  14.912  0.2113  0.5174  0.3529
  638MPD2     H 9501   1.301   4.641  14.690  2.3715 -2.3306  1.8496
  638MPD2    H1 9502   1.355   0.080  15.083  2.3808 -1.4106  0.7126
  638MPD2    H2 9503   1.497   0.275  14.746  0.6984 -0.6800 -0.6265
  638MPD2    H3 9504   1.468   0.264  14.966  0.2443  0.1337  0.9375
  638MPD2     N 9505   1.270   4.587  14.939  0.7186 -0.0610 -0.0950
  638MPD2    H5 9506   1.252   4.512  14.872 -1.8485 -0.4425  1.0231
  638MPD2    N1 9507   1.443   0.085  14.555  0.0684  0.0881  0.5581
  638MPD2    H7 9508   1.518   0.148  14.527  2.4471 -2.7132  0.5769
  639TMC3    C1 9509   1.225   4.419  15.081  0.5131  0.2023 -0.5796
  639TMC3    C2 9510   1.128   4.365  14.999  0.3229  0.2292  0.3820
  639TMC3    C3 9511   1.120   4.227  14.985  0.4261  0.1840  0.2197
  639TMC3    C4 9512   1.307   4.338  15.154  0.4803  0.4120  0.0287
  639TMC3    C5 9513   1.300   4.199  15.130  0.1168  0.5335 -0.0655
  639TMC3    C6 9514   1.205   4.143  15.048  1.1861  0.6939 -0.0319
  639TMC3     C 9515   1.244   4.560  15.071 -0.8107  0.3540 -0.2411
  639TMC3     O 9516   1.250   4.638  15.169 -0.1892 -0.2207 -0.2055
  639TMC3     H 9517   1.069   4.429  14.934 -0.5432 -0.4695  0.4851
  639TMC3    H1 9518   1.380   4.388  15.217  2.1475 -1.2663 -0.5663
  639TMC3    H2 9519   1.199   4.038  15.024 -3.0481  0.8479  0.2341
  639TMC3    C7 9520   1.412   4.117  15.168 -0.4011 -0.8973 -0.0657
  639TMC3    C8 9521   1.038   4.169  14.879  0.2306  0.8717  0.3932
  639TMC3    O1 9522   1.396   3.998  15.189  0.0427 -0.8041 -0.0562
  639TMC3    O2 9523   1.080   4.069  14.829  0.2315  0.2649  0.0510
  640MPD2     C 9524   1.102   3.727   9.649 -0.8297  0.6890  0.3949
  640MPD2    C1 9525   1.122   3.705   9.517  0.2289 -0.7447  0.4582
  640MPD2    C2 9526   1.105   3.807   9.425 -0.3890 -0.5663  0.3926
  640MPD2    C3 9527   1.046   3.925   9.468  0.0511  0.1416 -0.5511
  640MPD2    C4 9528   1.027   3.946   9.602 -0.2037  0.9425  0.1957
  640MPD2    C5 9529   1.060   3.847   9.686 -0.5626  0.2310 -0.5510
  640MPD2     H 9530   1.127   3.787   9.321 -1.4373  1.7308 -0.2637
  640MPD2    H1 9531   0.983   4.039   9.635 -0.7137 -0.6787  4.0482
  640MPD2    H2 9532   1.107   3.643   9.717  1.0904  0.6173  0.1588
  640MPD2    H3 9533   1.027   3.861   9.788  2.2017 -1.0140  0.5144
  640MPD2     N 9534   1.018   4.036   9.387  0.0289 -0.0647  0.2179
  640MPD2    H5 9535   0.982   4.120   9.430 -1.7945  0.5945 -2.5967
  640MPD2    N1 9536   1.150   3.573   9.478 -0.2986  0.3094 -0.0467
  640MPD2    H7 9537   1.160   3.515   9.560  1.2128 -1.0067 -1.1755
  641TMC3    C1 9538   1.192   3.383   9.342 -0.4007  0.3237 -0.2712
  641TMC3    C2 9539   1.314   3.355   9.399  0.5592  0.0859  0.6398
  641TMC3    C3 9540   1.374   3.239   9.347 -0.1304 -0.2522 -0.3414
  641TMC3    C4 9541   1.132   3.305   9.247 -0.4778  0.2267  0.1628
  641TMC3    C5 9542   1.202   3.203   9.199 -1.2056  0.1712 -0.7287
  641TMC3    C6 9543   1.315   3.159   9.250  0.2538  0.1333 -0.0290
  641TMC3     C 9544   1.138   3.516   9.354 -0.6465 -0.7097 -0.3454
  641TMC3     O 9545   1.081   3.561   9.259  0.2992 -0.1664  0.1824
  641TMC3     H 9546   1.360   3.429   9.463  1.7123  1.1768 -1.4454
  641TMC3    H1 9547   1.044   3.346   9.199 -0.1822  1.1587  0.4182
  641TMC3    H2 9548   1.369   3.077   9.203 -0.9213 -1.1439  0.8765
  641TMC3    C7 9549   1.137   3.122   9.094 -0.0471  0.4787  0.3258
  641TMC3    C8 9550   1.510   3.206   9.385 -0.9008 -0.0840  0.0551
  641TMC3    O1 9551   1.223   3.052   9.030 -0.0853 -0.3802 -0.1288
  641TMC3    O2 9552   1.555   3.094   9.374  0.4870  0.4623  0.5105
  642TMC3    C1 9553   2.331   4.023  12.550 -0.0219  0.6076  0.6113
  642TMC3    C2 9554   2.318   4.017  12.686  0.2478  0.2547  0.1367
  642TMC3    C3 9555   2.270   3.901  12.741 -0.0863  0.5669 -0.9579
  642TMC3    C4 9556   2.310   3.921  12.464 -0.4264  0.2225  0.4618
  642TMC3    C5 9557   2.261   3.805  12.522 -0.7823  0.1824  0.1059
  642TMC3    C6 9558   2.249   3.793  12.661  0.3309 -0.0318 -0.0183
  642TMC3     C 9559   2.340   4.157  12.491 -0.1450 -0.1109  0.7328
  642TMC3     O 9560   2.365   4.168  12.372  0.2502  0.0374  0.1805
  642TMC3     H 9561   2.342   4.099  12.753 -1.5188  0.9734 -0.1089
  642TMC3    H1 9562   2.333   3.935  12.359 -0.0825  0.0641  0.5169
  642TMC3    H2 9563   2.196   3.708  12.704 -0.6695  0.4881 -0.2243
  642TMC3    C7 9564   2.206   3.717  12.423 -0.0732  0.2087  0.2416
  642TMC3    C8 9565   2.227   3.882  12.879  0.1971  0.4771 -0.4659
  642TMC3    O1 9566   2.237   3.740  12.308  0.4761 -0.1360 -0.0129
  642TMC3    O2 9567   2.191   3.770  12.906  0.3726  0.2831  0.0367
  643TMC3    C1 9568   1.878   3.867  17.542 -0.3009 -0.1642 -0.6154
  643TMC3    C2 9569   1.783   3.915  17.455  0.2968  0.5598 -0.0385
  643TMC3    C3 9570   1.765   3.849  17.337  0.4550  0.7441  0.5980
  643TMC3    C4 9571   1.977   3.774  17.511 -0.3083  0.3000 -0.4747
  643TMC3    C5 9572   1.960   3.724  17.385 -0.3497 -0.1099  0.5502
  643TMC3    C6 9573   1.857   3.756  17.301  0.1604 -0.2067  0.7492
  643TMC3     C 9574   1.880   3.927  17.671 -0.2903  0.1289  0.9101
  643TMC3     O 9575   1.801   4.016  17.703  0.2862 -0.2483  0.2517
  643TMC3     H 9576   1.715   3.997  17.481 -2.0144 -0.7812 -1.8371
  643TMC3    H1 9577   2.062   3.748  17.573 -0.2536 -2.5234 -1.7339
  643TMC3    H2 9578   1.861   3.713  17.202 -0.4500  0.0766  0.6013
  643TMC3    C7 9579   2.050   3.636  17.310 -0.5047  0.1086  0.5360
  643TMC3    C8 9580   1.665   3.886  17.240  0.4542 -0.6410 -0.0984
  643TMC3    O1 9581   2.007   3.519  17.297  0.4201 -0.0252 -0.2618
  643TMC3    O2 9582   1.650   3.799  17.159 -0.7055  0.2978  0.2355
  644MPD2     C 9583   1.122   3.382   8.717  0.6057  0.5224 -0.3874
  644MPD2    C1 9584   1.185   3.397   8.842  0.7507  0.2975  0.0483
  644MPD2    C2 9585   1.128   3.486   8.925  0.8052  0.0175 -0.2664
  644MPD2    C3 9586   1.011   3.552   8.899 -0.0806  0.6096 -0.1071
  644MPD2    C4 9587   0.952   3.553   8.774  0.3394  0.4132  0.5529
  644MPD2    C5 9588   1.008   3.459   8.691  0.1967 -0.1388  0.1420
  644MPD2     H 9589   1.165   3.490   9.027  0.7571 -0.1856 -0.2403
  644MPD2    H1 9590   0.852   3.592   8.763  0.7295  1.1853 -0.2235
  644MPD2    H2 9591   1.160   3.320   8.636 -0.2072 -0.0911 -0.3055
  644MPD2    H3 9592   0.957   3.443   8.597  0.1057  1.2492 -0.0467
  644MPD2     N 9593   0.947   3.608   9.008 -0.4737 -0.1658 -0.5294
  644MPD2    H5 9594   0.990   3.588   9.097 -1.0131  2.0659  0.2449
  644MPD2    N1 9595   1.307   3.333   8.864 -0.5744 -0.1464  0.4415
  644MPD2    H7 9596   1.334   3.261   8.798  0.9883  0.3698  0.5148
  645TMC3    C1 9597   0.780   3.727   9.126 -0.3547 -0.3144 -0.1269
  645TMC3    C2 9598   0.729   3.855   9.135 -0.0152 -0.2618 -0.1169
  645TMC3    C3 9599   0.705   3.899   9.259 -0.4146  0.2974  0.0271
  645TMC3    C4 9600   0.788   3.638   9.229 -0.3238 -0.6504  0.0006
  645TMC3    C5 9601   0.762   3.688   9.352 -0.0331  0.5067 -0.2562
  645TMC3    C6 9602   0.728   3.820   9.367  0.2343 -0.0935 -0.3546
  645TMC3     C 9603   0.840   3.693   9.001  0.1156  0.4261 -0.3668
  645TMC3     O 9604   0.801   3.756   8.909  0.2213  0.5701 -0.0208
  645TMC3     H 9605   0.723   3.909   9.041  0.4233  1.1050  0.6332
  645TMC3    H1 9606   0.815   3.535   9.210 -1.2243 -0.6327 -1.3614
  645TMC3    H2 9607   0.715   3.866   9.464 -0.1908  1.8470 -1.3473
  645TMC3    C7 9608   0.763   3.602   9.467  0.6991 -0.3872  0.0967
  645TMC3    C8 9609   0.657   4.029   9.290 -0.5063  0.2488 -0.0458
  645TMC3    O1 9610   0.820   3.495   9.450  0.1616  0.3876  0.1661
  645TMC3    O2 9611   0.657   4.071   9.403 -0.1000 -0.2506 -0.3146
  646MPD2     C 9612   1.412   3.330  14.378 -0.1341 -0.7232 -1.1383
  646MPD2    C1 9613   1.331   3.370  14.484  0.0804  0.1210  0.4134
  646MPD2    C2 9614   1.219   3.447  14.453 -0.3545  0.6242  0.2143
  646MPD2    C3 9615   1.197   3.489  14.318 -0.2496  0.0346 -0.4068
  646MPD2    C4 9616   1.277   3.440  14.223 -0.0177 -0.5254 -0.1536
  646MPD2    C5 9617   1.386   3.368  14.250  0.4274 -0.1410  0.3599
  646MPD2     H 9618   1.146   3.485  14.524 -0.8576  1.6003 -0.8329
  646MPD2    H1 9619   1.252   3.452  14.118 -1.2769  0.6752  0.2749
  646MPD2    H2 9620   1.503   3.275  14.397  1.1303  1.6486 -0.3159
  646MPD2    H3 9621   1.455   3.350  14.169 -0.6364 -0.8987 -0.3806
  646MPD2     N 9622   1.085   3.571  14.294 -1.1563 -0.2213 -0.5648
  646MPD2    H5 9623   1.019   3.586  14.370  1.7683  0.6614  1.8307
  646MPD2    N1 9624   1.365   3.323  14.611 -0.0193  0.0460  0.7007
  646MPD2    H7 9625   1.447   3.264  14.620 -0.6870 -0.6326  2.4709
  647TMC3    C1 9626   1.372   3.333  14.854 -0.4088 -0.2386  0.4456
  647TMC3    C2 9627   1.307   3.337  14.972 -0.1967 -0.5032  0.1429
  647TMC3    C3 9628   1.383   3.353  15.087 -0.3406 -0.6577  0.0485
  647TMC3    C4 9629   1.508   3.330  14.848  0.7543  0.0495 -0.2589
  647TMC3    C5 9630   1.578   3.344  14.963  0.2491 -0.0389 -1.1371
  647TMC3    C6 9631   1.518   3.366  15.077 -0.5981 -0.0993  0.1680
  647TMC3     C 9632   1.293   3.343  14.725 -0.2332 -0.2170 -0.1481
  647TMC3     O 9633   1.181   3.388  14.734 -0.2061 -0.3477 -0.4245
  647TMC3     H 9634   1.199   3.331  14.979 -0.1872 -0.3015  0.4986
  647TMC3    H1 9635   1.559   3.321  14.752  1.8384  1.0919  0.2100
  647TMC3    H2 9636   1.580   3.356  15.166 -0.4181 -0.1817  0.0313
  647TMC3    C7 9637   1.713   3.308  14.977  0.3093 -0.7440  1.2062
  647TMC3    C8 9638   1.343   3.272  15.197  0.1516 -0.1481 -0.2782
  647TMC3    O1 9639   1.773   3.350  15.074  1.2791 -0.2515 -0.0635
  647TMC3    O2 9640   1.424   3.196  15.246  0.8828 -0.0172 -0.4321
  648TMC3    C1 9641   0.844   1.070  16.093  0.8064  0.2712  0.3142
  648TMC3    C2 9642   0.859   0.939  16.067 -0.2031 -0.3704  0.2537
  648TMC3    C3 9643   0.859   0.895  15.939 -0.5830 -0.2923  0.2266
  648TMC3    C4 9644   0.787   1.153  16.000 -0.0545 -0.2658 -0.3485
  648TMC3    C5 9645   0.777   1.109  15.874 -0.2732 -0.8566  0.6805
  648TMC3    C6 9646   0.825   0.980  15.837 -0.2499 -0.1667 -0.3568
  648TMC3     C 9647   0.817   1.115  16.229  0.3216  0.5744  0.4980
  648TMC3     O 9648   0.819   1.236  16.244 -0.4812 -0.0097 -0.8854
  648TMC3     H 9649   0.898   0.874  16.145  1.1463  0.3134  0.1427
  648TMC3    H1 9650   0.770   1.257  16.027  0.1723 -0.1795 -0.5450
  648TMC3    H2 9651   0.812   0.942  15.736 -0.6853  0.6945 -0.6211
  648TMC3    C7 9652   0.688   1.172  15.779 -0.4540  0.0687 -0.4999
  648TMC3    C8 9653   0.847   0.750  15.912  0.2687  0.1150  0.1547
  648TMC3    O1 9654   0.698   1.168  15.656  0.4719 -0.0409  0.3709
  648TMC3    O2 9655   0.778   0.688  15.989  0.8432  0.3004  0.0817
  649TMC3    C1 9656   3.895   2.085  12.797  0.2052 -0.6813  0.0100
  649TMC3    C2 9657   3.985   2.123  12.708 -0.0382  0.7305 -0.0438
  649TMC3    C3 9658   4.120   2.090  12.718 -0.5080 -0.4668 -0.5057
  649TMC3    C4 9659   3.923   2.013  12.906  0.6016 -0.4930 -1.1190
  649TMC3    C5 9660   4.060   1.973  12.907 -0.7851 -0.1758  1.0331
  649TMC3    C6 9661   4.158   2.003  12.820  0.1821  0.0174 -0.1556
  649TMC3     C 9662   3.762   2.140  12.790 -0.2066 -0.0402 -0.3528
  649TMC3     O 9663   3.742   2.243  12.722 -0.4599  0.3383 -0.5371
  649TMC3     H 9664   3.958   2.185  12.624  0.3039  1.6228  0.5098
  649TMC3    H1 9665   3.855   1.979  12.983  1.8773  1.0091  0.6685
  649TMC3    H2 9666   4.242   1.935  12.806  0.5527  0.4517 -0.0450
  649TMC3    C7 9667   4.097   1.894  13.026 -0.2003 -0.0987  0.9620
  649TMC3    C8 9668   4.209   2.136  12.609  0.2098  0.1146  0.0424
  649TMC3    O1 9669   4.001   1.841  13.086 -0.6976 -0.2648  0.1035
  649TMC3    O2 9670   4.158   2.186  12.508 -0.0429 -0.1948 -0.1987
  650TMC3    C1 9671   1.867   3.859  13.053  0.0010 -0.0774 -0.1771
  650TMC3    C2 9672   1.823   3.969  13.117 -0.3421  0.0096  0.6634
  650TMC3    C3 9673   1.797   4.076  13.034 -0.1162 -0.4322  0.1519
  650TMC3    C4 9674   1.881   3.847  12.917  0.4937  0.2569 -0.1154
  650TMC3    C5 9675   1.850   3.951  12.837  0.4935  0.4415  0.2873
  650TMC3    C6 9676   1.799   4.069  12.892 -0.2393  0.6184  0.4049
  650TMC3     C 9677   1.887   3.743  13.141  0.3925 -0.6103 -0.1565
  650TMC3     O 9678   1.833   3.737  13.250  0.4260 -0.6595  0.7071
  650TMC3     H 9679   1.832   3.980  13.225 -2.5543  1.4217  0.7130
  650TMC3    H1 9680   1.918   3.755  12.874  0.6283 -1.0269  2.8059
  650TMC3    H2 9681   1.786   4.167  12.848  1.9961  1.3566  1.4019
  650TMC3    C7 9682   1.902   3.946  12.701  0.0399 -0.0994 -0.0908
  650TMC3    C8 9683   1.820   4.214  13.079 -0.1234 -0.8214  0.5206
  650TMC3    O1 9684   1.935   3.839  12.650 -0.2374 -0.2507 -0.1362
  650TMC3    O2 9685   1.882   4.286  13.004  0.1270 -0.3369  0.5184
  651MPD2     C 9686   0.874   0.960  10.875 -0.1552 -0.1810 -0.5784
  651MPD2    C1 9687   0.843   1.052  10.777  0.0091 -0.2979  0.5984
  651MPD2    C2 9688   0.937   1.158  10.759 -0.7047  0.5234 -0.0540
  651MPD2    C3 9689   1.051   1.173  10.838  0.6376 -0.3753  0.3594
  651MPD2    C4 9690   1.065   1.088  10.944 -0.2327 -0.1370 -0.2476
  651MPD2    C5 9691   0.983   0.984  10.958  0.2795 -0.2903  0.2967
  651MPD2     H 9692   0.917   1.226  10.677  0.2766  1.7106  0.6860
  651MPD2    H1 9693   1.153   1.093  11.007 -0.0195  2.5344 -0.7626
  651MPD2    H2 9694   0.810   0.873  10.884  0.5674 -0.6326  0.2070
  651MPD2    H3 9695   0.997   0.904  11.030 -0.0845 -1.8672 -1.3578
  651MPD2     N 9696   1.147   1.281  10.818  0.7197 -0.1646 -0.5547
  651MPD2    H5 9697   1.146   1.334  10.732  2.8792  0.0953 -0.4010
  651MPD2    N1 9698   0.723   1.048  10.706  0.0032  0.1338  0.3741
  651MPD2    H7 9699   0.696   1.129  10.652 -0.2757 -0.7982 -0.8706
  652TMC3    C1 9700   1.556   1.492  10.813 -0.4635  0.1814 -0.2356
  652TMC3    C2 9701   1.480   1.395  10.856  0.0095  0.0090  0.8139
  652TMC3    C3 9702   1.347   1.408  10.837  0.2971  0.3161  0.1858
  652TMC3    C4 9703   1.513   1.604  10.743 -0.1679 -0.4382  0.0748
  652TMC3    C5 9704   1.376   1.616  10.730 -0.2652 -0.5315  0.5317
  652TMC3    C6 9705   1.293   1.516  10.774 -0.6646 -0.1455  0.2407
  652TMC3     C 9706   1.698   1.460  10.807  0.3772 -0.2709 -0.4469
  652TMC3     O 9707   1.736   1.366  10.879 -0.4567 -0.3328 -0.6815
  652TMC3     H 9708   1.514   1.295  10.879 -1.9878 -0.7027  0.6334
  652TMC3    H1 9709   1.568   1.691  10.709  1.9104 -2.5010 -1.7893
  652TMC3    H2 9710   1.187   1.539  10.772 -0.5000  0.6223  0.2748
  652TMC3    C7 9711   1.313   1.713  10.644  0.0468 -0.1645 -0.0161
  652TMC3    C8 9712   1.266   1.291  10.890  0.4742 -0.5122 -0.1525
  652TMC3    O1 9713   1.202   1.680  10.602  0.6954  1.1039  0.1370
  652TMC3    O2 9714   1.306   1.243  10.992 -0.1291  0.4551 -0.4033
  653MPD2     C 9715   4.309   1.141  17.442  0.7104  0.5441 -0.1837
  653MPD2    C1 9716   4.315   1.254  17.359  0.1705 -0.4638  0.3542
  653MPD2    C2 9717   4.306   1.223  17.225  0.5797 -0.1423 -0.2384
  653MPD2    C3 9718   4.296   1.094  17.174 -0.1688 -0.6456  0.2840
  653MPD2    C4 9719   4.287   0.987  17.256  0.1071  0.0494 -0.4365
  653MPD2    C5 9720   4.304   1.017  17.390  0.6496 -0.1618  0.2028
  653MPD2     H 9721   4.309   1.310  17.161 -0.7507 -0.2637 -0.4729
  653MPD2    H1 9722   4.279   0.882  17.229  0.8660 -0.2152  0.3908
  653MPD2    H2 9723   4.313   1.159  17.549 -1.5517 -1.3156  0.2009
  653MPD2    H3 9724   4.310   0.935  17.461 -0.8631 -0.3965  0.0698
  653MPD2     N 9725   4.288   1.086  17.033 -0.3200  0.1945 -0.1825
  653MPD2    H5 9726   4.279   1.173  16.982  2.7538  0.8796  0.4585
  653MPD2    N1 9727   4.343   1.378  17.407  0.6601 -0.5295 -0.4201
  653MPD2    H7 9728   4.371   1.446  17.336  0.7004 -2.1794 -2.0036
  654TMC3    C1 9729   4.224   0.981  16.830 -0.1665  0.1004 -0.2642
  654TMC3    C2 9730   4.158   1.092  16.793  0.0088  0.4582  0.1998
  654TMC3    C3 9731   4.131   1.102  16.664  0.6916  1.1242  0.6103
  654TMC3    C4 9732   4.241   0.875  16.745 -0.3774  0.2287  0.1457
  654TMC3    C5 9733   4.208   0.893  16.616  0.4457  0.7534  0.0760
  654TMC3    C6 9734   4.151   1.006  16.570 -0.9110 -0.2070 -0.4924
  654TMC3     C 9735   4.276   0.965  16.965  0.1393 -0.1334 -0.3015
  654TMC3     O 9736   4.312   0.858  17.004 -0.1708 -0.6842 -0.7595
  654TMC3     H 9737   4.137   1.171  16.864  2.0315 -0.6997  2.1056
  654TMC3    H1 9738   4.308   0.795  16.775  0.9145  2.6846  3.7204
  654TMC3    H2 9739   4.134   1.011  16.463 -0.8360 -1.1954 -0.5485
  654TMC3    C7 9740   4.279   0.812  16.515 -0.1484  0.7461  0.3966
  654TMC3    C8 9741   4.050   1.210  16.626 -0.5396  0.4143  0.1349
  654TMC3    O1 9742   4.293   0.854  16.399  0.6116 -0.6539  0.1531
  654TMC3    O2 9743   3.998   1.268  16.718 -0.6788 -0.1253  0.0636
  655MPD2     C 9744   1.105   1.142  15.764 -0.6540  0.6256  0.3527
  655MPD2    C1 9745   1.048   1.226  15.671  0.3565  0.1044 -0.3290
  655MPD2    C2 9746   1.011   1.178  15.542  0.8834 -0.0079  0.5294
  655MPD2    C3 9747   1.026   1.039  15.513 -0.1016 -0.1443  0.5290
  655MPD2    C4 9748   1.092   0.966  15.603 -0.0861  0.2250  1.2823
  655MPD2    C5 9749   1.134   1.013  15.724  0.3980  0.4908 -0.4252
  655MPD2     H 9750   0.967   1.241  15.466  2.7329 -0.4287 -0.8876
  655MPD2    H1 9751   1.128   0.867  15.577 -1.7164  0.1650 -0.7340
  655MPD2    H2 9752   1.135   1.176  15.863  0.5064 -0.9916  0.5634
  655MPD2    H3 9753   1.191   0.963  15.801 -1.5616 -0.2413  0.5356
  655MPD2     N 9754   0.999   0.976  15.383  0.6995 -0.2944  0.0348
  655MPD2    H5 9755   1.019   0.877  15.374 -0.6965 -0.7564  2.2312
  655MPD2    N1 9756   1.025   1.363  15.702 -0.3204 -0.0246 -0.1139
  655MPD2    H7 9757   0.995   1.420  15.624 -0.2172  1.2307  0.7680
  656TMC3    C1 9758   0.978   1.551  15.846 -0.9865  0.6454  0.0957
  656TMC3    C2 9759   0.927   1.584  15.970 -0.6277  0.0859 -0.3143
  656TMC3    C3 9760   0.874   1.708  15.983 -0.0170 -0.4902 -0.0376
  656TMC3    C4 9761   0.977   1.639  15.745  0.4796  0.3764  0.2084
  656TMC3    C5 9762   0.909   1.765  15.762 -1.0694 -0.4108 -0.1782
  656TMC3    C6 9763   0.855   1.794  15.883  0.2895 -0.0536  1.1836
  656TMC3     C 9764   1.031   1.416  15.828  0.0660  0.8645  0.1194
  656TMC3     O 9765   1.044   1.367  15.940  0.2169 -0.2187  0.2209
  656TMC3     H 9766   0.954   1.527  16.058 -1.3411 -2.1212 -1.5301
  656TMC3    H1 9767   1.017   1.620  15.646  0.5905  3.7416 -0.3808
  656TMC3    H2 9768   0.810   1.890  15.908 -1.6862 -0.3799 -1.1395
  656TMC3    C7 9769   0.880   1.849  15.646  0.2325 -0.2488  0.3317
  656TMC3    C8 9770   0.784   1.722  16.095 -0.2215  0.3204  0.2831
  656TMC3    O1 9771   0.948   1.833  15.545  0.1318  0.4310 -0.0844
  656TMC3    O2 9772   0.767   1.831  16.148  0.3602 -0.0153  0.2060
  657TMC3    C1 9773   0.188   0.548  14.560 -0.4484  0.0939  0.3574
  657TMC3    C2 9774   0.159   0.524  14.698  0.7658 -0.5805  0.2286
  657TMC3    C3 9775   0.043   0.570  14.745 -0.3343  0.5783 -0.2090
  657TMC3    C4 9776   0.102   0.618  14.486 -0.6403  0.2635 -0.0361
  657TMC3    C5 9777   0.002   0.688  14.550 -0.0169  0.5618 -0.4075
  657TMC3    C6 9778   4.708   0.666  14.679  0.7974 -0.1473  0.1790
  657TMC3     C 9779   0.294   0.477  14.487 -0.8913  0.5930 -0.7191
  657TMC3     O 9780   0.289   0.472  14.365 -0.0023  0.3055  0.4919
  657TMC3     H 9781   0.206   0.448  14.758 -0.2494 -1.5259 -0.1804
  657TMC3    H1 9782   0.133   0.640  14.384 -0.4237  0.7473  0.1354
  657TMC3    H2 9783   4.628   0.710  14.736  0.3174 -3.0638  1.7770
  657TMC3    C7 9784   4.694   0.802  14.475 -0.2024  0.1281  0.0477
  657TMC3    C8 9785   0.021   0.565  14.886 -0.9838  0.0507 -0.0539
  657TMC3    O1 9786   4.709   0.791  14.354  0.3266 -0.0594 -0.9227
  657TMC3    O2 9787   4.652   0.604  14.922 -0.0605  0.9260 -0.6130
  658MPD2     C 9788   1.398   0.759  14.795 -0.4008  0.7275 -0.0200
  658MPD2    C1 9789   1.281   0.830  14.752  0.0596  0.3209 -0.3241
  658MPD2    C2 9790   1.285   0.887  14.625  0.8970  0.4449 -0.0354
  658MPD2    C3 9791   1.397   0.881  14.540  0.4382  0.0160 -0.5951
  658MPD2    C4 9792   1.507   0.808  14.583  0.6668 -0.3450  0.2146
  658MPD2    C5 9793   1.502   0.743  14.705 -0.8070  0.0060 -0.4096
  658MPD2     H 9794   1.202   0.946  14.587 -0.6634 -1.8469 -0.2166
  658MPD2    H1 9795   1.598   0.790  14.529 -0.6248 -4.4532 -0.6188
  658MPD2    H2 9796   1.400   0.700  14.886  0.3600 -1.0860 -1.1979
  658MPD2    H3 9797   1.578   0.675  14.742 -0.7386  0.1926 -0.2077
  658MPD2     N 9798   1.385   0.952  14.422  0.1461  0.4558  0.3640
  658MPD2    H5 9799   1.301   1.007  14.406  0.7558  1.8517  1.9902
  658MPD2    N1 9800   1.163   0.836  14.835 -0.6195 -0.7578 -0.1129
  658MPD2    H7 9801   1.087   0.892  14.799  0.5551 -0.8933 -2.8025
  659TMC3    C1 9802   1.014   0.804  15.014 -0.5081 -0.1205 -0.0396
  659TMC3    C2 9803   1.017   0.870  15.130  0.0121 -0.8415  0.4849
  659TMC3    C3 9804   0.921   0.964  15.159 -0.0075  0.2581  0.2159
  659TMC3    C4 9805   0.915   0.834  14.922  0.7799  0.0761  0.4942
  659TMC3    C5 9806   0.815   0.925  14.955  0.0345  0.0881 -1.1201
  659TMC3    C6 9807   0.819   0.997  15.076 -0.4584 -0.4771  0.9170
  659TMC3     C 9808   1.141   0.769  14.959 -0.7167 -0.3192 -0.4761
  659TMC3     O 9809   1.217   0.717  15.039 -0.6281  0.2696 -0.0758
  659TMC3     H 9810   1.107   0.867  15.190  0.1896 -1.7275  0.1732
  659TMC3    H1 9811   0.907   0.782  14.828  1.3843  1.7577 -0.4817
  659TMC3    H2 9812   0.739   1.060  15.114 -0.1208  1.1204 -0.9968
  659TMC3    C7 9813   0.684   0.929  14.884 -0.3416 -0.0614 -0.8716
  659TMC3    C8 9814   0.921   1.038  15.287 -0.3671 -0.1964  0.7706
  659TMC3    O1 9815   0.594   0.995  14.941 -0.4184  0.0627 -0.2133
  659TMC3    O2 9816   0.849   1.135  15.304  0.0283 -0.1868  0.7258
  660MPD2     C 9817   3.602   0.361  12.532  0.1564 -0.7542  0.5857
  660MPD2    C1 9818   3.483   0.293  12.512  1.2579  0.1928  0.5055
  660MPD2    C2 9819   3.447   0.198  12.605  0.1679  0.1692  0.5446
  660MPD2    C3 9820   3.525   0.171  12.721  0.5159 -0.3069 -0.0566
  660MPD2    C4 9821   3.639   0.247  12.736  0.3681 -0.0271  0.2276
  660MPD2    C5 9822   3.669   0.342  12.645  0.3043  0.6985  0.2474
  660MPD2     H 9823   3.369   0.128  12.576 -0.2706  0.6831  0.4721
  660MPD2    H1 9824   3.706   0.233  12.819 -0.3700 -2.3323  0.4544
  660MPD2    H2 9825   3.641   0.436  12.464 -2.7087 -1.0132 -1.3664
  660MPD2    H3 9826   3.763   0.395  12.655 -0.8467  2.4824  1.8010
  660MPD2     N 9827   3.489   0.070  12.814  0.1484 -0.1544 -0.1278
  660MPD2    H5 9828   3.557   0.040  12.883 -1.2701 -0.7348  1.0188
  660MPD2    N1 9829   3.415   0.305  12.391  0.2391 -0.1959  0.3996
  660MPD2    H7 9830   3.461   0.369  12.326 -0.9985 -1.7557 -1.9862
  661TMC3    C1 9831   3.268   0.281  12.215 -0.1622  0.4411 -0.8291
  661TMC3    C2 9832   3.361   0.265  12.115  0.5357 -0.1315  0.1579
  661TMC3    C3 9833   3.310   0.257  11.990 -0.8513  0.0441  0.3836
  661TMC3    C4 9834   3.131   0.254  12.196  0.2111 -0.3183 -0.2118
  661TMC3    C5 9835   3.090   0.231  12.066  0.0137 -0.0452 -0.6172
  661TMC3    C6 9836   3.180   0.225  11.969 -0.4506  0.3462 -0.2897
  661TMC3     C 9837   3.299   0.248  12.353  0.0703 -0.8195  0.0687
  661TMC3     O 9838   3.217   0.188  12.422 -0.4540 -0.0639  0.2732
  661TMC3     H 9839   3.467   0.269  12.139  0.7180 -1.3589 -0.4422
  661TMC3    H1 9840   3.063   0.269  12.279  0.5691 -0.5917  0.1292
  661TMC3    H2 9841   3.155   0.179  11.874  2.3763 -0.0278 -0.8559
  661TMC3    C7 9842   2.977   0.149  12.070  0.0705 -0.2067  0.7061
  661TMC3    C8 9843   3.410   0.274  11.893  0.3404 -0.7709 -0.4026
  661TMC3    O1 9844   2.939   0.113  12.179 -0.0883  0.0352 -0.4093
  661TMC3    O2 9845   3.526   0.267  11.923  0.3344 -0.6920 -0.2704
  662MPD2     C 9846   3.959   0.006  16.930 -0.6682 -0.0862  0.1640
  662MPD2    C1 9847   3.950   4.641  17.019  0.2095 -0.2782 -0.6028
  662MPD2    C2 9848   3.884   4.674  17.137 -0.3050  0.5122 -0.4235
  662MPD2    C3 9849   3.804   0.052  17.143  0.5603 -0.5937 -0.9895
  662MPD2    C4 9850   3.812   0.147  17.043 -0.0256  0.4751 -0.0823
  662MPD2    C5 9851   3.895   0.123  16.929  0.0803  0.0616 -0.2295
  662MPD2     H 9852   3.869   4.601  17.215  2.3057 -0.9107 -1.2653
  662MPD2    H1 9853   3.755   0.239  17.052  0.9728  1.5557 -4.5742
  662MPD2    H2 9854   4.021   4.732  16.842 -0.7549  0.7315 -0.0042
  662MPD2    H3 9855   3.914   0.194  16.849 -0.3718 -1.6936 -1.8921
  662MPD2     N 9856   3.725   0.082  17.260 -0.7538  0.4034  0.3770
  662MPD2    H5 9857   3.638   0.133  17.250 -1.9458 -1.5176  1.0678
  662MPD2    N1 9858   4.015   4.515  17.007  0.1873  0.2470 -0.1545
  662MPD2    H7 9859   4.004   4.447  17.082 -1.3038 -0.4412 -0.9974
  663TMC3    C1 9860   4.089   4.310  16.905 -0.2968 -0.2345 -0.5896
  663TMC3    C2 9861   4.130   4.259  17.022 -0.1530  0.6905 -0.2995
  663TMC3    C3 9862   4.184   4.134  17.024 -0.1356  0.1644  0.6074
  663TMC3    C4 9863   4.075   4.231  16.795  0.3977 -0.1903 -0.6065
  663TMC3    C5 9864   4.110   4.096  16.807 -0.4480 -0.0155  0.0563
  663TMC3    C6 9865   4.158   4.045  16.922 -0.3823 -0.2241  0.1969
  663TMC3     C 9866   4.055   4.455  16.887 -0.7898 -0.3401  0.6078
  663TMC3     O 9867   4.066   4.499  16.777  0.3033  0.1888 -0.0137
  663TMC3     H 9868   4.171   4.337  17.086  0.5695  0.2261 -0.1927
  663TMC3    H1 9869   4.041   4.267  16.699  2.9936  1.0440 -1.0744
  663TMC3    H2 9870   4.213   3.952  16.911 -0.5265 -0.3476  0.5122
  663TMC3    C7 9871   4.081   4.011  16.701 -0.3174 -0.6735  0.5716
  663TMC3    C8 9872   4.180   4.052  17.144 -0.2847 -0.8483  0.3525
  663TMC3    O1 9873   4.105   4.052  16.593  0.8241  0.0871  0.2136
  663TMC3    O2 9874   4.188   3.933  17.134  0.3219  0.5106 -0.5132
  664MPD2     C 9875   1.935   2.143  17.247  0.9377  0.7264  0.3892
  664MPD2    C1 9876   1.967   2.276  17.269  0.3644 -0.4380  0.1702
  664MPD2    C2 9877   1.971   2.325  17.396  0.1766  0.2382  0.3295
  664MPD2    C3 9878   1.935   2.248  17.507 -0.2079 -1.2286 -0.3561
  664MPD2    C4 9879   1.898   2.118  17.486  0.2151  0.5976 -0.1664
  664MPD2    C5 9880   1.893   2.060  17.357 -0.2752 -0.3786 -0.1775
  664MPD2     H 9881   1.991   2.429  17.416  0.1187  0.1563  0.8209
  664MPD2    H1 9882   1.867   2.043  17.557  1.4397 -0.3598 -0.6361
  664MPD2    H2 9883   1.930   2.105  17.146 -2.2622  2.4812 -0.1101
  664MPD2    H3 9884   1.849   1.963  17.341  1.4958 -1.3772  1.1042
  664MPD2     N 9885   1.939   2.314  17.632 -0.1795 -0.0801 -0.7956
  664MPD2    H5 9886   1.971   2.410  17.631 -1.4491  0.3523  2.0292
  664MPD2    N1 9887   1.991   2.377  17.172 -0.1638  0.3590 -0.0918
  664MPD2    H7 9888   1.991   2.470  17.213 -0.1382  0.2731  0.1045
  665TMC3    C1 9889   1.918   2.357   0.117 -0.7977  0.4791  0.0792
  665TMC3    C2 9890   1.946   2.302   0.239  0.1441 -0.8429  0.5099
  665TMC3    C3 9891   1.989   2.387   0.335 -0.1570  0.7030  0.1565
  665TMC3    C4 9892   1.922   2.489   0.084 -0.2335  0.2187 -0.5933
  665TMC3    C5 9893   1.970   2.571   0.187 -0.8749 -0.2086 -0.2687
  665TMC3    C6 9894   1.995   2.522   0.310 -0.8133  0.0228  0.5327
  665TMC3     C 9895   1.895   2.257   0.000  0.6638 -0.2341 -0.3102
  665TMC3     O 9896   1.859   2.144   0.030  0.0528 -0.0148  0.5063
  665TMC3     H 9897   1.946   2.195   0.258  1.1921 -1.0318 -0.5136
  665TMC3    H1 9898   1.905   2.526  17.734 -0.1748 -0.8479 -0.9976
  665TMC3    H2 9899   2.023   2.589   0.390  0.6415 -1.4173  1.2344
  665TMC3    C7 9900   1.974   2.714   0.156  0.0156  0.2416 -0.1249
  665TMC3    C8 9901   1.985   2.339   0.477  0.4266 -0.1518 -0.1455
  665TMC3    O1 9902   1.907   2.744   0.053 -0.3918  0.0319 -0.3478
  665TMC3    O2 9903   1.915   2.243   0.502  0.3104  0.7674 -0.2976
  666TMC3    C1 9904   1.386   3.317   9.779 -0.7397 -0.1044  0.1713
  666TMC3    C2 9905   1.463   3.213   9.819  0.5702 -0.1331 -0.2226
  666TMC3    C3 9906   1.584   3.249   9.881  0.6843  1.1121 -0.2349
  666TMC3    C4 9907   1.416   3.452   9.791  0.3161  0.6106 -0.3323
  666TMC3    C5 9908   1.537   3.481   9.845  0.8827 -0.4766  0.2011
  666TMC3    C6 9909   1.616   3.378   9.887 -0.6219  0.4977  0.0168
  666TMC3     C 9910   1.245   3.302   9.745 -0.3454 -0.3031 -0.5242
  666TMC3     O 9911   1.185   3.395   9.686  0.0949  0.3828 -0.4090
  666TMC3     H 9912   1.431   3.109   9.825  0.0975 -0.0422 -1.2965
  666TMC3    H1 9913   1.347   3.533   9.773 -1.9194 -1.1705  0.3118
  666TMC3    H2 9914   1.698   3.403   9.954  1.4192 -0.3787 -2.1901
  666TMC3    C7 9915   1.508   3.569   9.953  0.1716 -0.2668 -1.0970
  666TMC3    C8 9916   1.659   3.145   9.944 -0.2928 -0.0006 -0.5235
  666TMC3    O1 9917   1.488   3.520  10.063  0.3946 -0.5346  0.5156
  666TMC3    O2 9918   1.595   3.048   9.975  0.0918 -0.2039  0.0101
  667MPD2     C 9919   3.199   2.933  14.343 -0.2501 -0.4598  0.2407
  667MPD2    C1 9920   3.182   2.917  14.476 -0.5143  0.9051  0.2874
  667MPD2    C2 9921   3.108   2.812  14.516  0.1956 -0.1503 -0.0150
  667MPD2    C3 9922   3.038   2.731  14.432  0.2639 -0.2761 -0.8775
  667MPD2    C4 9923   3.040   2.763  14.295  0.8341  0.1550 -0.6142
  667MPD2    C5 9924   3.122   2.864  14.255 -0.3034 -0.1250  0.0400
  667MPD2     H 9925   3.117   2.784  14.621  0.3814  1.7129  0.4736
  667MPD2    H1 9926   2.971   2.706  14.234 -0.1048  0.2568  0.3510
  667MPD2    H2 9927   3.263   3.013  14.306 -0.4000 -0.0413  0.8888
  667MPD2    H3 9928   3.129   2.903  14.154 -1.2663 -0.7060 -0.2490
  667MPD2     N 9929   2.972   2.613  14.476 -0.0174  0.0293 -0.2665
  667MPD2    H5 9930   2.932   2.553  14.404 -0.5429  1.9302 -1.5500
  667MPD2    N1 9931   3.258   2.978  14.581 -0.5839  0.0149  0.2167
  667MPD2    H7 9932   3.244   2.944  14.676  0.1624 -1.8858 -0.3687
  668TMC3    C1 9933   3.377   3.130  14.699 -0.6251  0.6581  0.0598
  668TMC3    C2 9934   3.461   3.242  14.713 -0.5118 -0.1254  0.2189
  668TMC3    C3 9935   3.501   3.281  14.836  0.0947  0.8194  0.2274
  668TMC3    C4 9936   3.326   3.075  14.816  0.1421  0.2614 -0.3567
  668TMC3    C5 9937   3.381   3.114  14.940  0.3938  0.2634  0.5209
  668TMC3    C6 9938   3.472   3.207  14.947 -0.0432  0.0267  0.4441
  668TMC3     C 9939   3.353   3.076  14.569 -0.0835 -0.3558 -0.4674
  668TMC3     O 9940   3.390   3.130  14.467  0.0022 -0.3808  0.1698
  668TMC3     H 9941   3.493   3.286  14.619  0.1112 -0.3794  0.3154
  668TMC3    H1 9942   3.242   3.007  14.814 -1.3918  2.0829  1.5518
  668TMC3    H2 9943   3.514   3.245  15.040 -1.6721 -0.2033  1.2836
  668TMC3    C7 9944   3.374   3.029  15.061 -0.4398 -0.7622  0.1444
  668TMC3    C8 9945   3.554   3.417  14.855 -0.4888 -0.0537 -0.4224
  668TMC3    O1 9946   3.472   3.028  15.134  0.3461 -0.7302  0.2640
  668TMC3    O2 9947   3.555   3.477  14.962  0.5143  0.2753 -0.0004
  669TMC3    C1 9948   1.593   2.535  14.367  0.1022  0.5029  0.9707
  669TMC3    C2 9949   1.468   2.561  14.311 -0.2652 -0.0676 -0.3342
  669TMC3    C3 9950   1.453   2.665  14.219 -0.5959  0.8522 -0.2355
  669TMC3    C4 9951   1.706   2.611  14.331 -0.8101  0.2937  0.5519
  669TMC3    C5 9952   1.681   2.712  14.237 -0.3178  0.2854  0.4338
  669TMC3    C6 9953   1.562   2.741  14.169  0.2832  0.8584 -0.9265
  669TMC3     C 9954   1.595   2.443  14.475  0.8730 -0.6266  1.1382
  669TMC3     O 9955   1.493   2.391  14.514  0.0774 -0.4179  0.5046
  669TMC3     H 9956   1.383   2.507  14.349  0.5253  0.3476  2.0811
  669TMC3    H1 9957   1.791   2.609  14.399 -0.6273 -0.6232  0.2927
  669TMC3    H2 9958   1.546   2.831  14.111 -1.7838  0.5377 -0.8620
  669TMC3    C7 9959   1.801   2.787  14.211  1.0524  0.5806 -0.5784
  669TMC3    C8 9960   1.319   2.685  14.163 -0.2670 -0.0384 -0.4691
  669TMC3    O1 9961   1.888   2.788  14.297  0.3236  0.2693  0.3175
  669TMC3    O2 9962   1.228   2.627  14.223  0.5942 -0.4188 -0.3879
  670MPD2     C 9963   3.869   0.554  13.231 -0.0165 -0.1226 -0.0576
  670MPD2    C1 9964   3.994   0.554  13.280 -0.6644  0.1383 -0.3277
  670MPD2    C2 9965   4.020   0.506  13.410 -0.7481  0.9609 -0.8449
  670MPD2    C3 9966   3.925   0.463  13.494 -0.8266 -0.0921  0.6590
  670MPD2    C4 9967   3.797   0.452  13.441 -0.0941 -0.2673 -0.4080
  670MPD2    C5 9968   3.774   0.505  13.318  0.4108  0.0842 -0.3253
  670MPD2     H 9969   4.126   0.510  13.436 -1.2994 -1.5582  1.7792
  670MPD2    H1 9970   3.715   0.427  13.508 -0.9508  0.0782 -1.3370
  670MPD2    H2 9971   3.835   0.606  13.143  1.3274 -1.3396 -1.3038
  670MPD2    H3 9972   3.672   0.489  13.286  0.2746  0.3667 -0.0303
  670MPD2     N 9973   3.969   0.432  13.629 -0.9029  0.1552 -0.3156
  670MPD2    H5 9974   4.061   0.462  13.657 -1.3195 -0.0262  1.2421
  670MPD2    N1 9975   4.104   0.610  13.213 -0.0852 -0.0269 -0.6360
  670MPD2    H7 9976   4.192   0.614  13.265 -1.2644 -3.2917  1.5893
  671TMC3    C1 9977   3.930   0.363  13.851 -0.0155 -0.0151  0.6432
  671TMC3    C2 9978   4.062   0.365  13.877 -1.2653  0.0969 -0.4615
  671TMC3    C3 9979   4.099   0.286  13.976  0.1084 -0.3045 -0.2821
  671TMC3    C4 9980   3.845   0.305  13.932  0.9184 -0.1372 -0.1415
  671TMC3    C5 9981   3.884   0.215  14.031 -0.3651 -0.3222  0.4508
  671TMC3    C6 9982   4.016   0.206  14.054  0.1637 -0.8442  0.4777
  671TMC3     C 9983   3.888   0.370  13.715 -0.1052 -0.0871 -0.4175
  671TMC3     O 9984   3.784   0.310  13.684 -0.6764  0.5265  0.3680
  671TMC3     H 9985   4.132   0.399  13.802 -0.0906 -0.7191  0.2555
  671TMC3    H1 9986   3.742   0.323  13.903  0.6173 -1.4961  0.0937
  671TMC3    H2 9987   4.060   0.115  14.093  0.3753 -0.2848  1.5257
  671TMC3    C7 9988   3.813   0.088  14.037 -0.0731  0.0138  0.2523
  671TMC3    C8 9989   4.235   0.239  13.972 -0.0377  0.1552  0.3134
  671TMC3    O1 9990   3.876   4.722  14.062 -0.0653 -0.3394  0.1966
  671TMC3    O2 9991   4.304   0.251  13.867 -0.1990  0.2009 -0.3395
  672MPD2     C 9992   3.927   0.832   0.663  0.3744 -0.3269  0.2772
  672MPD2    C1 9993   4.044   0.770   0.623 -0.2571  0.1612  0.2811
  672MPD2    C2 9994   4.161   0.841   0.641  0.4020 -0.0686  0.3230
  672MPD2    C3 9995   4.161   0.968   0.688 -0.4049  0.3296  0.0235
  672MPD2    C4 9996   4.043   1.028   0.739  0.7181 -0.7637  0.5247
  672MPD2    C5 9997   3.926   0.952   0.720  0.0127 -0.2019 -0.2194
  672MPD2     H 9998   4.251   0.789   0.610 -0.0482 -0.8246  0.2938
  672MPD2    H1 9999   4.034   1.128   0.779  1.4244  0.0290 -1.3076
  672MPD2    H210000   3.828   0.792   0.644 -0.0204  0.2504  1.0918
  672MPD2    H310001   3.827   0.989   0.744 -0.4026 -1.9342  0.7447
  672MPD2     N10002   4.278   1.043   0.708 -0.1808 -0.5387 -0.4372
  672MPD2    H510003   4.257   1.136   0.743  1.1443 -0.5953  0.4873
  672MPD2    N110004   4.042   0.640   0.568  0.1428  0.7160  0.1344
  672MPD2    H710005   4.132   0.605   0.535 -1.3249 -2.7475 -0.1743
  673TMC3    C110006   3.975   0.460   0.456  0.2698  0.3112  0.5404
  673TMC3    C210007   4.071   0.366   0.503 -0.5754  0.0107  0.2348
  673TMC3    C310008   4.135   0.292   0.407 -0.1576  0.5442  0.0845
  673TMC3    C410009   3.956   0.491   0.322 -0.7150 -0.7278  0.6600
  673TMC3    C510010   4.030   0.422   0.227  0.3832  0.2743  0.5807
  673TMC3    C610011   4.114   0.323   0.269 -0.6829 -0.8991  0.3024
  673TMC3     C10012   3.931   0.562   0.532  0.4777  0.5235 -0.2295
  673TMC3     O10013   3.812   0.590   0.536  0.1987 -1.1074 -0.5596
  673TMC3     H10014   4.084   0.353   0.610  2.1173 -0.8664 -0.1830
  673TMC3    H110015   3.891   0.573   0.294 -0.6807 -1.5202 -1.7191
  673TMC3    H210016   4.174   0.270   0.196  0.5407 -0.0792  0.7040
  673TMC3    C710017   4.043   0.467   0.087 -0.2741 -0.3571  0.6726
  673TMC3    C810018   4.219   0.186   0.442  0.1904  0.2909 -0.0355
  673TMC3    O110019   4.106   0.397   0.007 -0.3229  0.1433  0.5229
  673TMC3    O210020   4.239   0.100   0.354 -0.3136 -0.0341  0.2834
  674MPD2     C10021   3.983   0.864  17.173 -0.1692  0.2427  0.0129
  674MPD2    C110022   3.903   0.780  17.242  0.2168  0.5450 -1.4624
  674MPD2    C210023   3.793   0.828  17.312  0.4757  0.4463  0.3239
  674MPD2    C310024   3.767   0.964  17.301 -0.2242  0.6288  0.0500
  674MPD2    C410025   3.857   1.053  17.241  0.2261  0.0317 -0.0699
  674MPD2    C510026   3.962   1.001  17.177  0.0179 -0.2284  0.3906
  674MPD2     H10027   3.725   0.765  17.368 -0.8475  1.0493 -0.6114
  674MPD2    H110028   3.839   1.160  17.240  1.3242  0.1991 -1.2353
  674MPD2    H210029   4.068   0.822  17.120  0.2854  0.6033  0.4553
  674MPD2    H310030   4.035   1.067  17.132 -0.1741 -0.2008  0.1175
  674MPD2     N10031   3.648   1.001  17.365 -0.4991  0.6274 -0.4133
  674MPD2    H510032   3.593   0.921  17.395 -0.3898  0.3892 -0.8555
  674MPD2    N110033   3.927   0.643  17.243  0.1440  0.6050  0.3403
  674MPD2    H710034   3.872   0.581  17.301  0.6966 -2.4685 -2.4186
  675TMC3    C110035   4.011   0.432  17.201 -0.1103  0.9195 -0.4805
  675TMC3    C210036   3.899   0.408  17.276 -0.2781 -0.1095  0.1931
  675TMC3    C310037   3.909   0.356  17.403 -0.1768  0.1445  0.8531
  675TMC3    C410038   4.131   0.393  17.257 -0.6115 -0.5001  0.0060
  675TMC3    C510039   4.137   0.345  17.383  0.3680  0.2502  0.2633
  675TMC3    C610040   4.027   0.328  17.458  0.6224  0.8186 -0.1596
  675TMC3     C10041   4.024   0.572  17.174 -0.1983 -0.9659  0.1959
  675TMC3     O10042   4.120   0.608  17.104  0.2549 -0.1056  0.0987
  675TMC3     H10043   3.798   0.426  17.239 -0.7742 -0.2279  1.4839
  675TMC3    H110044   4.220   0.397  17.195 -0.7737  0.8274 -0.1465
  675TMC3    H210045   4.017   0.282  17.556  0.3990 -3.0863 -2.0519
  675TMC3    C710046   4.259   0.275  17.415 -0.0389  0.0815  0.4094
  675TMC3    C810047   3.808   0.410  17.488 -0.0831 -0.0199 -0.4585
  675TMC3    O110048   4.342   0.274  17.327  0.2829  0.4005  0.3842
  675TMC3    O210049   3.745   0.506  17.450 -0.5616  0.9058  0.6808
  676MPD2     C10050   1.744   4.024  10.695 -0.0598  0.5694 -1.5097
  676MPD2    C110051   1.645   3.933  10.730  0.9432  0.6373  0.2532
  676MPD2    C210052   1.681   3.796  10.717 -0.0355 -0.1994 -0.2597
  676MPD2    C310053   1.797   3.756  10.655  0.1148 -0.2508 -1.3201
  676MPD2    C410054   1.883   3.851  10.610 -0.2104 -0.1504 -0.4426
  676MPD2    C510055   1.856   3.981  10.631  0.2074  0.6349 -0.3784
  676MPD2     H10056   1.613   3.721  10.756  1.0780 -1.6454 -1.0883
  676MPD2    H110057   1.979   3.826  10.565 -0.6659  1.5633 -2.3353
  676MPD2    H210058   1.718   4.130  10.696 -1.2229  0.2784 -0.7848
  676MPD2    H310059   1.930   4.052  10.596 -1.7905  2.5358 -0.7568
  676MPD2     N10060   1.829   3.615  10.648  0.2330 -0.1051 -0.1619
  676MPD2    H510061   1.907   3.583  10.591  1.6213  0.7594  1.2419
  676MPD2    N110062   1.527   3.965  10.803  0.2613 -0.1502 -0.4738
  676MPD2    H710063   1.466   3.888  10.830  1.3917 -0.5694  0.9028
  677TMC3    C110064   1.411   4.094  10.981 -0.4033  0.2260  0.9455
  677TMC3    C210065   1.368   3.976  11.036  0.1791 -0.6074  0.6207
  677TMC3    C310066   1.302   3.981  11.157 -0.0705  1.0106  0.0290
  677TMC3    C410067   1.427   4.203  11.064 -0.4527 -0.2805 -0.1347
  677TMC3    C510068   1.356   4.198  11.184  0.2120  0.5293  0.1571
  677TMC3    C610069   1.281   4.096  11.225 -0.2760 -0.5528 -0.0453
  677TMC3     C10070   1.488   4.091  10.852 -0.4128 -0.0281 -0.1028
  677TMC3     O10071   1.535   4.199  10.824  0.2004 -0.4261  0.1225
  677TMC3     H10072   1.391   3.886  10.980  0.9449  0.6316 -1.0672
  677TMC3    H110073   1.502   4.277  11.038 -0.8923 -0.1496 -1.0304
  677TMC3    H210074   1.237   4.097  11.325 -1.8848  0.6725 -0.7638
  677TMC3    C710075   1.390   4.305  11.276 -0.3588  0.3309  0.4054
  677TMC3    C810076   1.349   3.879  11.246  0.6107  0.3313 -0.2708
  677TMC3    O110077   1.312   4.324  11.367 -0.5481 -0.6180 -0.1574
  677TMC3    O210078   1.449   3.825  11.210  0.0244 -0.0991 -0.3723
  678MPD2     C10079   2.970   4.035   1.294 -0.6643  0.8020  0.6277
  678MPD2    C110080   3.019   3.945   1.200 -0.1559 -0.8715 -0.4843
  678MPD2    C210081   2.929   3.873   1.128  0.1120 -0.3557  0.5913
  678MPD2    C310082   2.790   3.889   1.126 -0.4972  0.0895 -0.5828
  678MPD2    C410083   2.738   3.982   1.220 -0.2729  0.2766  0.0626
  678MPD2    C510084   2.832   4.045   1.301  0.0158 -0.2531 -0.5057
  678MPD2     H10085   2.972   3.806   1.055  0.8932 -0.2737  0.9709
  678MPD2    H110086   2.634   4.013   1.219 -0.3598  0.0255  1.5705
  678MPD2    H210087   3.024   4.097   1.364 -0.0013 -1.7509  2.3558
  678MPD2    H310088   2.804   4.129   1.363  1.7373  0.4960 -0.7223
  678MPD2     N10089   2.703   3.809   1.047  0.6196 -0.4295  0.9773
  678MPD2    H510090   2.740   3.746   0.976  0.5366 -1.0361  1.4712
  678MPD2    N110091   3.153   3.920   1.167  0.1662 -0.4052  0.3076
  678MPD2    H710092   3.167   3.854   1.092 -2.5320 -1.6511  0.9070
  679TMC3    C110093   3.531   3.763   1.135 -0.1305  0.0615  0.0011
  679TMC3    C210094   3.401   3.813   1.154 -0.8913  0.6842  0.5502
  679TMC3    C310095   3.380   3.951   1.151 -0.8664  0.3333 -0.8854
  679TMC3    C410096   3.637   3.850   1.123 -0.3912 -0.0193 -0.0055
  679TMC3    C510097   3.610   3.984   1.125  0.4561  0.2395  0.7942
  679TMC3    C610098   3.487   4.037   1.146 -0.0537 -1.2588 -0.8910
  679TMC3     C10099   3.549   3.636   1.073 -0.1601  0.0840 -0.7638
  679TMC3     O10100   3.615   3.634   0.974  0.3857 -0.4326  0.0067
  679TMC3     H10101   3.317   3.747   1.169  0.3489 -0.8549  0.7015
  679TMC3    H110102   3.732   3.811   1.090  0.6662  1.7842  0.8686
  679TMC3    H210103   3.483   4.146   1.145 -0.7963 -1.2779 -0.4236
  679TMC3    C710104   3.696   4.069   1.045  0.4567 -0.3455  0.0968
  679TMC3    C810105   3.255   3.996   1.205 -0.0814 -0.0449 -0.4022
  679TMC3    O110106   3.648   4.171   0.993  0.6367 -0.9057 -0.2541
  679TMC3    O210107   3.244   4.111   1.251 -0.7440  0.0705  0.1137
  680MPD2     C10108   3.682   2.459  13.836 -0.1634  0.6254 -0.8443
  680MPD2    C110109   3.808   2.404  13.841 -1.0469 -0.1106 -0.0916
  680MPD2    C210110   3.905   2.475  13.902 -0.1778 -0.0771  0.2212
  680MPD2    C310111   3.894   2.605  13.932  0.0134 -0.0612  0.1197
  680MPD2    C410112   3.770   2.670  13.918 -0.2963  0.0720  0.1106
  680MPD2    C510113   3.667   2.594  13.861  0.0870 -0.1318 -0.3080
  680MPD2     H10114   4.005   2.432  13.907 -0.0422 -0.1130 -2.5910
  680MPD2    H110115   3.764   2.772  13.952  0.6513  1.2919 -3.3806
  680MPD2    H210116   3.598   2.406  13.793 -0.9637  1.2804 -0.0667
  680MPD2    H310117   3.566   2.633  13.861  0.6057  1.2374 -0.1978
  680MPD2     N10118   3.997   2.683  13.990  0.1617  0.8847  0.1288
  680MPD2    H510119   3.985   2.783  13.989 -1.6331  0.6656 -0.1810
  680MPD2    N110120   3.841   2.277  13.798  0.4957 -0.1216 -0.1974
  680MPD2    H710121   3.937   2.248  13.813 -0.0030 -1.0404  1.2272
  681TMC3    C110122   3.817   2.057  13.709 -0.2418 -0.0699 -0.0753
  681TMC3    C210123   3.742   1.944  13.700  0.2277  0.0163 -0.8911
  681TMC3    C310124   3.812   1.823  13.700 -0.3508 -0.3154  0.3898
  681TMC3    C410125   3.954   2.052  13.714  0.2580 -0.9433 -0.4088
  681TMC3    C510126   4.012   1.924  13.694 -0.3803  0.1233  0.1922
  681TMC3    C610127   3.948   1.809  13.688  0.0591 -0.1247  0.7031
  681TMC3     C10128   3.755   2.181  13.750  0.1185  0.5700 -0.1689
  681TMC3     O10129   3.638   2.193  13.723  0.9654 -0.1607  0.2722
  681TMC3     H10130   3.634   1.951  13.706  0.1137 -2.6745  0.2823
  681TMC3    H110131   4.012   2.143  13.706 -0.4210 -0.5504 -0.8862
  681TMC3    H210132   4.000   1.715  13.703 -1.5336 -1.0554  0.4007
  681TMC3    C710133   4.148   1.921  13.642  0.5516 -0.2279 -0.4027
  681TMC3    C810134   3.757   1.717  13.777  0.3161 -0.3365 -0.0873
  681TMC3    O110135   4.230   2.005  13.675 -0.6980  0.3591  0.0033
  681TMC3    O210136   3.834   1.659  13.850 -0.8461 -0.1017 -0.2579
  682MPD2     C10137   0.499   3.961  10.831 -0.7296  0.0426  0.0632
  682MPD2    C110138   0.506   3.841  10.764  0.0568 -0.7257 -1.1345
  682MPD2    C210139   0.432   3.736  10.814  0.4478  0.0695 -0.0776
  682MPD2    C310140   0.361   3.740  10.937  0.1177  0.5330  0.0319
  682MPD2    C410141   0.348   3.867  10.992  0.3194  0.2778  0.1532
  682MPD2    C510142   0.414   3.971  10.938 -0.1960  0.1092 -0.6904
  682MPD2     H10143   0.439   3.635  10.774  0.0404  0.2534 -0.6067
  682MPD2    H110144   0.300   3.878  11.089  0.6488 -0.5013  0.4028
  682MPD2    H210145   0.543   4.048  10.782  0.1370 -0.2885  0.2579
  682MPD2    H310146   0.400   4.069  10.983 -0.4359  0.7403 -2.1425
  682MPD2     N10147   0.313   3.629  11.010 -0.2590 -0.8443  0.0994
  682MPD2    H510148   0.292   3.640  11.109  0.3013  1.4169 -0.0416
  682MPD2    N110149   0.604   3.808  10.672 -0.0374 -0.1215  0.0755
  682MPD2    H710150   0.604   3.714  10.632 -0.6366  0.3182 -0.9430
  683TMC3    C110151   0.231   3.309  11.260 -0.4480 -0.1269  1.1734
  683TMC3    C210152   0.219   3.186  11.206  0.3921  0.3928  0.2137
  683TMC3    C310153   0.233   3.171  11.075  0.2385  0.0901  0.2958
  683TMC3    C410154   0.241   3.420  11.184  0.3592 -0.3908 -0.0075
  683TMC3    C510155   0.246   3.400  11.050  0.2661 -0.9342 -0.9216
  683TMC3    C610156   0.242   3.279  10.998 -0.6590  0.5181 -0.3057
  683TMC3     C10157   0.257   3.317  11.401  0.3753  0.3032  0.5940
  683TMC3     O10158   0.253   3.425  11.457  0.5410 -0.3713  0.4054
  683TMC3     H10159   0.186   3.099  11.262  0.3471 -0.3856 -1.0186
  683TMC3    H110160   0.244   3.520  11.226 -3.1327 -1.2589  2.3472
  683TMC3    H210161   0.254   3.268  10.891 -0.6455 -1.7286 -0.0697
  683TMC3    C710162   0.285   3.509  10.954  0.4471  0.3144  0.1122
  683TMC3    C810163   0.273   3.046  11.006  0.0729 -0.4846  0.3622
  683TMC3    O110164   0.266   3.485  10.837  0.5475 -0.8383 -0.1023
  683TMC3    O210165   0.259   3.034  10.884  0.3699 -0.0533 -0.0774
  684MPD2     C10166   4.233   2.956  16.535  0.3510 -0.6356  0.1239
  684MPD2    C110167   4.231   2.989  16.402 -0.0471  0.0572 -0.0187
  684MPD2    C210168   4.204   3.117  16.362 -0.1490 -0.1133 -0.1056
  684MPD2    C310169   4.181   3.217  16.452 -1.8127 -0.4386  0.1223
  684MPD2    C410170   4.194   3.183  16.584 -0.1112 -0.3624  0.2638
  684MPD2    C510171   4.206   3.059  16.622 -0.8223  0.5978  0.5542
  684MPD2     H10172   4.211   3.135  16.255 -0.6088 -1.6045 -0.3947
  684MPD2    H110173   4.206   3.257  16.663  2.2641 -1.0088  0.5260
  684MPD2    H210174   4.272   2.868  16.585 -0.9070 -0.1090  2.0424
  684MPD2    H310175   4.223   3.033  16.726  2.2301  0.3962  0.0026
  684MPD2     N10176   4.163   3.354  16.422 -0.1885  0.0015  0.2380
  684MPD2    H510177   4.167   3.417  16.502 -0.5435  1.1447 -0.6496
  684MPD2    N110178   4.267   2.903  16.297  0.2316  0.3509 -0.1280
  684MPD2    H710179   4.250   2.931  16.201  0.3284  0.2184 -0.1830
  685TMC3    C110180   4.349   2.730  16.182  0.9648 -0.2098  0.7025
  685TMC3    C210181   4.269   2.723  16.065 -0.0854  1.1866  0.1122
  685TMC3    C310182   4.340   2.715  15.948 -0.6515 -0.4456  0.1089
  685TMC3    C410183   4.484   2.728  16.174 -0.4492  0.3784 -0.0068
  685TMC3    C510184   4.543   2.735  16.047 -0.1741  0.2652 -0.4517
  685TMC3    C610185   4.471   2.719  15.937 -0.2756 -0.2430  0.1816
  685TMC3     C10186   4.313   2.778  16.314 -0.4914 -0.1608  0.3137
  685TMC3     O10187   4.355   2.733  16.421  0.3999 -0.1328  0.4386
  685TMC3     H10188   4.161   2.724  16.066 -0.0724  1.3313  0.8860
  685TMC3    H110189   4.537   2.744  16.267  0.3583  2.0687 -0.7332
  685TMC3    H210190   4.519   2.740  15.842 -0.4161  0.2520  0.2224
  685TMC3    C710191   4.670   2.795  16.027  0.3835 -0.5659  0.3737
  685TMC3    C810192   4.270   2.722  15.819  0.2869 -0.4851 -0.0996
  685TMC3    O110193   4.703   2.820  15.913 -0.8621  0.0768  0.2800
  685TMC3    O210194   4.307   2.655  15.722  1.1205 -0.1320  0.3781
  686MPD2     C10195   0.633   3.050  15.523  0.2456 -0.4488 -0.0586
  686MPD2    C110196   0.624   2.934  15.604 -0.5814  0.3147 -0.1891
  686MPD2    C210197   0.624   2.809  15.546 -0.1922  0.4483 -0.0159
  686MPD2    C310198   0.632   2.801  15.405 -0.5744 -0.1567 -0.2392
  686MPD2    C410199   0.628   2.914  15.324 -0.7205  0.0545 -0.3679
  686MPD2    C510200   0.630   3.037  15.389 -0.3396  0.5892  0.4027
  686MPD2     H10201   0.617   2.718  15.604 -2.8460  0.7972  0.1862
  686MPD2    H110202   0.626   2.921  15.216 -0.7658 -1.4545 -0.4568
  686MPD2    H210203   0.627   3.146  15.574  1.4932 -1.1376  1.3756
  686MPD2    H310204   0.638   3.124  15.325  2.3960 -0.6717 -0.9778
  686MPD2     N10205   0.613   2.673  15.341 -0.9847 -0.2024  0.0563
  686MPD2    H510206   0.596   2.663  15.242 -0.4793  0.5878 -0.1093
  686MPD2    N110207   0.613   2.957  15.743 -0.3063  0.5528  0.0676
  686MPD2    H710208   0.634   3.053  15.770  1.5923  0.0131  0.5328
  687TMC3    C110209   0.573   2.465  15.419 -0.6572 -0.2783  0.1332
  687TMC3    C210210   0.446   2.497  15.399  0.1994 -0.5750 -0.3851
  687TMC3    C310211   0.357   2.475  15.501 -0.5926  0.9149 -0.1111
  687TMC3    C410212   0.619   2.393  15.525  0.0444  0.3144  0.0129
  687TMC3    C510213   0.524   2.367  15.623 -0.1607 -0.4042  0.2513
  687TMC3    C610214   0.398   2.420  15.618 -0.3832 -0.3450 -0.3351
  687TMC3     C10215   0.670   2.567  15.400 -0.1716 -0.8220  0.1530
  687TMC3     O10216   0.758   2.578  15.481 -0.3907 -0.4563 -0.4022
  687TMC3     H10217   0.416   2.534  15.302 -2.2963  0.2987  0.7206
  687TMC3    H110218   0.722   2.363  15.537 -0.0203  0.0447 -0.0943
  687TMC3    H210219   0.339   2.419  15.709 -1.8926 -3.2247 -1.3490
  687TMC3    C710220   0.580   2.376  15.762  0.2118 -0.3600  0.0411
  687TMC3    C810221   0.243   2.565  15.523  0.4605  0.5047 -0.6045
  687TMC3    O110222   0.512   2.318  15.850 -0.0014 -0.3645  0.5623
  687TMC3    O210223   0.154   2.544  15.601  0.1422  0.3153 -0.0118
  688MPD2     C10224   4.710   2.018  17.221  0.4090 -0.2895  0.2733
  688MPD2    C110225   4.702   1.876  17.224  0.5553  0.0492 -1.1932
  688MPD2    C210226   0.056   1.808  17.150  0.6833 -0.0597 -0.2623
  688MPD2    C310227   0.138   1.874  17.059  0.3595  0.3255 -0.2461
  688MPD2    C410228   0.142   2.009  17.059  0.4851 -0.2517  0.6123
  688MPD2    C510229   0.061   2.081  17.142  0.1619  0.0105 -0.0587
  688MPD2     H10230   0.059   1.699  17.151 -0.8430 -0.1202 -1.9261
  688MPD2    H110231   0.210   2.066  16.996  0.4215 -0.7021  0.1316
  688MPD2    H210232   4.650   2.090  17.275 -2.0785 -1.3799 -1.0448
  688MPD2    H310233   0.059   2.190  17.139 -0.2669  0.0031 -0.0593
  688MPD2     N10234   0.245   1.809  16.994 -0.3056  0.3117 -0.6111
  688MPD2    H510235   0.299   1.872  16.934 -2.3305  1.2183 -1.4826
  688MPD2    N110236   4.611   1.808  17.307  0.0416  0.2155 -0.1448
  688MPD2    H710237   4.602   1.712  17.274  1.1462  0.3946 -0.9651
  689TMC3    C110238   4.415   1.767  17.447  0.4007  0.1311  0.3953
  689TMC3    C210239   4.319   1.828  17.533  0.1003  1.0776 -0.0940
  689TMC3    C310240   4.251   1.752  17.627 -0.2266 -0.9203  0.1685
  689TMC3    C410241   4.421   1.629  17.446  0.2631  0.1235  0.2991
  689TMC3    C510242   4.349   1.560  17.543 -0.5602 -0.6082 -0.3451
  689TMC3    C610243   4.271   1.620  17.643  0.4353 -0.4545 -0.4121
  689TMC3     C10244   4.513   1.858  17.392 -0.8428  0.1545  0.1659
  689TMC3     O10245   4.518   1.965  17.442  0.1533  0.1962 -0.0562
  689TMC3     H10246   4.307   1.936  17.544  0.0157  1.1994 -1.3358
  689TMC3    H110247   4.489   1.576  17.380  0.6802  0.5825  0.3609
  689TMC3    H210248   4.218   1.560  17.716  0.1454 -1.5906 -1.5433
  689TMC3    C710249   4.323   1.420  17.533 -0.4355  0.0582 -0.1219
  689TMC3    C810250   4.174   1.817  17.734 -0.6292 -0.9999  0.4267
  689TMC3    O110251   4.259   1.369  17.619  0.2879  0.3284 -0.4121
  689TMC3    O210252   4.145   1.759   0.089 -0.4274 -0.2277  0.3252
  690MPD2     C10253   2.707   3.309  15.969  0.2608 -0.0366 -0.8615
  690MPD2    C110254   2.608   3.393  15.932  0.5753  0.1690  0.7012
  690MPD2    C210255   2.641   3.507  15.859  0.1798  0.0963 -0.1415
  690MPD2    C310256   2.775   3.541  15.849 -0.5169 -0.0317  0.6433
  690MPD2    C410257   2.878   3.456  15.894 -0.0614 -0.1944 -0.4723
  690MPD2    C510258   2.841   3.336  15.951 -0.2819 -0.2886 -0.8125
  690MPD2     H10259   2.567   3.571  15.811 -0.7503  0.3185  1.5834
  690MPD2    H110260   2.983   3.473  15.871 -0.4854  1.8200 -0.9373
  690MPD2    H210261   2.701   3.218  16.028 -2.0265  1.5520  1.3713
  690MPD2    H310262   2.920   3.272  15.988 -0.4365 -2.1424 -3.6974
  690MPD2     N10263   2.804   3.671  15.787 -0.5715 -0.0284 -0.5532
  690MPD2    H510264   2.722   3.721  15.753 -0.1571  0.8047 -0.3428
  690MPD2    N110265   2.471   3.362  15.954  0.9957 -0.2230 -0.0301
  690MPD2    H710266   2.414   3.419  15.893  1.4462  2.8056  2.3763
  691TMC3    C110267   2.277   3.230  16.015  0.5279  0.0127 -0.8516
  691TMC3    C210268   2.197   3.301  15.936  1.1321 -0.3581  0.3424
  691TMC3    C310269   2.076   3.249  15.895  0.2362  0.2159  0.2269
  691TMC3    C410270   2.246   3.100  16.049  0.2454  0.1581 -0.4533
  691TMC3    C510271   2.118   3.056  16.010 -0.6211  0.1082 -0.0967
  691TMC3    C610272   2.038   3.127  15.931  0.2586 -0.0137  0.2544
  691TMC3     C10273   2.412   3.267  16.037  0.0262 -0.2517 -0.2056
  691TMC3     O10274   2.474   3.205  16.125  0.2740  0.3510  0.0451
  691TMC3     H10275   2.237   3.388  15.884 -3.3563  0.7532 -1.2409
  691TMC3    H110276   2.313   3.044  16.113 -1.0982 -0.8679  0.0507
  691TMC3    H210277   1.948   3.082  15.891  1.1397  0.6148 -2.4104
  691TMC3    C710278   2.077   2.933  16.076 -0.6361  0.2449 -0.2061
  691TMC3    C810279   2.049   3.270  15.760 -0.3873  0.2798 -0.4311
  691TMC3    O110280   2.159   2.854  16.119  0.0754 -0.2126 -0.0730
  691TMC3    O210281   2.082   3.176  15.686  0.5539  0.2195 -0.1624
  692TMC3    C110282   3.878   4.593  15.704 -0.0569 -0.2823  0.5988
  692TMC3    C210283   4.004   4.633  15.727 -0.2385 -0.1600 -0.5721
  692TMC3    C310284   4.107   4.543  15.719  0.2509 -0.0204 -0.0857
  692TMC3    C410285   3.856   4.473  15.646  0.6077  0.3442  0.1004
  692TMC3    C510286   3.947   4.377  15.663 -0.1596  0.2705 -0.3275
  692TMC3    C610287   4.074   4.409  15.710 -0.4591 -0.2616 -0.0015
  692TMC3     C10288   3.768   4.679  15.741 -0.0204 -0.2180 -0.3604
  692TMC3     O10289   3.659   4.626  15.770 -0.5170 -0.4353  0.4205
  692TMC3     H10290   4.024   4.719  15.791 -0.6264  1.4777 -2.6577
  692TMC3    H110291   3.757   4.451  15.607  0.8477  2.0068 -1.4229
  692TMC3    H210292   4.151   4.333  15.714 -1.4626 -1.2501  0.5059
  692TMC3    C710293   3.912   4.239  15.636  0.3565  0.3234 -0.1827
  692TMC3    C810294   4.223   4.564  15.808  0.1655  0.2281 -0.1299
  692TMC3    O110295   3.826   4.217  15.552 -0.3517  0.8645  0.1655
  692TMC3    O210296   4.256   4.476  15.886  0.3715  0.5633 -0.4062
  693MPD2     C10297   3.229   2.870  10.491  0.2740 -0.4485 -0.1494
  693MPD2    C110298   3.174   2.746  10.459  0.5516  0.9435  0.2431
  693MPD2    C210299   3.243   2.628  10.489 -0.3044 -0.3782  0.2906
  693MPD2    C310300   3.356   2.641  10.570  0.1868  0.0300  0.1978
  693MPD2    C410301   3.402   2.766  10.608 -0.5150  0.7959  0.4572
  693MPD2    C510302   3.333   2.878  10.570  0.0992 -0.0992 -0.1335
  693MPD2     H10303   3.203   2.532  10.457  1.5539 -1.3292  0.8146
  693MPD2    H110304   3.487   2.773  10.674  0.5236  0.3392 -0.8469
  693MPD2    H210305   3.174   2.959  10.464 -0.6310 -1.0367 -0.2379
  693MPD2    H310306   3.363   2.979  10.595  2.2926 -0.4915 -1.1783
  693MPD2     N10307   3.443   2.534  10.609  0.5004  0.4561  0.1960
  693MPD2    H510308   3.537   2.558  10.638  0.2420  1.9147 -0.1926
  693MPD2    N110309   3.042   2.743  10.404 -0.5469 -0.3900 -0.9629
  693MPD2    H710310   3.002   2.837  10.400 -0.7201 -0.4033  0.8486
  694TMC3    C110311   2.824   2.669  10.376  0.0510 -0.2774  0.2924
  694TMC3    C210312   2.743   2.562  10.332 -0.6499  0.9543 -0.0068
  694TMC3    C310313   2.625   2.538  10.400 -0.6279  0.3518 -0.2720
  694TMC3    C410314   2.783   2.742  10.482  0.3401  1.3343 -1.6479
  694TMC3    C510315   2.664   2.709  10.548 -0.6654 -0.0200 -1.8685
  694TMC3    C610316   2.590   2.601  10.510 -0.8685  0.3906 -0.6715
  694TMC3     C10317   2.961   2.633  10.377 -0.0056  0.7459 -0.5008
  694TMC3     O10318   2.984   2.514  10.389  0.3691  0.4392  0.2779
  694TMC3     H10319   2.789   2.503  10.253 -0.5509 -0.7566  1.3347
  694TMC3    H110320   2.846   2.819  10.524  0.3907  1.3834 -1.8169
  694TMC3    H210321   2.496   2.574  10.555 -2.9515  3.3477 -3.2230
  694TMC3    C710322   2.658   2.751  10.686 -0.1340 -0.3094  0.6289
  694TMC3    C810323   2.537   2.420  10.363  0.4780 -0.1369 -0.0185
  694TMC3    O110324   2.694   2.865  10.716  0.1489 -0.4693  1.0736
  694TMC3    O210325   2.475   2.362  10.449 -0.2126 -0.1038  0.2215
  695MPD2     C10326   4.514   4.558  13.258 -0.1218  0.2745  0.5928
  695MPD2    C110327   4.473   4.559  13.390 -1.2443 -0.8418 -0.4595
  695MPD2    C210328   4.342   4.588  13.410  0.1120  0.7515  0.0159
  695MPD2    C310329   4.245   4.593  13.306  0.0888 -0.1703  0.0893
  695MPD2    C410330   4.293   4.592  13.176  0.1016 -0.6104  0.2163
  695MPD2    C510331   4.432   4.581  13.148  0.6006 -0.5503 -0.2807
  695MPD2     H10332   4.308   4.605  13.512 -1.8562  0.3877 -0.5865
  695MPD2    H110333   4.219   4.603  13.098  1.2773  1.0117 -0.6467
  695MPD2    H210334   4.618   4.548  13.230 -0.0238 -0.4622  1.2258
  695MPD2    H310335   4.466   4.576  13.045  1.0220 -0.1810 -0.1580
  695MPD2     N10336   4.101   4.588  13.338 -0.0860  0.2150  0.2358
  695MPD2    H510337   4.084   4.587  13.438 -2.2633  0.1496 -0.1344
  695MPD2    N110338   4.561   4.547  13.503 -0.0257  0.3164 -0.1492
  695MPD2    H710339   4.519   4.567  13.593 -2.5376 -0.3647 -1.1708
  696TMC3    C110340   3.870   4.596  13.322  0.2695 -0.3516  0.2026
  696TMC3    C210341   3.850   4.537  13.443  0.6949 -0.3132  0.2569
  696TMC3    C310342   3.730   4.524  13.489  0.0354 -0.1456 -0.6128
  696TMC3    C410343   3.772   4.640  13.240  0.1593 -0.1439  0.2972
  696TMC3    C510344   3.651   4.647  13.293  0.7164  0.3189 -0.4156
  696TMC3    C610345   3.627   4.596  13.423 -0.7469  0.4939  0.1546
  696TMC3     C10346   3.998   4.593  13.252 -0.3833 -0.0217 -0.8915
  696TMC3     O10347   4.005   4.632  13.135  0.4862 -0.1340  0.0241
  696TMC3     H10348   3.935   4.487  13.489 -0.4559 -0.4450  2.2289
  696TMC3    H110349   3.795   4.693  13.148 -0.4070  0.8231  0.7101
  696TMC3    H210350   3.530   4.611  13.468 -1.8377 -2.2320 -1.2826
  696TMC3    C710351   3.580   0.031  13.260 -0.9287  0.4594  0.0061
  696TMC3    C810352   3.715   4.515  13.637 -0.4077  0.4262 -0.1104
  696TMC3    O110353   3.577   0.058  13.140 -0.2482  0.2083  0.0499
  696TMC3    O210354   3.825   4.533  13.683  0.1136  0.0347  0.1115
  697MPD2     C10355   3.711   1.163  15.796  0.9037 -0.0864 -0.0156
  697MPD2    C110356   3.722   1.142  15.658  0.0186 -0.2788  0.1830
  697MPD2    C210357   3.764   1.253  15.582  0.6159  0.6069  0.1854
  697MPD2    C310358   3.777   1.376  15.635  0.8183  0.3224  0.2744
  697MPD2    C410359   3.765   1.398  15.774  0.5452 -0.3034  0.3425
  697MPD2    C510360   3.734   1.290  15.852  0.2601 -0.8006  0.4723
  697MPD2     H10361   3.779   1.248  15.475  1.5133 -1.4460  0.4095
  697MPD2    H110362   3.786   1.492  15.823  0.3737 -1.4885  2.6548
  697MPD2    H210363   3.672   1.092  15.868 -2.4071 -1.0489 -2.7968
  697MPD2    H310364   3.737   1.296  15.961  1.9537 -1.7590  0.4894
  697MPD2     N10365   3.794   1.487  15.543 -0.4457  0.0253 -0.0212
  697MPD2    H510366   3.809   1.459  15.447  1.7218 -0.0284  0.3396
  697MPD2    N110367   3.701   1.017  15.594 -0.2359  0.2389  0.3174
  697MPD2    H710368   3.704   1.014  15.492  0.3040 -0.1213  0.3435
  698TMC3    C110369   3.859   1.692  15.460  0.3003 -0.3116 -0.2291
  698TMC3    C210370   3.947   1.790  15.476 -0.1522  0.0242 -0.1216
  698TMC3    C310371   4.013   1.842  15.369 -0.4177 -0.0492  0.8564
  698TMC3    C410372   3.823   1.644  15.335  0.5164 -0.2626 -0.2860
  698TMC3    C510373   3.880   1.710  15.234  0.0312  0.7172 -0.3328
  698TMC3    C610374   3.978   1.801  15.241  0.1304  0.5669 -0.3785
  698TMC3     C10375   3.817   1.618  15.578 -0.3029 -0.2690 -0.1298
  698TMC3     O10376   3.802   1.690  15.677 -0.6053 -0.2184  0.0940
  698TMC3     H10377   3.979   1.818  15.576 -0.6724  2.5685 -0.6618
  698TMC3    H110378   3.740   1.576  15.319  0.2089 -0.4177  1.9371
  698TMC3    H210379   4.021   1.851  15.155 -1.2400  0.8142 -0.9240
  698TMC3    C710380   3.828   1.673  15.102  0.1209 -0.0122  0.5677
  698TMC3    C810381   4.155   1.839  15.396  0.3479 -0.1052  0.0528
  698TMC3    O110382   3.733   1.597  15.097  0.9371 -0.0683 -0.0038
  698TMC3    O210383   4.188   1.748  15.470  0.1546 -0.2162  0.2253
  699TMC3    C110384   3.339   4.646  12.912 -0.7226  0.3813  1.1811
  699TMC3    C210385   3.450   4.573  12.958 -0.1582  0.1312  0.3254
  699TMC3    C310386   3.421   4.470  13.041 -0.3632 -0.7646 -0.1793
  699TMC3    C410387   3.213   4.605  12.934  0.1815 -0.1133 -0.2209
  699TMC3    C510388   3.190   4.487  13.005 -0.0401  0.0188  0.0124
  699TMC3    C610389   3.295   4.420  13.064 -0.8679 -0.4472 -0.0977
  699TMC3     C10390   3.362   0.017  12.818  0.5812 -0.1859  0.2582
  699TMC3     O10391   3.262   0.074  12.779 -0.6371 -0.5804  0.3331
  699TMC3     H10392   3.555   4.591  12.940 -0.0663  0.5630  1.2446
  699TMC3    H110393   3.132   4.667  12.897  0.0282 -0.3582 -0.2905
  699TMC3    H210394   3.282   4.333  13.127 -1.0835  1.1683  2.0472
  699TMC3    C710395   3.063   4.468  13.064  0.1138 -1.3574 -0.6353
  699TMC3    C810396   3.523   4.397  13.118 -0.3412  0.6462 -0.0566
  699TMC3    O110397   3.066   4.403  13.168 -0.4553 -0.5317  0.5603
  699TMC3    O210398   3.487   4.339  13.220 -0.3545  0.6189 -0.1140
  700TMC3    C110399   2.459   2.103  17.002  0.0199  0.0197 -0.0989
  700TMC3    C210400   2.526   1.980  16.988  0.3537 -0.3864 -1.5512
  700TMC3    C310401   2.631   1.949  17.072 -0.0670  0.3599  0.0458
  700TMC3    C410402   2.505   2.196  17.096 -0.4784 -0.0358 -0.1885
  700TMC3    C510403   2.602   2.156  17.187 -0.4391  0.5891 -0.2234
  700TMC3    C610404   2.673   2.038  17.172  0.5634  0.1829 -0.3546
  700TMC3     C10405   2.421   2.143  16.867 -0.2727 -0.0760  0.7229
  700TMC3     O10406   2.347   2.070  16.804 -0.6011 -0.0334  0.9682
  700TMC3     H10407   2.488   1.912  16.913 -3.3001  0.7812 -0.7751
  700TMC3    H110408   2.463   2.295  17.109  0.0086  0.0040  1.0529
  700TMC3    H210409   2.753   2.010  17.240 -0.5406 -0.5820  0.6240
  700TMC3    C710410   2.657   2.260  17.279  0.5754 -0.2504 -0.9067
  700TMC3    C810411   2.719   1.836  17.045  0.1652 -0.3375 -0.2762
  700TMC3    O110412   2.777   2.244  17.304 -0.1646  0.3021  0.3837
  700TMC3    O210413   2.835   1.872  17.036 -0.4406  0.0188 -0.4059
  701TMC3    C110414   3.033   0.927  15.429 -0.4217  0.4122  0.4664
  701TMC3    C210415   3.024   0.861  15.308 -0.1792  0.4118 -0.4742
  701TMC3    C310416   3.140   0.858  15.237  0.4415  0.8839 -0.5667
  701TMC3    C410417   3.146   0.988  15.473 -0.3533  0.2794 -1.2896
  701TMC3    C510418   3.263   0.980  15.398 -0.2938 -0.0512  0.4187
  701TMC3    C610419   3.257   0.922  15.271  0.3983 -0.3464 -0.0740
  701TMC3     C10420   2.911   0.956  15.504 -0.0687 -0.1250  0.5956
  701TMC3     O10421   2.913   0.989  15.622 -0.2213 -0.2027 -0.2086
  701TMC3     H10422   2.953   0.780  15.301 -0.0226  0.0063  2.5411
  701TMC3    H110423   3.146   1.025  15.575  0.8028  1.0948 -1.5841
  701TMC3    H210424   3.341   0.923  15.203  0.6444 -0.6597  0.2228
  701TMC3    C710425   3.354   1.093  15.412 -0.0196  0.1070 -0.1743
  701TMC3    C810426   3.151   0.780  15.116 -0.7700 -0.2628  0.7705
  701TMC3    O110427   3.422   1.118  15.317  0.0481  0.7011  0.2320
  701TMC3    O210428   3.269   0.749  15.080 -0.3897 -0.1750  0.6961
  702MPD2     C10429   2.268   3.216  10.281 -0.3439  0.1288  0.6248
  702MPD2    C110430   2.150   3.281  10.288 -1.0241  0.5305 -0.3166
  702MPD2    C210431   2.113   3.359  10.178  0.3346  0.1081 -0.5656
  702MPD2    C310432   2.191   3.376  10.066 -0.1837 -0.1083  0.4244
  702MPD2    C410433   2.314   3.323  10.067 -0.2335  0.3860  0.4397
  702MPD2    C510434   2.343   3.239  10.173  0.0838  0.7779 -0.0054
  702MPD2     H10435   2.019   3.410  10.191  1.0474  0.4672  3.2025
  702MPD2    H110436   2.381   3.342   9.984 -0.2226  1.3817  0.6833
  702MPD2    H210437   2.309   3.142  10.348 -0.3452 -0.9929 -0.6101
  702MPD2    H310438   2.435   3.182  10.167  0.2869  1.1152 -0.0998
  702MPD2     N10439   2.157   3.457   9.955 -0.0108  0.5945  0.8589
  702MPD2    H510440   2.222   3.477   9.880 -1.7929  1.7231 -0.3689
  702MPD2    N110441   2.068   3.287  10.409 -0.3509 -0.0817 -0.0597
  702MPD2    H710442   1.999   3.361  10.402 -0.0688  0.1600 -0.2986
  703TMC3    C110443   2.014   3.647   9.990  0.2099 -0.0566 -0.3742
  703TMC3    C210444   1.915   3.672  10.080 -0.0963  0.4536  0.3510
  703TMC3    C310445   1.947   3.701  10.205 -0.0592  0.0982 -0.2436
  703TMC3    C410446   2.142   3.695  10.014  0.3058 -0.0708  0.1620
  703TMC3    C510447   2.174   3.730  10.146  0.5218  0.0231 -0.4224
  703TMC3    C610448   2.082   3.722  10.240 -0.2262 -0.5315  0.1092
  703TMC3     C10449   2.029   3.502   9.943 -0.6762  0.3742 -0.0102
  703TMC3     O10450   1.929   3.437   9.975  0.4092 -0.0973  0.1806
  703TMC3     H10451   1.813   3.641  10.057 -1.2116  3.9856  0.5997
  703TMC3    H110452   2.225   3.670   9.948 -0.2502  1.8469 -1.2589
  703TMC3    H210453   2.105   3.733  10.345 -1.5620  2.3045  0.1142
  703TMC3    C710454   2.310   3.736  10.179 -0.4083  0.6839  0.0994
  703TMC3    C810455   1.875   3.619  10.286  0.0922  0.2553  0.1309
  703TMC3    O110456   2.387   3.758  10.087 -0.1139 -0.0015  0.3608
  703TMC3    O210457   1.941   3.546  10.364 -0.2253 -0.4734 -0.4154
  704TMC3    C110458   0.433   1.602  12.496  0.2048 -0.1737 -0.0008
  704TMC3    C210459   0.456   1.602  12.363  0.0444 -0.0808  0.6965
  704TMC3    C310460   0.577   1.559  12.315  0.3060 -0.8844 -0.3754
  704TMC3    C410461   0.526   1.555  12.586  0.3351  0.2935 -0.0684
  704TMC3    C510462   0.643   1.511  12.537 -0.5733 -0.2056  0.0803
  704TMC3    C610463   0.672   1.507  12.404 -0.9595 -0.1627 -0.3204
  704TMC3     C10464   0.299   1.562  12.539 -0.2926  0.2404 -1.1204
  704TMC3     O10465   0.262   1.565  12.656  0.0371 -0.1370 -0.7407
  704TMC3     H10466   0.393   1.657  12.293  0.5561 -2.6704 -1.8215
  704TMC3    H110467   0.508   1.535  12.691 -1.9538  0.7572 -0.3796
  704TMC3    H210468   0.752   1.448  12.362  0.0731 -0.6699  2.3282
  704TMC3    C710469   0.741   1.449  12.619  0.4521  0.1592 -0.1434
  704TMC3    C810470   0.583   1.534  12.170 -0.5814  0.2783  0.6092
  704TMC3    O110471   0.857   1.479  12.589 -0.4522  0.7403  0.0920
  704TMC3    O210472   0.477   1.549  12.114  0.3347 -0.4345 -0.3601
  705MPD2     C10473   4.534   4.267  16.414 -0.1817 -0.5305  0.1520
  705MPD2    C110474   4.492   4.363  16.319  0.2507  0.8337 -0.0572
  705MPD2    C210475   4.390   4.449  16.361 -0.0281 -0.2535  0.0517
  705MPD2    C310476   4.313   4.427  16.483 -0.4848  0.9745  0.3272
  705MPD2    C410477   4.356   4.327  16.568 -0.1077 -0.1450  0.2749
  705MPD2    C510478   4.465   4.257  16.532 -0.2010 -0.2204 -0.1239
  705MPD2     H10479   4.341   4.515  16.290  0.4264 -2.1285 -2.0189
  705MPD2    H110480   4.300   4.300  16.657  3.7146 -4.2039  1.4404
  705MPD2    H210481   4.615   4.199  16.394  0.6943  0.4552  0.3350
  705MPD2    H310482   4.496   4.177  16.598  0.2223  0.2969  0.3053
  705MPD2     N10483   4.192   4.497  16.519 -0.5443  0.8954  0.2093
  705MPD2    H510484   4.136   4.472  16.599  0.5809  0.3519  0.8296
  705MPD2    N110485   4.550   4.377  16.193 -0.0921 -0.3104 -0.4096
  705MPD2    H710486   4.526   4.461  16.141 -0.7735  1.3594  2.5925
  706TMC3    C110487   0.112   4.328  15.829 -0.6642 -0.6757 -0.1245
  706TMC3    C210488   0.062   4.436  15.764 -0.4003  0.0981 -0.1509
  706TMC3    C310489   4.690   4.497  15.820  0.3457  0.5581  0.1716
  706TMC3    C410490   0.069   4.297  15.955  0.0023 -0.5450  0.2791
  706TMC3    C510491   4.701   4.359  16.008 -0.6646  0.5420  0.8343
  706TMC3    C610492   4.640   4.468  15.944  0.8593 -0.4719  0.2608
  706TMC3     C10493   0.204   4.238  15.762 -0.3835  0.0101 -0.0091
  706TMC3     O10494   0.283   4.172  15.831  0.3725  0.1049  0.1044
  706TMC3     H10495   0.082   4.467  15.661  0.3827 -0.9588 -0.3170
  706TMC3    H110496   0.110   4.210  16.006 -0.1552 -2.2312 -2.4945
  706TMC3    H210497   4.565   4.529  15.993  2.3555  0.7183  1.0500
  706TMC3    C710498   4.657   4.306  16.143 -0.3155  0.4943  0.4173
  706TMC3    C810499   4.674   4.636  15.775 -0.7314 -0.3334 -0.3675
  706TMC3    O110500   4.706   4.201  16.181  0.0879  0.3724 -0.3282
  706TMC3    O210501   4.690   4.661  15.657  0.2562  0.2766  0.4265
  707TMC3    C110502   0.719   2.812   0.764 -0.4797  0.0870 -0.2523
  707TMC3    C210503   0.737   2.692   0.827  0.1205  0.2138  0.1888
  707TMC3    C310504   0.655   2.579   0.820 -0.3580  0.7751 -0.4050
  707TMC3    C410505   0.614   2.828   0.678  0.3676 -0.3297  0.8847
  707TMC3    C510506   0.529   2.721   0.670 -0.4283  0.8636  0.1061
  707TMC3    C610507   0.548   2.594   0.733 -0.5064 -1.0055  1.1259
  707TMC3     C10508   0.829   2.901   0.749 -0.3293 -0.5548  0.7342
  707TMC3     O10509   0.934   2.872   0.805  0.0672 -0.5100  0.4824
  707TMC3     H10510   0.826   2.685   0.889 -0.2683  0.8711  0.8206
  707TMC3    H110511   0.595   2.912   0.612  2.5412 -0.2295  0.3818
  707TMC3    H210512   0.484   2.513   0.701 -0.2923 -0.8431  0.2990
  707TMC3    C710513   0.419   2.732   0.576  0.2812  0.1387 -0.6547
  707TMC3    C810514   0.675   2.454   0.894 -0.1389 -0.8720 -0.2052
  707TMC3    O110515   0.414   2.834   0.513  0.5769  0.4585  0.1111
  707TMC3    O210516   0.581   2.377   0.893  0.4534 -0.0652  0.1526
  708MPD2     C10517   2.638   2.783  14.467 -0.0911 -0.3396  0.2491
  708MPD2    C110518   2.734   2.872  14.455  0.2920 -0.2343  0.0441
  708MPD2    C210519   2.790   2.924  14.566  0.2385 -0.4509 -0.5606
  708MPD2    C310520   2.761   2.866  14.693 -0.7585 -0.8895  0.0914
  708MPD2    C410521   2.668   2.767  14.702 -0.1148 -0.4550 -0.3657
  708MPD2    C510522   2.602   2.724  14.584 -0.0892  0.2915  0.4708
  708MPD2     H10523   2.870   2.997  14.556  0.4123 -0.5018  0.5357
  708MPD2    H110524   2.636   2.720  14.795 -0.4026 -2.5358 -1.5143
  708MPD2    H210525   2.596   2.738  14.378 -2.1669  0.0594  1.0327
  708MPD2    H310526   2.536   2.638  14.584  0.2254  0.0487  0.9939
  708MPD2     N10527   2.831   2.896  14.811 -0.6400 -0.1568  0.5067
  708MPD2    H510528   2.839   2.817  14.875 -0.9739 -0.4227  0.2212
  708MPD2    N110529   2.760   2.918  14.323 -0.1537  0.5301  0.5072
  708MPD2    H710530   2.739   2.853  14.248  0.2439 -1.3841  2.0449
  709TMC3    C110531   2.832   3.059  14.156 -0.4012  0.5830 -0.3874
  709TMC3    C210532   2.823   2.949  14.075 -0.3984  0.4852 -0.6156
  709TMC3    C310533   2.739   2.962  13.967 -0.0488  0.4943 -0.3661
  709TMC3    C410534   2.762   3.173  14.129  0.2140 -0.3954 -0.1790
  709TMC3    C510535   2.675   3.183  14.027  0.1541 -0.4285  0.3006
  709TMC3    C610536   2.665   3.078  13.938  0.5976 -0.0115  0.0101
  709TMC3     C10537   2.829   3.033  14.295  0.2164 -0.8460  0.1086
  709TMC3     O10538   2.881   3.123  14.361 -0.3102 -0.1518 -0.7320
  709TMC3     H10539   2.865   2.849  14.083  0.8636  1.2493  2.4532
  709TMC3    H110540   2.777   3.258  14.194 -0.0493 -0.8075  0.4140
  709TMC3    H210541   2.593   3.087  13.858  2.1467  0.8845 -1.2852
  709TMC3    C710542   2.556   3.234  14.077  0.2647 -0.0898 -0.7614
  709TMC3    C810543   2.732   2.849  13.872 -0.3387 -1.4334  0.0174
  709TMC3    O110544   2.571   3.335  14.146  0.0460 -0.3783  0.1683
  709TMC3    O210545   2.758   2.730  13.905  0.5875 -0.0690  0.2251
  710TMC3    C110546   3.820   4.412   0.244 -0.2459  0.6035  0.4127
  710TMC3    C210547   3.906   4.358   0.158  0.6851 -0.3523  0.7393
  710TMC3    C310548   3.989   4.261   0.206 -0.1190  0.7382  0.7892
  710TMC3    C410549   3.814   4.379   0.386 -0.0251 -0.2234 -0.1034
  710TMC3    C510550   3.900   4.281   0.427 -0.3278  0.7064 -0.1179
  710TMC3    C610551   3.991   4.225   0.342 -0.2224  1.1972  0.3872
  710TMC3     C10552   3.737   4.514   0.189  0.7347 -0.3410  0.1154
  710TMC3     O10553   3.784   4.564   0.086 -0.0072  0.1041  0.2024
  710TMC3     H10554   3.884   4.366   0.052 -0.7631  0.8736  1.1235
  710TMC3    H110555   3.748   4.435   0.451 -0.5464  1.4903 -2.1191
  710TMC3    H210556   4.031   4.129   0.373 -0.6380 -0.1390 -3.1400
  710TMC3    C710557   3.895   4.247   0.560  0.6168 -0.3432  0.4548
  710TMC3    C810558   4.072   4.172   0.120 -0.6429 -0.0401  0.2075
  710TMC3    O110559   3.792   4.279   0.621 -0.6826  0.3714 -0.2417
  710TMC3    O210560   4.152   4.101   0.177  0.3744  0.0184  0.3368
  711TMC3    C110561   3.362   0.308  14.770  0.4870 -0.5683 -0.0313
  711TMC3    C210562   3.372   0.353  14.896 -0.2469  0.6594 -0.2059
  711TMC3    C310563   3.480   0.442  14.914  0.6869  0.1998  0.2361
  711TMC3    C410564   3.453   0.336  14.675 -0.2603  0.3270 -0.1412
  711TMC3    C510565   3.562   0.416  14.697  0.4669  0.0310 -0.3660
  711TMC3    C610566   3.576   0.477  14.820  0.4096 -0.7446  0.2552
  711TMC3     C10567   3.317   0.177  14.748 -0.0539  0.3189  0.4191
  711TMC3     O10568   3.238   0.162  14.659  0.3140 -0.7363  0.2065
  711TMC3     H10569   3.312   0.313  14.977  0.6402 -1.2170 -0.4837
  711TMC3    H110570   3.449   0.285  14.580 -0.1222  0.7624 -0.3849
  711TMC3    H210571   3.652   0.552  14.835  1.6885 -2.2381  1.3396
  711TMC3    C710572   3.685   0.342  14.674 -0.0113 -0.4550  0.9930
  711TMC3    C810573   3.511   0.454  15.046 -0.7397  0.0303  0.2303
  711TMC3    O110574   3.763   0.374  14.762 -0.2865  0.5668  0.4384
  711TMC3    O210575   3.423   0.453  15.129  0.1740 -0.2576  0.2477
  712MPD2     C10576   0.328   1.309  13.959 -0.4851 -0.5883 -0.2424
  712MPD2    C110577   0.217   1.373  13.916  0.5017 -0.4625 -0.5069
  712MPD2    C210578   0.184   1.501  13.962  1.4196 -0.9117 -0.2348
  712MPD2    C310579   0.283   1.567  14.043 -0.0108  0.4617 -0.1421
  712MPD2    C410580   0.402   1.506  14.078  0.3365 -0.3543 -0.4094
  712MPD2    C510581   0.417   1.376  14.038 -0.0788 -0.5044  0.2001
  712MPD2     H10582   0.092   1.551  13.934  0.7715 -0.8777  1.9996
  712MPD2    H110583   0.484   1.557  14.127 -0.4043  0.3305  0.1115
  712MPD2    H210584   0.350   1.203  13.945  3.9934  0.6494 -2.5250
  712MPD2    H310585   0.511   1.331  14.069  0.4244  1.5207  1.5887
  712MPD2     N10586   0.265   1.695  14.097  0.2359  0.2632 -0.8798
  712MPD2    H510587   0.347   1.737  14.140  1.3208  0.2675 -2.9489
  712MPD2    N110588   0.127   1.317  13.821 -0.3403  0.2327 -0.5379
  712MPD2    H710589   0.039   1.361  13.797  0.1225  1.5384  0.1375
  713TMC3    C110590   0.179   1.909  14.111 -0.8221 -0.3105 -0.4714
  713TMC3    C210591   0.310   1.961  14.094  0.4212 -0.1186 -0.2674
  713TMC3    C310592   0.329   2.095  14.065  0.3491 -0.3364  0.4446
  713TMC3    C410593   0.069   1.988  14.090  0.4156  0.3473 -0.4324
  713TMC3    C510594   0.094   2.119  14.060  0.9522  0.3457 -0.3884
  713TMC3    C610595   0.218   2.172  14.040  0.1367 -0.3021 -0.4927
  713TMC3     C10596   0.151   1.769  14.087 -1.0430 -0.7056 -0.7196
  713TMC3     O10597   0.037   1.736  14.056 -0.2562 -0.0642 -0.1557
  713TMC3     H10598   0.395   1.895  14.102  1.2209  1.4901  4.3891
  713TMC3    H110599   4.706   1.950  14.096  0.6818 -0.0062  2.1142
  713TMC3    H210600   0.227   2.267  13.988  1.3355 -0.0754  0.1281
  713TMC3    C710601   4.713   2.193  14.015  0.0066  1.0094 -0.2502
  713TMC3    C810602   0.456   2.146  14.025 -0.0237  0.2539 -0.3809
  713TMC3    O110603   4.614   2.127  13.978 -0.2126 -0.1622  0.6081
  713TMC3    O210604   0.468   2.213  13.924  0.3019 -0.8420  0.2055
  714MPD2     C10605   2.346   0.133   1.343 -0.2586 -0.0306  0.5205
  714MPD2    C110606   2.322   0.025   1.250 -0.0832 -0.7191  0.5255
  714MPD2    C210607   2.198   0.021   1.188  0.3439  0.0594 -0.2187
  714MPD2    C310608   2.095   0.109   1.228  0.4506 -0.2205 -0.4359
  714MPD2    C410609   2.120   0.200   1.331  0.4093  0.1104  0.8555
  714MPD2    C510610   2.241   0.207   1.389 -0.1430  0.0720  0.2867
  714MPD2     H10611   2.180   4.695   1.103  2.4461  0.0679 -0.6786
  714MPD2    H110612   2.039   0.255   1.378  0.1004  3.6139 -3.8826
  714MPD2    H210613   2.449   0.145   1.374  0.4637 -0.9005 -1.5496
  714MPD2    H310614   2.261   0.280   1.467 -1.3371 -2.1431  2.6605
  714MPD2     N10615   1.975   0.108   1.159  0.4601  0.6764  0.1216
  714MPD2    H510616   1.971   0.050   1.076  1.5191 -0.0578  0.5930
  714MPD2    N110617   2.426   4.675   1.226  0.0088  0.1448 -0.3476
  714MPD2    H710618   2.514   4.690   1.274 -0.2636  1.9262 -0.3887
  715TMC3    C110619   2.556   4.516   1.123 -0.5406 -0.2262 -0.1544
  715TMC3    C210620   2.551   4.418   1.022  0.8129  0.6374  0.4957
  715TMC3    C310621   2.664   4.341   0.999  0.3478 -0.7593 -0.1400
  715TMC3    C410622   2.660   4.535   1.208  0.0637  0.6675 -0.3136
  715TMC3    C510623   2.771   4.458   1.175  0.1879  0.5699 -0.2283
  715TMC3    C610624   2.775   4.369   1.072 -0.6013 -0.2936 -0.2573
  715TMC3     C10625   2.424   4.569   1.145 -1.0152  0.1196  0.0003
  715TMC3     O10626   2.331   4.518   1.083 -0.1712  1.0249  0.1480
  715TMC3     H10627   2.470   4.388   0.956 -0.4813  1.4602  1.7023
  715TMC3    H110628   2.654   4.601   1.294  0.5458  0.0777  0.1710
  715TMC3    H210629   2.867   4.312   1.061 -0.4289 -0.1131  0.2375
  715TMC3    C710630   2.872   4.450   1.274  0.4215 -0.4199  0.3658
  715TMC3    C810631   2.660   4.219   0.920  0.0325 -0.2017  0.2346
  715TMC3    O110632   2.992   4.458   1.246 -0.2239  0.1339 -0.2565
  715TMC3    O210633   2.550   4.188   0.880 -0.0016  0.1453 -0.2844
  716MPD2     C10634   1.757   3.441   9.517  0.4136 -0.0601  0.2297
  716MPD2    C110635   1.712   3.320   9.480 -0.4914  0.1984 -0.1797
  716MPD2    C210636   1.790   3.209   9.525 -0.2270  0.3127 -0.7464
  716MPD2    C310637   1.914   3.226   9.579 -0.2329 -0.8146 -0.3850
  716MPD2    C410638   1.963   3.357   9.592  0.3340 -1.6522  0.1063
  716MPD2    C510639   1.879   3.461   9.569  0.0699 -0.2369 -0.8307
  716MPD2     H10640   1.750   3.109   9.512  0.8617 -0.0371 -1.3991
  716MPD2    H110641   2.062   3.375   9.634  0.4341  3.2850 -2.3149
  716MPD2    H210642   1.693   3.527   9.500  0.4989 -0.3199 -1.3594
  716MPD2    H310643   1.915   3.563   9.580 -0.6407 -0.0794  0.0169
  716MPD2     N10644   1.994   3.111   9.592 -0.3988  0.2107 -0.4284
  716MPD2    H510645   1.956   3.026   9.553 -0.0080 -0.3033  0.3054
  716MPD2    N110646   1.581   3.315   9.426 -0.2910  0.1459  0.1259
  716MPD2    H710647   1.535   3.404   9.406  0.5467  1.1080  2.4482
  717TMC3    C110648   2.201   2.998   9.637 -0.2048  0.1654  0.0602
  717TMC3    C210649   2.155   2.890   9.568  0.5505  0.2225  0.3455
  717TMC3    C310650   2.231   2.777   9.558  0.6936 -0.7374 -0.0389
  717TMC3    C410651   2.331   3.006   9.682 -0.1117  0.1057 -0.3946
  717TMC3    C510652   2.406   2.891   9.672 -0.2170  0.0065  0.3792
  717TMC3    C610653   2.356   2.778   9.608  0.1194 -0.2020  0.7491
  717TMC3     C10654   2.122   3.118   9.644  0.5836  0.7491  0.0565
  717TMC3     O10655   2.175   3.209   9.701  0.0597  0.1686  0.2532
  717TMC3     H10656   2.057   2.873   9.524  0.5370  0.8372  0.1483
  717TMC3    H110657   2.371   3.099   9.720  1.8679 -0.7222 -0.5060
  717TMC3    H210658   2.418   2.694   9.580 -0.6939 -0.5629  0.0722
  717TMC3    C710659   2.534   2.873   9.738  0.6917  0.2274 -0.1605
  717TMC3    C810660   2.193   2.678   9.459  0.7704 -0.4282 -0.0802
  717TMC3    O110661   2.596   2.769   9.726 -0.3640  0.3894  0.8007
  717TMC3    O210662   2.121   2.716   9.368 -0.4235 -0.4259  0.3742
  718MPD2     C10663   1.159   2.133  12.222 -0.5840 -0.1994 -0.1607
  718MPD2    C110664   1.194   1.994  12.217 -0.4981  0.4459  0.2007
  718MPD2    C210665   1.236   1.933  12.334  0.0402 -0.1693  0.2292
  718MPD2    C310666   1.263   2.011  12.449 -0.3262  0.3100  0.2110
  718MPD2    C410667   1.230   2.142  12.449 -0.1325  0.1744  0.0524
  718MPD2    C510668   1.174   2.204  12.340  0.1318 -0.0654 -0.2566
  718MPD2     H10669   1.275   1.832  12.330 -0.3488 -0.2466 -1.3688
  718MPD2    H110670   1.238   2.207  12.536 -2.1379  0.8324 -0.2662
  718MPD2    H210671   1.141   2.169  12.122  0.8824 -1.2222 -0.7921
  718MPD2    H310672   1.149   2.309  12.343 -0.2830 -0.1930  0.8939
  718MPD2     N10673   1.325   1.945  12.552  0.8621  0.2560 -0.1953
  718MPD2    H510674   1.325   1.844  12.548  0.5420  0.2961 -1.1469
  718MPD2    N110675   1.179   1.933  12.094 -0.3160 -0.3587  0.3121
  718MPD2    H710676   1.144   1.987  12.016 -1.8300  0.9700  1.9245
  719TMC3    C110677   1.240   1.775  11.945 -0.5049 -0.7643  0.8633
  719TMC3    C210678   1.290   1.653  11.930 -0.2171 -0.4651 -0.0855
  719TMC3    C310679   1.416   1.631  11.883  0.3835  0.3169 -1.2717
  719TMC3    C410680   1.311   1.880  11.894  0.0120 -0.1589 -0.1258
  719TMC3    C510681   1.437   1.863  11.842 -0.1461  0.2986 -0.6713
  719TMC3    C610682   1.491   1.737  11.845  0.4276  0.1600  0.4116
  719TMC3     C10683   1.201   1.799  12.079 -0.6118 -0.5117 -0.2359
  719TMC3     O10684   1.197   1.702  12.151 -0.4447  0.2176 -0.4073
  719TMC3     H10685   1.231   1.569  11.964 -0.1200 -0.7838 -0.7077
  719TMC3    H110686   1.266   1.978  11.892  0.2988 -0.0465 -1.0900
  719TMC3    H210687   1.599   1.730  11.836  0.6683  2.1589  1.7975
  719TMC3    C710688   1.531   1.976  11.847  0.5597 -0.2416  0.2090
  719TMC3    C810689   1.488   1.526  11.957 -0.5353 -0.1259  0.3402
  719TMC3    O110690   1.616   1.979  11.759 -0.1993  0.0624 -0.6752
  719TMC3    O210691   1.572   1.462  11.899 -0.6551 -0.0801  0.0781
  720MPD2     C10692   0.023   3.306  13.687 -0.1015 -0.0445 -0.6832
  720MPD2    C110693   0.129   3.346  13.604 -0.5414 -0.3661 -0.5064
  720MPD2    C210694   0.263   3.325  13.653 -0.6355 -0.4812 -0.8310
  720MPD2    C310695   0.280   3.258  13.775 -0.4918 -0.1644 -0.7155
  720MPD2    C410696   0.172   3.217  13.847  0.6396 -0.3976  0.1098
  720MPD2    C510697   0.041   3.250  13.806 -0.0012 -0.2108  0.2063
  720MPD2     H10698   0.350   3.359  13.598  0.4033 -0.5197  0.8166
  720MPD2    H110699   0.184   3.170  13.944 -0.8260  0.3851  0.6637
  720MPD2    H210700   4.659   3.300  13.653 -0.5799 -0.2936  0.8131
  720MPD2    H310701   4.697   3.217  13.869 -1.1163 -0.9654 -1.6521
  720MPD2     N10702   0.417   3.219  13.803  0.1490 -0.4612 -0.0323
  720MPD2    H510703   0.497   3.260  13.756  0.5756  0.2736  1.3200
  720MPD2    N110704   0.105   3.394  13.476  0.0444 -0.2714 -0.6506
  720MPD2    H710705   0.187   3.392  13.416  1.0410  0.2664  0.6875
  721TMC3    C110706   0.570   3.194  13.981  0.0404  0.1239  0.5764
  721TMC3    C210707   0.558   3.243  14.109 -0.5708  0.0731 -0.1031
  721TMC3    C310708   0.668   3.265  14.188 -0.2439 -0.4629  0.4612
  721TMC3    C410709   0.695   3.178  13.926 -0.0031 -0.5146  0.3181
  721TMC3    C510710   0.801   3.209  14.003 -0.2758 -0.1122 -0.9202
  721TMC3    C610711   0.789   3.251  14.131 -0.2977 -0.2473  0.6128
  721TMC3     C10712   0.451   3.144  13.912  0.0590 -0.6073 -0.1544
  721TMC3     O10713   0.381   3.063  13.976  0.1119 -0.5603 -0.3543
  721TMC3     H10714   0.467   3.271  14.160 -0.1476 -1.6973  1.6056
  721TMC3    H110715   0.706   3.143  13.824 -0.0787  0.9587 -0.1961
  721TMC3    H210716   0.872   3.297  14.184  0.0473 -0.2188  0.0403
  721TMC3    C710717   0.934   3.181  13.961  0.3410  1.0646 -0.4031
  721TMC3    C810718   0.657   3.395  14.255  0.4329 -0.4197  0.0497
  721TMC3    O110719   0.965   3.191  13.844  0.0562  0.9706  0.4308
  721TMC3    O210720   0.681   3.492  14.185  0.1381  0.3519 -0.4807
  722MPD2     C10721   3.905   2.042  13.355 -0.0059  0.0024 -0.1326
  722MPD2    C110722   3.835   2.160  13.381  1.1968 -0.5119  0.1255
  722MPD2    C210723   3.700   2.161  13.345 -0.5901 -0.8443 -0.1757
  722MPD2    C310724   3.631   2.046  13.323  0.3908 -1.0353 -0.3517
  722MPD2    C410725   3.695   1.926  13.322 -0.5361  0.4177  0.0896
  722MPD2    C510726   3.833   1.930  13.322 -0.1786  0.4383 -0.5435
  722MPD2     H10727   3.641   2.252  13.352 -1.2385 -1.0864 -2.3130
  722MPD2    H110728   3.645   1.833  13.299 -0.2621  0.9389 -2.6779
  722MPD2    H210729   4.011   2.027  13.372 -0.2059  1.0676  1.9522
  722MPD2    H310730   3.876   1.832  13.306 -0.0653  0.3464  0.3597
  722MPD2     N10731   3.499   2.062  13.285 -0.3221  0.3556  0.5579
  722MPD2    H510732   3.460   2.155  13.291 -0.1601  0.5130 -0.7842
  722MPD2    N110733   3.905   2.279  13.416  0.2675  0.4555 -0.0746
  722MPD2    H710734   3.839   2.356  13.411  0.9030  1.0709  1.1338
  723TMC3    C110735   3.282   2.016  13.210  0.1972 -0.4059 -0.0298
  723TMC3    C210736   3.183   1.924  13.170  0.0352  0.5537  0.2381
  723TMC3    C310737   3.057   1.972  13.157  0.2609  0.5755  1.1180
  723TMC3    C410738   3.252   2.147  13.232  0.4066  0.5576  0.0596
  723TMC3    C510739   3.133   2.193  13.203  0.4763 -0.9669  0.7266
  723TMC3    C610740   3.030   2.108  13.180  0.3575 -0.3636 -0.3225
  723TMC3     C10741   3.415   1.960  13.240 -0.5324  0.0137 -0.5903
  723TMC3     O10742   3.440   1.841  13.210 -0.0061  0.3996  0.3588
  723TMC3     H10743   3.205   1.817  13.167  0.5728  0.6971 -0.9428
  723TMC3    H110744   3.330   2.222  13.239  0.7601 -0.1079  3.0355
  723TMC3    H210745   2.929   2.147  13.179  0.5403  0.1125 -0.1538
  723TMC3    C710746   3.109   2.338  13.217  0.0883 -0.2219 -0.1786
  723TMC3    C810747   2.950   1.894  13.104  1.0698  0.1489  0.3597
  723TMC3    O110748   3.193   2.396  13.288  0.3778  0.1061  0.6206
  723TMC3    O210749   2.835   1.932  13.122  0.2101  0.0121 -0.0951
  724TMC3    C110750   3.944   4.723  10.376  0.0964 -0.6944  0.7911
  724TMC3    C210751   3.960   0.059  10.261  0.6943  0.1544  0.9334
  724TMC3    C310752   3.973   0.195  10.273  0.5950 -0.2258 -0.6048
  724TMC3    C410753   3.954   0.041  10.503  0.4225  0.0405  0.3587
  724TMC3    C510754   3.971   0.178  10.510 -0.4337  0.0496 -0.0356
  724TMC3    C610755   3.982   0.255  10.398  0.1478 -0.3451 -0.9098
  724TMC3     C10756   3.928   4.576  10.348  0.0963  0.3239  0.2047
  724TMC3     O10757   3.976   4.500  10.436  0.0087  0.3845  0.1900
  724TMC3     H10758   3.941   0.019  10.162  2.1598 -0.2136  0.7966
  724TMC3    H110759   3.939   4.715  10.589 -0.4632  0.7843  0.7556
  724TMC3    H210760   4.005   0.360  10.414  0.9551 -0.7585  0.6407
  724TMC3    C710761   3.979   0.253  10.640 -0.3177 -0.4071 -0.1125
  724TMC3    C810762   4.000   0.268  10.148 -0.2087 -0.1331  0.4984
  724TMC3    O110763   3.932   0.370  10.637 -0.0863 -0.4091  0.9961
  724TMC3    O210764   4.033   0.205  10.049  0.4054  0.0131 -0.0925
  725TMC3    C110765   0.407   4.061  12.722 -0.4304  0.1697  0.0089
  725TMC3    C210766   0.294   4.069  12.641 -0.2344 -0.1184 -1.0073
  725TMC3    C310767   0.239   3.948  12.612  0.2894 -0.0971 -0.3449
  725TMC3    C410768   0.457   3.939  12.768  0.4806  0.1081 -0.9454
  725TMC3    C510769   0.393   3.825  12.727 -0.0938  0.3022  0.1177
  725TMC3    C610770   0.284   3.827  12.648  0.7680 -0.4581  0.1627
  725TMC3     C10771   0.481   4.181  12.770  0.6456 -0.4248  0.5909
  725TMC3     O10772   0.598   4.166  12.808 -0.7396  1.3134  0.2844
  725TMC3     H10773   0.240   4.161  12.624 -1.0825 -1.3756 -5.2287
  725TMC3    H110774   0.547   3.936  12.828 -0.2048  1.2115  0.1298
  725TMC3    H210775   0.232   3.740  12.607  0.1978  0.3094 -0.7398
  725TMC3    C710776   0.456   3.691  12.742 -0.0128  0.0305 -0.7280
  725TMC3    C810777   0.136   3.946  12.511 -0.6551  0.4776  0.5104
  725TMC3    O110778   0.401   3.601  12.681 -0.3311  0.5299  0.6630
  725TMC3    O210779   0.060   3.849  12.508  0.6557  0.6340  0.3845
  726MPD2     C10780   2.960   0.545   9.958  0.4436 -0.8994  0.3627
  726MPD2    C110781   2.838   0.609   9.943  0.2246  0.2383  0.2841
  726MPD2    C210782   2.726   0.546   9.989  0.9270 -0.0308 -0.4506
  726MPD2    C310783   2.734   0.423  10.056  0.0819 -0.3435 -0.2076
  726MPD2    C410784   2.854   0.359  10.065  0.0333  0.4027  0.3082
  726MPD2    C510785   2.963   0.422  10.006  0.1237 -0.0922 -0.0792
  726MPD2     H10786   2.636   0.606   9.984 -0.9608 -2.7610  0.8953
  726MPD2    H110787   2.874   0.263  10.110  1.6529  0.4454 -0.3094
  726MPD2    H210788   3.055   0.583   9.923 -1.5961  4.3194  0.3923
  726MPD2    H310789   3.060   0.375  10.016  0.7293  1.0460 -0.6349
  726MPD2     N10790   2.622   0.364  10.119  0.4739 -0.0406 -0.3360
  726MPD2    H510791   2.645   0.285  10.178 -2.3643 -0.0666  0.7247
  726MPD2    N110792   2.821   0.739   9.897 -0.2339  0.5623  0.1247
  726MPD2    H710793   2.729   0.782   9.885 -1.0136 -1.2724 -0.3990
  727TMC3    C110794   2.887   0.958   9.820  0.5594  0.2008 -0.0678
  727TMC3    C210795   2.979   1.057   9.837 -0.0673 -0.0942 -0.3843
  727TMC3    C310796   2.945   1.186   9.809  0.0584  0.3948  0.3851
  727TMC3    C410797   2.757   0.989   9.784  0.3203  0.0863  0.0582
  727TMC3    C510798   2.724   1.121   9.759 -0.3500  0.5560 -0.5493
  727TMC3    C610799   2.819   1.222   9.773  1.5335 -0.1996 -0.4842
  727TMC3     C10800   2.926   0.823   9.867 -0.2031 -0.7138 -0.2337
  727TMC3     O10801   3.049   0.808   9.881 -0.1450 -0.2398 -0.3880
  727TMC3     H10802   3.073   1.045   9.889 -0.2915 -0.4660 -0.0694
  727TMC3    H110803   2.682   0.914   9.762  2.3136 -2.6113  2.4415
  727TMC3    H210804   2.794   1.325   9.751 -0.2252 -0.2334  1.4049
  727TMC3    C710805   2.598   1.158   9.791  0.4797  0.5616  0.7935
  727TMC3    C810806   3.037   1.291   9.858  0.6331 -0.0488 -0.2726
  727TMC3    O110807   2.540   1.069   9.859 -0.6079  0.2035 -0.2442
  727TMC3    O210808   3.155   1.265   9.860 -0.4407 -0.3096  0.0392
  728TMC3    C110809   2.919   3.861  15.702  0.7215 -0.1790  0.1577
  728TMC3    C210810   2.996   3.964  15.741 -0.5231  0.2625  0.3550
  728TMC3    C310811   2.989   4.078  15.667 -0.6782 -0.5906  0.1202
  728TMC3    C410812   2.829   3.867  15.593 -0.7529 -0.4826  0.6635
  728TMC3    C510813   2.843   3.982  15.512 -0.7878  0.4184  0.0138
  728TMC3    C610814   2.923   4.088  15.551  0.3440  0.1682 -0.2121
  728TMC3     C10815   2.924   3.732  15.775  0.4395  0.1366  0.7445
  728TMC3     O10816   3.036   3.698  15.803  0.3486  0.1411  0.6667
  728TMC3     H10817   3.058   3.946  15.828  2.4849 -1.5783 -2.1784
  728TMC3    H110818   2.771   3.786  15.552 -0.0929 -1.5399  1.8052
  728TMC3    H210819   2.930   4.168  15.478  1.1860  0.7887  0.5356
  728TMC3    C710820   2.744   3.974  15.408  0.3602 -0.6657  0.6168
  728TMC3    C810821   3.066   4.195  15.714 -0.3509 -1.1722 -0.2240
  728TMC3    O110822   2.629   3.941  15.442  0.4986  0.1091  0.2763
  728TMC3    O210823   3.054   4.288  15.644  0.2474  0.0989  0.8011
  729MPD2     C10824   0.476   0.025  16.290  0.2303  0.6713  0.4557
  729MPD2    C110825   0.563   0.052  16.389  0.1640  0.2552  0.1472
  729MPD2    C210826   0.527   0.039  16.525  0.6663 -0.0389  0.4974
  729MPD2    C310827   0.401   0.009  16.562 -1.0997  0.3012 -0.2628
  729MPD2    C410828   0.318   4.708  16.458 -0.1758  0.0444 -0.0717
  729MPD2    C510829   0.358   4.713  16.327 -0.2112  0.7697 -0.1409
  729MPD2     H10830   0.601   0.068  16.599 -1.2030  0.1813  2.2524
  729MPD2    H110831   0.213   4.688  16.478 -0.3091  1.0390  0.2430
  729MPD2    H210832   0.508   0.045  16.189 -0.2756 -2.0201 -0.2507
  729MPD2    H310833   0.284   4.687  16.252  0.7342 -1.6871 -0.2055
  729MPD2     N10834   0.347   0.028  16.692 -0.2557  0.0545  1.3088
  729MPD2    H510835   0.250   0.002  16.704 -0.3319 -1.0910 -1.6456
  729MPD2    N110836   0.689   0.100  16.346 -0.6270 -0.6687 -0.2998
  729MPD2    H710837   0.708   0.096  16.247  1.3633  0.1021  0.0437
  730TMC3    C110838   0.335   0.101  16.914 -0.1392 -0.1054  0.0576
  730TMC3    C210839   0.372   0.203  16.996  0.4793 -0.1886  0.7330
  730TMC3    C310840   0.282   0.292  17.044  0.2621 -1.2935  0.0801
  730TMC3    C410841   0.207   0.072  16.893 -0.1315 -0.2565  0.0413
  730TMC3    C510842   0.115   0.158  16.947 -0.2949  0.1730 -0.2915
  730TMC3    C610843   0.145   0.270  17.031 -0.1203  0.4968  0.0915
  730TMC3     C10844   0.422   0.077  16.798  0.3766 -0.5557  0.2877
  730TMC3     O10845   0.532   0.129  16.802 -0.2715 -0.2694 -0.0225
  730TMC3     H10846   0.477   0.224  17.010  0.3745 -1.0893  2.8477
  730TMC3    H110847   0.179   4.719  16.842 -1.4568 -0.3137  0.8590
  730TMC3    H210848   0.074   0.346  17.062  0.1991  0.3691  1.1429
  730TMC3    C710849   4.721   0.106  16.949 -0.1234 -0.5318 -0.8726
  730TMC3    C810850   0.331   0.425  17.021 -0.1640 -0.8018 -0.5301
  730TMC3    O110851   4.709   4.722  16.967  1.0510  0.5057  0.0854
  730TMC3    O210852   0.434   0.434  16.955  0.2575 -0.3900 -0.2067
  731MPD2     C10853   4.090   2.476  12.693 -0.1870 -0.1415  0.5289
  731MPD2    C110854   4.224   2.486  12.675 -0.0913  0.0739  0.3887
  731MPD2    C210855   4.302   2.474  12.791 -0.2380  0.4677 -0.6238
  731MPD2    C310856   4.246   2.460  12.917 -0.2408  0.3888 -0.5698
  731MPD2    C410857   4.112   2.430  12.925  0.0461 -0.2868 -0.0555
  731MPD2    C510858   4.031   2.449  12.817  0.5155 -0.3613 -0.7351
  731MPD2     H10859   4.410   2.469  12.792 -0.2426  0.8120  1.0672
  731MPD2    H110860   4.065   2.403  13.018  0.6684  1.8106  0.8708
  731MPD2    H210861   4.028   2.484  12.605  0.1293 -3.3987 -0.0084
  731MPD2    H310862   3.927   2.421  12.829  0.7003  0.2924  2.4265
  731MPD2     N10863   4.330   2.452  13.027  0.2111 -0.3528 -0.6320
  731MPD2    H510864   4.431   2.448  13.018  0.1772 -1.3381 -0.5289
  731MPD2    N110865   4.270   2.503  12.543 -0.6093  0.6793 -0.7550
  731MPD2    H710866   4.199   2.482  12.474 -1.3534  3.2479 -0.7779
  732TMC3    C110867   4.416   2.520  12.359 -0.1123 -0.3728  0.5399
  732TMC3    C210868   4.308   2.527  12.272 -0.4941 -0.7192 -0.1487
  732TMC3    C310869   4.331   2.487  12.145 -0.8111 -0.3944  0.0408
  732TMC3    C410870   4.544   2.486  12.318  0.4353 -0.2971 -0.0333
  732TMC3    C510871   4.561   2.441  12.192  0.4894 -0.2184  0.1533
  732TMC3    C610872   4.454   2.440  12.105  1.1629  0.1047 -0.0441
  732TMC3     C10873   4.393   2.538  12.505 -0.2266  0.2498 -0.3531
  732TMC3     O10874   4.483   2.568  12.580 -0.0983  0.1753 -0.1788
  732TMC3     H10875   4.224   2.587  12.307  0.9546  1.5122 -0.5173
  732TMC3    H110876   4.622   2.481  12.394  1.3392  1.9405 -0.8015
  732TMC3    H210877   4.469   2.412  12.001  1.7469 -0.3442  0.1633
  732TMC3    C710878   4.693   2.467  12.124  0.2257 -0.3556 -0.2899
  732TMC3    C810879   4.246   2.545  12.031  0.0927  0.2370  0.3455
  732TMC3    O110880   4.711   2.400  12.022  0.3540  0.8505 -0.4269
  732TMC3    O210881   4.289   2.546  11.916 -0.1348  0.6022  0.0009
  733TMC3    C110882   1.414   1.785  12.927 -0.3127  0.5968 -0.0074
  733TMC3    C210883   1.392   1.896  12.857  0.1739  0.7349 -0.5879
  733TMC3    C310884   1.444   1.912  12.735  0.1610  0.1433 -0.0222
  733TMC3    C410885   1.494   1.685  12.875 -0.3529 -0.1308  0.2348
  733TMC3    C510886   1.556   1.710  12.754  0.3630  0.1032 -0.8896
  733TMC3    C610887   1.517   1.817  12.679 -0.3097 -0.0373  0.4986
  733TMC3     C10888   1.282   1.734  12.952  0.1401 -0.0839 -0.2004
  733TMC3     O10889   1.194   1.783  12.886  0.5563  0.2481 -0.1769
  733TMC3     H10890   1.319   1.974  12.878  0.4512  0.3370  1.8601
  733TMC3    H110891   1.497   1.588  12.923  0.0333  1.1502  2.8368
  733TMC3    H210892   1.546   1.838  12.576  1.4962 -1.1475  0.7762
  733TMC3    C710893   1.608   1.594  12.684  0.2307  0.4822  0.2015
  733TMC3    C810894   1.382   2.009  12.656 -0.5632 -0.0087 -0.1131
  733TMC3    O110895   1.694   1.523  12.735  0.2393  0.2825 -0.2087
  733TMC3    O210896   1.371   2.116  12.709 -0.5754  0.4596 -0.1809
  734MPD2     C10897   3.455   4.156  11.810 -0.0734 -0.2758 -0.0644
  734MPD2    C110898   3.353   4.253  11.784  0.7933 -0.1544  0.7266
  734MPD2    C210899   3.349   4.319  11.667 -0.2395  0.0321  0.3311
  734MPD2    C310900   3.435   4.277  11.559 -0.1315  0.5039  0.2718
  734MPD2    C410901   3.534   4.181  11.588  0.1338 -0.9038  0.5577
  734MPD2    C510902   3.543   4.128  11.712  0.3934  0.3815 -0.0618
  734MPD2     H10903   3.282   4.400  11.641  0.6140  0.5428 -0.2680
  734MPD2    H110904   3.606   4.155  11.512 -1.1329 -0.7945 -0.6677
  734MPD2    H210905   3.479   4.118  11.909 -0.4027  0.3759  0.2637
  734MPD2    H310906   3.628   4.061  11.723  1.1679  0.9504 -2.6351
  734MPD2     N10907   3.429   4.347  11.437  0.0299  0.1305 -0.4846
  734MPD2    H510908   3.348   4.407  11.430 -1.7026 -2.4356 -2.2801
  734MPD2    N110909   3.253   4.262  11.884 -1.0714 -0.3976 -0.1610
  734MPD2    H710910   3.255   4.207  11.970 -3.1868  0.1338  0.2446
  735TMC3    C110911   3.041   4.329  11.974  0.8067  0.1961  0.1334
  735TMC3    C210912   2.915   4.319  11.924 -0.3826  0.0195 -0.7414
  735TMC3    C310913   2.844   4.204  11.948 -0.3269  0.7973 -0.1872
  735TMC3    C410914   3.080   4.248  12.074 -0.1502  0.5246 -0.9484
  735TMC3    C510915   3.010   4.130  12.101  0.5794 -0.3987  0.3975
  735TMC3    C610916   2.892   4.105  12.029  0.0711 -0.0405  0.3228
  735TMC3     C10917   3.137   4.333  11.864  0.6287  0.3880 -0.1745
  735TMC3     O10918   3.096   4.382  11.758 -0.1548  0.6755 -0.6667
  735TMC3     H10919   2.870   4.393  11.859 -0.4351 -1.0301 -1.9045
  735TMC3    H110920   3.173   4.271  12.125 -0.7990  1.3717 -0.1393
  735TMC3    H210921   2.849   4.006  12.024 -1.9337  0.7811  1.2901
  735TMC3    C710922   3.101   4.027  12.138 -0.3439 -0.0848  0.0239
  735TMC3    C810923   2.770   4.161  11.830 -0.1762 -0.4495 -0.4364
  735TMC3    O110924   3.219   4.049  12.091 -0.2310  1.0820  0.0368
  735TMC3    O210925   2.674   4.089  11.838 -0.2754 -0.2707 -0.1476
  736MPD2     C10926   3.011   3.695  12.262  1.0437 -0.6536 -0.6298
  736MPD2    C110927   3.087   3.791  12.198  0.4274  0.1838  0.3445
  736MPD2    C210928   3.212   3.759  12.154 -0.1492  0.5303 -0.6544
  736MPD2    C310929   3.261   3.638  12.189  0.0316  0.4469 -0.4985
  736MPD2    C410930   3.186   3.538  12.252 -0.0879 -0.0835  0.0561
  736MPD2    C510931   3.056   3.569  12.294 -0.0402  0.9297  1.2039
  736MPD2     H10932   3.275   3.837  12.111  0.6204 -1.2469 -2.7653
  736MPD2    H110933   3.211   3.433  12.264  0.2674 -0.1921 -1.5633
  736MPD2    H210934   2.908   3.715  12.291  1.5922 -0.4536  1.2003
  736MPD2    H310935   2.991   3.489  12.328  0.1736 -0.1319 -0.8751
  736MPD2     N10936   3.394   3.604  12.165  0.4694 -0.3340  0.4118
  736MPD2    H510937   3.428   3.508  12.168 -0.3055 -0.5899  1.1196
  736MPD2    N110938   3.034   3.921  12.189  0.8138  0.3562  0.2256
  736MPD2    H710939   2.936   3.934  12.212  0.1296 -1.5344 -1.5970
  737TMC3    C110940   3.621   3.649  12.082 -0.5707 -0.0470 -0.3534
  737TMC3    C210941   3.715   3.743  12.052 -0.4338  0.2253  0.7939
  737TMC3    C310942   3.797   3.718  11.947  0.0621  0.2606 -1.4244
  737TMC3    C410943   3.608   3.530  12.011  0.4181  1.0035  0.6328
  737TMC3    C510944   3.688   3.512  11.908 -0.3795 -0.0327 -0.0864
  737TMC3    C610945   3.774   3.610  11.870 -0.6325 -0.3664 -0.1374
  737TMC3     C10946   3.497   3.699  12.141  0.4602 -0.1544 -0.2257
  737TMC3     O10947   3.495   3.817  12.171  0.3019  0.0339 -0.1731
  737TMC3     H10948   3.709   3.838  12.105 -1.2632  0.0168  1.0757
  737TMC3    H110949   3.545   3.447  12.041  2.3265 -0.5440  0.4140
  737TMC3    H210950   3.842   3.594  11.787  0.5220 -3.7540  1.4765
  737TMC3    C710951   3.638   3.416  11.809  0.0928  0.0909 -0.1062
  737TMC3    C810952   3.849   3.837  11.871 -0.0692 -0.2241 -0.5076
  737TMC3    O110953   3.548   3.340  11.843  0.5956  0.0205  0.6916
  737TMC3    O210954   3.904   3.930  11.933  0.0733 -0.5414  0.1093
  738MPD2     C10955   4.455   1.859  15.402 -0.5966  0.9600  0.4961
  738MPD2    C110956   4.375   1.936  15.322  0.5928 -0.3723  0.8847
  738MPD2    C210957   4.433   2.027  15.234  0.2695  0.5684 -0.1932
  738MPD2    C310958   4.569   2.050  15.228  0.0379 -0.2009  0.4923
  738MPD2    C410959   4.642   1.979  15.325 -0.1701  0.5850 -0.1122
  738MPD2    C510960   4.584   1.883  15.403  0.7067 -0.4510  0.4464
  738MPD2     H10961   4.381   2.091  15.164 -1.2971 -0.4289  0.0739
  738MPD2    H110962   0.008   2.003  15.342 -0.4436 -0.2459  2.7515
  738MPD2    H210963   4.413   1.790  15.474  0.0249 -1.4204 -1.4261
  738MPD2    H310964   4.640   1.838  15.484  0.6423 -3.2887 -1.0827
  738MPD2     N10965   4.640   2.153  15.154  0.0747 -0.3952 -0.3932
  738MPD2    H510966   0.002   2.154  15.169 -0.1362 -0.0088  0.9851
  738MPD2    N110967   4.236   1.930  15.319 -0.1222 -0.0638  0.0292
  738MPD2    H710968   4.188   1.998  15.260  1.6697  0.2878 -1.0234
  739TMC3    C110969   4.666   2.367  15.060  0.2938 -0.1692 -0.4342
  739TMC3    C210970   4.614   2.461  14.981 -0.2588 -0.6134 -0.0136
  739TMC3    C310971   4.697   2.555  14.931  0.2268  0.8417  0.2349
  739TMC3    C410972   0.057   2.373  15.106  0.8202  0.4026  0.1724
  739TMC3    C510973   0.136   2.477  15.056  0.5927 -0.3541  0.4836
  739TMC3    C610974   0.092   2.564  14.961  0.1780 -0.0764  0.2023
  739TMC3     C10975   4.587   2.246  15.075 -0.0277  0.1843 -0.1387
  739TMC3     O10976   4.471   2.253  15.032 -0.2192 -0.1647  0.0298
  739TMC3     H10977   4.511   2.468  14.949  0.3806 -0.7310 -2.1258
  739TMC3    H110978   0.103   2.291  15.160  0.0446  0.2155  0.5418
  739TMC3    H210979   0.161   2.626  14.905 -0.1019  1.7919  1.8996
  739TMC3    C710980   0.280   2.465  15.069  0.3683 -0.6867 -0.7635
  739TMC3    C810981   4.634   2.655  14.845  0.3688 -0.6505  0.9571
  739TMC3    O110982   0.333   2.358  15.060  0.5653  0.1099 -0.4980
  739TMC3    O210983   4.536   2.612  14.781 -0.2206 -0.1526 -0.5615
  740TMC3    C110984   0.056   3.832  14.301 -0.7839 -0.4143  0.2608
  740TMC3    C210985   0.087   3.728  14.377 -0.0878  0.4003 -0.4368
  740TMC3    C310986   0.198   3.660  14.346  0.6288 -0.0518  1.0250
  740TMC3    C410987   0.130   3.862  14.194 -0.1533  0.2875  0.3051
  740TMC3    C510988   0.240   3.788  14.157  0.0887  0.4027 -0.5067
  740TMC3    C610989   0.279   3.691  14.243  0.4308  0.4379 -0.1995
  740TMC3     C10990   4.677   3.917  14.330  1.1823  0.1942 -0.2068
  740TMC3     O10991   4.636   3.994  14.245 -0.6335 -0.1839 -0.1497
  740TMC3     H10992   0.013   3.693  14.449  0.1894 -1.1938 -0.9205
  740TMC3    H110993   0.115   3.953  14.137 -2.0559 -0.6154 -0.6373
  740TMC3    H210994   0.349   3.615  14.211 -1.7177 -1.7294  0.2094
  740TMC3    C710995   0.306   3.795  14.035  0.0360 -0.0469  0.1162
  740TMC3    C810996   0.203   3.521  14.395  0.8427 -0.6436 -0.2259
  740TMC3    O110997   0.423   3.752  14.033 -0.1056 -0.0000  0.2983
  740TMC3    O210998   0.245   3.431  14.324 -0.2841 -0.5257 -0.2272
  741TMC3    C110999   4.061   2.989  14.386  0.2984  0.1772  0.1202
  741TMC3    C211000   4.069   2.853  14.382  0.0349 -0.1339 -0.3845
  741TMC3    C311001   4.103   2.790  14.497 -0.6226 -0.2307 -0.0368
  741TMC3    C411002   4.092   3.065  14.496 -0.1498 -0.7577 -0.9357
  741TMC3    C511003   4.121   2.987  14.611  0.2280  0.8950 -0.1290
  741TMC3    C611004   4.124   2.851  14.619  0.3468 -0.2787  0.3377
  741TMC3     C11005   4.026   3.045  14.264 -0.0922  0.0103 -0.7277
  741TMC3     O11006   3.969   2.972  14.184  0.7768  0.6419 -0.7883
  741TMC3     H11007   4.048   2.798  14.291 -1.6944  0.8597 -0.5832
  741TMC3    H111008   4.072   3.170  14.511  1.0571 -0.3078 -2.5051
  741TMC3    H211009   4.144   2.798  14.711 -0.7655  0.5545  1.0681
  741TMC3    C711010   4.163   3.050  14.729  0.6480  1.1326 -1.3034
  741TMC3    C811011   4.042   2.657  14.500  0.0201 -0.4047 -0.0267
  741TMC3    O111012   4.156   2.987  14.833  0.5163 -0.3940 -1.0025
  741TMC3    O211013   4.026   2.605  14.389  0.2081 -0.2167 -0.4229
  742TMC3    C111014   4.065   1.239  15.362  0.2463  0.0268  0.5975
  742TMC3    C211015   3.990   1.238  15.250 -0.6663  0.1539 -0.1521
  742TMC3    C311016   4.019   1.318  15.143  0.2711 -0.5269  0.0306
  742TMC3    C411017   4.170   1.327  15.367 -0.5592 -0.1943  0.2255
  742TMC3    C511018   4.184   1.417  15.264  0.3851 -0.2718 -0.4542
  742TMC3    C611019   4.108   1.414  15.153 -0.4677 -0.7026 -0.3535
  742TMC3     C11020   4.068   1.118  15.449 -0.0951  0.0530  0.0048
  742TMC3     O11021   3.983   1.038  15.417 -0.2306  0.4005  0.0873
  742TMC3     H11022   3.921   1.155  15.242  0.2002 -0.6574  0.9062
  742TMC3    H111023   4.250   1.325  15.439  1.3130  0.1507 -1.8498
  742TMC3    H211024   4.122   1.488  15.075  2.7479 -2.2242 -1.2181
  742TMC3    C711025   4.320   1.454  15.230  0.1506  0.4050 -1.2170
  742TMC3    C811026   3.977   1.289  15.011  0.0617 -0.3114 -0.4067
  742TMC3    O111027   4.345   1.459  15.110 -0.1915 -0.0042  0.5487
  742TMC3    O211028   4.042   1.321  14.912 -0.1290 -0.8365  0.4117
  743MPD2     C11029   1.751   1.861   1.553  0.2849  0.3444  0.9730
  743MPD2    C111030   1.823   1.924   1.455  0.8843 -0.1666  0.4550
  743MPD2    C211031   1.960   1.924   1.461  0.0326  0.0037  0.2530
  743MPD2    C311032   2.029   1.852   1.562 -0.1125 -0.2761  0.0168
  743MPD2    C411033   1.955   1.779   1.654  0.0537  0.6314 -0.5016
  743MPD2    C511034   1.816   1.790   1.654  0.2846 -0.5909  0.5036
  743MPD2     H11035   2.016   1.978   1.386  0.8615  0.9989  1.6084
  743MPD2    H111036   1.995   1.715   1.732 -0.1736  1.5407  0.3489
  743MPD2    H211037   1.643   1.854   1.554  0.2298  1.1390 -0.5063
  743MPD2    H311038   1.754   1.739   1.726 -2.3649 -0.4790 -1.6899
  743MPD2     N11039   2.172   1.851   1.551  0.1178  0.5623  0.8550
  743MPD2    H511040   2.213   1.905   1.475 -0.7551  1.3320  0.9384
  743MPD2    N111041   1.768   2.013   1.354  0.0653  0.1517  0.1380
  743MPD2    H711042   1.830   2.056   1.287  0.4002 -0.1343  0.2638
  744TMC3    C111043   1.601   2.158   1.248  0.5708  0.2725 -0.6682
  744TMC3    C211044   1.461   2.182   1.233 -0.0505 -0.4592  0.1132
  744TMC3    C311045   1.426   2.249   1.116  0.3566 -0.3465 -0.2268
  744TMC3    C411046   1.694   2.199   1.157 -0.8696  0.3483  0.5926
  744TMC3    C511047   1.652   2.261   1.046 -0.0729 -0.1135  0.5625
  744TMC3    C611048   1.524   2.289   1.026  0.8537 -0.3328  0.3151
  744TMC3     C11049   1.635   2.059   1.355 -0.2727  0.4526 -0.9574
  744TMC3     O11050   1.539   2.012   1.417  0.4565  0.1912  0.3223
  744TMC3     H11051   1.394   2.153   1.314  1.9019 -0.0209  1.8589
  744TMC3    H111052   1.791   2.151   1.161 -0.1593  1.6860 -0.8486
  744TMC3    H211053   1.492   2.325   0.929  0.8715 -0.2382  0.3439
  744TMC3    C711054   1.746   2.298   0.946 -0.3663 -0.0264 -0.5914
  744TMC3    C811055   1.290   2.292   1.078 -1.0447 -0.7012  0.8159
  744TMC3    O111056   1.693   2.324   0.837 -0.2130 -0.2671 -0.2876
  744TMC3    O211057   1.279   2.399   1.027 -0.3718 -0.0726  0.0605
  745TMC3    C111058   0.028   1.171  13.669  0.5339  0.4995  0.0901
  745TMC3    C211059   4.655   1.160  13.752  0.1443 -1.0273 -0.1742
  745TMC3    C311060   4.527   1.155  13.699  0.8373  0.2478 -0.0962
  745TMC3    C411061   0.015   1.194  13.540 -0.7967  0.2022  0.0842
  745TMC3    C511062   4.626   1.183  13.488  0.4467  0.3067  0.0128
  745TMC3    C611063   4.512   1.156  13.566 -0.9015 -0.6389  0.3910
  745TMC3     C11064   0.149   1.204  13.744  0.5953  0.4317  0.4392
  745TMC3     O11065   0.253   1.142  13.721  0.3605  0.0393  0.0952
  745TMC3     H11066   4.676   1.124  13.852  1.2205 -0.7083 -0.2896
  745TMC3    H111067   0.098   1.207  13.473  0.2841 -2.5088  0.9047
  745TMC3    H211068   4.413   1.158  13.523 -0.1264 -1.0262 -1.4193
  745TMC3    C711069   4.603   1.207  13.354  0.9985  0.9472  1.1907
  745TMC3    C811070   4.413   1.185  13.777  0.2933  0.4726 -0.3164
  745TMC3    O111071   4.497   1.159  13.309  0.2672 -0.3387 -0.0559
  745TMC3    O211072   4.304   1.177  13.735  0.2153 -0.1790 -0.7299
  746TMC3    C111073   1.849   3.387  10.719  0.0998  0.5868  0.3844
  746TMC3    C211074   1.949   3.358  10.624  0.0153  0.1126 -0.3651
  746TMC3    C311075   2.008   3.240  10.623 -0.5189  0.2209 -0.2587
  746TMC3    C411076   1.805   3.293  10.809 -0.3494 -0.4306  0.4015
  746TMC3    C511077   1.869   3.172  10.806 -0.6021  0.2585  0.8232
  746TMC3    C611078   1.969   3.148  10.715  0.0236  0.0938  0.0894
  746TMC3     C11079   1.771   3.511  10.723 -0.2600 -0.3412  0.0475
  746TMC3     O11080   1.714   3.532  10.826 -0.2699 -0.1006  0.2392
  746TMC3     H11081   1.987   3.440  10.564  2.7987  0.0380  1.2725
  746TMC3    H111082   1.718   3.315  10.870 -0.7930 -1.0366 -0.0057
  746TMC3    H211083   1.988   3.043  10.693  1.1089  0.2757  0.1294
  746TMC3    C711084   1.772   3.066  10.814 -0.0284  0.2437 -0.5085
  746TMC3    C811085   2.080   3.195  10.510  1.2204  0.2921  0.0714
  746TMC3    O111086   1.658   3.102  10.796 -0.0004  0.3989  0.0608
  746TMC3    O211087   2.139   3.089  10.526 -0.1683  0.4315 -0.1592
  747TMC3    C111088   3.975   3.423  10.815 -0.3033  0.5584  0.9732
  747TMC3    C211089   3.890   3.343  10.883  0.2958  0.3011  0.4000
  747TMC3    C311090   3.905   3.341  11.021  0.4310 -0.3424 -0.1507
  747TMC3    C411091   4.073   3.494  10.872 -0.6229 -0.1443 -0.2029
  747TMC3    C511092   4.093   3.479  11.006  0.6146 -0.1738  0.2616
  747TMC3    C611093   4.010   3.411  11.084 -0.0424  0.8132 -0.3341
  747TMC3     C11094   3.955   3.454  10.673 -0.2847 -0.2756  0.1117
  747TMC3     O11095   3.962   3.576  10.648 -0.4119  0.2149  0.1091
  747TMC3     H11096   3.816   3.294  10.820  1.3308 -1.6120  0.6675
  747TMC3    H111097   4.146   3.544  10.810  2.9225 -4.0029  0.8288
  747TMC3    H211098   4.029   3.422  11.190  2.1442 -0.2964 -0.6190
  747TMC3    C711099   4.216   3.536  11.073  0.0370 -0.2319  0.4129
  747TMC3    C811100   3.798   3.293  11.099  0.2855 -0.3771 -0.0198
  747TMC3    O111101   4.228   3.538  11.197  0.3823  0.0196  0.3444
  747TMC3    O211102   3.696   3.254  11.041  0.4765  0.2115  0.0234
  748MPD2     C11103   0.378   3.165   0.669 -0.0774 -0.3548 -0.3987
  748MPD2    C111104   0.454   3.131   0.782  0.0218  0.2657 -0.8025
  748MPD2    C211105   0.572   3.210   0.805  0.4428  0.1898  0.3459
  748MPD2    C311106   0.615   3.313   0.719  0.2803 -0.4560  0.9974
  748MPD2    C411107   0.533   3.347   0.618 -0.1846 -0.0094  0.5506
  748MPD2    C511108   0.414   3.272   0.597  0.5053 -0.4697  0.2717
  748MPD2     H11109   0.643   3.186   0.884  3.7800  0.6167 -2.4975
  748MPD2    H111110   0.552   3.422   0.543 -1.0402  1.2839  1.6209
  748MPD2    H211111   0.287   3.117   0.636  0.1902 -0.7137 -0.6140
  748MPD2    H311112   0.360   3.302   0.508  0.5649  0.1749  0.4497
  748MPD2     N11113   0.744   3.366   0.735  0.5800 -0.5197 -0.0486
  748MPD2    H511114   0.815   3.312   0.782  0.8111 -0.9170 -0.8556
  748MPD2    N111115   0.405   3.024   0.869  0.3418  0.1955  0.3292
  748MPD2    H711116   0.313   2.986   0.850 -0.1586  2.6669 -2.1896
  749TMC3    C111117   0.927   3.523   0.701  0.4633  0.3871 -0.3678
  749TMC3    C211118   1.003   3.457   0.794 -0.2462 -0.5243  0.1396
  749TMC3    C311119   1.139   3.474   0.799 -0.0265  0.3719 -0.7668
  749TMC3    C411120   0.983   3.594   0.603 -0.0131 -0.5729  0.8653
  749TMC3    C511121   1.122   3.598   0.602  0.1893  0.2394  0.8816
  749TMC3    C611122   1.198   3.542   0.697  0.1685  0.0979  0.2676
  749TMC3     C11123   0.782   3.495   0.691 -0.1171 -0.2381  0.1129
  749TMC3     O11124   0.712   3.580   0.643 -0.2188  0.1544  0.0174
  749TMC3     H11125   0.957   3.408   0.879  1.1300  1.7922  2.2030
  749TMC3    H111126   0.924   3.640   0.525  1.1158  1.6899  1.3263
  749TMC3    H211127   1.306   3.554   0.693  0.2364 -0.9817 -1.1267
  749TMC3    C711128   1.175   3.716   0.540 -0.6503 -0.2838  0.1870
  749TMC3    C811129   1.213   3.401   0.899 -0.2816 -0.4386  1.1152
  749TMC3    O111130   1.099   3.808   0.513 -0.0772  0.4004  0.8921
  749TMC3    O211131   1.154   3.302   0.942  0.0520  0.3394  0.1433
  750MPD2     C11132   1.935   0.395  11.361  0.1521  0.1581 -0.2112
  750MPD2    C111133   1.822   0.325  11.390  0.4507  0.1180  0.2485
  750MPD2    C211134   1.792   0.207  11.322  0.1597  0.5145 -0.2672
  750MPD2    C311135   1.866   0.180  11.208 -0.2280  0.1191  0.2349
  750MPD2    C411136   1.986   0.248  11.190 -0.3021 -0.7507  0.4606
  750MPD2    C511137   2.018   0.354  11.263  0.0342  0.4260  0.3870
  750MPD2     H11138   1.727   0.126  11.355  1.2861 -0.1546  0.3236
  750MPD2    H111139   2.054   0.216  11.112  0.6152  2.5462 -0.1139
  750MPD2    H211140   1.965   0.486  11.412  0.6157 -1.2532  2.0401
  750MPD2    H311141   2.115   0.401  11.250 -0.6323  0.7543 -3.2665
  750MPD2     N11142   1.828   0.072  11.122  0.2020  0.0171 -0.4056
  750MPD2    H511143   1.901   0.038  11.060  0.5616  1.0802 -0.5767
  750MPD2    N111144   1.741   0.376  11.498 -0.8224 -0.3578 -0.2734
  750MPD2    H711145   1.788   0.454  11.543  1.1736 -0.6924 -1.7716
  751TMC3    C111146   1.684   4.671  11.006  0.4668  0.5427  0.0650
  751TMC3    C211147   1.558   4.648  10.972 -0.3831 -0.0909 -0.0072
  751TMC3    C311148   1.534   4.559  10.870 -0.2376 -0.0448  0.0314
  751TMC3    C411149   1.791   4.613  10.939 -0.1293 -0.1695 -0.3844
  751TMC3    C511150   1.758   4.528  10.836  0.1301  0.5701 -0.1940
  751TMC3    C611151   1.633   4.496  10.802 -0.4243  0.7453  0.3440
  751TMC3     C11152   1.703   0.016  11.120  0.2533 -0.2716 -1.0389
  751TMC3     O11153   1.601   0.043  11.176 -0.1639 -0.1398 -0.2055
  751TMC3     H11154   1.479   4.714  11.005  0.2091  0.6980 -0.1676
  751TMC3    H111155   1.894   4.641  10.952 -0.5974  0.5372  1.7910
  751TMC3    H211156   1.616   4.422  10.724 -0.4470  0.9811  0.1258
  751TMC3    C711157   1.856   4.440  10.778 -0.0129  0.1495 -0.4028
  751TMC3    C811158   1.405   4.493  10.856 -0.2736 -0.8201 -0.1692
  751TMC3    O111159   1.851   4.416  10.659 -0.1166  0.1648 -0.4701
  751TMC3    O211160   1.369   4.448  10.746 -0.1012 -0.0749 -0.0231
  752TMC3    C111161   0.656   0.516  17.232 -0.5541  0.2266  0.5744
  752TMC3    C211162   0.676   0.379  17.206 -0.0820  0.7556  0.3410
  752TMC3    C311163   0.601   0.295  17.274  0.0181 -0.4693  0.4697
  752TMC3    C411164   0.575   0.559  17.330 -0.0886  0.6590 -0.0407
  752TMC3    C511165   0.508   0.465  17.401 -0.5057 -0.2092  0.3542
  752TMC3    C611166   0.517   0.335  17.376 -0.2529 -0.8421 -0.7134
  752TMC3     C11167   0.721   0.613  17.145  0.1459  0.4298 -0.6274
  752TMC3     O11168   0.763   0.715  17.196  0.0962  0.6955 -0.0976
  752TMC3     H11169   0.747   0.352  17.129  0.9025 -3.6934  2.8555
  752TMC3    H111170   0.562   0.665  17.351 -2.8748 -0.0617  1.8689
  752TMC3    H211171   0.438   0.268  17.408  0.1964 -1.6422 -1.2688
  752TMC3    C711172   0.398   0.511  17.489 -0.1044 -0.0276 -0.4573
  752TMC3    C811173   0.623   0.153  17.243 -0.5406 -0.0521  0.0380
  752TMC3    O111174   0.379   0.630  17.485  0.3911  0.3131 -0.2249
  752TMC3    O211175   0.675   0.140  17.134  0.1133 -0.3682 -0.2023
  753TMC3    C111176   2.868   0.907  13.569  0.2436 -0.0940  0.7635
  753TMC3    C211177   2.964   0.923  13.668 -0.0830  0.8181 -0.7846
  753TMC3    C311178   3.048   0.820  13.691  0.3273 -0.4057  0.1584
  753TMC3    C411179   2.838   0.790  13.510 -0.3066  0.9793 -0.0358
  753TMC3    C511180   2.932   0.685  13.534 -0.1132 -0.1924 -0.5786
  753TMC3    C611181   3.028   0.697  13.630 -0.0521  0.0846 -0.4242
  753TMC3     C11182   2.780   1.019  13.532  0.3518  0.0000  0.1282
  753TMC3     O11183   2.674   0.995  13.479 -1.2054 -0.6079 -0.4826
  753TMC3     H11184   2.980   1.012  13.728 -1.7551 -1.2976  2.7542
  753TMC3    H111185   2.772   0.786  13.424  0.0464 -2.7921 -0.1347
  753TMC3    H211186   3.106   0.622  13.636  1.3078  1.3825 -1.6396
  753TMC3    C711187   2.962   0.591  13.426  0.0718 -0.4622 -0.1496
  753TMC3    C811188   3.173   0.834  13.766 -0.3100 -0.3535 -0.6714
  753TMC3    O111189   3.080   0.566  13.411  0.1018 -0.3573 -0.2802
  753TMC3    O211190   3.260   0.759  13.734 -0.1351  0.0997 -0.4174
  754MPD2     C11191   1.373   4.655  13.621 -0.9853 -0.0919  0.4611
  754MPD2    C111192   1.378   4.553  13.524  0.5121  0.2423  0.1550
  754MPD2    C211193   1.348   4.585  13.395 -0.3156  0.4077 -0.3014
  754MPD2    C311194   1.303   4.703  13.360  0.9107  0.3164 -0.1968
  754MPD2    C411195   1.303   0.062  13.454  0.7553 -0.1961 -0.3422
  754MPD2    C511196   1.342   0.045  13.579 -0.0989  1.0274 -0.5494
  754MPD2     H11197   1.369   4.512  13.317  1.9232  1.9292 -1.1265
  754MPD2    H111198   1.275   0.163  13.429 -0.8703 -0.3352  0.9273
  754MPD2    H211199   1.400   4.635  13.724  1.7779 -0.2696 -0.3054
  754MPD2    H311200   1.358   0.126  13.648 -0.0535  0.8613 -0.3648
  754MPD2     N11201   1.247   4.737  13.233 -0.7894  0.1553  0.3931
  754MPD2    H511202   1.208   0.090  13.213 -0.9784  0.0790  0.4127
  754MPD2    N111203   1.398   4.417  13.565  0.1200  0.1814  0.1109
  754MPD2    H711204   1.441   4.405  13.656  1.7901 -0.4095 -0.7578
  755MPD2     C11205   1.142   0.792  12.994 -0.4259  0.0690  0.3408
  755MPD2    C111206   1.025   0.718  12.986 -0.1616  0.2860  0.2338
  755MPD2    C211207   1.017   0.582  12.990  0.2505 -0.4624 -0.6745
  755MPD2    C311208   1.135   0.510  12.997 -0.4047 -0.0421 -0.8906
  755MPD2    C411209   1.256   0.584  13.018 -0.2759  0.1425  0.4235
  755MPD2    C511210   1.257   0.719  13.007  0.3508 -0.5245  0.5370
  755MPD2     H11211   0.920   0.536  12.983 -0.1287  1.0072 -4.7807
  755MPD2    H111212   1.348   0.529  13.030 -0.9159 -0.7188  1.3306
  755MPD2    H211213   1.147   0.900  12.983  0.0440  0.1948  1.7641
  755MPD2    H311214   1.353   0.769  13.005  0.2947 -0.4906 -0.8980
  755MPD2     N11215   1.131   0.373  12.987  0.1331  0.5454 -0.3299
  755MPD2    H511216   1.218   0.320  12.992  0.7082  1.2991 -2.5392
  755MPD2    N111217   0.897   0.782  12.987  0.1993  0.0340  0.2878
  755MPD2    H711218   0.818   0.720  13.004  0.7633 -0.6811  0.2989
  756MPD2     C11219   1.744   1.496  10.060 -0.5381  0.4174 -0.2039
  756MPD2    C111220   1.696   1.387  10.132  1.0492 -0.7798 -0.2238
  756MPD2    C211221   1.582   1.331  10.093 -0.0997 -0.5441 -0.5266
  756MPD2    C311222   1.504   1.370   9.993 -0.5218 -0.2419 -0.1115
  756MPD2    C411223   1.546   1.477   9.917  0.4794 -0.3910  0.0743
  756MPD2    C511224   1.668   1.538   9.951 -0.1289  0.2625  0.4562
  756MPD2     H11225   1.535   1.261  10.162  1.5453 -0.2666  0.8860
  756MPD2    H111226   1.490   1.513   9.831 -0.5231  0.4504  1.0839
  756MPD2    H211227   1.834   1.551  10.084 -0.3216  0.0006 -0.0541
  756MPD2    H311228   1.696   1.629   9.898 -2.6561  1.1574  0.6387
  756MPD2     N11229   1.378   1.295   9.982  0.3712  0.5918 -0.0011
  756MPD2    H511230   1.373   1.218  10.048 -0.0839  0.2186 -0.4729
  756MPD2    N111231   1.755   1.323  10.243 -0.3703  0.9792  0.1201
  756MPD2    H711232   1.706   1.244  10.284  0.8398  0.6897  0.9892
  757MPD2     C11233   0.906   0.447  10.164 -0.2841  0.1212 -0.3145
  757MPD2    C111234   0.854   0.487  10.047 -0.2201  0.0118 -0.4776
  757MPD2    C211235   0.876   0.617  10.007  0.2733  0.4848  0.0286
  757MPD2    C311236   0.966   0.702  10.078 -0.0200 -0.3427 -0.9240
  757MPD2    C411237   1.021   0.650  10.195  0.3761 -0.8164  0.2898
  757MPD2    C511238   0.995   0.523  10.235  0.2465  0.0152 -0.2535
  757MPD2     H11239   0.826   0.672   9.928 -1.9452 -1.2785  0.2004
  757MPD2    H111240   1.097   0.709  10.245 -1.0098  0.9290  0.3456
  757MPD2    H211241   0.901   0.342  10.191 -0.6377  0.1099 -0.4194
  757MPD2    H311242   1.051   0.486  10.320 -1.0884  2.7776  1.8063
  757MPD2     N11243   0.992   0.827  10.027  0.4297 -0.1881 -0.3912
  757MPD2    H511244   0.938   0.857   9.947 -0.5292 -0.4283  0.1627
  757MPD2    N111245   0.761   0.400   9.978  0.3800 -0.5218 -0.4329
  757MPD2    H711246   0.758   0.306  10.015  0.6100 -1.0126 -1.6359
  758MPD2     C11247   1.748   4.523  15.809 -0.2420 -0.0104 -0.1127
  758MPD2    C111248   1.787   4.433  15.908 -0.1812 -0.5446 -0.3599
  758MPD2    C211249   1.695   4.369  15.988 -0.5280 -0.2182  0.3091
  758MPD2    C311250   1.558   4.405  15.979  0.2318  0.3210 -0.4903
  758MPD2    C411251   1.524   4.493  15.883 -0.2669 -0.2467  0.0772
  758MPD2    C511252   1.616   4.555  15.796  0.0683  0.3662 -0.3391
  758MPD2     H11253   1.716   4.294  16.063 -1.1007  0.5676  1.2592
  758MPD2    H111254   1.425   4.529  15.857  0.1404  0.4927 -0.4479
  758MPD2    H211255   1.822   4.562  15.742 -2.1510  1.8672 -1.1287
  758MPD2    H311256   1.574   4.627  15.727  2.3185  1.7354 -0.2817
  758MPD2     N11257   1.467   4.340  16.075  0.0482  0.8591  0.2165
  758MPD2    H511258   1.506   4.273  16.141 -2.3225 -0.3300  0.3817
  758MPD2    N111259   1.926   4.407  15.928  0.1707 -0.2464  0.6463
  758MPD2    H711260   1.996   4.456  15.875  1.2122 -0.9184  1.4078
  759MPD2     C11261   0.010   3.402   9.449 -0.8679 -0.0985  0.2517
  759MPD2    C111262   0.075   3.307   9.526 -0.6863 -0.1166  0.1076
  759MPD2    C211263   0.174   3.231   9.467  0.3901  0.6548 -0.0594
  759MPD2    C311264   0.204   3.238   9.336  0.4925  0.0639  0.1228
  759MPD2    C411265   0.131   3.324   9.258  1.6560 -0.4836  0.4063
  759MPD2    C511266   0.028   3.397   9.314 -0.4069 -0.5133  0.6213
  759MPD2     H11267   0.233   3.161   9.524 -0.0344  0.4193  0.0885
  759MPD2    H111268   0.137   3.327   9.150 -1.1410 -2.3386  0.2200
  759MPD2    H211269   4.673   3.469   9.488 -0.8940  0.3140 -0.4958
  759MPD2    H311270   4.712   3.467   9.251  0.2861  2.4643  3.2939
  759MPD2     N11271   0.301   3.148   9.278  0.1308 -0.3904  0.2431
  759MPD2    H511272   0.354   3.090   9.341 -0.9693 -0.7062  0.8654
  759MPD2    N111273   0.039   3.275   9.659  0.4297  0.1038  0.5476
  759MPD2    H711274   0.080   3.198   9.712  2.4214  2.2571  2.1386
  760MPD2     C11275   0.016   0.447  12.120 -0.5611 -0.2439  0.0675
  760MPD2    C111276   0.139   0.424  12.065 -0.6065 -0.6793  0.2794
  760MPD2    C211277   0.170   0.288  12.048  0.4848  0.1081 -0.0133
  760MPD2    C311278   0.083   0.183  12.058  0.4401  0.2923  0.0038
  760MPD2    C411279   4.696   0.205  12.104 -0.5814 -1.1248  0.0049
  760MPD2    C511280   4.669   0.340  12.136  0.7072 -0.3386 -0.3364
  760MPD2     H11281   0.273   0.267  12.022  0.4012  2.0412 -1.8451
  760MPD2    H111282   4.620   0.128  12.106 -2.0346  0.3219  1.4403
  760MPD2    H211283   4.724   0.547  12.149  1.4928  0.6363 -0.8285
  760MPD2    H311284   4.572   0.357  12.182 -0.2621 -1.0240 -2.1154
  760MPD2     N11285   0.120   0.060  12.011 -0.1534 -0.2192  0.9497
  760MPD2    H511286   0.047   4.728  12.021 -0.0008 -0.4619  0.3644
  760MPD2    N111287   0.230   0.518  12.025  0.1871 -0.1335 -0.3352
  760MPD2    H711288   0.327   0.493  12.009  0.4666  0.8801 -0.2137
  761MPD2     C11289   0.990   4.267  11.070  0.5304  0.3678 -0.6201
  761MPD2    C111290   1.067   4.237  10.961  0.5748  0.3322 -1.0519
  761MPD2    C211291   1.161   4.321  10.909 -0.0384 -0.0173  0.1901
  761MPD2    C311292   1.193   4.439  10.985 -0.7622  0.0416  0.2816
  761MPD2    C411293   1.127   4.461  11.105 -0.0815 -0.9914 -0.1817
  761MPD2    C511294   1.016   4.383  11.142 -0.1309  0.1145 -0.3567
  761MPD2     H11295   1.219   4.297  10.821 -0.0855  1.3905 -0.2080
  761MPD2    H111296   1.149   4.544  11.172  1.1243 -1.5344  0.0901
  761MPD2    H211297   0.904   4.210  11.103  0.7661  0.5332  0.2951
  761MPD2    H311298   0.950   4.412  11.223  0.6108  0.7624  0.0093
  761MPD2     N11299   1.323   4.502  10.969  0.0828  0.0655  0.1697
  761MPD2    H511300   1.363   4.551  11.048  1.5732 -0.6445 -0.1341
  761MPD2    N111301   1.036   4.108  10.912 -0.6141 -0.8109 -0.3332
  761MPD2    H711302   0.970   4.051  10.964 -0.1099 -1.0795  0.0134
  762MPD2     C11303   1.488   3.420  10.530  0.6866  0.0788  0.2878
  762MPD2    C111304   1.465   3.548  10.526  0.1088  0.5642 -0.8865
  762MPD2    C211305   1.548   3.626  10.438  0.4034 -0.0351  0.7421
  762MPD2    C311306   1.655   3.569  10.372 -0.0573  0.0497  0.6131
  762MPD2    C411307   1.675   3.433  10.386 -0.9534  0.1741 -0.6722
  762MPD2    C511308   1.586   3.359  10.457 -1.0794 -0.3912 -0.5578
  762MPD2     H11309   1.539   3.734  10.439 -0.1491 -0.0806  0.5195
  762MPD2    H111310   1.748   3.372  10.334  1.5156  0.0431  2.9137
  762MPD2    H211311   1.425   3.352  10.586  0.0876  0.1870 -0.2654
  762MPD2    H311312   1.602   3.252  10.466  1.3370  0.1479  1.6290
  762MPD2     N11313   1.741   3.648  10.291  0.5934  0.4322 -0.1056
  762MPD2    H511314   1.708   3.741  10.266  2.0056  0.4816 -1.7761
  762MPD2    N111315   1.363   3.596  10.607  0.1579 -0.9037 -0.3164
  762MPD2    H711316   1.336   3.545  10.691 -0.0959 -0.9501 -0.4232
  763MPD2     C11317   3.935   4.362  16.076 -0.4599  0.6025 -0.5604
  763MPD2    C111318   3.825   4.439  16.038  0.1895 -0.0270  0.4642
  763MPD2    C211319   3.833   4.577  16.048 -0.6325 -0.4920 -0.4767
  763MPD2    C311320   3.953   4.639  16.088  0.7824  0.1298 -0.0638
  763MPD2    C411321   4.063   4.551  16.121  0.1308 -0.0521 -0.3850
  763MPD2    C511322   4.049   4.420  16.126 -0.3189  0.2448 -0.6221
  763MPD2     H11323   3.754   4.648  16.026 -3.1464 -3.5753 -1.3929
  763MPD2    H111324   4.154   4.596  16.158 -1.5276  1.4131  1.9227
  763MPD2    H211325   3.935   4.254  16.083  2.3733  0.6442 -0.1340
  763MPD2    H311326   4.127   4.368  16.181  0.0339  2.3570  0.8617
  763MPD2     N11327   3.973   0.042  16.105 -0.1260 -0.3930  0.3677
  763MPD2    H511328   4.066   0.082  16.109  0.5510 -1.6870 -2.3127
  763MPD2    N111329   3.700   4.386  15.983  0.1537 -0.5096 -0.4843
  763MPD2    H711330   3.633   4.448  15.938 -1.0670  1.7482  4.4548
  764MPD2     C11331   1.241   0.400  17.209  1.0050 -0.0288  0.4163
  764MPD2    C111332   1.218   0.538  17.208  0.2295 -0.5717  0.6230
  764MPD2    C211333   1.217   0.602  17.334 -0.7501  0.1598  0.0085
  764MPD2    C311334   1.238   0.538  17.457  0.3766  0.0978  0.7343
  764MPD2    C411335   1.251   0.405  17.451  0.5072  0.7491 -0.6043
  764MPD2    C511336   1.242   0.339  17.329  0.2759 -0.0183  0.8905
  764MPD2     H11337   1.199   0.708  17.348  1.0684  0.4130  0.4412
  764MPD2    H111338   1.262   0.346  17.541  0.3428  0.7899 -0.5561
  764MPD2    H211339   1.255   0.330  17.127 -0.4114  0.1986 -0.0079
  764MPD2    H311340   1.241   0.231  17.327 -0.3289 -0.0011  0.4271
  764MPD2     N11341   1.227   0.605  17.582 -0.2783  0.3010  0.7984
  764MPD2    H511342   1.215   0.705  17.569  0.1510  0.3618  0.8521
  764MPD2    N111343   1.206   0.605  17.083 -0.3728 -0.3856  0.0114
  764MPD2    H711344   1.198   0.706  17.090 -0.3816 -0.5363  2.0354
  765MPD2     C11345   1.649   3.409  15.470  1.0049 -0.5130 -0.1062
  765MPD2    C111346   1.678   3.518  15.553  0.8778 -0.3740 -0.2731
  765MPD2    C211347   1.785   3.500  15.641  0.1519 -0.4139  0.1651
  765MPD2    C311348   1.857   3.383  15.644  0.8990  0.3408  0.4395
  765MPD2    C411349   1.847   3.281  15.549 -0.3641  0.5604  0.1727
  765MPD2    C511350   1.728   3.292  15.467 -0.6222  0.8219 -0.7746
  765MPD2     H11351   1.812   3.568  15.721 -0.0911  3.1717 -2.7974
  765MPD2    H111352   1.911   3.193  15.541  1.1848  1.8479 -1.4463
  765MPD2    H211353   1.576   3.418  15.389  3.3587 -0.3131 -2.1941
  765MPD2    H311354   1.711   3.212  15.396 -2.1177  0.0697  0.4351
  765MPD2     N11355   1.960   3.367  15.747 -0.3360 -0.1911  0.7344
  765MPD2    H511356   1.935   3.419  15.831  2.0320  2.0063  0.0861
  765MPD2    N111357   1.609   3.644  15.548  0.5671 -0.1751 -0.9497
  765MPD2    H711358   1.539   3.646  15.475 -2.6920  1.5166  2.2162
  766MPD2     C11359   0.940   4.054  15.282  0.4026 -0.2224  0.4369
  766MPD2    C111360   1.041   3.963  15.309 -0.8253  0.4330  0.1727
  766MPD2    C211361   1.087   3.883  15.202  0.1647 -0.4102 -0.1521
  766MPD2    C311362   1.010   3.870  15.089  0.0991  0.3078  0.4429
  766MPD2    C411363   0.898   3.944  15.074  0.2798 -0.2176  0.5669
  766MPD2    C511364   0.868   4.042  15.166 -0.3480 -0.3863 -0.1058
  766MPD2     H11365   1.178   3.824  15.209  0.7656  0.4885 -0.3619
  766MPD2    H111366   0.847   3.936  14.979 -0.1291 -1.9623  0.9230
  766MPD2    H211367   0.906   4.127  15.355 -1.8998 -1.0460  0.1985
  766MPD2    H311368   0.807   4.129  15.146 -2.7095 -1.5799  2.0203
  766MPD2     N11369   1.051   3.797  14.974  0.2470  0.3425 -0.0533
  766MPD2    H511370   0.999   3.808  14.888  1.1137 -1.5707 -0.8246
  766MPD2    N111371   1.115   3.965  15.433 -0.3048 -0.4542  0.4115
  766MPD2    H711372   1.109   4.050  15.488  0.0219 -0.1601 -0.0072
  767MPD2     C11373   0.735   4.302  14.714  0.0321 -0.4751 -0.5592
  767MPD2    C111374   0.845   4.216  14.731  0.6635 -0.3388  0.1560
  767MPD2    C211375   0.871   4.119  14.633 -0.3616 -0.4719  0.1750
  767MPD2    C311376   0.800   4.115  14.512  0.3152  0.1546  0.1712
  767MPD2    C411377   0.688   4.203  14.503  0.1422  0.2888  0.1729
  767MPD2    C511378   0.656   4.296  14.600  0.1478  0.3523 -0.4619
  767MPD2     H11379   0.949   4.047  14.654  0.3466 -0.0492 -1.0645
  767MPD2    H111380   0.627   4.202  14.413 -0.2259 -1.6974  0.4349
  767MPD2    H211381   0.712   4.381  14.785 -0.8702 -0.8659 -0.4226
  767MPD2    H311382   0.573   4.363  14.581  0.7253  1.2201  0.1112
  767MPD2     N11383   0.824   4.011  14.418 -0.1845 -0.4163  0.6122
  767MPD2    H511384   0.911   3.962  14.435 -0.0034 -0.3351 -0.0740
  767MPD2    N111385   0.921   4.238  14.848  0.3989  0.4950 -0.0479
  767MPD2    H711386   0.897   4.316  14.907  0.0950  0.6951 -0.4392
  768MPD2     C11387   1.596   2.932  10.324 -0.0661 -0.1506  0.0598
  768MPD2    C111388   1.583   2.818  10.399 -0.2888  0.4387 -0.1436
  768MPD2    C211389   1.689   2.774  10.467 -0.2230  0.3826  0.5556
  768MPD2    C311390   1.810   2.844  10.467 -0.0114  0.7683  0.1422
  768MPD2    C411391   1.815   2.963  10.401 -0.1759  0.8251 -0.3468
  768MPD2    C511392   1.708   3.005  10.327 -0.5693  0.4357 -0.0436
  768MPD2     H11393   1.684   2.674  10.508 -1.2682  0.7229  1.2699
  768MPD2    H111394   1.906   3.021  10.395  0.3902 -0.0846 -0.5560
  768MPD2    H211395   1.505   2.966  10.276  0.2673  0.9747  0.2152
  768MPD2    H311396   1.715   3.094  10.265 -1.9482  1.4279  1.2371
  768MPD2     N11397   1.929   2.803  10.535 -0.0990  0.0497  0.4877
  768MPD2    H511398   2.012   2.860  10.520  0.9403 -1.4157  0.6389
  768MPD2    N111399   1.464   2.746  10.412 -0.0709 -0.2953 -0.2981
  768MPD2    H711400   1.468   2.677  10.487  1.7027 -0.4148 -0.5031
  769MPD2     C11401   2.944   0.448  14.793  0.2808 -0.2948  0.4216
  769MPD2    C111402   2.852   0.548  14.815  0.1441 -0.3790  0.0762
  769MPD2    C211403   2.883   0.641  14.913 -0.2671  0.2076 -1.2294
  769MPD2    C311404   3.011   0.650  14.968 -0.2039 -0.5240 -0.0052
  769MPD2    C411405   3.101   0.551  14.939  0.4336  0.1654  0.2125
  769MPD2    C511406   3.070   0.452  14.851  0.2298  0.2163  0.5171
  769MPD2     H11407   2.810   0.717  14.939 -0.2458 -0.1228 -0.1765
  769MPD2    H111408   3.197   0.544  14.988  0.8369  1.7627 -0.3496
  769MPD2    H211409   2.925   0.362  14.731  1.0125 -1.7354  2.2039
  769MPD2    H311410   3.145   0.379  14.822  1.2721  2.4621 -2.3707
  769MPD2     N11411   3.033   0.748  15.060 -0.1455 -0.5146 -0.3640
  769MPD2    H511412   2.948   0.798  15.086 -0.2501 -1.4136  0.9959
  769MPD2    N111413   2.728   0.527  14.752  0.4422  0.4548 -0.0922
  769MPD2    H711414   2.706   0.444  14.698 -0.7466 -0.1477  1.3006
  770MPD2     C11415   2.014   0.093  15.101 -0.3781 -0.4656  1.1962
  770MPD2    C111416   2.106   0.049  15.005 -0.2361 -0.6046  0.2357
  770MPD2    C211417   2.155   0.132  14.913  0.1530  0.4403 -0.5533
  770MPD2    C311418   2.106   0.262  14.912  0.2445  0.1196  0.0573
  770MPD2    C411419   2.018   0.300  15.008 -0.0674 -0.6328 -0.0137
  770MPD2    C511420   1.962   0.216  15.100 -0.1007  0.3056  1.1300
  770MPD2     H11421   2.233   0.105  14.843 -0.0718  0.0732 -0.6662
  770MPD2    H111422   1.986   0.403  15.009 -0.3041 -0.7077  0.2258
  770MPD2    H211423   1.979   0.038  15.188  0.8813 -0.3696  1.7546
  770MPD2    H311424   1.900   0.255  15.180  0.9705  1.1362  1.5665
  770MPD2     N11425   2.164   0.348  14.821  0.0918 -0.5413  0.2441
  770MPD2    H511426   2.230   0.307  14.755 -0.3396 -0.7809 -0.0329
  770MPD2    N111427   2.157   4.659  15.003  0.2748 -0.0906  0.1891
  770MPD2    H711428   2.122   4.602  15.080  3.8029 -1.0869  1.0632
  771MPD2     C11429   3.817   3.393  13.600 -0.1601 -0.0325 -0.7267
  771MPD2    C111430   3.720   3.485  13.573 -0.4364 -0.5484  0.2988
  771MPD2    C211431   3.597   3.439  13.529 -0.4821  0.4146  1.3425
  771MPD2    C311432   3.571   3.303  13.516 -0.2489 -0.0920  0.4386
  771MPD2    C411433   3.667   3.215  13.551  0.5563  0.7210 -0.1741
  771MPD2    C511434   3.788   3.259  13.600 -0.1489 -0.1908 -0.0852
  771MPD2     H11435   3.519   3.511  13.509  2.7821  3.8552  0.9416
  771MPD2    H111436   3.661   3.107  13.554  0.0292  0.7314 -0.8243
  771MPD2    H211437   3.917   3.423  13.629 -1.6344  0.5376  3.6824
  771MPD2    H311438   3.874   3.193  13.602 -0.2767 -0.3235  1.2222
  771MPD2     N11439   3.438   3.276  13.473  0.5168  0.4372 -0.0011
  771MPD2    H511440   3.378   3.357  13.459 -1.1083 -0.6745  0.5446
  771MPD2    N111441   3.729   3.629  13.589 -0.5763 -0.3023 -0.8717
  771MPD2    H711442   3.651   3.690  13.568  1.0983  1.8166 -0.9883
  772MPD2     C11443   3.247   4.168  13.704  0.1754  0.6517  0.0988
  772MPD2    C111444   3.300   4.044  13.717  1.2153 -0.2219 -0.3109
  772MPD2    C211445   3.213   3.946  13.759 -0.4393  0.0976 -0.0814
  772MPD2    C311446   3.075   3.963  13.778 -0.0354 -0.5388 -0.4530
  772MPD2    C411447   3.030   4.098  13.759 -0.2542  0.4478  0.0852
  772MPD2    C511448   3.113   4.192  13.719 -0.6234  0.9282  0.0703
  772MPD2     H11449   3.258   3.848  13.776  0.4539  0.7676  1.4102
  772MPD2    H111450   2.924   4.114  13.775 -0.1658  0.1601  0.9498
  772MPD2    H211451   3.310   4.253  13.681 -0.1277  1.0746  0.8354
  772MPD2    H311452   3.079   4.294  13.706  0.4330  1.0318 -1.7770
  772MPD2     N11453   2.978   3.860  13.813 -0.3927 -0.0419  0.0013
  772MPD2    H511454   2.883   3.895  13.817 -0.4968 -0.1372 -1.6287
  772MPD2    N111455   3.436   4.007  13.704 -0.4600  0.5119  0.2334
  772MPD2    H711456   3.461   3.913  13.731  1.9933  1.3110  0.7133
  773MPD2     C11457   1.537   0.165  17.506 -0.0440 -0.6853  0.7077
  773MPD2    C111458   1.564   0.046  17.446 -0.1078 -0.2360 -0.2302
  773MPD2    C211459   1.625   4.685  17.522  0.1324 -0.4193 -0.4606
  773MPD2    C311460   1.664   4.718  17.652 -0.8361  0.4019  0.1060
  773MPD2    C411461   1.636   0.101  17.715  0.9128 -0.1577 -0.3039
  773MPD2    C511462   1.565   0.191  17.635  0.1059  0.2952  0.5347
  773MPD2     H11463   1.662   4.599  17.468 -1.8817 -0.6371 -1.4778
  773MPD2    H111464   1.659   0.117   0.070  2.4361 -0.6214 -0.5696
  773MPD2    H211465   1.490   0.250  17.458 -0.9005 -1.1300  0.7503
  773MPD2    H311466   1.537   0.292  17.665  1.2541  0.6879  0.2830
  773MPD2     N11467   1.740   4.613  17.719 -0.6564 -0.4170  0.3721
  773MPD2    H511468   1.771   4.539  17.657 -1.1103 -0.2221 -0.0875
  773MPD2    N111469   1.546   0.019  17.308  0.0683 -0.0966 -0.4441
  773MPD2    H711470   1.540   4.659  17.280  1.2860 -0.3154  0.0500
  774MPD2     C11471   1.178   3.470  13.392 -0.2686  0.1766  0.6902
  774MPD2    C111472   1.282   3.547  13.455  0.2027 -0.1805  0.7245
  774MPD2    C211473   1.268   3.684  13.459  0.1701  0.4757  0.4318
  774MPD2    C311474   1.170   3.740  13.380  1.0036  0.0334 -0.4893
  774MPD2    C411475   1.070   3.666  13.329  0.5014 -0.2927 -0.4034
  774MPD2    C511476   1.076   3.531  13.325  0.2861  0.1671 -0.4259
  774MPD2     H11477   1.343   3.744  13.510  1.7696 -1.2477  0.0983
  774MPD2    H111478   0.995   3.698  13.257  1.9974  1.9186 -0.9978
  774MPD2    H211479   1.180   3.362  13.397  1.4262  0.1730 -0.0755
  774MPD2    H311480   1.002   3.477  13.267  0.0077  1.4788 -1.2907
  774MPD2     N11481   1.182   3.885  13.366 -0.5944 -0.0241 -0.4355
  774MPD2    H511482   1.261   3.935  13.403 -1.3829  0.9875 -0.1258
  774MPD2    N111483   1.396   3.472  13.513 -0.4712  0.3942 -0.0312
  774MPD2    H711484   1.394   3.370  13.511  1.0106  0.3741 -0.2474
  775MPD2     C11485   2.859   0.495  15.306 -0.3586 -0.0003 -0.1633
  775MPD2    C111486   2.909   0.548  15.426  0.4025 -0.1250 -0.7332
  775MPD2    C211487   3.048   0.570  15.441 -0.3435 -0.3121  0.3958
  775MPD2    C311488   3.142   0.529  15.349  0.1324 -0.5555 -0.8219
  775MPD2    C411489   3.089   0.451  15.242  0.0626 -0.1753 -0.0411
  775MPD2    C511490   2.955   0.446  15.218 -0.3252  0.8434  0.0375
  775MPD2     H11491   3.073   0.636  15.524 -0.1979  1.4861 -1.0926
  775MPD2    H111492   3.156   0.405  15.171  0.8802 -0.1457  0.7210
  775MPD2    H211493   2.754   0.477  15.286  0.3480 -0.8283 -3.1498
  775MPD2    H311494   2.926   0.398  15.126 -0.0600  0.9901 -0.1223
  775MPD2     N11495   3.277   0.568  15.351 -0.6620 -0.7674 -0.0068
  775MPD2    H511496   3.334   0.536  15.273 -0.2532  0.3190 -0.1563
  775MPD2    N111497   2.809   0.578  15.515 -0.0416  0.0253  1.1021
  775MPD2    H711498   2.713   0.574  15.483  0.6297 -1.2901 -0.7039
  776MPD2     C11499   1.009   0.839  11.591 -0.3517  0.6512  0.7082
  776MPD2    C111500   1.148   0.834  11.562 -0.0942 -0.0686  0.0787
  776MPD2    C211501   1.191   0.926  11.470  0.0443  0.3389 -0.4362
  776MPD2    C311502   1.104   1.029  11.424  0.5176  0.5585 -0.0566
  776MPD2    C411503   0.973   1.031  11.460 -0.6120  0.2648 -0.1288
  776MPD2    C511504   0.933   0.928  11.536  0.2845  0.6793  0.3916
  776MPD2     H11505   1.290   0.931  11.428  0.2368  0.8645  0.0847
  776MPD2    H111506   0.909   1.111  11.425 -1.1955  0.8479  2.2606
  776MPD2    H211507   0.971   0.774  11.669 -0.9452  1.5341  1.1471
  776MPD2    H311508   0.833   0.922  11.575  0.5757  0.7178  1.1396
  776MPD2     N11509   1.147   1.136  11.345  0.1344 -0.6105  0.3656
  776MPD2    H511510   1.072   1.198  11.314  0.4726 -0.0985  0.5820
  776MPD2    N111511   1.236   0.746  11.625 -1.0182  0.7935 -0.5517
  776MPD2    H711512   1.188   0.674  11.678  0.3978 -0.3467 -0.7987
  777MPD2     C11513   1.948   3.208   0.310  0.0139  0.0246 -0.3414
  777MPD2    C111514   2.021   3.134   0.399 -0.7193 -0.7153 -0.2274
  777MPD2    C211515   2.052   3.002   0.377  0.3916  0.3250  0.1391
  777MPD2    C311516   2.012   2.939   0.263 -0.0192 -0.2920  0.5064
  777MPD2    C411517   1.950   3.010   0.158  0.1809  0.2821  0.0096
  777MPD2    C511518   1.919   3.147   0.190 -0.9158  0.6593  0.0753
  777MPD2     H11519   2.086   2.945   0.462  2.0079 -0.8597 -1.2979
  777MPD2    H111520   1.923   2.969   0.061  1.7187 -0.2526 -0.2000
  777MPD2    H211521   1.914   3.311   0.319  2.4000  0.9770 -2.2813
  777MPD2    H311522   1.860   3.204   0.120 -1.2754  0.4558  0.2124
  777MPD2     N11523   2.024   2.794   0.262  0.3794  0.2026  0.2259
  777MPD2    H511524   2.058   2.741   0.341  2.9392  0.1190 -0.9176
  777MPD2    N111525   2.059   3.199   0.522  0.2223 -0.3288 -0.3924
  777MPD2    H711526   2.032   3.296   0.535 -2.4875 -0.9256 -1.6590
  778MPD2     C11527   3.660   3.689  14.820 -0.1876  0.1427 -0.7329
  778MPD2    C111528   3.684   3.588  14.730  0.1594 -0.0556  0.0240
  778MPD2    C211529   3.766   3.608  14.621  0.4187 -0.5495 -0.4906
  778MPD2    C311530   3.822   3.731  14.602  0.9023  0.7572 -0.6346
  778MPD2    C411531   3.794   3.839  14.691 -0.3764 -0.9050 -0.2995
  778MPD2    C511532   3.711   3.818  14.791  0.2328 -0.2178 -0.2143
  778MPD2     H11533   3.799   3.535  14.548 -0.3293  1.9341 -3.3169
  778MPD2    H111534   3.846   3.933  14.682 -0.8464 -0.7394 -1.2425
  778MPD2    H211535   3.593   3.682  14.905 -0.9248  2.5357 -1.1170
  778MPD2    H311536   3.695   3.894  14.867 -3.1197 -1.2331  0.1010
  778MPD2     N11537   3.900   3.747  14.486 -0.3024  0.3101  0.2745
  778MPD2    H511538   3.911   3.672  14.419  0.3871  0.1308  0.5908
  778MPD2    N111539   3.622   3.466  14.744 -0.6187  0.0889 -0.4172
  778MPD2    H711540   3.638   3.400  14.668 -0.9136  2.1589 -2.2870
  779MPD2     C11541   2.983   1.871  14.521  0.4265 -0.3418 -0.1384
  779MPD2    C111542   3.118   1.865  14.496  0.0240  0.4763  0.1412
  779MPD2    C211543   3.182   1.992  14.469  0.7203  0.6293 -1.1447
  779MPD2    C311544   3.110   2.106  14.445 -0.3553  0.1648 -0.0915
  779MPD2    C411545   2.970   2.108  14.461 -0.3313 -1.1777  0.2058
  779MPD2    C511546   2.912   1.985  14.493  0.1883 -0.3413 -1.1020
  779MPD2     H11547   3.289   1.992  14.457  0.6064 -2.4398 -2.2398
  779MPD2    H111548   2.913   2.200  14.459  1.6061  0.0763  3.2657
  779MPD2    H211549   2.932   1.781  14.553  0.7270 -0.9089 -1.2787
  779MPD2    H311550   2.805   1.967  14.506  0.0501 -0.8535 -2.8740
  779MPD2     N11551   3.184   2.220  14.393 -0.1941 -0.6275  0.0143
  779MPD2    H511552   3.283   2.212  14.375  0.0351  0.3910  0.8026
  779MPD2    N111553   3.201   1.751  14.500 -0.1344 -0.2490  0.3619
  779MPD2    H711554   3.296   1.773  14.473 -0.2296  1.2448  1.2454
  780MPD2     C11555   2.764   2.021   0.812 -0.3267  0.8260  0.3636
  780MPD2    C111556   2.670   1.965   0.727  0.5860 -0.0721  0.7411
  780MPD2    C211557   2.667   2.009   0.593  0.3889 -0.1483  0.2491
  780MPD2    C311558   2.752   2.117   0.549 -0.8842  1.2203  0.5330
  780MPD2    C411559   2.853   2.150   0.633 -0.3428  0.2980  0.0007
  780MPD2    C511560   2.858   2.112   0.761 -0.1490 -0.0970  0.1278
  780MPD2     H11561   2.590   1.969   0.529  0.6897  0.2941 -0.3939
  780MPD2    H111562   2.914   2.233   0.600  0.7235 -0.6246 -0.3521
  780MPD2    H211563   2.769   1.982   0.913  1.8172 -2.2683 -0.9448
  780MPD2    H311564   2.940   2.151   0.820 -1.9118  2.0506  1.1204
  780MPD2     N11565   2.729   2.160   0.416  0.7057  0.8113  0.5362
  780MPD2    H511566   2.657   2.106   0.369  0.1909 -0.5992  2.9006
  780MPD2    N111567   2.596   1.856   0.773  0.8176 -0.5850 -0.2969
  780MPD2    H711568   2.615   1.814   0.864 -1.3650  2.3014  1.4997
  781MPD2     C11569   4.663   3.422  12.007 -0.1498  0.0578  0.3057
  781MPD2    C111570   4.601   3.540  12.034 -0.0064  0.4212 -0.5009
  781MPD2    C211571   4.625   3.645  11.947  0.0043 -0.2828  0.6637
  781MPD2    C311572   4.701   3.633  11.830  0.3670  0.8522 -0.5050
  781MPD2    C411573   0.037   3.517  11.817  0.9926 -0.5865  0.1893
  781MPD2    C511574   0.015   3.413  11.902 -0.3220 -0.2028  0.0604
  781MPD2     H11575   4.567   3.736  11.962  0.1041 -0.0113 -0.5757
  781MPD2    H111576   0.106   3.514  11.734  0.2868 -2.8006 -0.3342
  781MPD2    H211577   4.673   3.339  12.076 -4.0797 -0.5069  0.1808
  781MPD2    H311578   0.079   3.326  11.893 -0.2628 -0.0256 -1.2878
  781MPD2     N11579   4.717   3.732  11.731  0.1440  0.3876  0.3089
  781MPD2    H511580   0.048   3.715  11.658 -0.6202 -1.4048  0.0126
  781MPD2    N111581   4.522   3.556  12.142  0.7026  0.5038 -0.5624
  781MPD2    H711582   4.481   3.649  12.146 -0.5547 -0.0612 -0.1517
  782MPD2     C11583   1.923   4.416  10.100 -0.5564  0.8036 -0.1816
  782MPD2    C111584   2.060   4.400  10.097  0.1150  1.3794  0.3036
  782MPD2    C211585   2.137   4.516  10.097  0.0347 -0.0355 -0.0742
  782MPD2    C311586   2.081   4.646  10.101 -0.4496  0.0578 -0.0825
  782MPD2    C411587   1.948   4.653  10.093 -0.7990  0.1739  0.6239
  782MPD2    C511588   1.868   4.540  10.083  0.1828 -0.9597 -0.2303
  782MPD2     H11589   2.245   4.516  10.112  0.0547  0.5401 -0.2530
  782MPD2    H111590   1.889   0.006  10.094  0.1890  0.8039  1.1038
  782MPD2    H211591   1.853   4.334  10.088  0.2708  0.1719 -0.7183
  782MPD2    H311592   1.761   4.556  10.076  0.2876 -0.7417 -1.3176
  782MPD2     N11593   2.159   0.021  10.132 -0.4856 -0.3742 -0.2330
  782MPD2    H511594   2.253   0.001  10.164 -0.6686 -2.1946 -0.8262
  782MPD2    N111595   2.113   4.270  10.115  0.0385 -0.3694  0.0751
  782MPD2    H711596   2.061   4.202  10.170  0.7950 -0.8449  0.2056
  783MPD2     C11597   2.097   4.223  10.952  0.1385 -0.4070 -0.0041
  783MPD2    C111598   2.039   4.288  10.839  1.5229 -0.0899 -0.7954
  783MPD2    C211599   2.098   4.265  10.710 -0.3362 -0.2180  0.3678
  783MPD2    C311600   2.198   4.173  10.688 -0.1355  0.2094 -0.1987
  783MPD2    C411601   2.245   4.101  10.802  0.3023 -0.5454 -0.2108
  783MPD2    C511602   2.194   4.129  10.923 -0.8201 -0.5856 -0.3316
  783MPD2     H11603   2.064   4.322  10.625 -1.5222 -2.4046 -0.6187
  783MPD2    H111604   2.338   4.046  10.794  0.5376 -0.1861  0.0547
  783MPD2    H211605   2.069   4.250  11.053 -1.4743  0.2410 -0.6320
  783MPD2    H311606   2.239   4.075  11.005  1.1945  0.1877 -0.9277
  783MPD2     N11607   2.246   4.160  10.553 -0.5214  0.0809  0.1970
  783MPD2    H511608   2.197   4.220  10.487  0.5197  0.5008 -0.2068
  783MPD2    N111609   1.943   4.386  10.866 -0.1434 -0.1071 -0.8662
  783MPD2    H711610   1.921   4.409  10.963 -1.4583 -0.4237 -1.0982
  784MPD2     C11611   4.580   4.687   0.710 -0.1467 -0.5800  0.6321
  784MPD2    C111612   4.564   0.074   0.766  0.2783 -0.1310 -0.0771
  784MPD2    C211613   4.465   0.157   0.720 -0.6266 -0.6367 -0.2520
  784MPD2    C311614   4.385   0.114   0.617 -0.5180  0.5902  0.6349
  784MPD2    C411615   4.398   4.723   0.569 -0.8099 -0.2424 -0.0716
  784MPD2    C511616   4.497   4.641   0.610  0.7528  0.4952  0.1387
  784MPD2     H11617   4.461   0.260   0.754  1.5150  0.4808 -3.3384
  784MPD2    H111618   4.336   4.683   0.490  1.5266 -1.3893 -1.3161
  784MPD2    H211619   4.653   4.613   0.740  2.8151  2.8849  1.9706
  784MPD2    H311620   4.505   4.546   0.558 -2.3521 -1.0562  2.5235
  784MPD2     N11621   4.293   0.208   0.556 -0.0361  0.1566  0.2281
  784MPD2    H511622   4.275   0.295   0.606  0.8397  0.8223 -0.6153
  784MPD2    N111623   4.654   0.123   0.858  0.0842  0.5759 -0.1248
  784MPD2    H711624   4.646   0.224   0.856 -0.7528  0.5112  0.3245
  785MPD2     C11625   0.012   3.345  10.686  0.3521  0.6867 -0.0990
  785MPD2    C111626   0.019   3.447  10.596  0.4072  0.8564  0.0320
  785MPD2    C211627   4.671   3.437  10.493  0.0405  0.5812 -0.0472
  785MPD2    C311628   4.581   3.333  10.490  0.2049  0.3085  0.4275
  785MPD2    C411629   4.585   3.228  10.578  0.1245  0.1377 -0.3765
  785MPD2    C511630   4.676   3.233  10.673  0.4617  0.0392 -0.1730
  785MPD2     H11631   4.644   3.511  10.419  0.4616 -0.2445 -1.0348
  785MPD2    H111632   4.506   3.154  10.585 -0.4076  0.7633  0.2418
  785MPD2    H211633   0.069   3.355  10.778 -2.1773  2.3658  1.2776
  785MPD2    H311634   4.678   3.151  10.744 -0.9273 -1.8818 -2.3876
  785MPD2     N11635   4.467   3.358  10.415  0.1715  0.1555  0.1128
  785MPD2    H511636   4.452   3.446  10.366 -1.0958  0.5377  1.1750
  785MPD2    N111637   0.111   3.551  10.616 -0.3458  0.0909  0.0690
  785MPD2    H711638   0.155   3.561  10.707 -2.3883  0.2852  1.0275
  786MPD2     C11639   3.604   1.138  14.695 -0.7301  0.4315 -1.0781
  786MPD2    C111640   3.739   1.153  14.664 -0.4003 -0.3183 -0.8762
  786MPD2    C211641   3.826   1.183  14.767  0.4828 -0.8631  0.1841
  786MPD2    C311642   3.779   1.180  14.905  1.0713 -0.8260 -0.2464
  786MPD2    C411643   3.649   1.148  14.934 -0.0122 -0.1318 -0.4272
  786MPD2    C511644   3.565   1.138  14.825  0.2350  0.4643  0.4828
  786MPD2     H11645   3.930   1.197  14.740  0.6759 -0.5478  1.0789
  786MPD2    H111646   3.622   1.133  15.038 -0.7992 -0.4182 -0.6706
  786MPD2    H211647   3.533   1.118  14.616 -0.0524  1.3395 -1.9146
  786MPD2    H311648   3.460   1.111  14.834  0.5577 -0.1977  2.1242
  786MPD2     N11649   3.863   1.205  15.008 -0.5482  0.3300  0.3564
  786MPD2    H511650   3.829   1.178  15.100 -0.3175 -1.7683 -0.1865
  786MPD2    N111651   3.802   1.156  14.539 -0.1391 -0.4675 -0.2630
  786MPD2    H711652   3.903   1.153  14.545 -0.2205 -0.9272  0.9372
  787MPD2     C11653   4.204   0.736  14.557  0.1506 -0.6818  0.3999
  787MPD2    C111654   4.195   0.750  14.423 -0.3843  0.1293  0.1671
  787MPD2    C211655   4.287   0.683  14.348 -0.2710  0.4243  0.4867
  787MPD2    C311656   4.386   0.610  14.408  0.1694 -0.6477  0.0346
  787MPD2    C411657   4.393   0.596  14.544 -0.4457 -0.3679  0.1189
  787MPD2    C511658   4.298   0.662  14.615 -0.4410 -0.3580 -0.4288
  787MPD2     H11659   4.276   0.686  14.240  1.2106 -1.9564  0.2720
  787MPD2    H111660   4.464   0.530  14.593 -0.2997 -0.9066 -0.8193
  787MPD2    H211661   4.138   0.801  14.613  1.1047  0.5230  0.1380
  787MPD2    H311662   4.310   0.658  14.722  3.1016  1.7263 -0.7478
  787MPD2     N11663   4.473   0.560  14.311 -1.0523 -0.0052 -0.2667
  787MPD2    H511664   4.472   0.599  14.217  1.5467  2.0068  0.5466
  787MPD2    N111665   4.102   0.842  14.375 -0.3239  0.3335  0.7032
  787MPD2    H711666   4.044   0.895  14.440  0.0968 -0.0636  1.4012
  788MPD2     C11667   0.504   4.089   0.646 -0.3504 -0.7249 -1.0547
  788MPD2    C111668   0.517   4.083   0.511 -0.1065 -0.2510  0.3520
  788MPD2    C211669   0.533   4.198   0.435  0.2604 -0.0881 -0.8037
  788MPD2    C311670   0.530   4.322   0.497 -0.0953 -0.7654  0.1713
  788MPD2    C411671   0.508   4.324   0.637 -0.1720  0.0759 -1.2822
  788MPD2    C511672   0.499   4.210   0.712  0.8641  0.2515  0.9503
  788MPD2     H11673   0.568   4.195   0.332  1.2552 -0.0767 -0.4628
  788MPD2    H111674   0.509   4.417   0.694 -0.2425 -0.3147 -0.6447
  788MPD2    H211675   0.488   3.997   0.703 -1.4904  0.1800  0.0910
  788MPD2    H311676   0.490   4.223   0.819 -0.4316 -0.6635  0.9517
  788MPD2     N11677   0.517   4.447   0.422 -0.3361  0.2887 -0.4271
  788MPD2    H511678   0.528   4.532   0.478 -2.7377  0.8138 -0.7351
  788MPD2    N111679   0.516   3.958   0.439 -0.0062  0.0968  0.0154
  788MPD2    H711680   0.544   3.965   0.342  2.3980 -0.9966  0.6470
  789MPD2     C11681   1.467   3.973  16.436  0.4942 -0.1029  1.0838
  789MPD2    C111682   1.356   3.936  16.365 -0.4201 -0.1824  0.4224
  789MPD2    C211683   1.235   3.991  16.387 -0.3699  0.3512 -0.5163
  789MPD2    C311684   1.222   4.090  16.481 -0.3342  0.0082 -1.0162
  789MPD2    C411685   1.337   4.123  16.554  0.2035  0.0078  0.1723
  789MPD2    C511686   1.453   4.063  16.540 -0.3621 -0.6987  0.8350
  789MPD2     H11687   1.149   3.951  16.334 -1.2216  1.7290 -0.1914
  789MPD2    H111688   1.324   4.199  16.631  0.5096  0.4618 -0.2207
  789MPD2    H211689   1.567   3.940  16.412  0.2371  1.3870 -2.1090
  789MPD2    H311690   1.540   4.092  16.597 -1.2184  2.6113  0.4689
  789MPD2     N11691   1.104   4.159  16.507  0.5528 -0.4555  0.1287
  789MPD2    H511692   1.094   4.210  16.594  1.7189  2.0398 -1.1889
  789MPD2    N111693   1.362   3.835  16.265 -0.7423 -0.5359  0.4395
  789MPD2    H711694   1.268   3.808  16.237  0.3530 -2.5727 -1.3093
  790MPD2     C11695   2.384   0.553  13.318  0.3200  0.8915 -0.4842
  790MPD2    C111696   2.350   0.685  13.310 -0.2236  0.5613 -0.5433
  790MPD2    C211697   2.301   0.729  13.185  0.2205 -0.0174  0.6449
  790MPD2    C311698   2.280   0.649  13.080  0.5330  1.0865  0.2844
  790MPD2    C411699   2.302   0.514  13.098  0.5072 -0.4858 -0.4112
  790MPD2    C511700   2.353   0.474  13.215  0.6517  0.6847 -0.3941
  790MPD2     H11701   2.274   0.833  13.173 -0.0281 -0.1310  0.2530
  790MPD2    H111702   2.282   0.447  13.015 -0.0872 -0.9150  0.0743
  790MPD2    H211703   2.413   0.507  13.412 -0.5912  1.3232  0.0105
  790MPD2    H311704   2.383   0.369  13.217 -1.8248  0.0975  4.6779
  790MPD2     N11705   2.249   0.713  12.956  0.2844  0.3015 -0.2626
  790MPD2    H511706   2.224   0.812  12.955 -2.0091 -0.2944 -0.9921
  790MPD2    N111707   2.361   0.755  13.433  0.3516 -0.0628  0.0965
  790MPD2    H711708   2.398   0.702  13.511  1.2071  1.3428  0.6406
  791MPD2     C11709   1.640   1.135  12.553 -0.1969  0.0821  0.0908
  791MPD2    C111710   1.677   1.007  12.590 -0.2872 -0.3323  0.1579
  791MPD2    C211711   1.577   0.925  12.638 -0.1923  0.6602  0.8731
  791MPD2    C311712   1.448   0.963  12.654  0.3459 -0.4135  0.3216
  791MPD2    C411713   1.411   1.098  12.628 -0.5431 -0.0621 -1.1226
  791MPD2    C511714   1.514   1.183  12.587 -0.1779  0.2995  0.3292
  791MPD2     H11715   1.599   0.819  12.646 -0.3489  0.5756  0.1818
  791MPD2    H111716   1.310   1.135  12.629 -0.6201 -0.2470 -1.9111
  791MPD2    H211717   1.721   1.201  12.525  0.3725  0.3870  2.4550
  791MPD2    H311718   1.486   1.284  12.561  0.7357  0.4186 -0.2022
  791MPD2     N11719   1.355   0.862  12.668 -0.2910  0.4928 -0.3626
  791MPD2    H511720   1.396   0.769  12.672 -0.7297  0.2849 -0.6779
  791MPD2    N111721   1.809   0.963  12.574  0.6073  0.7505  0.2412
  791MPD2    H711722   1.875   1.022  12.523  2.0780  0.5355  1.9036
  792MPD2     C11723   2.465   0.522  10.892 -0.0256  0.2744  0.1256
  792MPD2    C111724   2.365   0.617  10.909 -0.8158 -0.1614  0.1024
  792MPD2    C211725   2.237   0.576  10.926  0.0876 -0.6209 -0.4097
  792MPD2    C311726   2.204   0.442  10.896 -0.9380 -0.0590  0.3610
  792MPD2    C411727   2.306   0.359  10.861 -0.1878  0.0241  0.1809
  792MPD2    C511728   2.435   0.393  10.866  0.1139  0.4320  0.2265
  792MPD2     H11729   2.159   0.652  10.936  1.9831  1.6531 -3.0882
  792MPD2    H111730   2.287   0.253  10.844  2.4279 -0.6080  1.1805
  792MPD2    H211731   2.572   0.539  10.892 -0.0743  0.5525 -2.1585
  792MPD2    H311732   2.512   0.322  10.837 -0.7878 -1.6455  2.9502
  792MPD2     N11733   2.072   0.383  10.897 -0.0361  0.3644  0.6886
  792MPD2    H511734   2.061   0.283  10.879 -1.7859  0.7508 -0.3640
  792MPD2    N111735   2.414   0.753  10.909 -0.3518  0.0997  0.7031
  792MPD2    H711736   2.511   0.767  10.882  0.0782 -1.0596  1.6250
  793MPD2     C11737   1.466   0.958  10.823 -0.1888  0.1995  0.5101
  793MPD2    C111738   1.591   0.921  10.786  0.6066  0.0065 -0.6905
  793MPD2    C211739   1.622   0.786  10.799  0.3702 -0.2291  0.3909
  793MPD2    C311740   1.528   0.700  10.853 -0.5407  0.2143 -0.2979
  793MPD2    C411741   1.407   0.741  10.894 -0.4538 -0.7118 -0.4417
  793MPD2    C511742   1.374   0.878  10.883  0.4768  0.1482  0.1931
  793MPD2     H11743   1.716   0.741  10.769  1.1317  0.8399  1.1726
  793MPD2    H111744   1.339   0.670  10.940  0.1130 -1.2002 -0.3453
  793MPD2    H211745   1.431   1.060  10.817 -0.2134  0.0104 -2.7050
  793MPD2    H311746   1.280   0.916  10.920  0.9417 -0.3251  1.8840
  793MPD2     N11747   1.578   0.574  10.877 -0.1054  0.1867  0.3653
  793MPD2    H511748   1.677   0.560  10.866 -0.4618 -1.1964 -1.0535
  793MPD2    N111749   1.702   1.002  10.740 -0.2274 -0.6212 -0.0919
  793MPD2    H711750   1.796   0.965  10.746  0.0705  0.0852 -0.3546
  794MPD2     C11751   1.795   0.171  16.514  0.0468  0.4261 -0.7650
  794MPD2    C111752   1.660   0.139  16.517  0.2879 -0.0345 -0.0334
  794MPD2    C211753   1.582   0.134  16.397 -0.5789  0.3454 -0.0138
  794MPD2    C311754   1.649   0.147  16.274 -0.2929  0.2418  0.3082
  794MPD2    C411755   1.784   0.168  16.280  0.1001 -0.7772  0.5553
  794MPD2    C511756   1.857   0.176  16.393  0.1890 -1.0407 -0.5327
  794MPD2     H11757   1.475   0.122  16.408 -0.4044 -0.8582  0.3865
  794MPD2    H111758   1.826   0.186  16.182 -1.8956 -1.4413 -0.4284
  794MPD2    H211759   1.853   0.156  16.604 -1.1689 -1.3607 -0.2719
  794MPD2    H311760   1.965   0.171  16.386  0.2948 -0.3635  0.6689
  794MPD2     N11761   1.582   0.125  16.155 -0.5510  0.4329  0.0117
  794MPD2    H511762   1.624   0.173  16.076 -1.9614  0.8595 -0.4788
  794MPD2    N111763   1.595   0.113  16.639 -0.8263  0.5622  0.5797
  794MPD2    H711764   1.502   0.074  16.632 -0.0042 -1.3781  0.3501
  795MPD2     C11765   4.539   2.650  13.866  0.2840 -0.6509  0.4629
  795MPD2    C111766   4.484   2.520  13.847 -0.0064  0.2857 -0.2272
  795MPD2    C211767   4.550   2.411  13.897  0.0907 -0.1799  1.0848
  795MPD2    C311768   4.655   2.432  13.986  0.3876 -0.5490 -0.7882
  795MPD2    C411769   4.701   2.557  14.011 -0.0727 -0.4710 -0.0273
  795MPD2    C511770   4.645   2.658  13.945 -0.0353  0.5821  0.2509
  795MPD2     H11771   4.514   2.311  13.875 -0.8896  0.4468 -0.1659
  795MPD2    H111772   0.049   2.566  14.076 -1.5359  2.0069  1.5760
  795MPD2    H211773   4.501   2.750  13.851  3.5763  0.2292 -1.9487
  795MPD2    H311774   4.710   2.744  13.948  1.7605 -0.7964  0.8285
  795MPD2     N11775   4.730   2.325  14.043 -0.4701 -0.0939  0.3933
  795MPD2    H511776   0.063   2.347  14.113 -1.1186 -2.8335  1.9188
  795MPD2    N111777   4.365   2.506  13.772  0.0943 -0.2979 -0.2845
  795MPD2    H711778   4.328   2.414  13.749  1.6381 -0.7532 -0.9729
  796MPD2     C11779   3.965   3.739  15.719 -0.2475  0.0164 -0.2255
  796MPD2    C111780   4.031   3.811  15.816  0.0725  0.8827 -0.3453
  796MPD2    C211781   4.038   3.946  15.817  0.0721  1.0221 -1.1424
  796MPD2    C311782   3.979   4.015  15.711  0.5021  0.0912  0.0280
  796MPD2    C411783   3.922   3.940  15.606 -0.5654  0.8864 -0.2503
  796MPD2    C511784   3.916   3.807  15.610  0.3262  0.8923  0.6348
  796MPD2     H11785   4.089   4.001  15.896 -1.9056  2.1464 -0.6269
  796MPD2    H111786   3.882   3.987  15.516 -0.8208 -1.6673 -1.4736
  796MPD2    H211787   3.959   3.631  15.729 -1.7499  0.0915 -0.3251
  796MPD2    H311788   3.866   3.751  15.531  2.0008  0.4864 -0.1395
  796MPD2     N11789   3.989   4.154  15.713 -0.4729 -0.3750 -0.5033
  796MPD2    H511790   4.041   4.203  15.785 -1.0685  0.1358 -0.4267
  796MPD2    N111791   4.080   3.739  15.923  1.0787 -0.0036  0.3700
  796MPD2    H711792   4.049   3.643  15.939  1.6122 -0.4800 -1.5012
  797MPD2     C11793   0.373   3.173  17.420  0.8469  0.3505 -0.0416
  797MPD2    C111794   0.456   3.230  17.325  0.3424  0.3030 -0.6177
  797MPD2    C211795   0.393   3.305  17.218  0.2092 -0.0068  0.2267
  797MPD2    C311796   0.251   3.326  17.219 -0.1371  0.1436 -0.1902
  797MPD2    C411797   0.174   3.274  17.321  0.4391 -0.1436 -0.5494
  797MPD2    C511798   0.239   3.190  17.410  0.3496 -0.2352  0.7754
  797MPD2     H11799   0.467   3.327  17.142 -0.6597  1.5816 -0.1461
  797MPD2    H111800   0.068   3.294  17.328  0.3842 -1.3919  2.0891
  797MPD2    H211801   0.404   3.101  17.495 -2.5153 -1.9129 -0.7736
  797MPD2    H311802   0.189   3.156  17.499 -2.0215 -0.5652 -0.6955
  797MPD2     N11803   0.187   3.408  17.120  0.1051 -0.4641  0.2097
  797MPD2    H511804   0.089   3.429  17.131  0.1593 -0.5260  0.8148
  797MPD2    N111805   0.602   3.244  17.345  0.1836  0.1131  0.3385
  797MPD2    H711806   0.652   3.314  17.292  0.5917 -1.5338 -1.4585
  798MPD2     C11807   0.672   3.980  17.182  0.2091  0.7523 -0.0150
  798MPD2    C111808   0.584   3.874  17.190  0.0548 -0.0865  0.0606
  798MPD2    C211809   0.612   3.774  17.281  0.4573  0.6955 -0.0071
  798MPD2    C311810   0.745   3.763  17.327 -0.9365 -0.0471  0.1648
  798MPD2    C411811   0.834   3.862  17.302  0.2986  0.2753  0.0575
  798MPD2    C511812   0.793   3.973  17.242  0.3244 -0.3123  0.1221
  798MPD2     H11813   0.545   3.690  17.293  0.8036  0.5571  1.0105
  798MPD2    H111814   0.935   3.866  17.339  0.9191  0.6626 -1.6751
  798MPD2    H211815   0.654   4.063  17.115  0.3315  0.5473 -0.3023
  798MPD2    H311816   0.872   4.046  17.228 -1.4641  1.9477  1.8411
  798MPD2     N11817   0.775   3.645  17.395 -0.1895  0.1080  0.3806
  798MPD2    H511818   0.696   3.584  17.417 -0.5408  1.1457  1.9736
  798MPD2    N111819   0.475   3.866  17.103  0.5703 -0.7916  0.3783
  798MPD2    H711820   0.475   3.930  17.024 -3.2430 -0.8869  0.3167
  799MPD2     C11821   3.975   0.356  14.510 -0.8483 -0.1464  0.2608
  799MPD2    C111822   3.911   0.276  14.422  0.0599 -0.2966  0.1018
  799MPD2    C211823   3.813   0.326  14.342 -0.4866  0.8242 -0.3725
  799MPD2    C311824   3.782   0.461  14.336  0.0109 -0.0274 -0.0296
  799MPD2    C411825   3.851   0.543  14.421  0.3623 -0.7052 -0.2203
  799MPD2    C511826   3.944   0.491  14.509 -0.0059 -1.1901  0.0832
  799MPD2     H11827   3.773   0.255  14.271 -1.1760  0.7440  0.1020
  799MPD2    H111828   3.830   0.649  14.425  2.4268 -0.3938  2.9293
  799MPD2    H211829   4.057   0.325  14.574  0.3510 -0.4846 -1.4328
  799MPD2    H311830   3.984   0.554  14.587 -0.8960  1.7161 -1.8076
  799MPD2     N11831   3.689   0.526  14.255 -0.7181 -0.5508 -0.0999
  799MPD2    H511832   3.675   0.624  14.276  2.0432  0.0978 -1.2484
  799MPD2    N111833   3.946   0.143  14.395  0.1773  0.1660 -0.1813
  799MPD2    H711834   3.897   0.094  14.321  0.3911  1.7000 -1.3443
  800MPD2     C11835   4.268   1.471  14.175 -0.1709 -0.1340 -0.2063
  800MPD2    C111836   4.404   1.482  14.170  0.3772  0.0390  0.1719
  800MPD2    C211837   4.457   1.411  14.062  0.4468 -0.0876 -0.1749
  800MPD2    C311838   4.387   1.335  13.976  0.0144 -0.2006 -0.8247
  800MPD2    C411839   4.252   1.330  13.983  1.1146  0.0471 -0.6136
  800MPD2    C511840   4.194   1.388  14.091  0.6642 -0.2723 -0.6208
  800MPD2     H11841   4.564   1.404  14.047  0.2463 -2.3540 -0.6604
  800MPD2    H111842   4.195   1.269  13.914 -1.9477  0.3740  1.5867
  800MPD2    H211843   4.221   1.517  14.261 -0.3802  0.6373 -0.7313
  800MPD2    H311844   4.086   1.390  14.101  0.5864  0.8899 -1.6814
  800MPD2     N11845   4.461   1.254  13.885 -0.3497 -0.4450 -0.0433
  800MPD2    H511846   4.563   1.261  13.891 -0.3439  0.7740 -1.9547
  800MPD2    N111847   4.478   1.557  14.262  0.0072  0.2768 -0.1579
  800MPD2    H711848   4.441   1.621  14.332  0.2210 -1.4905  1.5898
  801MPD2     C11849   4.465   2.240  14.310 -0.2122 -0.1418 -0.4454
  801MPD2    C111850   4.429   2.114  14.358 -0.2880  0.4197 -0.1963
  801MPD2    C211851   4.297   2.084  14.361 -0.4910  0.4234  0.1537
  801MPD2    C311852   4.201   2.189  14.359  0.5245  0.1357  0.1987
  801MPD2    C411853   4.243   2.314  14.320 -0.3981 -0.0112 -0.7776
  801MPD2    C511854   4.370   2.336  14.299  0.8272  0.4361  0.5596
  801MPD2     H11855   4.273   1.982  14.390  2.2170 -0.4735 -0.8201
  801MPD2    H111856   4.178   2.399  14.305 -0.9674 -0.3002  0.0630
  801MPD2    H211857   4.570   2.262  14.297 -0.3111  0.2391 -0.5932
  801MPD2    H311858   4.402   2.433  14.262  1.0839 -0.5385 -1.7842
  801MPD2     N11859   4.062   2.173  14.398  0.4852 -0.3160  0.1514
  801MPD2    H511860   3.998   2.251  14.410  1.5993  0.6246 -0.0589
  801MPD2    N111861   4.519   2.009  14.370 -0.1266  0.0406  0.0097
  801MPD2    H711862   4.474   1.920  14.388 -2.1336  0.8931 -0.7352
  802MPD2     C11863   3.441   3.382  17.736  0.3435  0.3253  0.7661
  802MPD2    C111864   3.371   3.273   0.007 -0.1909  0.2735  0.5144
  802MPD2    C211865   3.429   3.151  17.738 -0.2495  0.2509 -0.1702
  802MPD2    C311866   3.567   3.136  17.720  0.3720 -0.4692 -0.2188
  802MPD2    C411867   3.633   3.253  17.707 -0.3976  0.3641 -0.5499
  802MPD2    C511868   3.572   3.373  17.720 -0.8843 -0.0226 -0.1012
  802MPD2     H11869   3.372   3.059  17.743  1.9420 -1.1727 -1.0896
  802MPD2    H111870   3.741   3.255  17.698  0.0210 -1.2740  3.9215
  802MPD2    H211871   3.397   3.480   0.000  0.6113  0.6152 -0.3383
  802MPD2    H311872   3.630   3.465  17.714 -1.0321  0.1200  0.5643
  802MPD2     N11873   3.622   3.006  17.716  0.5228 -0.5414 -0.6935
  802MPD2    H511874   3.557   2.929  17.727  1.0505 -0.8324  0.3445
  802MPD2    N111875   3.236   3.276   0.046  0.0576  0.0192  0.2000
  802MPD2    H711876   3.197   3.184   0.061 -2.6141  1.0284 -0.5775
  803MPD2     C11877   4.664   1.158  11.701  0.0631 -1.2115 -0.0449
  803MPD2    C111878   0.047   1.185  11.753 -0.5887 -0.1569  1.4776
  803MPD2    C211879   0.072   1.157  11.885 -0.5234 -0.5431 -0.6465
  803MPD2    C311880   4.711   1.101  11.967 -0.1573  0.3969  0.0489
  803MPD2    C411881   4.582   1.080  11.912  0.4081 -0.1639 -0.3709
  803MPD2    C511882   4.564   1.105  11.782  0.0746  0.2821 -0.7111
  803MPD2     H11883   0.166   1.186  11.930 -1.5593 -0.2602  1.3378
  803MPD2    H111884   4.503   1.022  11.958  0.6790 -0.5273 -0.3597
  803MPD2    H211885   4.632   1.178  11.599  2.4955  0.2961 -0.5366
  803MPD2    H311886   4.470   1.080  11.735  0.0515 -1.4880  0.2717
  803MPD2     N11887   4.733   1.060  12.097 -0.1867  0.1626 -0.4759
  803MPD2    H511888   4.669   0.990  12.132  0.4256  0.1220  0.5724
  803MPD2    N111889   0.151   1.252  11.682 -0.0229  0.0530 -0.3048
  803MPD2    H711890   0.233   1.267  11.740 -0.8067  1.3708  0.4737
  804MPD2     C11891   4.639   2.126  16.674  0.1671  0.1991  0.0280
  804MPD2    C111892   4.585   2.103  16.799 -0.2331 -0.1007  0.0905
  804MPD2    C211893   4.605   2.189  16.897 -0.0656 -0.4140  0.0680
  804MPD2    C311894   4.682   2.300  16.881 -0.2650  0.2623 -0.3014
  804MPD2    C411895   0.012   2.317  16.756  0.2817  0.1850 -0.4500
  804MPD2    C511896   4.724   2.237  16.651 -0.0827  0.5471  0.4962
  804MPD2     H11897   4.573   2.158  16.996  2.7577  0.4951  1.2553
  804MPD2    H111898   0.068   2.406  16.728  1.0396  0.4053  1.8061
  804MPD2    H211899   4.637   2.051  16.595  0.4997 -1.3276  1.4600
  804MPD2    H311900   0.029   2.249  16.552 -1.6036 -1.9670 -0.4574
  804MPD2     N11901   4.711   2.371  16.995 -0.1071 -0.1198 -0.7718
  804MPD2    H511902   4.666   2.342  17.082  0.8065  0.2411 -0.1817
  804MPD2    N111903   4.507   1.988  16.822 -0.1485 -0.2643 -0.2982
  804MPD2    H711904   4.476   1.981  16.918 -1.7646 -0.2115 -0.8245
  805MPD2     C11905   3.654   0.407  15.298 -0.2237  0.6615 -0.0191
  805MPD2    C111906   3.715   0.463  15.187  0.8604 -0.2381  0.0823
  805MPD2    C211907   3.849   0.481  15.185 -1.1182 -0.1822 -0.1954
  805MPD2    C311908   3.926   0.468  15.301 -0.2614  0.3419 -0.6993
  805MPD2    C411909   3.862   0.416  15.417 -0.8137 -0.2135 -0.1196
  805MPD2    C511910   3.730   0.385  15.414 -0.2311  0.3597  0.7644
  805MPD2     H11911   3.902   0.526  15.101 -1.9421 -2.0252 -1.6840
  805MPD2    H111912   3.913   0.397  15.510  1.3174 -0.9013 -1.4281
  805MPD2    H211913   3.553   0.369  15.306 -0.5350  1.9110  1.9561
  805MPD2    H311914   3.695   0.342  15.507  1.1102 -0.6188  0.8105
  805MPD2     N11915   4.065   0.498  15.297 -0.5909  0.1048 -0.0883
  805MPD2    H511916   4.093   0.547  15.213 -0.3193 -0.6798 -0.4503
  805MPD2    N111917   3.644   0.476  15.059  0.3104  0.3465  0.3374
  805MPD2    H711918   3.692   0.493  14.971 -0.4385  5.4589  0.9344
  806MPD2     C11919   3.603   0.430   0.197 -0.1562 -0.6202 -0.5139
  806MPD2    C111920   3.691   0.331   0.203  0.1107  0.3659  0.3250
  806MPD2    C211921   3.762   0.296   0.087  0.2633 -0.0637 -0.3480
  806MPD2    C311922   3.737   0.373  17.723  0.3306 -0.2737 -0.1126
  806MPD2    C411923   3.642   0.470  17.720 -0.3267 -0.9227  0.4747
  806MPD2    C511924   3.582   0.505   0.085 -0.4964 -0.2213 -0.8086
  806MPD2     H11925   3.838   0.219   0.078  1.0508  0.8666 -1.5114
  806MPD2    H111926   3.615   0.516  17.626  2.7278 -1.4025 -0.6518
  806MPD2    H211927   3.545   0.452   0.286  1.0071  0.0905  0.0754
  806MPD2    H311928   3.505   0.580   0.097 -0.5102 -0.2582 -0.6703
  806MPD2     N11929   3.807   0.340  17.604  0.1575 -0.3269 -0.0666
  806MPD2    H511930   3.860   0.253  17.604 -0.9956 -1.0270  0.9177
  806MPD2    N111931   3.702   0.254   0.323 -0.9234 -0.0617 -0.2785
  806MPD2    H711932   3.645   0.274   0.405 -0.4688 -0.9203  0.2503
  807MPD2     C11933   3.395   4.585   0.936  0.0088 -0.4209 -0.8979
  807MPD2    C111934   3.532   4.588   0.946 -0.1399 -0.3840  0.1563
  807MPD2    C211935   3.591   4.550   1.062  0.8851 -0.2220 -0.3215
  807MPD2    C311936   3.522   4.490   1.162 -0.0724 -0.6068  0.2679
  807MPD2    C411937   3.380   4.496   1.158 -0.5033 -0.0522 -0.6975
  807MPD2    C511938   3.318   4.537   1.046  0.8968  0.1228 -0.2529
  807MPD2     H11939   3.697   4.553   1.084  1.0698  0.5160 -1.2999
  807MPD2    H111940   3.318   4.446   1.231  0.5657  1.2774  1.1262
  807MPD2    H211941   3.335   4.631   0.859 -2.0114  0.4650  1.1912
  807MPD2    H311942   3.212   4.559   1.043  0.9083  0.0393 -1.2896
  807MPD2     N11943   3.596   4.442   1.271  0.7320  0.1148  0.0817
  807MPD2    H511944   3.695   4.438   1.247  0.3010 -2.2433 -1.3125
  807MPD2    N111945   3.612   4.636   0.846 -1.2050  0.6958  0.8367
  807MPD2    H711946   3.710   4.641   0.870 -1.0346 -0.6462  0.4069
  808MPD2     C11947   4.104   1.665  10.299  0.2250 -0.0207  0.4417
  808MPD2    C111948   4.107   1.637  10.165  0.0410 -0.0881 -0.6705
  808MPD2    C211949   4.143   1.740  10.080  0.2948  0.0893 -0.5058
  808MPD2    C311950   4.170   1.867  10.116  0.3957  0.0865 -0.2723
  808MPD2    C411951   4.168   1.891  10.249 -0.3608 -0.6809 -0.5007
  808MPD2    C511952   4.144   1.791  10.342 -0.1923  0.3998 -0.1376
  808MPD2     H11953   4.117   1.725   9.976 -0.3212  0.2314 -0.3731
  808MPD2    H111954   4.198   1.987  10.289  0.5892 -0.6094 -1.3937
  808MPD2    H211955   4.083   1.591  10.375 -0.1753 -1.9173 -1.5302
  808MPD2    H311956   4.153   1.807  10.449  0.7809  1.9081 -0.4470
  808MPD2     N11957   4.205   1.970  10.028  0.8307  0.2104 -0.5681
  808MPD2    H511958   4.215   2.067  10.058  0.1528  0.0938  0.0417
  808MPD2    N111959   4.092   1.511  10.110  0.3839 -0.4223 -0.0629
  808MPD2    H711960   4.134   1.498  10.019  2.4157  2.0782  0.5152
  809MPD2     C11961   0.115   1.877   9.321 -0.4408  0.0982 -0.1331
  809MPD2    C111962   0.153   1.973   9.415 -0.1832  0.3365 -0.6935
  809MPD2    C211963   0.062   2.040   9.488  0.0817 -0.3011 -0.4560
  809MPD2    C311964   4.672   1.989   9.495 -0.0951 -0.3293  0.8499
  809MPD2    C411965   4.639   1.892   9.408 -0.0143 -0.0198 -0.1246
  809MPD2    C511966   4.726   1.837   9.316 -1.1856 -0.3696 -0.0148
  809MPD2     H11967   0.087   2.114   9.563  0.8930 -2.1441  1.0798
  809MPD2    H111968   4.535   1.859   9.408 -0.1534  0.4246 -0.0163
  809MPD2    H211969   0.180   1.819   9.255  0.6636  0.2577  0.8083
  809MPD2    H311970   4.693   1.758   9.250 -0.9887 -1.0957  0.7609
  809MPD2     N11971   4.568   2.038   9.576 -0.0406 -0.0764 -0.1890
  809MPD2    H511972   4.475   2.004   9.553  0.6176 -0.9713 -1.5009
  809MPD2    N111973   0.289   2.009   9.433 -0.3991  0.2639 -0.1768
  809MPD2    H711974   0.310   2.066   9.514 -0.8025 -2.0134  1.5047
  810MPD2     C11975   3.604   0.892  10.197 -0.1147 -0.0184 -0.1634
  810MPD2    C111976   3.629   0.948  10.074  0.1070  0.5560 -0.4817
  810MPD2    C211977   3.675   1.079  10.073  0.7877  1.1999  0.4208
  810MPD2    C311978   3.677   1.152  10.188 -0.5058 -0.4322  0.6021
  810MPD2    C411979   3.657   1.091  10.311 -0.3725  0.3730  0.3533
  810MPD2    C511980   3.625   0.963  10.314 -0.2294 -0.3022  0.3013
  810MPD2     H11981   3.700   1.126   9.979 -3.1882  2.3377 -0.1018
  810MPD2    H111982   3.665   1.142  10.406 -0.3349  0.1776  0.4542
  810MPD2    H211983   3.594   0.785  10.205  0.4590 -0.0281  0.4200
  810MPD2    H311984   3.617   0.910  10.408 -0.9439  0.5036  0.6907
  810MPD2     N11985   3.706   1.288  10.194  0.2182 -0.4003  0.2944
  810MPD2    H511986   3.693   1.328  10.286  1.5074  1.8628 -0.4865
  810MPD2    N111987   3.611   0.862   9.963  0.2091 -0.5975  0.2922
  810MPD2    H711988   3.543   0.789   9.982 -0.7980 -0.2008 -1.7546
  811MPD2     C11989   3.023   1.040   9.445  0.3738  0.1173  0.5582
  811MPD2    C111990   3.157   1.057   9.472 -0.2646 -0.6954 -0.2419
  811MPD2    C211991   3.204   1.182   9.501 -0.3622  0.2786  0.3449
  811MPD2    C311992   3.121   1.295   9.495  0.0965 -0.7829  0.0006
  811MPD2    C411993   2.984   1.276   9.477 -0.0945  0.2625  0.0162
  811MPD2    C511994   2.939   1.148   9.449  0.6992  0.4834 -0.4029
  811MPD2     H11995   3.304   1.204   9.537 -0.1879  0.4373 -0.2445
  811MPD2    H111996   2.905   1.350   9.478 -0.3551 -0.0347  1.2303
  811MPD2    H211997   2.986   0.940   9.425 -0.7923  0.7574 -0.4202
  811MPD2    H311998   2.832   1.135   9.434  0.6533  0.8783 -0.4207
  811MPD2     N11999   3.172   1.420   9.534 -0.4575 -0.4618  0.4643
  811MPD2    H512000   3.272   1.431   9.546 -0.4391 -1.9020  1.6331
  811MPD2    N112001   3.240   0.949   9.497 -0.3265  0.3782 -0.4030
  811MPD2    H712002   3.207   0.855   9.519  0.0402  0.1592 -0.7961
  812MPD2     C12003   2.274   0.588  11.780 -0.5475  0.0186  0.0144
  812MPD2    C112004   2.369   0.686  11.761 -0.3820 -0.7259  0.1117
  812MPD2    C212005   2.446   0.715  11.866  0.2037 -0.4128 -0.1846
  812MPD2    C312006   2.444   0.635  11.981  0.3939  0.0477 -0.5506
  812MPD2    C412007   2.357   0.530  11.993  0.5267  0.0849 -0.0092
  812MPD2    C512008   2.277   0.508  11.889 -0.2511 -0.8063 -0.0528
  812MPD2     H12009   2.517   0.796  11.854 -0.6679  0.0901 -1.9576
  812MPD2    H112010   2.364   0.461  12.076 -2.9478 -0.7852 -0.4307
  812MPD2    H212011   2.196   0.569  11.706  1.3255 -0.1957 -1.8941
  812MPD2    H312012   2.200   0.432  11.898  1.2633 -2.1927  1.1440
  812MPD2     N12013   2.526   0.678  12.093 -0.2457 -0.1253 -0.0124
  812MPD2    H512014   2.607   0.729  12.061  0.3034  0.5072  2.4444
  812MPD2    N112015   2.376   0.765  11.634  0.5082  0.3884  0.3621
  812MPD2    H712016   2.290   0.771  11.581 -0.2771  0.7537  1.6791
  813MPD2     C12017   2.237   2.967  12.605  0.1732  0.0630  0.0754
  813MPD2    C112018   2.292   2.917  12.721  0.1117 -0.5088  0.7544
  813MPD2    C212019   2.218   2.824  12.793 -0.6466  0.3899  0.0470
  813MPD2    C312020   2.093   2.786  12.749  0.1502  0.4914 -0.8681
  813MPD2    C412021   2.041   2.844  12.633 -0.3023 -0.7066 -0.2492
  813MPD2    C512022   2.113   2.935  12.559 -1.0856 -0.4680 -0.3447
  813MPD2     H12023   2.258   2.774  12.881  1.4481 -0.1053 -1.1946
  813MPD2    H112024   1.938   2.833  12.602 -0.4872 -1.6017  0.7037
  813MPD2    H212025   2.278   3.057  12.560 -0.5500  1.2941  1.8792
  813MPD2    H312026   2.064   2.990  12.480 -1.2325  0.1401  0.1705
  813MPD2     N12027   2.004   2.693  12.815  0.7301  0.3911  0.2623
  813MPD2    H512028   1.913   2.699  12.769 -0.1341  0.2509  1.9679
  813MPD2    N112029   2.404   2.990  12.767  0.2434 -0.0149 -0.2709
  813MPD2    H712030   2.447   3.065  12.715  0.2833  0.5951  0.6393
  814MPD2     C12031   1.917   3.343  12.235  0.1615  0.3253  0.5963
  814MPD2    C112032   1.977   3.450  12.166  0.2205  0.0246  0.3635
  814MPD2    C212033   2.055   3.537  12.236  0.3293  0.0292 -0.0948
  814MPD2    C312034   2.059   3.532  12.374  0.3085 -0.3281 -0.2782
  814MPD2    C412035   1.996   3.432  12.434 -0.1404  0.2892 -0.3584
  814MPD2    C512036   1.928   3.331  12.369  0.0432  0.0617  0.6524
  814MPD2     H12037   2.095   3.623  12.182  2.3048 -0.8542 -0.0574
  814MPD2    H112038   2.004   3.425  12.542 -2.0780  1.9962 -0.1326
  814MPD2    H212039   1.854   3.273  12.181  0.8996 -0.3517  0.6116
  814MPD2    H312040   1.878   3.254  12.427  1.6735 -1.3615  0.1480
  814MPD2     N12041   2.142   3.607  12.463  0.1798  0.2870  0.3940
  814MPD2    H512042   2.154   3.577  12.559 -1.0086  0.0279  0.4637
  814MPD2    N112043   1.966   3.445  12.027  0.1179 -0.7887  0.1277
  814MPD2    H712044   2.030   3.500  11.971  2.9099 -4.1557 -0.0469
  815MPD2     C12045   2.852   2.645  11.821  0.4726  0.2400 -0.0651
  815MPD2    C112046   2.806   2.528  11.763  0.4863 -0.0264 -1.0921
  815MPD2    C212047   2.678   2.492  11.780 -0.6069  0.4373 -0.4994
  815MPD2    C312048   2.580   2.562  11.847  0.6031 -0.3971  0.2269
  815MPD2    C412049   2.616   2.679  11.907  0.7978  0.3374 -0.1282
  815MPD2    C512050   2.749   2.716  11.888  0.3536  0.1765  0.3551
  815MPD2     H12051   2.641   2.418  11.710 -0.9872  0.9263 -0.8107
  815MPD2    H112052   2.545   2.749  11.950 -1.4980 -0.9127 -1.8799
  815MPD2    H212053   2.954   2.681  11.830  0.5473  0.2625 -1.0196
  815MPD2    H312054   2.771   2.814  11.931 -0.3860  0.7530 -0.5810
  815MPD2     N12055   2.452   2.507  11.862  0.5805 -0.0975 -0.0019
  815MPD2    H512056   2.437   2.413  11.826 -0.5237  0.6731 -1.5157
  815MPD2    N112057   2.897   2.439  11.694 -0.6003  0.0239  0.3453
  815MPD2    H712058   2.990   2.478  11.680  0.0740 -1.7299  0.0315
  816MPD2     C12059   2.647   1.477  16.960  0.4049 -0.2464  0.1812
  816MPD2    C112060   2.721   1.592  16.973  0.8354  0.0089 -0.1188
  816MPD2    C212061   2.854   1.583  16.939  0.6118 -0.2110 -0.3874
  816MPD2    C312062   2.914   1.471  16.887  0.4262  0.6823  0.9029
  816MPD2    C412063   2.840   1.357  16.876  0.1825 -0.4898  0.1750
  816MPD2    C512064   2.707   1.362  16.914  0.4861 -0.3572 -0.1979
  816MPD2     H12065   2.925   1.665  16.947  0.7544 -0.4672  1.0038
  816MPD2    H112066   2.877   1.261  16.843  2.2805 -0.7972  3.4452
  816MPD2    H212067   2.547   1.476  17.000  0.9133 -0.9234  1.4331
  816MPD2    H312068   2.663   1.262  16.916  0.4341 -0.3931 -2.8453
  816MPD2     N12069   3.043   1.478  16.833 -0.2357 -0.2368  0.2639
  816MPD2    H512070   3.087   1.570  16.831 -1.4874  0.3426 -1.0687
  816MPD2    N112071   2.660   1.715  17.005 -0.6241 -0.6558 -0.3734
  816MPD2    H712072   2.560   1.708  17.018 -1.1691  1.8697 -3.2274
  817MPD2     C12073   2.301   3.180   9.314 -0.1021  0.1449  0.0309
  817MPD2    C112074   2.260   3.064   9.260  0.0310  0.4095 -0.0639
  817MPD2    C212075   2.127   3.050   9.225  0.7476  0.2570 -0.3103
  817MPD2    C312076   2.040   3.157   9.227  0.5303 -0.4113  0.3866
  817MPD2    C412077   2.097   3.275   9.266 -0.1058 -0.2354 -0.3918
  817MPD2    C512078   2.225   3.288   9.306  0.2553 -0.4247  0.3379
  817MPD2     H12079   2.087   2.952   9.201  1.4152 -0.2812  0.7573
  817MPD2    H112080   2.038   3.366   9.269 -1.9147 -1.3974 -0.8020
  817MPD2    H212081   2.405   3.206   9.333  0.4422 -3.5535  2.0676
  817MPD2    H312082   2.253   3.390   9.328 -1.3859 -0.5422  3.0105
  817MPD2     N12083   1.907   3.140   9.178  0.5937  0.3909 -0.2112
  817MPD2    H512084   1.879   3.050   9.141 -0.1933  1.0617 -1.2740
  817MPD2    N112085   2.346   2.949   9.257  0.4143  0.2646  0.1748
  817MPD2    H712086   2.302   2.867   9.217 -1.2167  0.5831  1.3196
  818MPD2     C12087   1.215   3.955  10.057 -0.1435 -0.1698 -0.4328
  818MPD2    C112088   1.221   3.830  10.118  0.2087  0.4098 -0.0522
  818MPD2    C212089   1.312   3.744  10.072 -0.0529  0.0398 -0.4747
  818MPD2    C312090   1.397   3.782   9.973 -0.1341  0.1898 -0.2486
  818MPD2    C412091   1.383   3.902   9.911 -0.1042 -0.6061 -0.6778
  818MPD2    C512092   1.297   3.996   9.962  0.3308 -0.2903 -0.6223
  818MPD2     H12093   1.305   3.643  10.111  0.8336  0.0689 -0.2301
  818MPD2    H112094   1.454   3.923   9.831  1.2973 -2.2116  0.1570
  818MPD2    H212095   1.159   4.041  10.093  0.8412 -0.4347  1.7571
  818MPD2    H312096   1.280   4.091   9.912  0.4139  1.1030  2.0269
  818MPD2     N12097   1.484   3.696   9.909  0.4375  0.0597 -0.8468
  818MPD2    H512098   1.535   3.724   9.827  1.1374  1.4042  0.0447
  818MPD2    N112099   1.135   3.789  10.220 -0.2064  0.7865  0.4726
  818MPD2    H712100   1.158   3.697  10.257 -0.3127 -0.8552 -3.6314
  819MPD2     C12101   4.497   0.295  15.249  0.5931 -0.0231 -0.1739
  819MPD2    C112102   4.463   0.182  15.315  0.0125  0.1605 -0.6508
  819MPD2    C212103   4.559   0.129  15.401 -0.0423 -0.5603  0.2212
  819MPD2    C312104   4.689   0.178  15.399  0.4064  0.3808 -0.2097
  819MPD2    C412105   4.722   0.291  15.328  0.1956 -0.2139 -0.3071
  819MPD2    C512106   4.620   0.350  15.258 -0.9451  0.1427  0.0947
  819MPD2     H12107   4.539   0.037  15.454  0.9920 -1.0598 -0.2655
  819MPD2    H112108   0.083   0.335  15.332  0.0431  0.1776 -0.8742
  819MPD2    H212109   4.428   0.351  15.186  0.6962  1.0611  0.6904
  819MPD2    H312110   4.635   0.438  15.197  0.5599  1.0838  1.8224
  819MPD2     N12111   0.051   0.109  15.476 -1.1371  0.2059  0.3095
  819MPD2    H512112   0.018   0.027  15.527 -1.6800  0.2626  0.0506
  819MPD2    N112113   4.336   0.130  15.296 -0.7107  0.3183  0.3583
  819MPD2    H712114   4.280   0.161  15.218  0.1891 -0.6459 -0.6778
  820MPD2     C12115   3.709   4.728  14.560  0.1822  0.5845 -0.2694
  820MPD2    C112116   3.727   0.096  14.650 -0.3520 -0.2258  0.2909
  820MPD2    C212117   3.794   0.071  14.771 -0.9417  0.1130  0.1829
  820MPD2    C312118   3.854   4.693  14.801 -0.2054 -0.1935  0.0782
  820MPD2    C412119   3.844   4.586  14.709 -0.4353 -0.6814  0.2949
  820MPD2    C512120   3.765   4.601  14.594  0.2994  0.1195  0.0075
  820MPD2     H12121   3.797   0.149  14.846  0.4407  1.4132 -1.2132
  820MPD2    H112122   3.887   4.489  14.729 -1.9949 -0.7037  3.6622
  820MPD2    H212123   3.657   0.007  14.467  0.4596 -3.5541 -1.2006
  820MPD2    H312124   3.749   4.530  14.513 -2.5129 -1.7787  2.2052
  820MPD2     N12125   3.912   4.665  14.927 -0.1025  0.0589 -0.4889
  820MPD2    H512126   3.945   4.570  14.935 -0.1739  0.2452  1.8797
  820MPD2    N112127   3.668   0.222  14.613 -0.3163 -0.2489  0.4499
  820MPD2    H712128   3.616   0.229  14.526 -0.5175  0.5776  0.6296
  821MPD2     C12129   4.661   1.233  13.056 -0.2925 -0.2912 -0.6212
  821MPD2    C112130   4.726   1.299  13.157  0.1299 -0.3562 -0.5868
  821MPD2    C212131   0.074   1.396  13.123 -0.2836  0.2252 -0.1158
  821MPD2    C312132   0.112   1.424  12.995 -0.0347 -0.5421  0.2648
  821MPD2    C412133   0.055   1.351  12.892  0.0736  0.4251  1.3761
  821MPD2    C512134   4.697   1.258  12.923 -0.0853 -0.3253  0.0310
  821MPD2     H12135   0.116   1.460  13.200  3.5078  0.5693 -2.4696
  821MPD2    H112136   0.092   1.373  12.792  0.7513 -1.1801  1.2708
  821MPD2    H212137   4.581   1.161  13.075  0.4469 -0.5225  1.6094
  821MPD2    H312138   4.665   1.187  12.847  2.2578 -1.2084 -0.1235
  821MPD2     N12139   0.203   1.518  12.957  0.0420  0.2931 -0.1171
  821MPD2    H512140   0.225   1.532  12.859 -0.6338 -0.3111 -0.3578
  821MPD2    N112141   4.706   1.277  13.298 -0.1893 -0.0938  0.6156
  821MPD2    H712142   0.032   1.320  13.363  0.8066 -0.5662 -0.0544
  822MPD2     C12143   0.622   1.442  15.716  0.8710 -0.0062 -1.1120
  822MPD2    C112144   0.554   1.371  15.816 -0.1790  0.2774 -0.2123
  822MPD2    C212145   0.474   1.442  15.898  0.1985 -0.0953 -0.1015
  822MPD2    C312146   0.445   1.576  15.889 -0.2895 -1.1028  0.1547
  822MPD2    C412147   0.516   1.648  15.790 -0.0271 -0.3295 -0.1364
  822MPD2    C512148   0.594   1.581  15.703 -0.6234 -0.0853 -0.1846
  822MPD2     H12149   0.430   1.379  15.975  1.2130  1.0794  1.4482
  822MPD2    H112150   0.504   1.754  15.772  0.2189 -0.6223 -2.0215
  822MPD2    H212151   0.687   1.396  15.644  1.8072  0.1462 -0.3616
  822MPD2    H312152   0.634   1.636  15.619 -0.9874 -1.2179 -1.0942
  822MPD2     N12153   0.363   1.632  15.987  0.1318  0.2676  0.1338
  822MPD2    H512154   0.315   1.559  16.040  1.2055 -0.3869  0.2107
  822MPD2    N112155   0.593   1.239  15.852  0.2444  0.6334  0.0689
  822MPD2    H712156   0.583   1.216  15.950 -0.4143 -1.1863 -0.4170
  823MPD2     C12157   0.038   1.634  16.751 -0.4921 -0.3616 -0.6711
  823MPD2    C112158   0.074   1.586  16.627  0.3821 -0.5224 -0.5277
  823MPD2    C212159   0.113   1.454  16.622  0.5737 -0.1124  0.1982
  823MPD2    C312160   0.110   1.372  16.735 -0.6846  0.0695  0.2147
  823MPD2    C412161   0.049   1.419  16.849 -0.6125 -0.2664 -0.1679
  823MPD2    C512162   0.016   1.554  16.861 -0.4427  0.0909  0.2090
  823MPD2     H12163   0.141   1.396  16.535  1.8512  0.9023 -0.0688
  823MPD2    H112164   0.035   1.348  16.930  0.3772  1.6242  1.6648
  823MPD2    H212165   0.014   1.737  16.774  1.3678 -0.2581  0.8017
  823MPD2    H312166   4.711   1.600  16.950 -0.6102 -0.1041  0.2277
  823MPD2     N12167   0.161   1.243  16.743 -0.6138 -0.2140  0.0585
  823MPD2    H512168   0.153   1.197  16.833 -1.1215  0.0305  0.1381
  823MPD2    N112169   0.080   1.675  16.517  0.7747  0.1471 -0.7488
  823MPD2    H712170   0.060   1.773  16.530 -3.1720 -0.5440 -1.6962
  824MPD2     C12171   0.877   0.480  15.820  0.2481  0.5738  0.1524
  824MPD2    C112172   0.948   0.585  15.760 -0.4258  0.1971  0.0848
  824MPD2    C212173   1.048   0.557  15.666  0.2346 -0.0298 -0.1554
  824MPD2    C312174   1.075   0.423  15.635  0.2117  0.5937 -0.3302
  824MPD2    C412175   1.002   0.318  15.697 -0.0116 -0.2799  1.0154
  824MPD2    C512176   0.907   0.351  15.788 -0.1855 -0.0726  0.6355
  824MPD2     H12177   1.109   0.637  15.625 -0.0074 -0.4090 -1.2690
  824MPD2    H112178   1.026   0.214  15.679 -0.3742  0.0237 -1.2278
  824MPD2    H212179   0.790   0.491  15.884  0.2629  1.1254  0.0819
  824MPD2    H312180   0.846   0.273  15.832 -0.1536 -0.7439 -0.5132
  824MPD2     N12181   1.182   0.395  15.549 -0.1135  0.0715 -0.7306
  824MPD2    H512182   1.223   0.479  15.510  1.1835  0.0986  0.6713
  824MPD2    N112183   0.927   0.715  15.801  0.2084  0.1986 -0.3108
  824MPD2    H712184   0.976   0.795  15.760  2.6012 -0.9694  0.2578
  825MPD2     C12185   1.808   0.691  15.059  0.4579  0.0189  0.2722
  825MPD2    C112186   1.734   0.691  15.174  0.3115  0.7846 -0.2244
  825MPD2    C212187   1.721   0.809  15.247  0.1506 -0.2393  0.4246
  825MPD2    C312188   1.784   0.926  15.205  0.3431  0.4437 -0.2900
  825MPD2    C412189   1.839   0.923  15.076  0.1995  0.2930  1.0341
  825MPD2    C512190   1.855   0.803  15.009 -0.6374  0.9330 -0.6693
  825MPD2     H12191   1.675   0.816  15.345 -1.2351 -0.7627 -0.1783
  825MPD2    H112192   1.886   1.008  15.029  0.3658  0.9712  2.4030
  825MPD2    H212193   1.830   0.603  14.999 -1.6402 -0.8039  0.7026
  825MPD2    H312194   1.910   0.794  14.916  0.1303  0.4987 -0.1762
  825MPD2     N12195   1.779   1.041  15.293 -0.1181  0.3552  0.3847
  825MPD2    H512196   1.739   1.032  15.386 -0.6741  0.1416  0.1256
  825MPD2    N112197   1.666   0.570  15.202 -0.1512 -0.0598 -0.5146
  825MPD2    H712198   1.673   0.488  15.143  2.2804  0.9248 -1.5976
  826MPD2     C12199   0.552   0.726  13.608  0.8487  0.1945  0.2221
  826MPD2    C112200   0.627   0.801  13.522 -0.2040  1.1147  0.3700
  826MPD2    C212201   0.610   0.941  13.515  0.1276 -0.4055  0.0840
  826MPD2    C312202   0.527   0.996  13.609  0.2174  0.1459  0.0559
  826MPD2    C412203   0.458   0.918  13.700 -0.0619  0.6534 -0.1350
  826MPD2    C512204   0.459   0.781  13.692 -0.3018  0.0143  0.1049
  826MPD2     H12205   0.671   0.999  13.447  1.0491 -1.3594  0.0933
  826MPD2    H112206   0.396   0.963  13.777  2.1104 -0.0304  2.0264
  826MPD2    H212207   0.549   0.618  13.605  1.2452  0.2078 -0.6898
  826MPD2    H312208   0.396   0.724  13.760 -1.7443 -0.9957 -2.0697
  826MPD2     N12209   0.521   1.133  13.618  0.1784 -0.0929  0.1580
  826MPD2    H512210   0.473   1.167  13.700 -0.2998 -1.1973  0.3370
  826MPD2    N112211   0.726   0.727  13.455  0.6810 -0.0519  0.2117
  826MPD2    H712212   0.732   0.628  13.478  1.4700 -0.3856 -1.4265
  827MPD2     C12213   1.714   2.284   9.990  0.3492 -0.7137 -0.7340
  827MPD2    C112214   1.674   2.161  10.039  0.4903 -0.4923  0.4575
  827MPD2    C212215   1.541   2.118  10.028 -0.0728  0.3029 -0.0414
  827MPD2    C312216   1.451   2.203   9.966  0.2109  0.7879  0.6669
  827MPD2    C412217   1.489   2.332   9.932  0.3923 -0.5751  0.3211
  827MPD2    C512218   1.619   2.362   9.939  0.3228  0.8541 -0.1707
  827MPD2     H12219   1.505   2.020  10.056 -3.2613  1.3462 -0.5595
  827MPD2    H112220   1.424   2.394   9.871  0.6914 -0.7405 -0.1692
  827MPD2    H212221   1.814   2.324  10.003  0.9415 -2.1251 -1.0186
  827MPD2    H312222   1.643   2.463   9.908 -1.0318  1.0396 -0.6069
  827MPD2     N12223   1.319   2.153   9.943  0.1679 -0.5096  0.8115
  827MPD2    H512224   1.308   2.056   9.972 -0.0747 -1.0019 -0.9279
  827MPD2    N112225   1.764   2.072  10.103  0.3417 -0.0207 -0.5971
  827MPD2    H712226   1.862   2.096  10.087 -0.0565  1.3488 -0.9597
  828MPD2     C12227   0.527   1.926  12.268  0.9539  0.2022 -0.1549
  828MPD2    C112228   0.426   1.917  12.179 -1.0985  0.2130  0.0664
  828MPD2    C212229   0.445   1.915  12.038 -0.3200 -0.3940  0.3048
  828MPD2    C312230   0.571   1.925  11.982 -0.5396  0.0348 -0.6013
  828MPD2    C412231   0.674   1.940  12.078  0.4034  0.2709  0.0204
  828MPD2    C512232   0.649   1.945  12.216  0.3304  0.1507  0.1901
  828MPD2     H12233   0.348   1.903  11.991  0.1279 -1.0127 -0.4689
  828MPD2    H112234   0.775   1.955  12.044  0.5886  1.7906  1.2221
  828MPD2    H212235   0.518   1.932  12.376 -0.4612 -0.6520 -0.2269
  828MPD2    H312236   0.724   1.980  12.287  1.1962 -0.5708 -0.3699
  828MPD2     N12237   0.609   1.937  11.841  0.3744 -0.1771  0.5088
  828MPD2    H512238   0.708   1.930  11.818  0.2007  1.5331 -0.7495
  828MPD2    N112239   0.289   1.906  12.218  0.3008  0.6066  0.1800
  828MPD2    H712240   0.215   1.933  12.154  0.0620 -0.4727 -0.0004
  829MPD2     C12241   4.396   1.919  11.717 -0.5980 -0.2160 -0.1381
  829MPD2    C112242   4.314   1.872  11.814 -0.0779  0.0656  0.6654
  829MPD2    C212243   4.374   1.837  11.937  1.1703  0.1739 -0.1994
  829MPD2    C312244   4.512   1.849  11.945 -0.2591  0.7553  0.2781
  829MPD2    C412245   4.591   1.893  11.839  0.1159 -0.7959 -0.0018
  829MPD2    C512246   4.526   1.929  11.727 -0.4329 -0.0571 -0.7947
  829MPD2     H12247   4.317   1.795  12.018 -0.6952  1.2757 -0.9403
  829MPD2    H112248   4.697   1.911  11.853  0.7710 -1.8424 -3.6715
  829MPD2    H212249   4.351   1.944  11.622  2.4577  0.1463 -1.4953
  829MPD2    H312250   4.590   1.969  11.649 -0.1075  1.7799  0.4294
  829MPD2     N12251   4.583   1.814  12.062 -0.1462  0.3013 -0.4462
  829MPD2    H512252   4.679   1.848  12.064  0.9396 -2.7551  0.7406
  829MPD2    N112253   4.174   1.863  11.791  0.1671  0.0012  0.7790
  829MPD2    H712254   4.138   1.899  11.703 -1.1248  1.0301  1.7233
  830MPD2     C12255   0.839   4.514  15.547 -0.2125  0.3964 -0.3832
  830MPD2    C112256   0.750   4.564  15.455 -0.2300  0.4642 -0.8195
  830MPD2    C212257   0.794   4.647  15.350  0.5563 -0.6642 -0.4113
  830MPD2    C312258   0.925   4.669  15.334  0.2123  0.2397 -0.8293
  830MPD2    C412259   1.016   4.610  15.427 -0.3795  0.5088  0.4471
  830MPD2    C512260   0.973   4.552  15.541  0.9421 -0.4264 -0.6171
  830MPD2     H12261   0.722   4.693  15.283  1.5352 -1.3547 -1.9561
  830MPD2    H112262   1.122   4.634  15.426  0.3430 -2.6983  1.2739
  830MPD2    H212263   0.796   4.471  15.638  0.0949  1.1359  0.1136
  830MPD2    H312264   1.038   4.532  15.625  0.0802 -1.9942 -0.3292
  830MPD2     N12265   0.986   4.734  15.226 -0.2184 -0.0031 -0.0289
  830MPD2    H512266   1.087   0.006  15.229 -0.1156 -0.6657 -1.2481
  830MPD2    N112267   0.615   4.524  15.478 -0.8287  0.1669  0.0524
  830MPD2    H712268   0.596   4.482  15.568  1.5323  0.0117  0.4760
  831MPD2     C12269   0.563   1.673  16.288 -0.4017 -0.0959  0.1496
  831MPD2    C112270   0.618   1.575  16.208  0.0247 -0.8865 -0.5608
  831MPD2    C212271   0.576   1.445  16.225 -0.9956  0.2422  1.0937
  831MPD2    C312272   0.473   1.405  16.308 -0.4335 -0.3677  0.4550
  831MPD2    C412273   0.422   1.500  16.395 -0.3543 -1.3170 -0.2121
  831MPD2    C512274   0.468   1.626  16.376  0.0693 -0.0422  0.1956
  831MPD2     H12275   0.632   1.369  16.172  0.3377  0.9215  1.5224
  831MPD2    H112276   0.353   1.480  16.476  0.4127 -1.1055  0.4970
  831MPD2    H212277   0.594   1.777  16.293  0.5041 -0.4529  2.0906
  831MPD2    H312278   0.432   1.700  16.447  0.2940 -2.6566  3.0067
  831MPD2     N12279   0.421   1.271  16.303  0.4049  0.0084  0.0321
  831MPD2    H512280   0.346   1.253  16.370 -1.1296  1.7352 -1.2044
  831MPD2    N112281   0.722   1.600  16.117  0.1682 -0.2658 -0.3302
  831MPD2    H712282   0.747   1.530  16.047  1.4279  2.0935 -2.2470
  832MPD2     C12283   3.494   2.748  17.106 -0.4066 -0.0792 -0.4036
  832MPD2    C112284   3.491   2.872  17.039 -0.5955  0.4679  0.5562
  832MPD2    C212285   3.372   2.909  16.983 -0.3460 -0.5211 -0.0182
  832MPD2    C312286   3.262   2.822  16.989 -0.3028  0.6493  0.6011
  832MPD2    C412287   3.271   2.708  17.071 -1.0224 -0.6360  0.7334
  832MPD2    C512288   3.390   2.665  17.125 -0.4767 -0.0944  0.2266
  832MPD2     H12289   3.374   2.993  16.915  1.7321 -0.9975 -0.5480
  832MPD2    H112290   3.191   2.636  17.082 -1.0393 -0.7601 -0.1326
  832MPD2    H212291   3.591   2.718  17.144  0.6290  1.1443 -2.0552
  832MPD2    H312292   3.393   2.572  17.180  0.7725 -0.2004 -0.0213
  832MPD2     N12293   3.137   2.847  16.919 -0.8849  0.3069  0.0485
  832MPD2    H512294   3.063   2.777  16.921 -1.9843  1.5385  3.3291
  832MPD2    N112295   3.609   2.943  17.041 -0.9294  0.5996  0.4655
  832MPD2    H712296   3.679   2.905  17.104 -0.4293  1.5678  0.5020
  833MPD2     C12297   0.830   3.911  12.597 -0.0100  0.2551  0.0142
  833MPD2    C112298   0.721   3.963  12.533 -0.3561  0.1862 -0.4808
  833MPD2    C212299   0.628   3.867  12.486  0.2211  0.2965 -0.7917
  833MPD2    C312300   0.652   3.730  12.488 -0.0643 -0.8763 -0.0240
  833MPD2    C412301   0.770   3.684  12.549  0.6692  0.0825 -1.0037
  833MPD2    C512302   0.852   3.777  12.605 -0.0520  0.0920 -0.3444
  833MPD2     H12303   0.534   3.889  12.437  0.8183  1.8837 -1.2275
  833MPD2    H112304   0.799   3.580  12.549 -2.4190 -0.7554 -0.0720
  833MPD2    H212305   0.905   3.972  12.645  1.0505 -0.5152 -0.6866
  833MPD2    H312306   0.942   3.737  12.652 -0.3610  0.9595  0.9985
  833MPD2     N12307   0.556   3.651  12.421  0.1565 -0.1231  0.1954
  833MPD2    H512308   0.472   3.690  12.380 -0.5334 -0.8411  0.9334
  833MPD2    N112309   0.698   4.104  12.516  0.4727  0.4789 -0.2366
  833MPD2    H712310   0.769   4.162  12.559  1.3530 -1.9607  1.6395
  834MPD2     C12311   0.339   3.030  11.614  0.0945 -0.3496 -0.2143
  834MPD2    C112312   0.308   3.162  11.590 -0.1153 -0.3174 -0.2823
  834MPD2    C212313   0.317   3.251  11.701 -0.7002 -0.4485  0.0095
  834MPD2    C312314   0.346   3.206  11.827  0.2813 -0.5462 -1.2082
  834MPD2    C412315   0.370   3.066  11.843  0.2076 -0.3952 -0.5389
  834MPD2    C512316   0.362   2.984  11.743 -0.2930  0.3460  0.5753
  834MPD2     H12317   0.318   3.359  11.688  0.8270 -0.5824 -1.1191
  834MPD2    H112318   0.390   3.007  11.931 -0.9837  0.5928  0.3950
  834MPD2    H212319   0.360   2.956  11.538  0.1342  0.4731 -1.0151
  834MPD2    H312320   0.384   2.878  11.751  1.8035  0.6954 -0.5848
  834MPD2     N12321   0.367   3.293  11.935  0.8023 -0.0277 -0.4970
  834MPD2    H512322   0.339   3.388  11.909 -2.8040 -1.2733 -1.1203
  834MPD2    N112323   0.295   3.194  11.452  0.5832 -0.1450 -0.4953
  834MPD2    H712324   0.311   3.120  11.384 -1.9362 -0.6273 -0.5595
  835MPD2     C12325   1.020   2.228  10.550 -0.1510 -0.6748 -0.7949
  835MPD2    C112326   0.925   2.186  10.638 -1.0722 -0.0311 -0.4417
  835MPD2    C212327   0.960   2.144  10.767 -0.0196 -0.0277  0.0417
  835MPD2    C312328   1.090   2.166  10.809  0.8377  0.2731  0.7852
  835MPD2    C412329   1.187   2.209  10.718  0.1703 -0.1665 -0.1222
  835MPD2    C512330   1.146   2.234  10.592  0.1601  0.9209 -0.3436
  835MPD2     H12331   0.892   2.108  10.844 -0.9123  0.1537 -0.6549
  835MPD2    H112332   1.287   2.208  10.761 -0.0898  0.7413  0.4885
  835MPD2    H212333   0.997   2.241  10.445 -1.0139  1.0785 -0.3790
  835MPD2    H312334   1.214   2.269  10.515 -1.0083 -1.1510 -2.3226
  835MPD2     N12335   1.130   2.137  10.940 -0.1979  0.3219 -0.0076
  835MPD2    H512336   1.231   2.147  10.943  0.0691 -1.8624 -1.9311
  835MPD2    N112337   0.788   2.190  10.607  0.1745  0.3445  0.4211
  835MPD2    H712338   0.760   2.248  10.529  0.3181  1.9019  1.5208
  836MPD2     C12339   0.646   2.317  11.367  0.1697  0.5958 -0.2734
  836MPD2    C112340   0.728   2.271  11.463 -0.1471  0.1660 -0.8650
  836MPD2    C212341   0.693   2.277  11.598  0.5078  0.3902 -0.0097
  836MPD2    C312342   0.559   2.320  11.624  0.0494  0.2033 -0.4256
  836MPD2    C412343   0.478   2.368  11.523 -1.0760 -0.0650 -0.0840
  836MPD2    C512344   0.522   2.363  11.396  0.0889  0.2284 -0.7687
  836MPD2     H12345   0.755   2.241  11.679 -0.4026 -0.5037  0.2875
  836MPD2    H112346   0.376   2.400  11.542 -1.4846 -0.9444 -0.8077
  836MPD2    H212347   0.670   2.294  11.264 -1.0821 -0.0458 -0.4338
  836MPD2    H312348   0.446   2.381  11.321 -0.2164  0.8376 -0.3003
  836MPD2     N12349   0.498   2.301  11.747 -0.5149  0.1081  0.0939
  836MPD2    H512350   0.397   2.304  11.735 -0.2775 -0.5077 -2.1936
  836MPD2    N112351   0.852   2.226  11.421 -0.0070  0.1456 -0.0682
  836MPD2    H712352   0.864   2.224  11.320  0.1373 -0.6652 -0.0344
  837MPD2     C12353   3.762   1.841   9.881  0.3575 -0.1427  0.2954
  837MPD2    C112354   3.635   1.896   9.884 -0.3072  1.1891 -0.2009
  837MPD2    C212355   3.618   2.014   9.953  0.1226 -0.2893 -0.7094
  837MPD2    C312356   3.725   2.082  10.020  0.8059 -0.4088 -0.8684
  837MPD2    C412357   3.846   2.029  10.011  0.1738  0.4039  0.0263
  837MPD2    C512358   3.863   1.918   9.933 -0.7409  0.2743 -0.0431
  837MPD2     H12359   3.520   2.059   9.947  0.0902 -0.4044 -1.0813
  837MPD2    H112360   3.932   2.093  10.028 -0.1543  0.5457  1.1369
  837MPD2    H212361   3.791   1.755   9.821  0.8740  0.8585 -0.8644
  837MPD2    H312362   3.964   1.886   9.912 -0.0250  0.6044  2.8937
  837MPD2     N12363   3.698   2.217  10.059 -0.0614 -0.1783  0.2820
  837MPD2    H512364   3.605   2.252  10.038 -0.0202  0.8054  1.7485
  837MPD2    N112365   3.521   1.844   9.816  0.8224 -0.0858  0.3468
  837MPD2    H712366   3.439   1.901   9.834  1.6781  1.4208 -0.5221
  838MPD2     C12367   2.469   0.164  11.709 -0.1699 -0.9338 -0.4807
  838MPD2    C112368   2.375   0.061  11.711  0.2323 -0.6213  0.3347
  838MPD2    C212369   2.321   0.020  11.828  0.3444 -0.0508 -0.2808
  838MPD2    C312370   2.344   0.086  11.943  0.1106  0.0098  0.1475
  838MPD2    C412371   2.433   0.194  11.939  0.9876  0.3942 -0.4166
  838MPD2    C512372   2.504   0.227  11.823 -0.8764 -0.2718  0.1824
  838MPD2     H12373   2.249   4.677  11.826  0.1737  0.1129 -0.8507
  838MPD2    H112374   2.467   0.245  12.028  5.1419 -1.1931 -1.0621
  838MPD2    H212375   2.522   0.198  11.620  1.2024  1.3544  1.1795
  838MPD2    H312376   2.572   0.311  11.831 -0.6274 -0.4711  0.1907
  838MPD2     N12377   2.271   0.044  12.059 -1.2896  0.7573  0.5756
  838MPD2    H512378   2.205   4.706  12.044  0.4801 -0.7242  0.3533
  838MPD2    N112379   2.333   4.736  11.595 -0.0348  0.3543  0.6517
  838MPD2    H712380   2.252   4.675  11.603  0.5939 -0.8257 -1.9266
  839MPD2     C12381   1.533   4.518  11.445 -0.4528  0.6656 -0.7848
  839MPD2    C112382   1.590   4.432  11.356  0.5550 -0.3825 -0.3768
  839MPD2    C212383   1.729   4.449  11.339 -0.0155  0.0223 -0.1149
  839MPD2    C312384   1.800   4.547  11.405  0.5075  0.9643 -0.0116
  839MPD2    C412385   1.736   4.625  11.504 -0.0280  0.1455 -0.0277
  839MPD2    C512386   1.602   4.609  11.516  0.3731 -0.5757 -0.1150
  839MPD2     H12387   1.772   4.383  11.265  3.5820  1.5015  0.6667
  839MPD2    H112388   1.793   4.701  11.557 -0.5369 -0.3372  1.2071
  839MPD2    H212389   1.426   4.516  11.464 -0.4933  1.6637 -0.8877
  839MPD2    H312390   1.551   4.669  11.590 -3.3032 -3.0386 -0.6284
  839MPD2     N12391   1.937   4.584  11.379  0.2940 -1.0361  0.0607
  839MPD2    H512392   1.981   4.653  11.439  1.2648 -0.2698 -1.5152
  839MPD2    N112393   1.524   4.336  11.275 -0.2328 -0.2131 -0.0588
  839MPD2    H712394   1.577   4.289  11.202  0.3413 -2.1200  1.5746
  840MPD2     C12395   2.379   2.101   9.995  0.7536 -0.2412 -0.3938
  840MPD2    C112396   2.361   2.086  10.132 -0.8859 -0.4442  0.3081
  840MPD2    C212397   2.429   2.173  10.212 -0.0671 -0.3876 -0.7929
  840MPD2    C312398   2.508   2.268  10.153  0.2348  1.0383  0.5933
  840MPD2    C412399   2.538   2.270  10.020  0.2258 -0.3927 -0.2074
  840MPD2    C512400   2.469   2.186   9.937  0.1972 -0.2476 -0.2908
  840MPD2     H12401   2.411   2.179  10.318  2.5594 -2.6012 -0.2472
  840MPD2    H112402   2.596   2.347   9.970  0.0274 -0.3716 -0.4051
  840MPD2    H212403   2.313   2.045   9.930 -0.5818 -0.7668  1.4046
  840MPD2    H312404   2.475   2.194   9.830 -0.1240  0.5433 -0.2485
  840MPD2     N12405   2.560   2.379  10.232  0.1978 -0.1332  0.0068
  840MPD2    H512406   2.619   2.442  10.179 -1.2206 -0.9874 -2.5533
  840MPD2    N112407   2.257   2.003  10.178  0.1890  0.3642  0.2839
  840MPD2    H712408   2.207   1.947  10.110  1.8143 -1.3840  0.5353
  841MPD2     C12409   2.124   2.221  14.135 -0.3961  0.0928  0.0668
  841MPD2    C112410   2.164   2.117  14.218  0.3016 -0.6066  0.2632
  841MPD2    C212411   2.274   2.139  14.305  0.1831 -0.4150 -0.1249
  841MPD2    C312412   2.350   2.257  14.296 -1.1479 -0.0842 -0.1492
  841MPD2    C412413   2.305   2.355  14.207  0.5227 -0.7571  0.5353
  841MPD2    C512414   2.189   2.336  14.128 -0.1403  0.5397 -0.0735
  841MPD2     H12415   2.300   2.077  14.389 -1.5611  0.4120  1.0201
  841MPD2    H112416   2.348   2.455  14.202  0.0694 -0.7166 -2.6058
  841MPD2    H212417   2.039   2.198  14.072 -1.1111 -0.4803  1.2429
  841MPD2    H312418   2.160   2.412  14.056  1.0853  1.6906  0.6460
  841MPD2     N12419   2.458   2.267  14.393 -0.4884  0.4045  0.1738
  841MPD2    H512420   2.470   2.200  14.468  0.2277  1.3718  0.9207
  841MPD2    N112421   2.113   1.988  14.219  0.0894 -0.0620  0.1181
  841MPD2    H712422   2.151   1.928  14.290  0.3809  0.3965  0.3495
  842MPD2     C12423   2.492   3.094  16.617  0.0360  0.7413  0.2625
  842MPD2    C112424   2.374   3.022  16.597 -0.3701 -0.1255 -0.3281
  842MPD2    C212425   2.358   2.899  16.665 -0.2680  0.2832 -0.3391
  842MPD2    C312426   2.442   2.852  16.761  0.3505  0.1559  0.2318
  842MPD2    C412427   2.551   2.932  16.790  0.2583  0.4697  0.3971
  842MPD2    C512428   2.576   3.045  16.718 -1.3111  0.4571 -0.0497
  842MPD2     H12429   2.268   2.840  16.651  0.3504 -0.2291 -2.1810
  842MPD2    H112430   2.616   2.906  16.873  1.2700  0.0281 -0.5251
  842MPD2    H212431   2.526   3.182  16.563 -0.3312  1.3493  1.0138
  842MPD2    H312432   2.669   3.098  16.738  0.3035 -2.4163  0.1975
  842MPD2     N12433   2.419   2.739  16.849  0.4026  0.5867 -0.4369
  842MPD2    H512434   2.485   2.725  16.924 -2.6659  1.3134  2.3880
  842MPD2    N112435   2.280   3.076  16.512 -0.0107 -0.1703 -0.4421
  842MPD2    H712436   2.310   3.165  16.473 -1.0772  0.1500 -0.5537
  843MPD2     C12437   4.329   3.679  16.860 -0.1252  0.2578  0.5640
  843MPD2    C112438   4.347   3.658  16.997 -0.2394 -0.0055 -0.3128
  843MPD2    C212439   4.452   3.729  17.056  0.2771  0.3383 -0.4661
  843MPD2    C312440   4.524   3.824  16.989 -0.3317 -0.3793 -0.5961
  843MPD2    C412441   4.492   3.851  16.861 -0.1147  0.4638 -0.0553
  843MPD2    C512442   4.404   3.773  16.793 -0.4011 -0.9730 -0.2206
  843MPD2     H12443   4.470   3.723  17.163 -0.8442  0.7006 -0.2617
  843MPD2    H112444   4.551   3.928  16.812  2.0331 -0.1839  1.5334
  843MPD2    H212445   4.252   3.622  16.810  1.3865 -1.1163 -0.2000
  843MPD2    H312446   4.396   3.797  16.687  0.4355 -0.5314 -0.1804
  843MPD2     N12447   4.624   3.902  17.056  0.1281 -0.6441  0.0107
  843MPD2    H512448   4.665   3.979  17.004  0.7160 -0.3897  0.8602
  843MPD2    N112449   4.257   3.574  17.072 -0.6110  0.1216  0.0315
  843MPD2    H712450   4.181   3.532  17.019 -0.2092  0.3216 -0.7020
  844MPD2     C12451   2.852   2.289  16.518 -0.6374 -0.2776 -0.3221
  844MPD2    C112452   2.895   2.380  16.425  0.4103  0.1255  0.0357
  844MPD2    C212453   2.975   2.490  16.458 -0.4203 -0.5976 -0.8105
  844MPD2    C312454   3.037   2.493  16.582 -0.6599 -0.3601 -0.8026
  844MPD2    C412455   2.989   2.402  16.676  0.5197  0.7924  0.4400
  844MPD2    C512456   2.898   2.309  16.647  0.0884 -0.0602  0.3494
  844MPD2     H12457   2.993   2.573  16.390 -0.3372  1.0292  1.2103
  844MPD2    H112458   3.010   2.410  16.782  1.4981  0.0835  0.3045
  844MPD2    H212459   2.795   2.199  16.500 -0.5207 -0.9034  2.4325
  844MPD2    H312460   2.875   2.237  16.725  0.2607 -0.7212 -0.2105
  844MPD2     N12461   3.148   2.584  16.609  0.0105  0.4281  0.0633
  844MPD2    H512462   3.179   2.630  16.524 -0.3761 -0.3085 -0.4884
  844MPD2    N112463   2.839   2.375  16.292  0.0699  0.0958 -0.1150
  844MPD2    H712464   2.882   2.444  16.231  0.2880 -1.1413 -1.3709
  845MPD2     C12465   3.508   3.496  16.485  0.1271 -0.1417  0.1254
  845MPD2    C112466   3.560   3.466  16.615 -0.3156 -0.4426  0.0901
  845MPD2    C212467   3.553   3.329  16.654  0.2237  0.5153  0.1799
  845MPD2    C312468   3.507   3.223  16.569 -0.0472  0.2850 -0.2792
  845MPD2    C412469   3.461   3.265  16.446 -0.3866 -0.2559  0.3380
  845MPD2    C512470   3.453   3.397  16.410  0.4762 -0.8763 -0.2314
  845MPD2     H12471   3.569   3.295  16.756  0.3139 -2.0434 -0.6846
  845MPD2    H112472   3.435   3.190  16.371  0.2047  0.6516 -0.7692
  845MPD2    H212473   3.505   3.602  16.461 -1.5649 -0.2387 -0.1493
  845MPD2    H312474   3.407   3.422  16.315  1.1992  0.1534 -0.3075
  845MPD2     N12475   3.514   3.098  16.622  0.3080 -0.4272  0.4884
  845MPD2    H512476   3.541   3.090  16.719  0.3644 -1.7564  0.3661
  845MPD2    N112477   3.579   3.575  16.700 -0.1460  0.1471  0.7440
  845MPD2    H712478   3.559   3.663  16.653  0.0341  0.7273  1.7703
  846MPD2     C12479   0.259   3.733  13.522 -0.1437  0.4049 -0.4350
  846MPD2    C112480   0.199   3.855  13.555  0.5011 -0.3318 -0.1976
  846MPD2    C212481   0.194   3.890  13.692  0.1384 -1.1127 -0.4266
  846MPD2    C312482   0.254   3.815  13.787  0.3598 -0.0807 -0.0926
  846MPD2    C412483   0.317   3.695  13.755  0.3168  0.5362 -0.1760
  846MPD2    C512484   0.326   3.665  13.620  0.2097 -0.1323  0.0882
  846MPD2     H12485   0.149   3.984  13.720  2.7214 -0.0371  0.0647
  846MPD2    H112486   0.359   3.623  13.825 -1.2216 -0.4127 -0.2173
  846MPD2    H212487   0.289   3.700  13.423 -5.4510 -1.6191 -1.3809
  846MPD2    H312488   0.388   3.579  13.601  1.2584  0.3461  1.3922
  846MPD2     N12489   0.227   3.842  13.925 -0.0209  0.2575  0.3707
  846MPD2    H512490   0.136   3.885  13.929 -0.3774 -0.5108  0.6723
  846MPD2    N112491   0.133   3.927  13.455 -0.1363 -0.0447  0.2652
  846MPD2    H712492   0.077   4.009  13.478  0.2893  0.4929 -0.6284
  847MPD2     C12493   0.609   0.497  13.883 -0.1301  0.0375 -0.4873
  847MPD2    C112494   0.747   0.492  13.902 -0.1528  0.0081  0.2732
  847MPD2    C212495   0.801   0.370  13.944 -0.0196  0.6195 -0.1460
  847MPD2    C312496   0.719   0.260  13.947  0.2030 -0.0587  0.0971
  847MPD2    C412497   0.582   0.266  13.925  0.4544 -0.0364  0.0261
  847MPD2    C512498   0.531   0.385  13.886  0.0266  0.2342 -0.5172
  847MPD2     H12499   0.897   0.365  13.992  0.6292 -0.3128 -1.5117
  847MPD2    H112500   0.514   0.183  13.942  0.5574 -0.1221  0.0239
  847MPD2    H212501   0.562   0.592  13.859 -0.5788  0.1699  0.9251
  847MPD2    H312502   0.424   0.395  13.878 -0.1771 -0.0952  1.7143
  847MPD2     N12503   0.781   0.140  13.988 -0.5398  0.7863  0.5828
  847MPD2    H512504   0.878   0.156  14.014 -0.6889  1.3680  0.7776
  847MPD2    N112505   0.828   0.606  13.908 -0.1160 -0.2611  0.6981
  847MPD2    H712506   0.929   0.601  13.917  0.1345 -0.0050 -1.7568
  848MPD2     C12507   3.140   3.131  16.248  0.0620  0.0174  0.2573
  848MPD2    C112508   3.029   3.172  16.304  0.9242 -0.0206 -0.8266
  848MPD2    C212509   2.991   3.297  16.282 -0.1207  0.4173  0.7007
  848MPD2    C312510   3.064   3.380  16.197  0.6763  0.0546  0.4824
  848MPD2    C412511   3.169   3.329  16.123 -0.7319  0.7243  0.1630
  848MPD2    C512512   3.213   3.203  16.152 -0.4452 -0.1100  0.6547
  848MPD2     H12513   2.902   3.336  16.331 -1.1916 -0.9346 -0.1631
  848MPD2    H112514   3.224   3.405  16.068  1.4472 -0.4139  0.7505
  848MPD2    H212515   3.179   3.032  16.271 -0.8770 -0.3088  0.4438
  848MPD2    H312516   3.305   3.165  16.109 -2.2155 -1.4072 -1.9619
  848MPD2     N12517   3.032   3.514  16.176  0.4242 -0.3109 -0.0440
  848MPD2    H512518   3.097   3.565  16.117 -1.0237  1.0477 -0.4482
  848MPD2    N112519   2.963   3.100  16.401 -0.3936  0.4061 -0.2130
  848MPD2    H712520   2.907   3.143  16.474 -0.2478 -1.1411  0.8094
  849MPD2     C12521   2.333   3.002  14.255  0.3962  0.4878 -0.4577
  849MPD2    C112522   2.429   3.098  14.242  0.1342  0.5173  0.6245
  849MPD2    C212523   2.497   3.144  14.353 -0.2850 -0.2212 -0.2059
  849MPD2    C312524   2.463   3.105  14.486 -0.6319  0.4999  0.0453
  849MPD2    C412525   2.358   3.012  14.498  0.2753 -0.1498 -0.9183
  849MPD2    C512526   2.299   2.963  14.382 -0.3341  0.1592 -0.2066
  849MPD2     H12527   2.581   3.211  14.339 -0.7459  0.7686  1.7432
  849MPD2    H112528   2.320   2.978  14.594 -2.1264  0.6212 -1.5948
  849MPD2    H212529   2.286   2.960  14.167  0.6780 -0.3854 -0.1862
  849MPD2    H312530   2.233   2.877  14.382  0.7530 -0.6802 -0.4666
  849MPD2     N12531   2.542   3.144  14.597  0.2576  0.3609  0.8908
  849MPD2    H512532   2.551   3.070  14.666 -0.3498  0.0554  0.6457
  849MPD2    N112533   2.469   3.132  14.111  0.0547 -0.0086  0.0324
  849MPD2    H712534   2.426   3.072  14.043  1.3223  0.7843 -1.4674
  850MPD2     C12535   0.352   0.863  14.511  0.2318 -0.4204  0.0109
  850MPD2    C112536   0.331   0.902  14.643 -0.9959 -0.2038 -0.2821
  850MPD2    C212537   0.441   0.907  14.723  0.8099 -0.0972  0.2548
  850MPD2    C312538   0.568   0.871  14.676 -0.3485  0.4874  0.9476
  850MPD2    C412539   0.579   0.818  14.549  0.0849 -0.1563  0.0871
  850MPD2    C512540   0.469   0.820  14.464  0.2472  0.4284  0.4374
  850MPD2     H12541   0.420   0.939  14.825 -3.5294 -0.5792 -0.4855
  850MPD2    H112542   0.675   0.784  14.514  0.7719  1.2911  0.5827
  850MPD2    H212543   0.276   0.849  14.435 -1.8152  2.4961  1.5344
  850MPD2    H312544   0.485   0.786  14.362 -0.2268 -0.1315  0.5524
  850MPD2     N12545   0.683   0.876  14.757  0.1990 -0.1049  0.3047
  850MPD2    H512546   0.770   0.846  14.713 -0.2207 -0.5504 -0.2282
  850MPD2    N112547   0.197   0.927  14.682 -0.8353 -0.0693  0.0996
  850MPD2    H712548   0.144   0.942  14.596  1.6256  1.5425 -1.1477
  851MPD2     C12549   0.668   0.785  15.383  0.1886  0.0420 -0.4139
  851MPD2    C112550   0.622   0.754  15.262  0.1904 -0.1347  0.7290
  851MPD2    C212551   0.706   0.669  15.179 -0.1743  0.2541  0.3635
  851MPD2    C312552   0.822   0.616  15.228 -0.7123  0.7675 -0.7075
  851MPD2    C412553   0.854   0.648  15.359 -0.3761  0.3834 -0.1840
  851MPD2    C512554   0.775   0.722  15.436  0.3602  0.3584  0.5278
  851MPD2     H12555   0.673   0.653  15.077  1.3675  1.4339 -0.3233
  851MPD2    H112556   0.939   0.598  15.403  0.8097  0.8716 -1.9324
  851MPD2    H212557   0.620   0.857  15.450  3.6462  0.4874  1.5778
  851MPD2    H312558   0.804   0.732  15.540 -0.2208 -0.0215  0.7265
  851MPD2     N12559   0.888   0.525  15.145  0.8757 -0.0548 -0.3456
  851MPD2    H512560   0.848   0.504  15.054  0.9171  0.4214 -0.4736
  851MPD2    N112561   0.501   0.818  15.219  0.5853 -0.1494  0.6111
  851MPD2    H712562   0.451   0.878  15.284 -0.7921 -1.1469  0.4968
  852MPD2     C12563   4.248   3.505   9.706 -0.2917  0.1841  0.0872
  852MPD2    C112564   4.345   3.534   9.800  0.0765  0.4907 -0.0313
  852MPD2    C212565   4.452   3.620   9.761 -0.2646  0.0861 -0.3103
  852MPD2    C312566   4.466   3.661   9.631  0.2070 -0.0761  0.7960
  852MPD2    C412567   4.365   3.627   9.544 -0.2432 -0.1286 -0.0905
  852MPD2    C512568   4.261   3.550   9.581  0.4135  0.1383 -0.4695
  852MPD2     H12569   4.527   3.650   9.833 -0.7549 -0.1368  0.2968
  852MPD2    H112570   4.367   3.659   9.440 -0.3419  1.3836  0.3700
  852MPD2    H212571   4.158   3.447   9.719 -1.4889  1.6075 -1.8578
  852MPD2    H312572   4.180   3.532   9.511  0.1896  0.8578 -0.3946
  852MPD2     N12573   4.569   3.747   9.593 -0.4124 -0.2019  0.0454
  852MPD2    H512574   4.630   3.778   9.669 -1.8285 -0.5165  1.2969
  852MPD2    N112575   4.330   3.506   9.935 -0.0562  0.3930  0.1534
  852MPD2    H712576   4.399   3.545   9.999 -0.9719 -0.8820  1.9357
  853MPD2     C12577   1.876   2.963  12.104  0.0358 -0.5625 -0.1838
  853MPD2    C112578   1.762   3.013  12.042  0.0418  0.3472  0.1386
  853MPD2    C212579   1.769   3.046  11.905  0.5054 -0.2352  0.0572
  853MPD2    C312580   1.879   3.019  11.825 -0.3441 -0.7744 -0.5501
  853MPD2    C412581   1.993   2.968  11.891 -0.3753 -0.0171 -0.1648
  853MPD2    C512582   1.989   2.939  12.023  0.1739  0.6206  0.1713
  853MPD2     H12583   1.680   3.095  11.865  0.7760 -0.9974 -1.4513
  853MPD2    H112584   2.091   2.971  11.847 -0.9729  0.8323 -1.4323
  853MPD2    H212585   1.872   2.946  12.211 -2.1963 -0.3641 -0.2467
  853MPD2    H312586   2.075   2.900  12.077 -2.0952 -1.1930  2.4994
  853MPD2     N12587   1.892   3.042  11.688  0.5063 -0.1107  0.2611
  853MPD2    H512588   1.985   3.049  11.648 -0.1283 -0.3914 -1.2630
  853MPD2    N112589   1.649   3.041  12.125 -0.2553  0.6008  0.0583
  853MPD2    H712590   1.662   3.032  12.225  1.1623 -2.0805 -0.3750
  854MPD2     C12591   3.752   3.844  13.069  0.4371  0.0514  0.0721
  854MPD2    C112592   3.670   3.745  13.009 -0.3065  0.1923  0.8323
  854MPD2    C212593   3.698   3.613  13.030  0.2116  0.8385  0.8355
  854MPD2    C312594   3.807   3.571  13.113  0.1592 -0.3438  0.2756
  854MPD2    C412595   3.881   3.672  13.171  0.8062  0.1200  0.0359
  854MPD2    C512596   3.848   3.801  13.151  0.4727 -0.3263  0.2533
  854MPD2     H12597   3.648   3.528  12.985  0.4587  1.2692 -0.2495
  854MPD2    H112598   3.958   3.650  13.244  0.7919 -0.0554 -0.0027
  854MPD2    H212599   3.749   3.952  13.060  0.3427  0.0103 -0.4000
  854MPD2    H312600   3.900   3.881  13.201 -2.1772  1.3204  0.3903
  854MPD2     N12601   3.852   3.445  13.134 -0.3016  0.0322  0.1644
  854MPD2    H512602   3.939   3.444  13.185  0.6552 -1.5317 -1.5066
  854MPD2    N112603   3.568   3.788  12.917  1.2082  0.1220 -0.0165
  854MPD2    H712604   3.579   3.882  12.880 -2.8315  1.0735  1.2082
  855MPD2     C12605   4.354   3.251  13.759  0.0768  0.3548  0.4006
  855MPD2    C112606   4.299   3.129  13.732  0.4519 -0.2776  0.0678
  855MPD2    C212607   4.248   3.099  13.611  0.6114 -0.1114  0.0506
  855MPD2    C312608   4.241   3.197  13.517  0.3106 -0.3371 -0.0486
  855MPD2    C412609   4.287   3.324  13.549  0.0234  0.8233 -0.6458
  855MPD2    C512610   4.345   3.352  13.668 -0.6052  0.7217 -0.4326
  855MPD2     H12611   4.221   2.997  13.588 -0.3430 -0.3175  2.1382
  855MPD2    H112612   4.271   3.405  13.478  0.2158  1.4596  0.0347
  855MPD2    H212613   4.370   3.291  13.859 -1.0498  1.9333 -0.0460
  855MPD2    H312614   4.381   3.451  13.693 -0.8927  1.1058 -1.5716
  855MPD2     N12615   4.166   3.187  13.395  0.0524 -0.7929  0.0612
  855MPD2    H512616   4.152   3.277  13.349  1.2143 -0.8938 -0.4820
  855MPD2    N112617   4.294   3.029  13.834  0.2557  0.4294  0.7550
  855MPD2    H712618   4.266   2.936  13.806  2.4047 -0.2924  1.0694
  856MPD2     C12619   1.069   3.998  13.662 -0.1047  0.3059 -0.0272
  856MPD2    C112620   1.136   4.086  13.744  0.2159 -0.2013 -0.0087
  856MPD2    C212621   1.084   4.215  13.761  0.5678  0.4519 -0.2438
  856MPD2    C312622   0.971   4.254  13.702  0.3051 -0.2594  0.7154
  856MPD2    C412623   0.907   4.163  13.627 -0.1376  0.1993 -0.6043
  856MPD2    C512624   0.961   4.040  13.599  0.0294  1.3753  0.2853
  856MPD2     H12625   1.145   4.286  13.815  0.4747  0.8380 -0.6485
  856MPD2    H112626   0.818   4.190  13.570  0.5079  1.2179 -1.1269
  856MPD2    H212627   1.110   3.901  13.635  1.9128  0.4791  2.4730
  856MPD2    H312628   0.908   3.974  13.531 -0.0295  0.4246  1.2670
  856MPD2     N12629   0.917   4.383  13.704 -0.0428 -0.1770 -0.7684
  856MPD2    H512630   0.833   4.388  13.648 -0.2561 -0.2975 -0.4648
  856MPD2    N112631   1.255   4.058  13.809 -0.7679  0.0795  0.0169
  856MPD2    H712632   1.284   4.127  13.878 -1.0382 -1.6364  1.8354
  857MPD2     C12633   2.767   1.501  12.831 -0.2152  0.4270 -0.9609
  857MPD2    C112634   2.900   1.513  12.808  0.3238 -0.3688 -0.0269
  857MPD2    C212635   2.976   1.601  12.886 -0.5625 -0.2589 -0.1626
  857MPD2    C312636   2.915   1.686  12.970 -0.0547 -0.1423  0.6701
  857MPD2    C412637   2.780   1.681  12.993  0.2780  0.2405 -0.0964
  857MPD2    C512638   2.712   1.583  12.924 -0.0827 -0.5384 -0.0262
  857MPD2     H12639   3.083   1.596  12.867 -1.1064  1.4265 -3.5121
  857MPD2    H112640   2.719   1.744  13.057 -0.1267 -1.3867  1.1147
  857MPD2    H212641   2.709   1.431  12.773 -2.1501  0.4584  0.9608
  857MPD2    H312642   2.605   1.589  12.941 -0.5094  2.8047 -3.8220
  857MPD2     N12643   2.995   1.784  13.031  0.6416  0.1959  0.8815
  857MPD2    H512644   3.095   1.775  13.023  0.9133  1.3746  3.0411
  857MPD2    N112645   2.958   1.436  12.709 -0.1808  0.5021 -0.0493
  857MPD2    H712646   2.888   1.379  12.662  0.7051 -0.2773 -0.4416
  858MPD2     C12647   3.784   0.949  16.180  0.2032 -0.4115 -0.4492
  858MPD2    C112648   3.817   0.838  16.249 -0.1903 -0.3498 -0.5013
  858MPD2    C212649   3.816   0.827  16.381  0.2518 -0.0265 -0.4062
  858MPD2    C312650   3.790   0.936  16.456 -0.4306 -0.1547 -0.0705
  858MPD2    C412651   3.749   1.055  16.401  0.0725  0.3519 -0.1321
  858MPD2    C512652   3.747   1.065  16.259  0.2935  1.0008  0.6313
  858MPD2     H12653   3.840   0.736  16.434 -1.1711 -1.2091 -1.8060
  858MPD2    H112654   3.715   1.134  16.467 -0.9286  0.4583 -0.7684
  858MPD2    H212655   3.784   0.962  16.072  0.2869 -0.9603 -0.5121
  858MPD2    H312656   3.712   1.157  16.213 -0.5424 -1.4653 -3.6171
  858MPD2     N12657   3.803   0.937  16.600  0.6238 -0.0291 -0.0437
  858MPD2    H512658   3.756   1.014  16.646 -1.8522 -1.7572  0.3127
  858MPD2    N112659   3.838   0.723  16.175 -0.5947 -0.6445 -0.1822
  858MPD2    H712660   3.874   0.730  16.080 -1.9206  1.3754 -0.5299
  859MPD2     C12661   2.459   3.043  15.771 -0.2673 -0.0959 -0.0890
  859MPD2    C112662   2.408   3.008  15.654  0.0273  0.2174 -0.3855
  859MPD2    C212663   2.337   2.887  15.641  0.8573 -0.4244  0.3444
  859MPD2    C312664   2.325   2.808  15.749 -0.1016  0.3957 -0.7665
  859MPD2    C412665   2.383   2.846  15.871  0.4670  0.0201 -0.8301
  859MPD2    C512666   2.453   2.967  15.880 -0.3880 -0.0819 -0.4255
  859MPD2     H12667   2.290   2.857  15.549  0.7411  2.5477 -0.5747
  859MPD2    H112668   2.370   2.788  15.961  1.9534 -1.1728 -1.3954
  859MPD2    H212669   2.514   3.135  15.784  0.0784 -0.1391 -1.1867
  859MPD2    H312670   2.502   2.997  15.972 -2.9350 -0.1285  0.9543
  859MPD2     N12671   2.273   2.675  15.739  0.7447 -0.3221  0.0898
  859MPD2    H512672   2.251   2.638  15.831 -1.4340 -2.6532 -1.3810
  859MPD2    N112673   2.423   3.096  15.540 -0.0387 -0.5774  0.3642
  859MPD2    H712674   2.494   3.168  15.552  0.0670 -0.8771  1.5703
  860MPD2     C12675   4.019   2.650  11.861  0.0130  0.4412  0.0899
  860MPD2    C112676   4.017   2.638  12.001  0.0594  0.0306  0.8949
  860MPD2    C212677   3.901   2.666  12.064  0.3912  0.6457  0.1873
  860MPD2    C312678   3.795   2.724  11.987 -0.1392  0.7209  0.7832
  860MPD2    C412679   3.803   2.745  11.850 -0.2970 -0.5009  0.3112
  860MPD2    C512680   3.918   2.709  11.793 -0.5512  0.7175 -0.3330
  860MPD2     H12681   3.907   2.656  12.172  0.1723 -1.5643 -0.0067
  860MPD2    H112682   3.726   2.792  11.789  1.5146 -1.0080 -2.3548
  860MPD2    H212683   4.113   2.640  11.808  0.1637  0.5234  0.3447
  860MPD2    H312684   3.916   2.722  11.685  0.5570  3.0794 -0.0636
  860MPD2     N12685   3.673   2.755  12.049  0.4814 -0.1699 -0.6460
  860MPD2    H512686   3.669   2.730  12.147  0.3913  1.6960 -0.1727
  860MPD2    N112687   4.126   2.585  12.075 -0.2209  0.2742 -0.5469
  860MPD2    H712688   4.110   2.550  12.169 -1.4195 -1.2176 -1.3069
  861MPD2     C12689   3.666   1.532  10.913 -0.1852 -0.2676 -0.0446
  861MPD2    C112690   3.558   1.466  10.959 -0.3273 -0.2450 -0.2353
  861MPD2    C212691   3.442   1.460  10.886 -1.0689 -0.0266 -0.2432
  861MPD2    C312692   3.438   1.525  10.765 -0.4238  0.4862 -0.2093
  861MPD2    C412693   3.541   1.616  10.728 -0.1147  0.0742  0.3468
  861MPD2    C512694   3.655   1.614  10.801  0.1436 -0.4897 -0.6083
  861MPD2     H12695   3.365   1.392  10.918 -1.3054 -0.2838 -1.3516
  861MPD2    H112696   3.539   1.690  10.649  2.0174 -0.0311  0.1867
  861MPD2    H212697   3.757   1.556  10.967  0.4624 -1.3352 -0.6536
  861MPD2    H312698   3.748   1.665  10.775 -0.0441  0.4815  0.6248
  861MPD2     N12699   3.329   1.516  10.671  0.3015  0.0675 -0.1956
  861MPD2    H512700   3.331   1.579  10.592  1.6336 -1.2257 -1.2018
  861MPD2    N112701   3.553   1.413  11.088 -0.1514  0.4004 -0.0570
  861MPD2    H712702   3.461   1.392  11.125  0.7882 -1.4051  1.2911
  862MPD2     C12703   2.735   1.457  10.160 -1.3353 -0.2625 -0.5817
  862MPD2    C112704   2.840   1.402  10.227 -0.7620 -0.2513  0.3730
  862MPD2    C212705   2.861   1.265  10.231  0.0592  0.2249  0.2607
  862MPD2    C312706   2.762   1.177  10.183  0.8661  0.3593  0.3190
  862MPD2    C412707   2.655   1.232  10.119  0.6380  0.0870 -0.1692
  862MPD2    C512708   2.643   1.366  10.101  0.4692 -0.8719  0.0583
  862MPD2     H12709   2.941   1.218  10.288 -0.0176 -0.3699 -0.1190
  862MPD2    H112710   2.583   1.161  10.080  0.4975  0.0208  0.2131
  862MPD2    H212711   2.708   1.562  10.149  0.0928 -0.1299 -2.7494
  862MPD2    H312712   2.549   1.403  10.060  0.6295  0.8543  1.2160
  862MPD2     N12713   2.774   1.032  10.189 -0.3309 -0.7072  0.4803
  862MPD2    H512714   2.695   0.976  10.162 -1.5632  0.7124  1.1216
  862MPD2    N112715   2.932   1.477  10.312  0.7247 -0.0818 -0.5965
  862MPD2    H712716   3.005   1.434  10.368 -1.5755 -4.1841 -0.7569
  863MPD2     C12717   1.773   4.570  16.231  0.6018 -0.2989 -0.3794
  863MPD2    C112718   1.739   4.502  16.344 -0.0084  0.1271 -0.5236
  863MPD2    C212719   1.834   4.457  16.434  0.6150  0.4401 -0.0521
  863MPD2    C312720   1.968   4.480  16.403  0.1030 -0.4224 -0.0978
  863MPD2    C412721   2.000   4.553  16.292  0.6429 -0.5398  0.8796
  863MPD2    C512722   1.905   4.595  16.202 -0.1620  0.7175 -0.7752
  863MPD2     H12723   1.810   4.398  16.521 -0.5868  0.8268 -0.1215
  863MPD2    H112724   2.104   4.572  16.267 -0.3558  5.2399  1.1872
  863MPD2    H212725   1.693   4.596  16.162  0.7419 -1.5967 -1.0340
  863MPD2    H312726   1.941   4.645  16.113  3.1116 -0.0469  0.1310
  863MPD2     N12727   2.068   4.422  16.478 -0.0775  0.4847 -0.2673
  863MPD2    H512728   2.162   4.457  16.459  0.7362 -2.2020 -1.2335
  863MPD2    N112729   1.598   4.476  16.350  0.0040 -0.1433 -0.2173
  863MPD2    H712730   1.548   4.499  16.264 -0.7474 -1.0440 -0.0242
  864MPD2     C12731   2.387   0.722  17.058 -0.4881  0.1049  0.2223
  864MPD2    C112732   2.453   0.685  16.945  0.8281 -0.8149  0.2027
  864MPD2    C212733   2.530   0.775  16.876 -0.2959 -0.1818 -0.1224
  864MPD2    C312734   2.530   0.909  16.918  0.1151  0.2953  0.4184
  864MPD2    C412735   2.458   0.951  17.031  0.2749 -0.6894 -0.3265
  864MPD2    C512736   2.388   0.860  17.098  0.3271 -0.0686  0.3967
  864MPD2     H12737   2.589   0.734  16.795  0.3473 -0.9362  0.7332
  864MPD2    H112738   2.460   1.054  17.066  1.6208 -1.6996  2.5880
  864MPD2    H212739   2.320   0.656  17.112 -0.5636  1.2316  1.5003
  864MPD2    H312740   2.323   0.896  17.177 -1.6801 -0.8658 -0.8831
  864MPD2     N12741   2.582   1.010  16.823  0.2338  0.1766 -0.2969
  864MPD2    H512742   2.565   1.108  16.839 -1.1686 -0.1733  0.3706
  864MPD2    N112743   2.428   0.549  16.906  0.4949 -1.1399 -0.5244
  864MPD2    H712744   2.370   0.496  16.970  0.0370  0.1568  0.1220
  865MPD2     C12745   2.849   1.208  15.905  0.0856  0.3161 -0.1590
  865MPD2    C112746   2.754   1.139  15.976 -0.2816  0.2747 -0.1772
  865MPD2    C212747   2.700   1.182  16.092  0.2589 -0.2761  0.0363
  865MPD2    C312748   2.746   1.299  16.156  0.3844  0.7503  0.5167
  865MPD2    C412749   2.839   1.371  16.083 -0.4497  0.3177 -0.5155
  865MPD2    C512750   2.886   1.332  15.961 -0.3425 -0.7739 -0.0802
  865MPD2     H12751   2.621   1.124  16.137 -0.4040 -0.1613 -0.9699
  865MPD2    H112752   2.887   1.453  16.134 -0.0795  0.6044 -1.3274
  865MPD2    H212753   2.905   1.169  15.821 -1.1806 -1.9556  0.0807
  865MPD2    H312754   2.962   1.396  15.917  0.2506 -1.2902  0.2008
  865MPD2     N12755   2.714   1.341  16.286 -0.0199  0.4345  0.0088
  865MPD2    H512756   2.770   1.416  16.327 -0.9560  0.0012  2.0617
  865MPD2    N112757   2.713   1.016  15.922  0.9820 -0.1702  0.6462
  865MPD2    H712758   2.762   1.002  15.834  0.3949 -0.3680  0.3480
  866MPD2     C12759   3.781   1.590  11.554 -0.2219 -0.5077 -0.0926
  866MPD2    C112760   3.835   1.642  11.439  0.2272 -0.0321  0.4046
  866MPD2    C212761   3.748   1.715  11.352 -0.4523  0.2966  0.4638
  866MPD2    C312762   3.620   1.742  11.389  0.1307  0.0386  0.1605
  866MPD2    C412763   3.573   1.692  11.501 -0.3874 -0.1424 -0.2256
  866MPD2    C512764   3.652   1.607  11.582 -0.1010  0.2820 -0.0040
  866MPD2     H12765   3.772   1.754  11.253  1.1204  0.8063  1.0426
  866MPD2    H112766   3.467   1.700  11.523 -0.0888 -1.5217  1.6966
  866MPD2    H212767   3.839   1.519  11.612  0.9258 -0.8360 -1.6341
  866MPD2    H312768   3.602   1.561  11.667  1.7238 -1.3478  0.1704
  866MPD2     N12769   3.522   1.811  11.310 -0.4200 -0.1531  0.2448
  866MPD2    H512770   3.425   1.812  11.339 -0.5800  2.9359 -0.3136
  866MPD2    N112771   3.974   1.622  11.405 -0.2245  0.3557 -0.3941
  866MPD2    H712772   4.033   1.568  11.467  1.6875  2.0609 -0.7199
  867MPD2     C12773   1.254   0.727  15.972  0.4995 -0.0950  0.1095
  867MPD2    C112774   1.248   0.609  16.038 -0.8372 -0.1658 -0.0735
  867MPD2    C212775   1.245   0.617  16.179  0.0153 -0.5285  0.2069
  867MPD2    C312776   1.247   0.732  16.254 -0.0604 -0.0100 -0.0941
  867MPD2    C412777   1.247   0.847  16.184  0.4785 -0.2141  0.3094
  867MPD2    C512778   1.251   0.845  16.044 -0.2497 -0.3228  0.4686
  867MPD2     H12779   1.246   0.526  16.239 -0.8533 -0.6631  0.0282
  867MPD2    H112780   1.269   0.938  16.239 -1.5296 -0.3612  1.3747
  867MPD2    H212781   1.267   0.727  15.865  4.4836  0.5396  0.6166
  867MPD2    H312782   1.260   0.939  15.992  2.0232  0.2230  1.8781
  867MPD2     N12783   1.262   0.745  16.393  0.4182 -0.1012  0.1072
  867MPD2    H512784   1.265   0.838  16.432 -1.1420 -0.4396  1.0520
  867MPD2    N112785   1.250   0.486  15.972 -0.4404 -0.0088 -0.3979
  867MPD2    H712786   1.240   0.486  15.871 -0.0711  3.4903 -0.4493
  868MPD2     C12787   2.723   4.527  12.929 -0.7855 -0.2052 -0.5273
  868MPD2    C112788   2.820   4.517  13.030 -0.0686 -0.2493 -0.4202
  868MPD2    C212789   2.786   4.533  13.166 -0.9423 -0.0269 -0.2684
  868MPD2    C312790   2.654   4.570  13.201  0.0332  0.4245  0.0250
  868MPD2    C412791   2.558   4.580  13.097 -0.1966 -0.5167  0.3481
  868MPD2    C512792   2.591   4.565  12.963 -0.5325 -0.4149  0.4785
  868MPD2     H12793   2.859   4.516  13.245 -4.3328  1.6957  3.2467
  868MPD2    H112794   2.456   4.614  13.108 -0.5310 -2.1035  2.1259
  868MPD2    H212795   2.745   4.506  12.825 -1.1681  1.1764 -0.8879
  868MPD2    H312796   2.517   4.585  12.886 -1.9811  0.2363  2.0325
  868MPD2     N12797   2.625   4.598  13.337 -0.0608  0.5086 -0.1430
  868MPD2    H512798   2.701   4.591  13.403 -0.3989 -0.5446  0.1274
  868MPD2    N112799   2.956   4.500  12.985 -0.0558  0.4041 -0.0196
  868MPD2    H712800   2.970   4.532  12.889 -1.3399 -0.1708 -0.3987
  869MPD2     C12801   3.435   2.431   0.614  0.1433  0.3265 -0.0159
  869MPD2    C112802   3.422   2.501   0.501 -0.1610 -0.1344  0.1826
  869MPD2    C212803   3.502   2.606   0.478  0.0868 -0.0425 -0.7869
  869MPD2    C312804   3.580   2.663   0.579 -0.3092  0.0626 -1.3198
  869MPD2    C412805   3.589   2.600   0.698  0.0321  0.3388 -0.0553
  869MPD2    C512806   3.522   2.476   0.712 -0.0368 -0.7293  0.1152
  869MPD2     H12807   3.484   2.666   0.389 -1.7396 -2.2120 -1.8518
  869MPD2    H112808   3.652   2.638   0.777 -0.5530 -0.4380  0.7948
  869MPD2    H212809   3.384   2.336   0.626 -3.1483  1.9764 -0.9799
  869MPD2    H312810   3.533   2.428   0.809 -0.5824  0.3693  0.7092
  869MPD2     N12811   3.654   2.780   0.572 -0.1331  0.1823 -0.2281
  869MPD2    H512812   3.706   2.807   0.655 -0.0105  0.8579 -0.5334
  869MPD2    N112813   3.325   2.457   0.407  0.1415 -0.0895 -0.6342
  869MPD2    H712814   3.278   2.369   0.424 -0.2601 -0.0419 -1.4911
  870MPD2     C12815   4.697   1.029   1.164  0.5329 -0.8356  0.6500
  870MPD2    C112816   4.583   1.003   1.097 -0.2703  0.8180  0.2409
  870MPD2    C212817   4.491   1.105   1.078 -0.3077 -0.2146  0.1738
  870MPD2    C312818   4.524   1.236   1.103  0.8689 -0.2713  0.2828
  870MPD2    C412819   4.656   1.257   1.146  0.2928  0.0848  0.0866
  870MPD2    C512820   0.001   1.160   1.179  0.5499 -0.4381  0.0028
  870MPD2     H12821   4.397   1.093   1.027  0.2115 -2.5692 -0.2025
  870MPD2    H112822   4.689   1.354   1.182 -1.3056  0.0971  1.5046
  870MPD2    H212823   0.036   0.954   1.180  0.3180 -1.2139 -0.0802
  870MPD2    H312824   0.094   1.181   1.231 -0.5411  0.0101  1.7972
  870MPD2     N12825   4.426   1.329   1.076  0.6008 -0.6393 -0.0966
  870MPD2    H512826   4.338   1.294   1.039  1.1235 -1.3835 -0.6241
  870MPD2    N112827   4.561   0.871   1.062 -0.2120 -0.4149 -0.0452
  870MPD2    H712828   4.639   0.808   1.077 -1.0313 -1.1771  1.0279
  871MPD2     C12829   0.242   0.448  16.306  0.0090 -0.0804  0.8138
  871MPD2    C112830   0.333   0.532  16.367 -0.1678  0.5849  1.1514
  871MPD2    C212831   0.463   0.519  16.336  0.0083 -0.5536  0.3576
  871MPD2    C312832   0.502   0.438  16.236  0.1889  0.3912  1.4167
  871MPD2    C412833   0.416   0.346  16.179 -0.0142  0.0677  0.1899
  871MPD2    C512834   0.287   0.354  16.214  0.1495 -0.4313 -0.3659
  871MPD2     H12835   0.532   0.585  16.387  1.8169 -1.2931 -1.1736
  871MPD2    H112836   0.433   0.278  16.097  2.8061  2.3701 -1.1419
  871MPD2    H212837   0.138   0.461  16.333 -0.6074 -0.1646 -1.5196
  871MPD2    H312838   0.227   0.283  16.159  0.8490 -1.2449 -0.0850
  871MPD2     N12839   0.631   0.448  16.199  0.0281  0.3899  0.1282
  871MPD2    H512840   0.691   0.513  16.248  1.3953 -0.2445 -0.7139
  871MPD2    N112841   0.290   0.626  16.465  0.0818 -0.5928 -0.0390
  871MPD2    H712842   0.196   0.618  16.504 -1.4915  1.3666 -3.4033
  872MPD2     C12843   1.415   3.063  14.092 -0.1284  1.0911 -0.2150
  872MPD2    C112844   1.369   3.134  13.987 -0.2483  0.0078 -0.5152
  872MPD2    C212845   1.236   3.157  13.970  0.1096 -0.6079  0.5853
  872MPD2    C312846   1.145   3.116  14.069 -0.6300  0.8000 -0.5422
  872MPD2    C412847   1.191   3.063  14.185  0.4379 -0.3887 -0.2084
  872MPD2    C512848   1.329   3.038  14.193 -0.3258 -0.5765  0.2145
  872MPD2     H12849   1.195   3.200  13.880  0.5466 -1.2061  0.1014
  872MPD2    H112850   1.131   3.047  14.274  0.9932  0.1431  0.2593
  872MPD2    H212851   1.520   3.049  14.115 -0.3374  1.8159  1.1336
  872MPD2    H312852   1.354   2.984  14.283  1.6613  2.2805  1.3673
  872MPD2     N12853   1.006   3.138  14.069 -0.2119  0.1555  0.2021
  872MPD2    H512854   0.949   3.112  14.149 -2.0904  0.2219 -1.1191
  872MPD2    N112855   1.448   3.174  13.882 -0.1903  0.6720  0.2344
  872MPD2    H712856   1.398   3.210  13.801  0.3464 -1.2951 -0.9678
  873MPD2     C12857   2.891   3.259   0.958 -0.1106 -0.3136 -0.1605
  873MPD2    C112858   2.771   3.244   0.886  0.5618 -0.4088 -0.9146
  873MPD2    C212859   2.729   3.121   0.837 -0.1763 -0.3015  0.1972
  873MPD2    C312860   2.815   3.016   0.853  0.0855  0.2056  0.5180
  873MPD2    C412861   2.942   3.034   0.898 -0.9396 -0.3777  0.3609
  873MPD2    C512862   2.973   3.148   0.962 -0.0754 -0.3956  0.1833
  873MPD2     H12863   2.637   3.107   0.782 -0.9803 -0.7950  1.6832
  873MPD2    H112864   3.006   2.948   0.916 -0.5831 -0.0985  0.4308
  873MPD2    H212865   2.922   3.352   1.005 -0.6476 -0.1850 -0.0514
  873MPD2    H312866   3.063   3.147   1.023 -1.6832  1.0911  2.5767
  873MPD2     N12867   2.786   2.884   0.813 -0.6882 -0.5719 -0.2873
  873MPD2    H512868   2.862   2.816   0.803  0.7556  1.2535 -1.6504
  873MPD2    N112869   2.683   3.362   0.894 -0.1583  0.0776 -0.8602
  873MPD2    H712870   2.720   3.438   0.949  0.6646  0.9226 -2.6027
  874MPD2     C12871   2.098   3.793  16.114 -0.0712 -0.2751  0.3023
  874MPD2    C112872   2.172   3.694  16.175  0.0379  0.0567 -0.6668
  874MPD2    C212873   2.305   3.695  16.157 -0.6903 -0.6913 -1.1038
  874MPD2    C312874   2.367   3.794  16.088  0.2549 -0.2549 -0.2705
  874MPD2    C412875   2.294   3.879  16.010 -0.1090 -0.1227 -0.8692
  874MPD2    C512876   2.163   3.877  16.031  0.3065 -0.1747  0.1946
  874MPD2     H12877   2.366   3.623  16.210  0.0344  1.2573  0.7010
  874MPD2    H112878   2.336   3.959  15.950  1.5969  0.1037  0.5990
  874MPD2    H212879   1.990   3.797  16.121 -0.2394 -1.7620 -1.2954
  874MPD2    H312880   2.112   3.947  15.966 -0.3053  2.7350  3.8163
  874MPD2     N12881   2.505   3.802  16.099  0.2764  0.3170  0.0180
  874MPD2    H512882   2.537   3.726  16.158  2.6583  0.5750 -0.9534
  874MPD2    N112883   2.110   3.586  16.246  0.1582  0.1378 -0.1405
  874MPD2    H712884   2.009   3.591  16.250  0.1697 -0.1628  0.6114
  875MPD2     C12885   3.875   1.677  14.585 -0.0354 -0.2549 -0.1190
  875MPD2    C112886   3.768   1.643  14.660  0.0394  0.3068  0.5349
  875MPD2    C212887   3.772   1.650  14.797 -0.8026  0.0757  0.0451
  875MPD2    C312888   3.889   1.699  14.861 -0.3842 -1.0687  0.8293
  875MPD2    C412889   3.994   1.733  14.785 -0.2030  0.1737  0.4824
  875MPD2    C512890   3.988   1.728  14.646 -0.4129 -0.1569 -0.1466
  875MPD2     H12891   3.690   1.621  14.862 -0.8592  2.5125  1.0766
  875MPD2    H112892   4.085   1.771  14.831 -0.9596 -0.9447  2.8814
  875MPD2    H212893   3.867   1.673  14.477 -2.7685 -3.4736  0.2016
  875MPD2    H312894   4.085   1.734  14.597  1.0345  0.0299  2.7307
  875MPD2     N12895   3.903   1.718  15.004  0.2151  0.3141  0.1832
  875MPD2    H512896   3.997   1.753  15.023  0.4668 -0.2244 -0.0484
  875MPD2    N112897   3.650   1.582  14.607  0.0062 -0.3942  0.6215
  875MPD2    H712898   3.584   1.559  14.680  1.7323  0.7375  2.5551
  876MPD2     C12899   2.648   2.734  16.027 -0.0968 -0.0958  0.4595
  876MPD2    C112900   2.695   2.736  15.900  0.7678 -0.2913  0.3742
  876MPD2    C212901   2.660   2.630  15.812 -0.2741 -0.1269  0.5635
  876MPD2    C312902   2.579   2.527  15.859  0.2500 -0.1840  0.2968
  876MPD2    C412903   2.523   2.529  15.991 -1.0003  0.6298 -0.1459
  876MPD2    C512904   2.563   2.634  16.066  0.8059  1.3713  0.0857
  876MPD2     H12905   2.697   2.615  15.711 -0.8047 -1.1780  0.5230
  876MPD2    H112906   2.452   2.456  16.030  0.0935 -1.5355 -2.1862
  876MPD2    H212907   2.682   2.804  16.103  0.1824  0.3789 -0.1025
  876MPD2    H312908   2.532   2.637  16.170  0.4210  0.6711 -0.0037
  876MPD2     N12909   2.571   2.408  15.781  0.0102 -0.1299 -0.0302
  876MPD2    H512910   2.601   2.409  15.684  0.5563 -1.3510  0.1377
  876MPD2    N112911   2.790   2.839  15.865 -0.1110 -0.5172  0.2615
  876MPD2    H712912   2.815   2.908  15.935  1.2919 -0.8532  0.0824
  877MPD2     C12913   2.602   3.476  15.450 -0.3190  0.1293  0.3579
  877MPD2    C112914   2.737   3.454  15.436 -0.2069 -0.2197  0.1458
  877MPD2    C212915   2.809   3.533  15.335  0.1192  0.4161 -1.0014
  877MPD2    C312916   2.750   3.632  15.262 -0.7695  0.3492  0.8623
  877MPD2    C412917   2.615   3.645  15.269 -0.7265  0.6951 -0.5805
  877MPD2    C512918   2.542   3.567  15.358  0.1906  0.5369  0.3145
  877MPD2     H12919   2.910   3.505  15.307  0.1375 -0.3710 -0.1456
  877MPD2    H112920   2.562   3.712  15.202 -2.3356  0.3309  0.3381
  877MPD2    H212921   2.537   3.415  15.511  0.2479  0.2292  1.0641
  877MPD2    H312922   2.434   3.575  15.356  0.3465  1.6458 -3.2261
  877MPD2     N12923   2.822   3.712  15.173 -0.1568  0.3525 -0.0463
  877MPD2    H512924   2.765   3.775  15.116 -2.5215 -1.6252  0.1415
  877MPD2    N112925   2.813   3.359  15.503 -0.5775 -0.2829 -0.6485
  877MPD2    H712926   2.911   3.348  15.476 -0.9546 -2.0492 -1.3082
  878MPD2     C12927   2.706   2.721  13.381 -0.0750  0.8313  0.6375
  878MPD2    C112928   2.726   2.857  13.388  0.4116  0.5353 -0.3249
  878MPD2    C212929   2.746   2.916  13.511  0.4379  0.1321 -0.2997
  878MPD2    C312930   2.736   2.841  13.628 -0.1430  0.8176  0.0432
  878MPD2    C412931   2.714   2.707  13.618 -0.8072  0.2493  0.2544
  878MPD2    C512932   2.698   2.647  13.500  0.3119  0.3801 -0.2445
  878MPD2     H12933   2.757   3.024  13.507 -1.4909  0.3540  0.4470
  878MPD2    H112934   2.726   2.637  13.700  1.6143  0.1063 -0.2454
  878MPD2    H212935   2.694   2.659  13.293  1.0669  3.7491 -1.5507
  878MPD2    H312936   2.684   2.541  13.489  0.3548  0.4223 -0.7219
  878MPD2     N12937   2.730   2.905  13.750  0.0060 -0.2516 -0.1549
  878MPD2    H512938   2.715   3.005  13.752  0.3365 -0.2332  1.3078
  878MPD2    N112939   2.715   2.932  13.270 -0.1726 -0.0010  0.0100
  878MPD2    H712940   2.699   2.880  13.184  1.5517  0.0153 -0.3099
  879MPD2     C12941   2.623   3.466  17.504  0.3810 -0.3708  0.0322
  879MPD2    C112942   2.630   3.590  17.438  0.1695  0.1974 -1.4087
  879MPD2    C212943   2.584   3.599  17.310  0.4401 -0.4973 -0.0881
  879MPD2    C312944   2.528   3.494  17.245  0.4934 -0.5019  0.3876
  879MPD2    C412945   2.517   3.368  17.303 -0.0938 -0.0339  0.0672
  879MPD2    C512946   2.568   3.361  17.432 -0.4823  0.0833  0.5562
  879MPD2     H12947   2.601   3.694  17.261  3.5619 -0.1923  1.5789
  879MPD2    H112948   2.472   3.278  17.263  1.8610 -0.3778 -1.3758
  879MPD2    H212949   2.661   3.451  17.604  0.2108  1.2469  0.3285
  879MPD2    H312950   2.549   3.267  17.481  2.7564 -0.6820  0.3389
  879MPD2     N12951   2.480   3.498  17.110  0.3269  0.0879 -0.7912
  879MPD2    H512952   2.446   3.413  17.065 -0.5565  0.9375 -1.7116
  879MPD2    N112953   2.685   3.706  17.500 -0.2342 -0.1101  0.0972
  879MPD2    H712954   2.667   3.793  17.452 -2.2912  0.2394  1.4827
  880MPD2     C12955   4.057   0.855  17.509  0.2685 -0.2711  0.6805
  880MPD2    C112956   3.984   0.902  17.617  0.1406  0.2347 -0.0106
  880MPD2    C212957   3.969   0.814  17.722  0.4715 -0.6168  0.2597
  880MPD2    C312958   4.021   0.681  17.714  0.0589  0.5342  0.3072
  880MPD2    C412959   4.106   0.650  17.611  0.6842  0.0159 -0.4350
  880MPD2    C512960   4.123   0.736  17.507 -0.2303 -0.2479  0.9517
  880MPD2     H12961   3.903   0.843   0.053 -0.4114  1.8584 -1.3470
  880MPD2    H112962   4.161   0.557  17.607 -2.4100 -1.9420  1.9943
  880MPD2    H212963   4.053   0.913  17.418  1.0045  0.0084  0.8302
  880MPD2    H312964   4.175   0.709  17.416 -1.4000  0.5664  0.0390
  880MPD2     N12965   4.000   0.598   0.077 -0.1320  0.3732 -0.0299
  880MPD2    H512966   3.946   0.646   0.148  2.0044 -1.8935  3.1503
  880MPD2    N112967   3.939   1.039  17.614 -0.2560  0.5364 -0.5602
  880MPD2    H712968   3.988   1.102  17.552  0.4672  1.2061  0.6955
  881MPD2     C12969   3.993   1.929  17.244 -1.1417 -0.0730  0.0054
  881MPD2    C112970   4.078   1.818  17.243 -0.1788  0.0535  0.0151
  881MPD2    C212971   4.042   1.725  17.334  0.4952  0.3394  0.1784
  881MPD2    C312972   3.947   1.748  17.432 -0.4382 -0.4177  0.3746
  881MPD2    C412973   3.882   1.867  17.442 -0.3410  0.1156 -0.1204
  881MPD2    C512974   3.904   1.958  17.341 -0.2460 -0.5772  0.3679
  881MPD2     H12975   4.088   1.629  17.352  0.5967  0.4426  0.4659
  881MPD2    H112976   3.813   1.895  17.521 -0.9570 -0.2128 -0.5369
  881MPD2    H212977   4.018   2.012  17.179  1.9925 -2.3612 -1.7168
  881MPD2    H312978   3.867   2.060  17.342 -1.5903 -1.0515 -0.3344
  881MPD2     N12979   3.922   1.655  17.535 -0.6287 -0.0426 -0.2953
  881MPD2    H512980   3.876   1.682  17.621  0.0215 -1.2045  0.4072
  881MPD2    N112981   4.164   1.791  17.127 -0.7569  0.0836 -0.0167
  881MPD2    H712982   4.168   1.857  17.050  1.8242  1.6989  1.4871
  882MPD2     C12983   2.977   3.653  14.368 -0.9510 -0.0539 -0.3255
  882MPD2    C112984   2.890   3.677  14.465 -0.3993 -0.3903  0.9153
  882MPD2    C212985   2.754   3.647  14.447 -0.4450 -0.3238 -0.3677
  882MPD2    C312986   2.706   3.603  14.326 -0.2405  0.2389 -0.1933
  882MPD2    C412987   2.796   3.564  14.239 -0.2964 -0.0097  0.6317
  882MPD2    C512988   2.926   3.589  14.255 -0.1143 -1.0220  1.0474
  882MPD2     H12989   2.682   3.676  14.523  0.5189  1.1949 -0.0262
  882MPD2    H112990   2.756   3.529  14.144  0.9658  0.5352 -0.0949
  882MPD2    H212991   3.078   3.689  14.382 -1.8619  2.2626  0.3247
  882MPD2    H312992   2.991   3.552  14.176  1.7002 -0.6570  2.3704
  882MPD2     N12993   2.569   3.559  14.317 -0.8249  0.0200  0.0561
  882MPD2    H512994   2.557   3.482  14.253  1.1411 -0.9682  0.8855
  882MPD2    N112995   2.935   3.748  14.581  0.7875 -0.4168  1.1452
  882MPD2    H712996   3.033   3.773  14.574  0.8545 -1.4197 -1.6245
  883MPD2     C12997   4.401   3.336  16.073 -0.1364 -0.6702  0.2046
  883MPD2    C112998   4.463   3.412  15.977  0.4462 -0.0245  0.7722
  883MPD2    C212999   4.592   3.455  15.992 -0.1812 -0.4777  0.0390
  883MPD2    C313000   4.656   3.430  16.113 -0.0832  0.5197  0.7431
  883MPD2    C413001   4.590   3.354  16.206 -0.2843 -0.0259 -0.0021
  883MPD2    C513002   4.466   3.303  16.189 -0.4188  0.5521  0.3989
  883MPD2     H13003   4.634   3.520  15.917  0.2943 -0.4304  0.3443
  883MPD2    H113004   4.631   3.334  16.305 -1.4786  0.0558  0.5068
  883MPD2    H213005   4.297   3.306  16.067 -0.6292  1.3878 -1.4708
  883MPD2    H313006   4.410   3.259  16.271  2.3054 -3.0707  0.2591
  883MPD2     N13007   0.051   3.474  16.125 -0.8399 -0.1998 -0.1663
  883MPD2    H513008   0.088   3.517  16.041 -0.6899 -1.9276 -0.9929
  883MPD2    N113009   4.404   3.438  15.849 -0.0614 -0.9385  0.4612
  883MPD2    H713010   4.457   3.484  15.776 -0.4750  1.7767  1.8351
  884MPD2     C13011   1.898   4.035  15.251  0.3786 -0.6887  0.0470
  884MPD2    C113012   1.890   4.145  15.167 -0.3872 -0.0226  0.2799
  884MPD2    C213013   1.764   4.184  15.124  0.7708  0.0640 -0.3436
  884MPD2    C313014   1.655   4.126  15.177 -0.1681  0.2314  0.7000
  884MPD2    C413015   1.668   4.014  15.260  0.1286  0.3392  0.7134
  884MPD2    C513016   1.788   3.970  15.292  0.0552  0.0062 -0.5620
  884MPD2     H13017   1.746   4.273  15.065  1.3111 -0.5231 -1.4013
  884MPD2    H113018   1.579   3.962  15.295 -0.7108  1.8806  0.8782
  884MPD2    H213019   1.993   4.002  15.291  0.1395  0.2194  1.3589
  884MPD2    H313020   1.803   3.881  15.351  0.1069  1.0846  1.0546
  884MPD2     N13021   1.528   4.184  15.150 -0.1725  0.1302 -0.1856
  884MPD2    H513022   1.528   4.280  15.116 -1.1431 -0.0390 -0.6623
  884MPD2    N113023   2.000   4.223  15.127 -0.6690 -0.6212 -1.3445
  884MPD2    H713024   1.983   4.313  15.085  0.2141 -0.0691 -0.5108
  885MPD2     C13025   4.211   4.599  17.397 -0.0525 -0.5481  0.2829
  885MPD2    C113026   4.314   4.524  17.374 -0.6664  0.5678  0.2063
  885MPD2    C213027   4.380   4.539  17.253 -0.1705  1.2361 -0.7129
  885MPD2    C313028   4.334   4.619  17.151  0.0688 -0.0641  0.7676
  885MPD2    C413029   4.227   4.701  17.181 -0.8298  0.9318  0.1503
  885MPD2    C513030   4.176   4.693  17.308 -0.5970  0.4003  0.0026
  885MPD2     H13031   4.474   4.486  17.244 -0.4855  0.2931  1.6099
  885MPD2    H113032   4.193   0.041  17.113  0.1694 -1.3481 -2.9901
  885MPD2    H213033   4.161   4.614  17.493  0.1085  1.2344  0.0869
  885MPD2    H313034   4.093   0.019  17.336 -0.6232 -0.1584  1.2155
  885MPD2     N13035   4.399   4.615  17.026  0.3071 -0.0543 -0.0897
  885MPD2    H513036   4.470   4.544  17.013  3.2218  2.9175 -0.4162
  885MPD2    N113037   4.339   4.429  17.473 -0.1368 -0.1170 -0.8898
  885MPD2    H713038   4.297   4.426  17.565  1.0802 -1.0821 -0.3505
  886MPD2     C13039   0.995   3.084  15.530 -0.2747  0.0035  0.3651
  886MPD2    C113040   1.124   3.043  15.504 -0.8216 -0.1354  0.2358
  886MPD2    C213041   1.193   3.107  15.400  0.3685  0.0446 -0.1545
  886MPD2    C313042   1.139   3.217  15.334  0.3506 -0.7198  0.3268
  886MPD2    C413043   1.021   3.263  15.379 -0.7203  0.5236  0.0509
  886MPD2    C513044   0.946   3.197  15.472  0.7321 -0.6467 -1.3643
  886MPD2     H13045   1.293   3.071  15.378 -1.2217 -2.2895 -3.5253
  886MPD2    H113046   0.972   3.348  15.334 -1.0258  0.0514 -0.4961
  886MPD2    H213047   0.933   3.035  15.604 -1.3899  0.1428 -0.4733
  886MPD2    H313048   0.853   3.239  15.509  0.6903  0.3342 -2.5871
  886MPD2     N13049   1.211   3.293  15.233  0.7724 -0.3387 -0.6148
  886MPD2    H513050   1.168   3.373  15.189 -1.2965 -1.0042  0.2316
  886MPD2    N113051   1.197   2.944  15.572  0.2592  0.0609  0.6987
  886MPD2    H713052   1.293   2.929  15.540  0.0790  1.0756 -0.3134
  887MPD2     C13053   1.729   2.586  16.194  0.5183 -0.2437  0.4671
  887MPD2    C113054   1.665   2.685  16.128 -0.8038  0.1716  0.4044
  887MPD2    C213055   1.738   2.798  16.096 -0.1210 -0.2290 -0.2994
  887MPD2    C313056   1.867   2.813  16.130 -0.5852 -0.2371 -0.0552
  887MPD2    C413057   1.922   2.723  16.213 -0.0739 -0.1033 -0.1774
  887MPD2    C513058   1.857   2.604  16.235  0.3696 -0.1956  0.6685
  887MPD2     H13059   1.696   2.882  16.044 -0.4025 -0.3970 -0.3457
  887MPD2    H113060   2.015   2.740  16.265 -0.9873  0.1461  1.3741
  887MPD2    H213061   1.678   2.492  16.211 -1.0139  0.4249 -0.4384
  887MPD2    H313062   1.911   2.541  16.305  1.0977  0.0791  0.3531
  887MPD2     N13063   1.941   2.918  16.082  0.1440 -0.2003 -0.4552
  887MPD2    H513064   1.884   2.992  16.041 -2.1569 -2.0842 -0.6786
  887MPD2    N113065   1.539   2.659  16.073 -0.1615  0.1495  0.5359
  887MPD2    H713066   1.507   2.564  16.089  1.0121 -0.4330 -0.5549
  888MPD2     C13067   3.697   3.025  14.555  0.0435 -0.5822 -0.1671
  888MPD2    C113068   3.703   2.994  14.688 -1.1549  0.2729  0.1747
  888MPD2    C213069   3.778   3.080  14.769 -0.4000 -0.4928  0.2750
  888MPD2    C313070   3.833   3.200  14.724 -0.1222 -0.5497  0.0635
  888MPD2    C413071   3.823   3.229  14.588  0.4343  0.2966 -0.2955
  888MPD2    C513072   3.746   3.139  14.516 -0.1892 -0.0318 -0.1019
  888MPD2     H13073   3.794   3.051  14.873 -0.7665  0.3247  0.5606
  888MPD2    H113074   3.869   3.313  14.537  1.0820  0.2501  0.2194
  888MPD2    H213075   3.627   2.979  14.486 -1.0429  0.0315  0.5138
  888MPD2    H313076   3.730   3.161  14.411 -0.2754 -1.1236 -0.3171
  888MPD2     N13077   3.902   3.288  14.815  0.0038 -0.2204 -0.2313
  888MPD2    H513078   3.908   3.270  14.914 -0.0611  0.9112 -0.0124
  888MPD2    N113079   3.640   2.883  14.741 -0.2448  0.4876 -0.0484
  888MPD2    H713080   3.660   2.867  14.840 -1.5852 -2.8812 -0.3147
  889MPD2     C13081   2.867   2.546  13.027  0.3648 -1.0994 -0.7037
  889MPD2    C113082   2.977   2.525  13.107  0.6908  0.6177 -0.6971
  889MPD2    C213083   3.036   2.631  13.170 -0.0591 -0.0364 -0.6025
  889MPD2    C313084   3.018   2.758  13.117 -0.4698 -0.4279 -0.2916
  889MPD2    C413085   2.917   2.775  13.026  0.6873  0.0679 -0.2581
  889MPD2    C513086   2.842   2.674  12.985  0.2142 -0.3596  0.6015
  889MPD2     H13087   3.117   2.617  13.241 -1.2372 -2.6948  0.1993
  889MPD2    H113088   2.901   2.873  12.983 -1.0311 -0.2012 -0.2210
  889MPD2    H213089   2.812   2.462  12.986 -2.0587 -0.0467  0.4456
  889MPD2    H313090   2.764   2.694  12.913  0.4890  0.7397  0.6199
  889MPD2     N13091   3.096   2.871  13.167 -0.5002  0.2062 -0.1274
  889MPD2    H513092   3.158   2.861  13.248  0.1492  2.4770 -0.3592
  889MPD2    N113093   3.009   2.390  13.131  0.3995 -0.6094 -0.0022
  889MPD2    H713094   2.964   2.330  13.063 -1.6009  2.0072 -0.9938
  890MPD2     C13095   2.585   4.055  14.928 -1.0206  0.2777  0.1318
  890MPD2    C113096   2.714   4.105  14.937 -0.6435  0.2441 -0.1589
  890MPD2    C213097   2.781   4.096  15.058  0.6663 -0.0149 -0.5038
  890MPD2    C313098   2.720   4.041  15.169  0.3645 -0.7173  0.4416
  890MPD2    C413099   2.592   3.992  15.158 -0.2939 -0.1169  0.1735
  890MPD2    C513100   2.527   3.991  15.035 -0.1123  0.3677  0.7432
  890MPD2     H13101   2.887   4.118  15.063  0.1825  2.2345 -0.3943
  890MPD2    H113102   2.539   3.934  15.232  2.7258  0.6711  2.9559
  890MPD2    H213103   2.525   4.071  14.839  0.4179 -0.9465 -1.0459
  890MPD2    H313104   2.437   3.931  15.036  0.2300 -0.1693 -0.3025
  890MPD2     N13105   2.793   4.019  15.290 -0.1291 -0.3858 -0.2758
  890MPD2    H513106   2.892   4.044  15.291 -0.8147  2.4387 -4.3797
  890MPD2    N113107   2.775   4.149  14.816  0.0888 -0.5769 -0.5021
  890MPD2    H713108   2.716   4.144  14.733 -1.7185  1.7932  0.6147
  891MPD2     C13109   0.866   2.699  16.514 -0.2843  0.2378  0.0614
  891MPD2    C113110   0.799   2.699  16.633 -0.2188 -0.9509 -0.2681
  891MPD2    C213111   0.844   2.616  16.733 -0.3895 -0.4234 -0.7037
  891MPD2    C313112   0.962   2.541  16.711 -0.3871  0.9626  0.0369
  891MPD2    C413113   1.029   2.548  16.592  0.3590  0.0825 -0.4934
  891MPD2    C513114   0.986   2.631  16.496  0.5915 -0.7151  0.0157
  891MPD2     H13115   0.809   2.610  16.836 -0.1392  0.7651 -0.5505
  891MPD2    H113116   1.110   2.485  16.559  0.7993 -0.3783  1.4317
  891MPD2    H213117   0.837   2.762  16.431  0.5361  1.4958  0.7384
  891MPD2    H313118   1.041   2.629  16.402  1.7989 -1.7866  0.7480
  891MPD2     N13119   1.010   2.466  16.817  0.2457 -0.0391 -0.1125
  891MPD2    H513120   0.960   2.473  16.905  0.1552  0.0188 -0.1685
  891MPD2    N113121   0.682   2.776  16.655  0.7336  0.1789 -0.2469
  891MPD2    H713122   0.657   2.829  16.572  3.9894 -0.1926 -1.4528
  892MPD2     C13123   1.827   3.663  14.956  0.2993 -0.0764 -0.7788
  892MPD2    C113124   1.773   3.629  14.834 -0.4560  0.1763 -0.2584
  892MPD2    C213125   1.852   3.574  14.738 -0.3076  0.3056  0.2484
  892MPD2    C313126   1.988   3.563  14.756 -0.1874  0.4810  0.3598
  892MPD2    C413127   2.040   3.591  14.881  0.2785  0.1365 -0.0582
  892MPD2    C513128   1.956   3.641  14.982  0.1767  0.5149 -0.0842
  892MPD2     H13129   1.805   3.531  14.650 -2.7282  0.4875  1.4510
  892MPD2    H113130   2.144   3.576  14.909  0.2615  0.7928  0.3404
  892MPD2    H213131   1.775   3.720  15.032  1.0725  0.1221 -0.4016
  892MPD2    H313132   1.996   3.645  15.083 -1.7232  0.4475  0.6545
  892MPD2     N13133   2.070   3.525  14.644  0.0412 -0.0744 -0.0975
  892MPD2    H513134   2.167   3.519  14.671  0.0756  0.9075  0.0068
  892MPD2    N113135   1.640   3.668  14.807  0.2556  0.2638 -0.0654
  892MPD2    H713136   1.594   3.723  14.879  0.5398 -0.4633  0.6823
  893MPD2     C13137   2.698   1.577   1.421 -0.2726 -0.1760  0.8765
  893MPD2    C113138   2.673   1.637   1.304 -0.3448 -0.0837  0.3452
  893MPD2    C213139   2.536   1.651   1.261 -0.2436  0.0836 -0.0459
  893MPD2    C313140   2.429   1.600   1.337 -0.4913  0.0861 -0.9278
  893MPD2    C413141   2.466   1.534   1.454 -0.4654 -0.1225  0.3295
  893MPD2    C513142   2.600   1.523   1.496 -0.1806  0.6465 -0.0024
  893MPD2     H13143   2.516   1.697   1.165  0.6826  2.1818  0.7542
  893MPD2    H113144   2.399   1.488   1.526  0.3629 -0.3782  0.9363
  893MPD2    H213145   2.800   1.570   1.457  0.0729 -0.7127 -0.2104
  893MPD2    H313146   2.617   1.464   1.586 -3.8954 -2.7695 -1.5773
  893MPD2     N13147   2.294   1.605   1.294  1.1585 -0.2125 -0.9067
  893MPD2    H513148   2.237   1.539   1.346 -1.8700  3.6650  0.7509
  893MPD2    N113149   2.781   1.696   1.235 -0.0622 -0.0102 -0.3932
  893MPD2    H713150   2.873   1.695   1.276  0.6493  1.1934 -1.9598
  894MPD2     C13151   1.514   4.174   0.751 -0.0587  0.2333 -0.1853
  894MPD2    C113152   1.406   4.248   0.800  0.0601  0.2140  0.1737
  894MPD2    C213153   1.430   4.373   0.829 -0.4410  0.3475  0.7685
  894MPD2    C313154   1.559   4.423   0.831  0.0038  0.0387  0.1255
  894MPD2    C413155   1.666   4.342   0.803  0.5021  0.1616 -0.7553
  894MPD2    C513156   1.645   4.220   0.756  0.0432  0.1593  0.3070
  894MPD2     H13157   1.352   4.445   0.849 -0.4771  0.0955  1.5388
  894MPD2    H113158   1.771   4.369   0.801  0.1643  1.4844 -0.8017
  894MPD2    H213159   1.497   4.079   0.702 -1.9326 -0.0587  1.0067
  894MPD2    H313160   1.728   4.161   0.718  1.3091 -0.1338  3.5045
  894MPD2     N13161   1.565   4.558   0.861  0.7880  0.1233 -0.7419
  894MPD2    H513162   1.488   4.623   0.867 -0.5089 -1.4669 -0.2933
  894MPD2    N113163   1.273   4.204   0.793 -0.2473  0.3843 -0.5390
  894MPD2    H713164   1.205   4.272   0.825 -0.0134 -0.1992  1.2007
  895MPD2     C13165   1.101   2.860  13.314  0.2962 -0.0230 -0.2213
  895MPD2    C113166   1.031   2.760  13.375  0.2679  0.7173 -0.0615
  895MPD2    C213167   1.104   2.648  13.415  0.0365 -0.1879  0.6757
  895MPD2    C313168   1.240   2.637  13.392  0.6912  0.0154 -0.1738
  895MPD2    C413169   1.312   2.741  13.344  0.6146  0.3824  0.2096
  895MPD2    C513170   1.239   2.849  13.292 -0.2462  0.4366  0.6755
  895MPD2     H13171   1.063   2.556  13.455 -1.2933 -0.0526 -0.3613
  895MPD2    H113172   1.419   2.746  13.324  0.5271 -1.2121 -0.6747
  895MPD2    H213173   1.053   2.947  13.272 -1.1298 -0.6861  0.0379
  895MPD2    H313174   1.295   2.928  13.245 -0.7383  0.2946 -0.1560
  895MPD2     N13175   1.320   2.515  13.403 -0.3027 -0.1949 -0.3903
  895MPD2    H513176   1.418   2.523  13.380 -0.2844  0.2334 -0.1719
  895MPD2    N113177   0.892   2.756  13.385 -0.0956  0.6527  0.5335
  895MPD2    H713178   0.856   2.666  13.416 -2.0911  0.5090 -2.1438
  896MPD2     C13179   3.080   0.391   0.461 -0.0082  0.5887 -0.3727
  896MPD2    C113180   3.055   0.434   0.585  0.1491  0.0222  0.4259
  896MPD2    C213181   2.954   0.363   0.649  0.4105 -0.1168 -0.2153
  896MPD2    C313182   2.879   0.266   0.581 -0.4599 -0.0205 -0.9414
  896MPD2    C413183   2.903   0.233   0.451  0.4432 -0.4588  0.0543
  896MPD2    C513184   3.004   0.295   0.389 -1.4719 -0.1784  0.0200
  896MPD2     H13185   2.931   0.380   0.753  3.5545 -3.5070  1.0194
  896MPD2    H113186   2.846   0.160   0.395  0.4521 -0.7789  0.4585
  896MPD2    H213187   3.167   0.437   0.416 -0.9858  1.5790 -1.2304
  896MPD2    H313188   3.021   0.289   0.282  2.2906  0.8369  0.5601
  896MPD2     N13189   2.772   0.208   0.655  0.5009 -0.2541 -0.0645
  896MPD2    H513190   2.750   0.258   0.741 -0.1690 -0.6814  0.0082
  896MPD2    N113191   3.132   0.537   0.639  0.1640 -0.2038 -0.5742
  896MPD2    H713192   3.191   0.593   0.577 -1.5783 -0.0126 -2.0757
  897MPD2     C13193   4.181   2.425  10.414 -0.4802  0.3279 -0.1179
  897MPD2    C113194   4.079   2.518  10.412 -0.6100 -0.0553  0.2359
  897MPD2    C213195   3.995   2.526  10.519  0.7165  0.5449 -0.5750
  897MPD2    C313196   3.993   2.429  10.621  0.5080  0.6077  0.1479
  897MPD2    C413197   4.094   2.333  10.623  0.4830  0.3722  0.4581
  897MPD2    C513198   4.197   2.339  10.523 -0.5359 -0.1167 -0.5655
  897MPD2     H13199   3.906   2.588  10.516  0.9900  0.9853  0.5017
  897MPD2    H113200   4.109   2.263  10.704  1.4247  1.0190  0.8369
  897MPD2    H213201   4.254   2.412  10.336 -0.4406 -1.2278  0.1740
  897MPD2    H313202   4.274   2.263  10.526  0.4329  0.9014  0.2847
  897MPD2     N13203   3.883   2.429  10.709 -0.7216 -0.4518 -0.3559
  897MPD2    H513204   3.816   2.504  10.697 -0.5713 -0.3706 -0.6842
  897MPD2    N113205   4.059   2.604  10.303  0.3651  0.1607  0.2524
  897MPD2    H713206   3.991   2.679  10.317 -1.8508 -1.5708 -1.2430
  898MPD2     C13207   0.966   3.067  17.338 -0.3778  0.0667 -0.4976
  898MPD2    C113208   1.066   3.083  17.431 -0.3779  0.3082 -0.5255
  898MPD2    C213209   1.152   3.189  17.421  0.1834  0.5383  0.0173
  898MPD2    C313210   1.131   3.289  17.329 -0.5806 -0.0500 -0.0958
  898MPD2    C413211   1.026   3.279  17.243  0.2945  0.3685 -0.3978
  898MPD2    C513212   0.940   3.169  17.252 -0.8084 -0.6646  0.3477
  898MPD2     H13213   1.227   3.208  17.497  0.1375  0.0810  0.1802
  898MPD2    H113214   0.994   3.351  17.169 -0.2553  0.2148 -0.3171
  898MPD2    H213215   0.893   2.987  17.337 -2.2323  1.7360 -0.1067
  898MPD2    H313216   0.861   3.170  17.177 -1.2880  2.3694  0.8880
  898MPD2     N13217   1.204   3.408  17.333  0.3268 -0.2328 -0.4862
  898MPD2    H513218   1.272   3.429  17.405  0.8555  0.1780 -1.1019
  898MPD2    N113219   1.095   2.993  17.534 -0.0674  0.3943  0.4276
  898MPD2    H713220   1.184   3.002  17.583  0.2215 -3.3033  0.5818
  899MPD2     C13221   2.065   3.690  16.792 -0.3033 -0.3476 -0.2691
  899MPD2    C113222   2.144   3.776  16.852 -0.6534 -0.0167  0.7324
  899MPD2    C213223   2.167   3.780  16.989  0.4581  0.2011  0.5696
  899MPD2    C313224   2.103   3.687  17.070  0.1297  0.2983 -0.5958
  899MPD2    C413225   2.030   3.587  17.011  0.5813  0.2500  0.0818
  899MPD2    C513226   2.016   3.588  16.873  0.1117 -1.1942 -0.0297
  899MPD2     H13227   2.223   3.857  17.040  0.2912 -0.8797  2.3791
  899MPD2    H113228   1.988   3.505  17.067  0.1711 -0.7455 -1.6919
  899MPD2    H213229   2.048   3.691  16.684 -0.5194  1.1068 -0.2296
  899MPD2    H313230   1.955   3.511  16.827  1.7358 -2.7075  0.3972
  899MPD2     N13231   2.108   3.705  17.209 -0.4645 -0.8304 -0.5810
  899MPD2    H513232   2.152   3.787  17.250  0.4818 -1.1709 -0.8988
  899MPD2    N113233   2.190   3.875  16.767  0.1849 -0.1640 -0.8834
  899MPD2    H713234   2.154   3.872  16.672 -0.7347 -1.6941 -0.4802
  900MPD2     C13235   2.134   0.464  12.464 -0.2772  0.0743  0.3624
  900MPD2    C113236   2.039   0.454  12.565  0.1409  0.0330 -0.1540
  900MPD2    C213237   1.918   0.513  12.551 -0.4872  0.1906 -1.1116
  900MPD2    C313238   1.887   0.586  12.435  0.2826  0.5963  0.5247
  900MPD2    C413239   1.985   0.597  12.339  0.0490  0.1519 -0.2398
  900MPD2    C513240   2.103   0.535  12.348  1.0691  0.2570 -0.3531
  900MPD2     H13241   1.837   0.517  12.623 -0.0085  1.4671 -0.6370
  900MPD2    H113242   1.967   0.657  12.250  2.6569 -0.2453 -1.0198
  900MPD2    H213243   2.233   0.420  12.468 -0.8917 -1.3185  0.2064
  900MPD2    H313244   2.178   0.538  12.270  0.0265  1.0344 -1.3336
  900MPD2     N13245   1.760   0.642  12.423 -0.2462 -1.1072 -0.4898
  900MPD2    H513246   1.694   0.607  12.492  0.4614  1.2574  1.3758
  900MPD2    N113247   2.063   0.381  12.681 -1.0123 -0.9821 -0.1573
  900MPD2    H713248   2.159   0.350  12.681 -0.6076  0.2653 -0.2111
  901MPD2     C13249   1.709   4.415  13.370 -0.2164 -0.0734  0.2235
  901MPD2    C113250   1.775   4.385  13.249  0.0320 -0.0346  0.0982
  901MPD2    C213251   1.861   4.480  13.199 -0.2826  0.3972  0.4710
  901MPD2    C313252   1.857   4.610  13.254  0.7671 -0.9434 -0.5512
  901MPD2    C413253   1.782   4.650  13.354 -0.1649 -0.7744  0.3736
  901MPD2    C513254   1.707   4.544  13.418 -0.2386 -0.0525  0.1026
  901MPD2     H13255   1.932   4.461  13.120  1.8299 -0.0248  2.4935
  901MPD2    H113256   1.776   0.012  13.395 -0.6556 -1.3026  1.5920
  901MPD2    H213257   1.647   4.339  13.418  1.4187 -0.8442  1.1087
  901MPD2    H313258   1.638   4.570  13.498  0.3680  0.1827  0.5550
  901MPD2     N13259   1.942   4.693  13.178  0.2828  0.4005 -0.2075
  901MPD2    H513260   2.008   4.646  13.117  2.1410  2.5928  0.0866
  901MPD2    N113261   1.766   4.251  13.197 -0.2080  0.1396  0.0131
  901MPD2    H713262   1.709   4.181  13.244  0.1354 -1.2674 -1.6732
  902MPD2     C13263   0.738   3.588  12.961  0.8066  0.1143  0.1582
  902MPD2    C113264   0.647   3.583  12.859  0.5666 -0.2899  0.4393
  902MPD2    C213265   0.631   3.463  12.787  0.2403  0.2572 -0.8197
  902MPD2    C313266   0.718   3.360  12.805 -0.6416 -0.0157  0.2420
  902MPD2    C413267   0.812   3.360  12.906  0.6373  0.5385  0.7261
  902MPD2    C513268   0.821   3.477  12.984  0.6851 -0.0971  0.2174
  902MPD2     H13269   0.563   3.452  12.704  0.1675 -1.1981 -0.5671
  902MPD2    H113270   0.865   3.267  12.924  0.5185  0.4005  0.3644
  902MPD2    H213271   0.733   3.667  13.036 -0.9290 -1.4220  1.6484
  902MPD2    H313272   0.888   3.465  13.068  2.4196  1.7088 -0.9084
  902MPD2     N13273   0.719   3.241  12.725  0.3257  0.1574  0.5938
  902MPD2    H513274   0.802   3.182  12.719 -0.3429 -0.5302 -1.8568
  902MPD2    N113275   0.555   3.687  12.838 -0.2436  0.8180 -0.1605
  902MPD2    H713276   0.570   3.770  12.896 -0.5132  2.1361 -1.9771
  903MPD2     C13277   0.395   2.700  12.067 -0.2858  0.2181 -0.7372
  903MPD2    C113278   0.355   2.731  12.197  0.4811 -0.2750 -0.8200
  903MPD2    C213279   0.244   2.671  12.239  0.8697  0.2891 -0.0868
  903MPD2    C313280   0.163   2.604  12.149  0.3694  0.5818  0.3045
  903MPD2    C413281   0.201   2.587  12.024 -0.0954 -0.2184  0.4341
  903MPD2    C513282   0.320   2.631  11.981 -0.3798  0.1313 -0.3065
  903MPD2     H13283   0.217   2.679  12.344  2.7515 -0.4232  0.4422
  903MPD2    H113284   0.144   2.533  11.950 -1.6150 -0.2949  1.6449
  903MPD2    H213285   0.491   2.735  12.030  0.2829 -0.7925 -0.1911
  903MPD2    H313286   0.351   2.622  11.877  0.2472 -0.0188 -0.1054
  903MPD2     N13287   0.038   2.560  12.190 -0.2728  0.2686 -0.0604
  903MPD2    H513288   0.006   2.605  12.276  0.4930 -1.1403  0.9562
  903MPD2    N113289   0.444   2.806  12.274  0.1750 -0.7248  0.6873
  903MPD2    H713290   0.525   2.846  12.227 -1.1549 -0.4436 -1.3609
  904MPD2     C13291   0.768   2.433  13.855 -0.5071  0.6260  0.0940
  904MPD2    C113292   0.789   2.428  13.990 -0.2770 -0.8774 -0.5021
  904MPD2    C213293   0.919   2.427  14.035  0.0602  0.1583 -0.5190
  904MPD2    C313294   1.022   2.426  13.947 -0.5474 -0.6250  0.2420
  904MPD2    C413295   1.002   2.472  13.818 -0.4856  0.7415  0.2071
  904MPD2    C513296   0.868   2.468  13.774 -0.0813  1.2056  0.4904
  904MPD2     H13297   0.937   2.396  14.137 -1.8552 -0.7182 -0.4458
  904MPD2    H113298   1.077   2.486  13.740  0.6794  1.3641  1.4454
  904MPD2    H213299   0.670   2.422  13.811 -0.3566 -0.1448 -0.0502
  904MPD2    H313300   0.838   2.488  13.672  1.1587 -0.4870 -0.1982
  904MPD2     N13301   1.146   2.382  13.993 -0.3418 -0.1874  0.2397
  904MPD2    H513302   1.149   2.340  14.086 -1.5138 -0.5936  0.0986
  904MPD2    N113303   0.684   2.420  14.086 -0.6758 -0.2346  0.4410
  904MPD2    H713304   0.713   2.384  14.176 -1.9787 -0.2783  0.8473
  905MPD2     C13305   0.331   2.295  13.506 -0.1315 -0.5014  0.7172
  905MPD2    C113306   0.426   2.383  13.543 -0.0675 -0.3358 -0.0953
  905MPD2    C213307   0.550   2.367  13.499  0.2363 -0.1641 -0.2389
  905MPD2    C313308   0.579   2.259  13.414  0.1761 -1.6093 -0.7065
  905MPD2    C413309   0.484   2.161  13.388  0.6248 -0.1739  0.2698
  905MPD2    C513310   0.355   2.180  13.427 -0.0455 -0.7992  0.3561
  905MPD2     H13311   0.625   2.441  13.525 -0.9837  1.6083 -1.7574
  905MPD2    H113312   0.505   2.068  13.335  2.5321 -0.3175  1.2855
  905MPD2    H213313   0.230   2.312  13.542  0.6908 -0.0842  2.7853
  905MPD2    H313314   0.282   2.105  13.400 -2.0622  0.7610  1.5246
  905MPD2     N13315   0.708   2.234  13.367 -0.3555 -0.2501  0.2223
  905MPD2    H513316   0.733   2.145  13.323  1.8771  0.6395 -0.3322
  905MPD2    N113317   0.390   2.495  13.626 -0.4867 -0.0478 -0.8734
  905MPD2    H713318   0.301   2.488  13.675  0.6241 -0.3336  1.1020
  906MPD2     C13319   2.757   2.696  10.959 -0.0535  0.0084 -0.0261
  906MPD2    C113320   2.655   2.625  10.900  0.0226 -0.2366  0.2349
  906MPD2    C213321   2.602   2.524  10.970  0.3695  0.1079  0.0232
  906MPD2    C313322   2.642   2.499  11.101 -0.3556  0.2047 -0.3884
  906MPD2    C413323   2.744   2.571  11.163  0.3727  0.2917 -0.0350
  906MPD2    C513324   2.803   2.665  11.086 -0.2801  0.2082  1.0594
  906MPD2     H13325   2.518   2.470  10.927  0.2201  0.1244  0.2922
  906MPD2    H113326   2.780   2.553  11.264  1.1437 -2.1296 -0.7528
  906MPD2    H213327   2.819   2.774  10.914 -0.2768 -0.0813 -0.4927
  906MPD2    H313328   2.892   2.718  11.118 -0.4153  0.3478  1.2068
  906MPD2     N13329   2.587   2.389  11.169 -0.1896 -0.2261 -0.6112
  906MPD2    H513330   2.534   2.321  11.115 -1.1512 -0.6823  0.9001
  906MPD2    N113331   2.616   2.642  10.765 -0.8858  0.3435  0.3390
  906MPD2    H713332   2.578   2.560  10.718  1.2459 -0.1037 -0.5947
  907MPD2     C13333   1.675   1.527  15.986 -0.1040  0.2078  0.0421
  907MPD2    C113334   1.736   1.421  15.927  0.6145  0.5168  0.6339
  907MPD2    C213335   1.800   1.327  16.006 -0.6375 -0.4345  0.5675
  907MPD2    C313336   1.801   1.331  16.145  0.2073 -0.5509  0.5307
  907MPD2    C413337   1.723   1.435  16.197 -0.2315  0.2686 -0.0969
  907MPD2    C513338   1.669   1.528  16.120  0.1373  0.1669 -0.6987
  907MPD2     H13339   1.836   1.239  15.955 -0.4781  0.8594 -1.5402
  907MPD2    H113340   1.696   1.447  16.301  2.3595  0.9893  0.4919
  907MPD2    H213341   1.625   1.602  15.927 -1.2745 -0.1760  0.5508
  907MPD2    H313342   1.611   1.606  16.168  0.6399 -0.0017  0.1904
  907MPD2     N13343   1.853   1.223  16.217  0.1122  0.0470 -0.8286
  907MPD2    H513344   1.883   1.139  16.168 -0.9135 -0.1858 -1.0606
  907MPD2    N113345   1.738   1.422  15.786 -0.2045  0.1571 -0.2773
  907MPD2    H713346   1.684   1.494  15.740 -0.4845 -0.0794 -0.3192
  908MPD2     C13347   3.644   2.235   9.550  0.1053  0.1920  0.3168
  908MPD2    C113348   3.771   2.203   9.592  0.1052 -0.0631  0.9889
  908MPD2    C213349   3.839   2.300   9.665 -0.4952  0.2342  0.0515
  908MPD2    C313350   3.782   2.427   9.685 -0.2172  0.2767  0.6089
  908MPD2    C413351   3.655   2.455   9.644 -0.1354  0.4468 -0.0750
  908MPD2    C513352   3.581   2.356   9.580  0.1128  0.4882  0.3011
  908MPD2     H13353   3.927   2.263   9.717 -0.2234  0.4756 -0.2379
  908MPD2    H113354   3.605   2.547   9.672  0.8879  0.1509  2.6889
  908MPD2    H213355   3.576   2.158   9.513  0.6246  0.2003 -0.6556
  908MPD2    H313356   3.480   2.373   9.547  0.4936  1.3743 -0.4054
  908MPD2     N13357   3.861   2.520   9.761  0.2566 -0.0246  0.2218
  908MPD2    H513358   3.949   2.487   9.799 -0.6720  0.7866  3.1284
  908MPD2    N113359   3.809   2.069   9.572 -0.1888 -0.2388 -0.1282
  908MPD2    H713360   3.743   2.016   9.516 -0.4120 -0.2762  0.1757
  909MPD2     C13361   4.352   0.207  11.906  0.0343  0.1413 -0.3424
  909MPD2    C113362   4.380   0.330  11.852 -0.2558 -0.3282  0.1876
  909MPD2    C213363   4.375   0.441  11.941  0.7042  0.6683  0.0009
  909MPD2    C313364   4.326   0.433  12.072  1.0383  0.5572 -0.0429
  909MPD2    C413365   4.301   0.305  12.115  0.2081 -0.1862  0.2393
  909MPD2    C513366   4.323   0.196  12.037 -0.2645  0.0595 -0.4592
  909MPD2     H13367   4.396   0.539  11.900 -0.0068  0.3990 -0.9968
  909MPD2    H113368   4.258   0.286  12.213 -0.9320 -0.0318 -0.2297
  909MPD2    H213369   4.356   0.115  11.848 -0.0801  0.9271 -1.5800
  909MPD2    H313370   4.300   0.098  12.079  0.0173 -1.1025 -2.9997
  909MPD2     N13371   4.290   0.547  12.135 -0.2703  0.7983  0.5094
  909MPD2    H513372   4.298   0.631  12.079  1.7562  0.2928  0.0490
  909MPD2    N113373   4.415   0.351  11.716 -0.0131 -1.0782 -0.0767
  909MPD2    H713374   4.469   0.435  11.698  1.2174 -1.9155 -0.2560
  910MPD2     C13375   1.020   2.116  15.801 -0.2299 -0.0863  0.3706
  910MPD2    C113376   1.128   2.050  15.741  0.7172 -0.2430  0.0364
  910MPD2    C213377   1.169   2.090  15.613  0.0884  0.7140  0.2158
  910MPD2    C313378   1.098   2.192  15.552 -0.5881  0.3153 -0.5012
  910MPD2    C413379   0.980   2.239  15.605  0.4525  0.4787 -0.6508
  910MPD2    C513380   0.944   2.194  15.730  0.2454  0.2054 -0.2429
  910MPD2     H13381   1.255   2.047  15.564 -0.7373  0.9850 -1.5019
  910MPD2    H113382   0.912   2.312  15.562  0.4492 -0.5468 -2.3636
  910MPD2    H213383   0.978   2.081  15.895  0.5331  0.8563  1.0682
  910MPD2    H313384   0.850   2.228  15.772 -1.0825 -4.3139  0.4975
  910MPD2     N13385   1.123   2.244  15.423  0.2042  0.2214 -0.3625
  910MPD2    H513386   1.052   2.306  15.383  0.2569 -0.4776 -1.5484
  910MPD2    N113387   1.200   1.945  15.807  0.1629 -0.8551 -0.6347
  910MPD2    H713388   1.267   1.893  15.752  2.7118  0.4359  1.2981
  911MPD2     C13389   3.697   2.430  16.500 -0.2966 -0.6216  0.3291
  911MPD2    C113390   3.790   2.521  16.467 -0.4253 -0.1321 -0.0362
  911MPD2    C213391   3.753   2.645  16.420 -0.2145 -0.2860 -0.3060
  911MPD2    C313392   3.618   2.665  16.404  0.5995 -0.1244  0.1327
  911MPD2    C413393   3.527   2.572  16.428 -0.2877  0.7301 -0.0722
  911MPD2    C513394   3.564   2.456  16.487  0.6361 -0.2220  0.7589
  911MPD2     H13395   3.827   2.718  16.388  0.5224  0.1039  2.3104
  911MPD2    H113396   3.421   2.584  16.407 -0.5655 -1.5447  0.0972
  911MPD2    H213397   3.722   2.339  16.553  0.9363 -0.8935 -0.7445
  911MPD2    H313398   3.487   2.395  16.532 -1.3943  2.3578  0.7750
  911MPD2     N13399   3.562   2.781  16.342 -0.7576 -0.3271 -0.3633
  911MPD2    H513400   3.463   2.787  16.321 -0.7793 -2.2941 -0.8593
  911MPD2    N113401   3.919   2.504  16.513 -0.5276  0.2378  0.3887
  911MPD2    H713402   3.944   2.406  16.526 -0.6365  0.2154  0.4283
  912MPD2     C13403   3.316   2.626  15.687 -0.9217 -0.3427 -0.2173
  912MPD2    C113404   3.251   2.676  15.797  0.2748 -0.1990 -0.1656
  912MPD2    C213405   3.132   2.625  15.840 -0.0269 -0.9887 -0.0027
  912MPD2    C313406   3.083   2.515  15.780 -0.0766  0.5921  0.2745
  912MPD2    C413407   3.139   2.472  15.664  0.2079 -0.0805 -0.9047
  912MPD2    C513408   3.250   2.529  15.614  0.0018 -0.6035  0.3338
  912MPD2     H13409   3.085   2.672  15.926  2.7384 -0.2850  1.1301
  912MPD2    H113410   3.099   2.387  15.610 -1.6301  0.2640 -0.1155
  912MPD2    H213411   3.420   2.633  15.657 -1.1567 -3.1249 -1.6300
  912MPD2    H313412   3.289   2.483  15.524  1.4756  2.8885 -0.8104
  912MPD2     N13413   2.984   2.446  15.844  0.2186 -0.5963  0.3454
  912MPD2    H513414   2.940   2.484  15.927  1.6451  3.3076 -0.6882
  912MPD2    N113415   3.329   2.770  15.872 -0.1506 -0.3634 -0.5465
  912MPD2    H713416   3.422   2.787  15.836 -0.4608  2.9479  0.2527
  913MPD2     C13417   3.907   3.701   9.957  0.0972 -0.2817  0.2450
  913MPD2    C113418   3.906   3.784  10.061 -0.2379  0.2739  0.1978
  913MPD2    C213419   3.994   3.888  10.067 -0.5512 -0.8273 -0.0797
  913MPD2    C313420   4.081   3.911   9.957  0.2154  0.4930  0.7024
  913MPD2    C413421   4.084   3.831   9.849 -0.2509  0.5558  0.1180
  913MPD2    C513422   3.995   3.725   9.855 -0.0279 -0.6479 -0.1997
  913MPD2     H13423   4.000   3.960  10.148  2.6196 -0.3000 -0.8035
  913MPD2    H113424   4.155   3.844   9.768 -3.1166 -0.1641 -2.4938
  913MPD2    H213425   3.842   3.615   9.952 -1.6267  1.0379 -0.1648
  913MPD2    H313426   3.991   3.665   9.764 -0.8670 -1.0467  0.1037
  913MPD2     N13427   4.141   4.035   9.939  0.9227 -0.1546  0.0585
  913MPD2    H513428   4.178   4.052   9.846  1.7435  1.3897  0.6613
  913MPD2    N113429   3.810   3.761  10.171 -0.4516 -0.1043 -0.4652
  913MPD2    H713430   3.742   3.693  10.139 -0.0879  0.2760 -2.0434
  914MPD2     C13431   2.039   4.214  12.276  0.2708 -0.0453 -0.3160
  914MPD2    C113432   2.025   4.305  12.385  0.4876 -0.3842 -0.1840
  914MPD2    C213433   1.995   4.259  12.513  0.1371  0.0625 -0.4775
  914MPD2    C313434   1.962   4.123  12.525 -0.2659  0.3917  0.1728
  914MPD2    C413435   1.982   4.033  12.417  0.7414  0.1246 -0.7525
  914MPD2    C513436   2.021   4.082  12.298 -0.3744  0.4384 -0.4254
  914MPD2     H13437   1.996   4.325  12.598  1.3733 -2.1408  1.2168
  914MPD2    H113438   1.962   3.927  12.430 -1.6630  0.7342  0.4918
  914MPD2    H213439   2.057   4.258  12.179 -0.6692 -0.0175 -0.4772
  914MPD2    H313440   2.024   4.020  12.210  1.8881 -0.6375  0.4190
  914MPD2     N13441   1.915   4.075  12.650 -0.0321  0.7135  0.0265
  914MPD2    H513442   1.885   4.149  12.713  1.3814 -0.7852  2.4716
  914MPD2    N113443   2.054   4.441  12.355 -0.4552 -0.1056 -0.0325
  914MPD2    H713444   2.098   4.458  12.265 -0.4510  0.7069  0.1208
  915MPD2     C13445   0.443   4.008  15.367 -0.3095  0.3637  0.4984
  915MPD2    C113446   0.343   4.086  15.318 -0.2804  0.7848  0.1123
  915MPD2    C213447   0.263   4.165  15.403 -0.4345 -0.1510 -0.5284
  915MPD2    C313448   0.275   4.148  15.541 -0.7179  0.0896 -0.5196
  915MPD2    C413449   0.378   4.065  15.589 -0.2164  0.1585  0.0388
  915MPD2    C513450   0.459   3.994  15.501 -0.2996 -0.5452  0.0278
  915MPD2     H13451   0.175   4.219  15.372 -0.7675 -1.0715 -1.1868
  915MPD2    H113452   0.380   4.036  15.693  0.2553 -1.3878 -0.3877
  915MPD2    H213453   0.500   3.944  15.301  0.7022  2.1000 -0.3033
  915MPD2    H313454   0.534   3.926  15.541 -0.7705 -1.1119 -0.0444
  915MPD2     N13455   0.200   4.239  15.626  0.3974  0.5294  0.0144
  915MPD2    H513456   0.144   4.310  15.579 -0.6025 -1.1829 -1.3996
  915MPD2    N113457   0.307   4.068  15.184 -0.3043  0.1857  0.6385
  915MPD2    H713458   0.336   3.987  15.130 -1.6487 -1.1934  1.9833
  916MPD2     C13459   2.920   2.413  15.309  0.4304  0.3617  0.4374
  916MPD2    C113460   2.911   2.285  15.348 -0.2638 -0.1225  0.0655
  916MPD2    C213461   3.018   2.206  15.332  0.8506 -0.4429 -0.1881
  916MPD2    C313462   3.133   2.250  15.276 -0.6591 -0.0683  0.0974
  916MPD2    C413463   3.142   2.386  15.242 -0.0393  0.3215 -0.3618
  916MPD2    C513464   3.032   2.463  15.249  0.4895  0.3933 -0.5244
  916MPD2     H13465   3.018   2.104  15.368  0.4191 -0.7387 -1.0378
  916MPD2    H113466   3.230   2.435  15.201 -0.0086  0.0922 -0.5683
  916MPD2    H213467   2.832   2.476  15.317 -0.5511 -1.0227  0.5249
  916MPD2    H313468   3.025   2.567  15.221  0.2409  0.3001 -0.8019
  916MPD2     N13469   3.234   2.153  15.252 -0.3301 -0.1588 -0.2853
  916MPD2    H513470   3.207   2.058  15.276  1.5934 -0.6984 -0.2406
  916MPD2    N113471   2.796   2.247  15.418  0.9815  0.3949 -0.4854
  916MPD2    H713472   2.727   2.316  15.443 -0.4756 -0.7997 -1.1710
  917MPD2     C13473   2.716   4.225  10.879  0.3032 -1.0190  0.2782
  917MPD2    C113474   2.732   4.319  10.986  0.7179  0.1220  0.0668
  917MPD2    C213475   2.824   4.424  10.971 -0.6794  0.4008  0.2851
  917MPD2    C313476   2.904   4.440  10.858  0.0557  0.1540  0.8362
  917MPD2    C413477   2.877   4.351  10.755  0.1019  0.9380 -0.0586
  917MPD2    C513478   2.785   4.248  10.765  0.2973 -0.4363 -0.6141
  917MPD2     H13479   2.852   4.485  11.057  0.7265  1.0692 -0.6403
  917MPD2    H113480   2.917   4.368  10.655  0.3354  1.5137  0.1340
  917MPD2    H213481   2.649   4.141  10.885  1.0579 -1.6928 -0.8298
  917MPD2    H313482   2.759   4.184  10.681  0.7000  1.0351 -1.8613
  917MPD2     N13483   3.002   4.541  10.838  0.0719 -0.7623  0.0547
  917MPD2    H513484   3.050   4.549  10.749  0.0679  3.0280  0.3964
  917MPD2    N113485   2.655   4.302  11.105 -0.5057 -0.2077 -0.8452
  917MPD2    H713486   2.613   4.214  11.134  1.6230 -0.3094  1.9556
  918MPD2     C13487   2.711   0.010  12.047  0.5628 -0.2795  0.0756
  918MPD2    C113488   2.810   0.014  11.949  0.0518 -0.5159  0.3414
  918MPD2    C213489   2.781   4.691  11.825  0.4017  0.1959  0.1158
  918MPD2    C313490   2.671   4.604  11.811 -0.3430  0.0941  0.2402
  918MPD2    C413491   2.590   4.582  11.921 -0.2071 -0.0145  0.0862
  918MPD2    C513492   2.601   4.668  12.028 -0.4523 -0.9908 -0.6108
  918MPD2     H13493   2.846   4.707  11.739 -1.0973  1.2754 -0.8301
  918MPD2    H113494   2.499   4.523  11.921 -0.9580  1.1530 -1.1549
  918MPD2    H213495   2.719   0.076  12.133  1.1048 -0.1931 -0.0466
  918MPD2    H313496   2.522   4.660  12.102  1.4413  1.4733  1.6448
  918MPD2     N13497   2.648   4.533  11.688 -0.3767  0.3087 -0.2678
  918MPD2    H513498   2.714   4.534  11.610 -1.1879 -1.4396 -0.9861
  918MPD2    N113499   2.930   0.095  11.958  0.0653  0.3618  0.2272
  918MPD2    H713500   2.970   0.107  11.865  0.8213 -0.9266  0.3849
  919MPD2     C13501   3.906   4.019  11.649  0.3741  0.1421 -0.1468
  919MPD2    C113502   3.822   3.916  11.642  0.6151  0.1826 -0.2939
  919MPD2    C213503   3.752   3.893  11.533 -0.5501  0.4163 -0.2910
  919MPD2    C313504   3.756   3.979  11.427  0.1422 -0.4871  0.0627
  919MPD2    C413505   3.848   4.078  11.421  0.5057  0.2720 -0.5121
  919MPD2    C513506   3.929   4.087  11.530 -0.2884  0.0344  0.0105
  919MPD2     H13507   3.693   3.803  11.519 -0.2359  0.3053 -0.8754
  919MPD2    H113508   3.863   4.139  11.332  0.5421  0.1434 -0.5929
  919MPD2    H213509   3.971   4.037  11.734  1.7683 -0.2576 -1.1417
  919MPD2    H313510   3.993   4.175  11.533 -2.0001  1.3115 -0.4674
  919MPD2     N13511   3.669   3.964  11.318  0.4507 -0.2592 -0.2530
  919MPD2    H513512   3.667   4.045  11.257 -1.9286  0.5309  0.8470
  919MPD2    N113513   3.791   3.832  11.747 -0.3864  0.1864 -0.2044
  919MPD2    H713514   3.708   3.777  11.725 -0.9222  0.2812  1.5375
  920MPD2     C13515   3.472   4.081  10.340  0.1773 -0.6258  0.1912
  920MPD2    C113516   3.362   3.997  10.375  0.2839  0.3775 -0.9947
  920MPD2    C213517   3.345   3.963  10.509  0.3122  0.3505 -0.2499
  920MPD2    C313518   3.426   4.026  10.604  0.1132  0.0406  0.3680
  920MPD2    C413519   3.527   4.116  10.573  0.2852  0.4470 -0.0669
  920MPD2    C513520   3.552   4.128  10.440 -0.2799 -0.0521  0.4577
  920MPD2     H13521   3.273   3.891  10.544  2.6116 -1.4043  0.9075
  920MPD2    H113522   3.592   4.172  10.639 -0.4329  0.6929  0.4393
  920MPD2    H213523   3.490   4.114  10.238 -0.9373  3.5898  1.3741
  920MPD2    H313524   3.626   4.204  10.420 -1.1048  0.8313  0.7782
  920MPD2     N13525   3.398   3.993  10.740 -0.2416 -0.0166 -0.0894
  920MPD2    H513526   3.308   3.947  10.754 -0.3286  0.5414  1.2213
  920MPD2    N113527   3.275   3.933  10.293 -0.5414 -0.1599 -0.1536
  920MPD2    H713528   3.203   3.875  10.336  0.8511 -2.2698 -0.6457
  921MPD2     C13529   4.687   2.825  17.128  0.4586 -0.2166  0.2480
  921MPD2    C113530   4.737   2.796  17.000 -0.7795 -0.1927 -0.0213
  921MPD2    C213531   4.656   2.739  16.909 -0.0456 -0.4692  0.2686
  921MPD2    C313532   4.534   2.696  16.944  0.1391  0.3590 -0.4637
  921MPD2    C413533   4.496   2.704  17.074 -0.0707  0.4642 -0.1484
  921MPD2    C513534   4.570   2.768  17.165  0.4601 -0.2972  0.0072
  921MPD2     H13535   4.704   2.718  16.814  2.2371 -0.1013  1.3351
  921MPD2    H113536   4.396   2.673  17.101 -0.2294  1.1267  0.0360
  921MPD2    H213537   0.007   2.891  17.191 -1.0612  0.7605  0.6151
  921MPD2    H313538   4.512   2.798  17.252  0.4260 -0.9851  0.2256
  921MPD2     N13539   4.439   2.633  16.858  0.6793 -0.6611  0.1317
  921MPD2    H513540   4.351   2.602  16.897 -0.7457  2.5021 -0.5588
  921MPD2    N113541   0.122   2.859  16.965  0.0113  0.0546 -0.1904
  921MPD2    H713542   0.186   2.880  17.041  0.2356 -1.2099 -0.0414
  922MPD2     C13543   0.407   0.918  17.112  0.2867  0.2206 -0.6510
  922MPD2    C113544   0.327   0.868  17.212  0.4138 -0.2667 -0.4722
  922MPD2    C213545   0.285   0.737  17.211  0.1397  0.2097 -0.0618
  922MPD2    C313546   0.309   0.662  17.100  0.2202  0.7207  0.1143
  922MPD2    C413547   0.382   0.715  16.990  0.4706  0.0792 -0.7640
  922MPD2    C513548   0.430   0.842  16.999 -0.1276  0.7346  0.2902
  922MPD2     H13549   0.220   0.700  17.290 -0.1092  1.3465  0.2662
  922MPD2    H113550   0.398   0.663  16.897  1.3406 -0.6353 -0.2221
  922MPD2    H213551   0.444   1.020  17.113 -0.4339  0.4741 -0.0711
  922MPD2    H313552   0.490   0.870  16.913 -0.4341  0.7632  0.0854
  922MPD2     N13553   0.267   0.524  17.097  0.6545  0.3251 -0.3948
  922MPD2    H513554   0.216   0.478  17.172  0.7042 -2.6234 -2.1709
  922MPD2    N113555   0.305   0.942  17.335  0.2253  0.9972  0.2613
  922MPD2    H713556   0.264   0.887  17.411 -0.9517 -0.3478 -1.3466
  923MPD2     C13557   1.997   2.202   9.377 -0.2596 -0.7521 -0.7377
  923MPD2    C113558   1.945   2.325   9.348  0.5064  0.0548  1.0078
  923MPD2    C213559   2.028   2.438   9.375  0.5665 -0.3844  0.8929
  923MPD2    C313560   2.154   2.440   9.435  0.3792 -0.4919 -0.3759
  923MPD2    C413561   2.198   2.313   9.469 -0.5864 -0.4605  0.0977
  923MPD2    C513562   2.122   2.203   9.437 -0.6717 -0.0174  0.4845
  923MPD2     H13563   1.991   2.533   9.339  1.0535  0.8882  3.7736
  923MPD2    H113564   2.296   2.300   9.513  0.2248 -0.7072 -1.7552
  923MPD2    H213565   1.950   2.106   9.360  0.9871 -1.4896 -0.0504
  923MPD2    H313566   2.176   2.112   9.458 -0.8813 -0.0043  1.0591
  923MPD2     N13567   2.218   2.548   9.490 -0.5134 -0.1282 -0.7678
  923MPD2    H513568   2.278   2.520   9.567 -2.0045  0.0460  0.4680
  923MPD2    N113569   1.810   2.326   9.304  0.1940 -0.2294 -0.0255
  923MPD2    H713570   1.761   2.237   9.306 -2.3101  1.2011  3.8103
  924MPD2     C13571   2.105   0.558  15.808  0.7350 -0.6632  0.6370
  924MPD2    C113572   2.018   0.521  15.908  0.3884 -1.4873 -0.8962
  924MPD2    C213573   2.011   0.594  16.023  1.2614  0.7694  0.0617
  924MPD2    C313574   2.080   0.712  16.039  0.1160  0.0616 -0.4486
  924MPD2    C413575   2.158   0.752  15.934 -0.0120  0.4317 -0.3340
  924MPD2    C513576   2.171   0.671  15.823  0.5351  0.5803  0.1904
  924MPD2     H13577   1.945   0.557  16.101 -0.0007  1.3467 -0.7403
  924MPD2    H113578   2.211   0.847  15.940  0.7756 -0.0297  0.0439
  924MPD2    H213579   2.108   0.491  15.724 -1.6456  0.4368 -0.3185
  924MPD2    H313580   2.232   0.701  15.738  0.0361  0.6317 -0.1454
  924MPD2     N13581   2.069   0.797  16.151 -0.5497 -0.1792  0.6696
  924MPD2    H513582   2.123   0.883  16.152 -1.3701  0.3417  0.6816
  924MPD2    N113583   1.933   0.410  15.889 -0.2537  0.0409  0.3105
  924MPD2    H713584   1.967   0.344  15.820 -1.3126  0.9774 -1.1114
  925MPD2     C13585   0.591   3.630  14.418 -1.0773  0.7895 -0.0285
  925MPD2    C113586   0.582   3.496  14.460 -0.1122  0.0171 -0.1578
  925MPD2    C213587   0.543   3.469  14.587 -0.3083  0.0037 -0.1281
  925MPD2    C313588   0.532   3.564  14.687 -0.3508  0.2333 -0.2534
  925MPD2    C413589   0.527   3.693  14.638 -0.0911  0.5087 -0.2323
  925MPD2    C513590   0.554   3.721  14.511 -1.1505 -0.3299 -0.2647
  925MPD2     H13591   0.515   3.365  14.600 -0.8998  0.0724 -0.8063
  925MPD2    H113592   0.494   3.772  14.705 -1.2513  0.1176 -0.3535
  925MPD2    H213593   0.626   3.660  14.320 -2.5003 -0.9053 -1.0548
  925MPD2    H313594   0.556   3.824  14.478  0.2932 -0.3095 -0.1195
  925MPD2     N13595   0.503   3.537  14.820  0.5257 -0.6845 -0.3688
  925MPD2    H513596   0.474   3.613  14.881  0.5863  1.1374 -2.6230
  925MPD2    N113597   0.601   3.386  14.377 -1.1344  0.3272  0.5785
  925MPD2    H713598   0.580   3.296  14.418  1.0174 -1.2168 -1.7200
  926MPD2     C13599   4.363   1.872  13.446 -0.0306 -1.0457 -0.5548
  926MPD2    C113600   4.234   1.861  13.423  0.6176  0.1810  0.3570
  926MPD2    C213601   4.188   1.845  13.298  0.8242 -0.4996 -0.5681
  926MPD2    C313602   4.273   1.876  13.191 -0.2165  0.0147  0.1442
  926MPD2    C413603   4.407   1.904  13.220  0.8867 -1.3016  0.6735
  926MPD2    C513604   4.448   1.903  13.344  0.2176  0.2452  0.1546
  926MPD2     H13605   4.082   1.821  13.290  0.4325  0.7722  0.7938
  926MPD2    H113606   4.466   1.949  13.141 -1.5577  0.8374  0.0282
  926MPD2    H213607   4.396   1.879  13.549 -0.2562  2.5711 -0.7290
  926MPD2    H313608   4.553   1.915  13.369  0.0688 -1.9691  1.7798
  926MPD2     N13609   4.228   1.901  13.061 -0.0638  0.3243 -0.1298
  926MPD2    H513610   4.294   1.939  12.994  0.2530 -0.1544 -0.0909
  926MPD2    N113611   4.145   1.845  13.529  0.2300  0.3518  0.8273
  926MPD2    H713612   4.059   1.794  13.516  1.5766 -1.3290 -1.3793
  927MPD2     C13613   4.155   3.986  17.652  0.2934 -0.1503 -0.1121
  927MPD2    C113614   4.112   4.114  17.636 -0.0395  0.0231 -0.4152
  927MPD2    C213615   4.102   4.152  17.502 -0.2354  0.4318 -0.1389
  927MPD2    C313616   4.138   4.071  17.390  0.3058 -0.5742 -0.0601
  927MPD2    C413617   4.196   3.948  17.419  0.4662  0.0980 -0.8354
  927MPD2    C513618   4.193   3.905  17.547  0.4218  0.4290 -0.3516
  927MPD2     H13619   4.064   4.252  17.489  0.8978  0.6267 -1.9662
  927MPD2    H113620   4.247   3.890  17.343  0.5440 -1.0506  0.0871
  927MPD2    H213621   4.151   3.937  17.748 -0.0870 -2.3154 -1.2278
  927MPD2    H313622   4.230   3.805  17.567 -2.2811 -0.6590 -0.8413
  927MPD2     N13623   4.140   4.128  17.261  0.0192 -0.0722 -0.3557
  927MPD2    H513624   4.093   4.217  17.252  2.2133  1.0944 -0.2237
  927MPD2    N113625   4.059   4.199  17.734 -0.4749 -0.3841 -0.2207
  927MPD2    H713626   4.012   4.283  17.702 -0.0077 -0.0397 -0.0014
  928MPD2     C13627   2.105   2.373   0.968 -0.9015  0.0716 -0.1584
  928MPD2    C113628   1.987   2.343   0.908  0.6728 -0.0224  0.2647
  928MPD2    C213629   1.980   2.345   0.772 -0.5676  0.4710  0.2110
  928MPD2    C313630   2.077   2.399   0.697  0.2668 -0.6789  0.0655
  928MPD2    C413631   2.196   2.446   0.757  0.1099  1.2025 -0.4267
  928MPD2    C513632   2.207   2.424   0.893 -0.1361 -0.1584 -0.0160
  928MPD2     H13633   1.889   2.311   0.725  0.0236  0.5034 -0.9649
  928MPD2    H113634   2.280   2.488   0.703  0.2695 -0.5496 -1.5350
  928MPD2    H213635   2.110   2.363   1.075 -0.7538  0.2747 -0.1470
  928MPD2    H313636   2.300   2.443   0.946 -0.5504  1.3199  0.1793
  928MPD2     N13637   2.075   2.413   0.557 -0.0514  0.5491  0.2169
  928MPD2    H513638   2.144   2.471   0.509  0.7373  1.1490  2.0600
  928MPD2    N113639   1.875   2.303   0.984 -0.2500 -0.1368  0.2431
  928MPD2    H713640   1.896   2.271   1.078 -0.1451 -1.4309 -0.2155
  929MPD2     C13641   2.089   2.902  10.085  0.6013 -0.2775  0.2139
  929MPD2    C113642   1.961   2.861  10.082 -0.1832 -0.0381 -0.1564
  929MPD2    C213643   1.865   2.938  10.026  0.2964  0.4398  0.5546
  929MPD2    C313644   1.897   3.065   9.973 -0.2975 -0.1816  0.2040
  929MPD2    C413645   2.032   3.105   9.972  0.2389  0.2914  0.4152
  929MPD2    C513646   2.123   3.022  10.025 -0.1069 -0.1418 -0.0370
  929MPD2     H13647   1.762   2.904  10.032  0.3729  0.1816  0.3747
  929MPD2    H113648   2.060   3.189   9.910 -0.1805  0.3811  0.3442
  929MPD2    H213649   2.170   2.848  10.131  0.4478  0.6311  1.5319
  929MPD2    H313650   2.228   3.044  10.006 -0.0354 -0.8006 -0.4077
  929MPD2     N13651   1.800   3.157   9.931  0.3116 -0.3928 -0.0119
  929MPD2    H513652   1.831   3.245   9.890 -0.9977  1.0564  2.1158
  929MPD2    N113653   1.936   2.730  10.131  0.2187 -0.2860  0.0774
  929MPD2    H713654   2.006   2.697  10.197 -2.4036 -1.8031  2.1061
  930MPD2     C13655   3.455   0.037  13.993  0.5187 -0.3632  0.1425
  930MPD2    C113656   3.591   0.012  13.976 -0.3183 -0.3073  0.1068
  930MPD2    C213657   3.639   4.650  13.893  0.2539 -0.5735 -0.6170
  930MPD2    C313658   3.545   4.590  13.815  0.2775 -0.0804  0.0044
  930MPD2    C413659   3.411   4.600  13.838 -0.7501  0.2381 -0.2176
  930MPD2    C513660   3.368   4.689  13.932 -0.0381 -0.1064  0.5099
  930MPD2     H13661   3.743   4.628  13.874  0.3281 -3.0534  2.5287
  930MPD2    H113662   3.345   4.532  13.785 -1.1295 -0.2669  0.9049
  930MPD2    H213663   3.409   0.105  14.063  0.0032  0.6149 -1.1545
  930MPD2    H313664   3.261   4.685  13.948  0.0501  0.5040  1.2775
  930MPD2     N13665   3.581   4.525  13.691 -0.3188  0.2302 -0.1868
  930MPD2    H513666   3.502   4.490  13.638 -1.0459 -0.5237  1.4093
  930MPD2    N113667   3.678   0.113  14.017  0.0274  0.0329  0.3229
  930MPD2    H713668   3.646   0.205  14.047 -1.9383 -1.3777  2.6182
  931MPD2     C13669   4.113   4.037   0.745 -0.2124  0.1721  0.1984
  931MPD2    C113670   4.009   4.113   0.731  0.3045 -0.5280 -0.2135
  931MPD2    C213671   3.914   4.129   0.833 -0.1249  0.0331  0.1023
  931MPD2    C313672   3.929   4.049   0.951  0.6916 -0.0558 -0.8063
  931MPD2    C413673   4.045   3.978   0.965  0.8304 -0.3331 -0.3955
  931MPD2    C513674   4.141   3.971   0.860 -0.2566  0.9676 -0.0934
  931MPD2     H13675   3.823   4.185   0.820 -0.7464 -0.9527  0.2480
  931MPD2    H113676   4.064   3.930   1.061 -1.5038  1.1774  0.8453
  931MPD2    H213677   4.185   4.028   0.664  0.7472 -1.5246  1.2358
  931MPD2    H313678   4.229   3.913   0.882 -1.2660 -0.6967 -0.4094
  931MPD2     N13679   3.831   4.026   1.050 -0.1873  0.0923 -0.0178
  931MPD2    H513680   3.846   3.956   1.121 -1.6514  0.2879  0.4940
  931MPD2    N113681   4.002   4.174   0.602 -0.5698 -0.3646 -0.2313
  931MPD2    H713682   4.079   4.155   0.539  0.7137  0.9643  0.9561
  932MPD2     C13683   0.389   2.770  10.945  0.0343 -0.5092 -0.3489
  932MPD2    C113684   0.406   2.838  11.062  0.5612  0.7050 -0.2213
  932MPD2    C213685   0.501   2.801  11.155 -0.0453  0.1669 -0.3177
  932MPD2    C313686   0.570   2.680  11.138 -0.3309  0.8031 -0.0409
  932MPD2    C413687   0.544   2.610  11.020 -0.1793 -0.1136  0.3652
  932MPD2    C513688   0.456   2.655  10.929  0.3688  0.2547  0.4679
  932MPD2     H13689   0.517   2.863  11.243 -0.6031  0.5948 -0.5130
  932MPD2    H113690   0.605   2.522  11.001 -1.2809 -0.2505 -2.5099
  932MPD2    H213691   0.308   2.789  10.875  1.1452 -0.2398 -1.5708
  932MPD2    H313692   0.438   2.595  10.841  2.0550  0.1552  0.1917
  932MPD2     N13693   0.673   2.630  11.227  0.1955 -0.0369 -0.0064
  932MPD2    H513694   0.736   2.556  11.196 -1.0595 -0.3249 -1.9017
  932MPD2    N113695   0.340   2.962  11.090 -0.2045  0.3569  0.0504
  932MPD2    H713696   0.363   2.989  11.185  0.3433 -0.2964  0.1081
  933MPD2     C13697   0.975   2.112   1.132  0.0732 -0.3092  0.2209
  933MPD2    C113698   1.056   2.214   1.096 -0.7887 -0.7552  1.0571
  933MPD2    C213699   0.993   2.315   1.032 -0.2799  0.0907 -0.2158
  933MPD2    C313700   0.862   2.309   0.988  0.4534 -0.0458  0.4474
  933MPD2    C413701   0.782   2.207   1.033  0.0530 -0.5972 -0.4881
  933MPD2    C513702   0.839   2.112   1.111 -0.4431  0.0669 -0.3859
  933MPD2     H13703   1.044   2.403   0.993  0.9072 -1.1000 -1.3543
  933MPD2    H113704   0.677   2.196   1.007  0.3782 -0.4402 -1.8587
  933MPD2    H213705   1.016   2.028   1.187 -1.1833  0.3741  2.1936
  933MPD2    H313706   0.774   2.033   1.147 -1.3867  0.7924 -0.4945
  933MPD2     N13707   0.812   2.422   0.915  0.8480 -0.5622 -0.4507
  933MPD2    H513708   0.879   2.493   0.889 -0.3852  0.4421 -0.9299
  933MPD2    N113709   1.195   2.201   1.115 -0.2720 -0.9430 -0.0049
  933MPD2    H713710   1.224   2.112   1.155  0.0878 -0.5334  0.6330
  934MPD2     C13711   3.019   4.399   1.763 -0.1342 -0.0455  0.6870
  934MPD2    C113712   3.084   4.433   1.652  0.6949  0.4914 -0.2502
  934MPD2    C213713   3.015   4.448   1.533 -0.3412  0.0651  0.3450
  934MPD2    C313714   2.881   4.409   1.519  0.4221 -0.0797  0.5788
  934MPD2    C413715   2.822   4.383   1.635  1.0357  0.0989  0.2447
  934MPD2    C513716   2.887   4.371   1.752 -0.4940  0.1669  0.2270
  934MPD2     H13717   3.071   4.487   1.448 -2.1765  1.0181 -0.4323
  934MPD2    H113718   2.718   4.355   1.646  1.2656 -0.2319  1.6339
  934MPD2    H213719   3.055   4.393   1.865  1.3032 -0.1709  0.1757
  934MPD2    H313720   2.835   4.348   1.845  0.8219  0.2563  0.9785
  934MPD2     N13721   2.813   4.427   1.397 -0.3993  0.5762 -0.8688
  934MPD2    H513722   2.712   4.412   1.395 -0.7510  2.8064  0.3915
  934MPD2    N113723   3.220   4.475   1.659  0.5201  0.4952 -0.4365
  934MPD2    H713724   3.258   4.534   1.585 -1.3112  0.6385 -1.2590
  935MPD2     C13725   2.900   3.840   0.672 -0.0295  0.0288  0.1214
  935MPD2    C113726   2.761   3.866   0.690 -0.5665 -0.0090  0.4288
  935MPD2    C213727   2.715   3.974   0.760 -0.4535  0.1271 -0.2511
  935MPD2    C313728   2.814   4.050   0.819 -0.1236 -0.9962 -1.1894
  935MPD2    C413729   2.945   4.026   0.802  0.3958 -0.0837  0.2427
  935MPD2    C513730   2.988   3.915   0.733 -0.5122  0.0481 -0.5186
  935MPD2     H13731   2.610   3.988   0.784  0.2949  0.7790  2.6830
  935MPD2    H113732   3.021   4.088   0.848 -0.2122 -0.7116  2.1119
  935MPD2    H213733   2.947   3.772   0.602 -0.2771 -0.5035  0.4747
  935MPD2    H313734   3.094   3.898   0.722 -0.5676  0.6262 -2.0309
  935MPD2     N13735   2.783   4.160   0.898 -0.0628  0.0459  0.1262
  935MPD2    H513736   2.862   4.193   0.953  1.8859 -0.8218 -2.1844
  935MPD2    N113737   2.667   3.779   0.635 -0.4683 -0.2019 -0.3517
  935MPD2    H713738   2.571   3.811   0.647 -0.4250  0.5688 -1.9617
  936MPD2     C13739   1.698   1.458  12.419 -0.1487  0.2205  0.2225
  936MPD2    C113740   1.580   1.534  12.441  0.0878  0.2139 -0.4897
  936MPD2    C213741   1.504   1.557  12.328  0.7799  0.3871  0.5536
  936MPD2    C313742   1.527   1.492  12.204 -0.1205  0.3120 -0.3844
  936MPD2    C413743   1.635   1.408  12.195 -0.6499 -0.1049  1.5007
  936MPD2    C513744   1.720   1.390  12.298 -0.4067  0.0488  0.2339
  936MPD2     H13745   1.422   1.628  12.334 -0.7564 -1.3762  0.5563
  936MPD2    H113746   1.653   1.349  12.106 -1.0421  3.1334 -0.7445
  936MPD2    H213747   1.778   1.441  12.490 -1.9670  0.1278  2.2230
  936MPD2    H313748   1.808   1.327  12.296  1.1765  2.2379  0.9758
  936MPD2     N13749   1.457   1.549  12.094  0.0811  1.2502  0.5287
  936MPD2    H513750   1.393   1.626  12.113 -1.9018  0.0821 -1.4559
  936MPD2    N113751   1.541   1.584  12.566 -0.5780  0.0962  0.2383
  936MPD2    H713752   1.451   1.631  12.567  0.2137  1.6593 -2.2190
  937MPD2     C13753   3.553   3.290  11.554 -0.2958 -0.3638 -0.8689
  937MPD2    C113754   3.687   3.332  11.577 -0.6772 -0.4608 -0.3654
  937MPD2    C213755   3.760   3.351  11.464 -0.5137 -0.3914 -0.5467
  937MPD2    C313756   3.725   3.302  11.337  0.0746 -0.8944 -0.0770
  937MPD2    C413757   3.602   3.244  11.312 -0.1144  0.0386 -0.4286
  937MPD2    C513758   3.524   3.246  11.426  0.0125  0.6566 -0.4431
  937MPD2     H13759   3.858   3.393  11.481  0.0315 -1.2306 -1.6348
  937MPD2    H113760   3.569   3.192  11.222  1.1444 -0.4788 -0.5916
  937MPD2    H213761   3.475   3.267  11.625  0.7621  4.6314  1.8935
  937MPD2    H313762   3.443   3.174  11.421  0.3776  0.2700 -0.8350
  937MPD2     N13763   3.818   3.310  11.234  0.7618 -0.3508  0.0536
  937MPD2    H513764   3.909   3.352  11.253  1.8777 -1.3681 -2.9446
  937MPD2    N113765   3.719   3.405  11.693  0.3660  0.1115  0.0237
  937MPD2    H713766   3.802   3.464  11.690  1.3698 -1.1927  1.7824
  938MPD2     C13767   1.555   4.004   0.364  0.2922 -1.2833 -0.5358
  938MPD2    C113768   1.435   4.046   0.412  0.3992 -0.4730  0.5675
  938MPD2    C213769   1.348   3.948   0.469  0.4334 -0.0325  0.6942
  938MPD2    C313770   1.388   3.815   0.475 -0.3036 -0.6172 -0.0080
  938MPD2    C413771   1.516   3.782   0.437  0.7959 -0.3381 -0.2832
  938MPD2    C513772   1.596   3.876   0.385 -0.0822  0.1285  0.0006
  938MPD2     H13773   1.246   3.981   0.487 -0.5874 -0.9957 -3.2018
  938MPD2    H113774   1.549   3.679   0.446  1.7535  0.1996  2.2013
  938MPD2    H213775   1.630   4.070   0.323  1.7472 -3.6000 -1.5739
  938MPD2    H313776   1.698   3.846   0.364  0.4978  1.4840  0.9024
  938MPD2     N13777   1.305   3.706   0.512  0.0119  0.1572  0.4933
  938MPD2    H513778   1.352   3.617   0.521  1.4710  0.8161 -0.5899
  938MPD2    N113779   1.400   4.181   0.407 -0.4555  0.1633  0.1148
  938MPD2    H713780   1.303   4.201   0.429  0.1104  0.3765  2.4510
  939MPD2     C13781   2.567   0.288   0.374 -0.0041 -0.4486 -0.3718
  939MPD2    C113782   2.648   0.404   0.360  0.3282 -0.0689 -0.7706
  939MPD2    C213783   2.707   0.436   0.240 -0.1726  0.0349 -0.1390
  939MPD2    C313784   2.689   0.353   0.130  0.4010 -0.2345  0.1583
  939MPD2    C413785   2.608   0.239   0.139 -0.3559 -0.0698 -0.0286
  939MPD2    C513786   2.552   0.207   0.265  1.5070  0.4488 -0.1204
  939MPD2     H13787   2.769   0.525   0.242 -0.7754  0.3557  3.0486
  939MPD2    H113788   2.600   0.173   0.053  1.2415 -0.4386  0.1062
  939MPD2    H213789   2.517   0.263   0.467 -0.7429  3.3344  0.2533
  939MPD2    H313790   2.484   0.123   0.270  1.5839  0.3231 -1.0449
  939MPD2     N13791   2.744   0.400   0.011 -0.6500 -0.5647  0.1011
  939MPD2    H513792   2.783   0.493   0.003  0.0041 -1.0033 -1.8072
  939MPD2    N113793   2.661   0.492   0.472  0.1166  0.0863  0.0236
  939MPD2    H713794   2.597   0.460   0.544  1.6985  0.0962  1.4330
  940MPD2     C13795   2.273   1.156  12.803  0.5394 -0.3672 -0.2745
  940MPD2    C113796   2.136   1.150  12.780 -0.3049 -0.4802 -0.0815
  940MPD2    C213797   2.097   1.200  12.656 -0.1888 -0.1089  0.1585
  940MPD2    C313798   2.184   1.242  12.557 -0.1885 -0.4651 -0.3737
  940MPD2    C413799   2.318   1.242  12.588  0.4742  0.4039  0.1882
  940MPD2    C513800   2.361   1.197  12.709  0.1715 -0.5223  0.0108
  940MPD2     H13801   1.990   1.199  12.640 -0.0666  5.8207 -1.1876
  940MPD2    H113802   2.400   1.269  12.522  0.2502  0.1972 -0.1793
  940MPD2    H213803   2.315   1.124  12.898  0.4767 -0.1213 -0.1651
  940MPD2    H313804   2.467   1.189  12.730  0.8039  1.3150 -2.4204
  940MPD2     N13805   2.155   1.263  12.419  0.0154  0.2138  0.4699
  940MPD2    H513806   2.232   1.291  12.359 -0.8019 -1.0010 -1.1765
  940MPD2    N113807   2.044   1.110  12.876 -0.6011  0.3751 -0.2133
  940MPD2    H713808   1.948   1.130  12.851 -0.6570  0.9549  0.4543
  941MPD2     C13809   0.882   1.206  10.290 -0.6218  0.5072  0.0726
  941MPD2    C113810   1.011   1.209  10.341  0.0890 -0.5812 -0.2303
  941MPD2    C213811   1.054   1.107  10.422 -0.1687  0.1964 -0.3631
  941MPD2    C313812   0.978   0.999  10.453 -0.1743 -0.4923 -0.5122
  941MPD2    C413813   0.846   0.999  10.404  0.0026  0.5598  0.7662
  941MPD2    C513814   0.796   1.104  10.327  0.2221 -0.0073 -0.7415
  941MPD2     H13815   1.154   1.116  10.463 -0.1370 -0.2784 -0.3419
  941MPD2    H113816   0.775   0.925  10.441 -0.3203  0.7655  0.5616
  941MPD2    H213817   0.854   1.287  10.224  0.0438  0.6721 -0.0084
  941MPD2    H313818   0.691   1.106  10.298 -0.5050 -1.6363  1.7288
  941MPD2     N13819   1.018   0.894  10.541  0.3943  0.6412  0.1991
  941MPD2    H513820   0.953   0.819  10.561 -0.3503  2.0958  3.2939
  941MPD2    N113821   1.105   1.311  10.297 -0.2916 -0.4230 -0.6497
  941MPD2    H713822   1.202   1.296  10.324 -0.7475  0.7724  1.6581
  942MPD2     C13823   4.380   2.203   9.305  0.6242  0.3116 -0.8305
  942MPD2    C113824   4.447   2.119   9.218  0.0935 -0.5143  0.2066
  942MPD2    C213825   4.580   2.142   9.177 -0.6292 -0.1363  0.1720
  942MPD2    C313826   4.644   2.253   9.226 -0.1262  0.3781  0.1241
  942MPD2    C413827   4.581   2.336   9.313  0.1016 -0.0662 -0.0587
  942MPD2    C513828   4.447   2.319   9.344 -0.0019  0.8647 -0.7224
  942MPD2     H13829   4.629   2.069   9.114 -0.6721  0.9997 -1.1632
  942MPD2    H113830   4.631   2.428   9.342  0.7886 -0.4058 -0.1720
  942MPD2    H213831   4.276   2.184   9.328  0.6615  2.1424  0.8877
  942MPD2    H313832   4.398   2.394   9.404 -0.8746 -0.3863  0.1284
  942MPD2     N13833   0.041   2.284   9.191 -0.7186 -0.2526 -0.4884
  942MPD2    H513834   0.079   2.360   9.248  1.9373 -0.5468 -1.8918
  942MPD2    N113835   4.388   2.001   9.166 -0.0460  0.0176  0.5924
  942MPD2    H713836   4.456   1.941   9.121 -0.5095 -0.8883  1.0778
  943MPD2     C13837   4.272   1.157  10.502 -0.4527 -0.0871 -0.1677
  943MPD2    C113838   4.231   1.029  10.511 -0.0667 -0.2816 -0.3884
  943MPD2    C213839   4.162   0.990  10.627 -0.2348 -0.3396  0.3358
  943MPD2    C313840   4.136   1.078  10.729  0.3461  0.5589  0.2641
  943MPD2    C413841   4.184   1.208  10.722  0.3534 -0.3537  0.5520
  943MPD2    C513842   4.258   1.241  10.608 -0.4744  0.0285  0.1148
  943MPD2     H13843   4.132   0.886  10.629 -0.7504 -0.2292 -1.7829
  943MPD2    H113844   4.183   1.287  10.796  2.5517  0.5792 -0.4232
  943MPD2    H213845   4.326   1.191  10.415  0.6822 -4.3340 -1.1268
  943MPD2    H313846   4.305   1.338  10.594  0.3774 -0.1196  1.8721
  943MPD2     N13847   4.074   1.034  10.848  0.6078 -0.1514 -0.1459
  943MPD2    H513848   4.056   1.111  10.913 -0.8248  0.4192 -1.2077
  943MPD2    N113849   4.290   0.940  10.410  0.2254  0.1590 -0.5558
  943MPD2    H713850   4.356   0.986  10.349  0.2150  1.1980  0.2269
  944MPD2     C13851   4.364   0.264  10.876  0.4746  0.3758 -0.3255
  944MPD2    C113852   4.333   0.171  10.972  0.0492 -0.0109  0.0724
  944MPD2    C213853   4.293   0.218  11.102 -0.7033  0.2422 -0.2164
  944MPD2    C313854   4.284   0.348  11.130  0.1447 -0.0341  0.5179
  944MPD2    C413855   4.319   0.444  11.037  0.3579 -0.0315  0.6973
  944MPD2    C513856   4.352   0.395  10.912 -0.1693 -0.1332 -0.0388
  944MPD2     H13857   4.284   0.142  11.178  0.7022  1.3791  1.0769
  944MPD2    H113858   4.318   0.551  11.058  1.4827  0.4919 -1.8421
  944MPD2    H213859   4.396   0.230  10.778  0.8686  0.0853 -0.0951
  944MPD2    H313860   4.382   0.471  10.841  1.7723 -0.7589  0.0954
  944MPD2     N13861   4.235   0.382  11.259 -0.3675 -0.1108  0.2612
  944MPD2    H513862   4.196   0.308  11.316 -0.6513 -0.3003 -0.1880
  944MPD2    N113863   4.355   0.038  10.946  0.5551 -0.3657 -0.8716
  944MPD2    H713864   4.400   0.017  10.858  0.1357  0.3428 -1.2568
    1TMC1    C113865   3.071   0.550  14.489  0.2895  0.2864  0.4972
    1TMC1    C213866   2.947   0.569  14.431  0.0235  0.3429  0.6476
    1TMC1    C313867   2.915   0.491  14.320 -0.2800 -0.4085  0.0468
    1TMC1    C413868   3.155   0.467  14.427 -0.0229 -0.2228  0.9434
    1TMC1    C513869   3.113   0.391  14.323  0.0048 -0.4522 -0.4231
    1TMC1    C613870   2.990   0.393  14.269 -0.1646 -0.3613 -0.6109
    1TMC1     C13871   3.128   0.653  14.577 -0.0610 -0.3088 -0.5587
    1TMC1     O13872   3.251   0.651  14.599 -0.3592 -0.5624 -0.4179
    1TMC1     H13873   2.873   0.639  14.469 -0.3711  0.0988  0.3372
    1TMC1    H113874   3.250   0.450  14.475 -0.8522 -0.1616  2.5931
    1TMC1    H213875   2.981   0.344  14.172  0.6426 -1.5056 -0.1013
    1TMC1    C713876   3.198   0.286  14.273 -0.4742  0.1789 -0.0931
    1TMC1    C813877   2.783   0.515  14.260  0.4887 -1.4771  0.3222
    1TMC1    O113878   3.200   0.172  14.314  0.6679  0.0935 -0.4148
    1TMC1    O213879   2.753   0.634  14.249 -0.6225 -0.5245  0.3776
    1TMC1    O313880   3.297   0.357  14.215  0.7775  0.1246 -0.5630
    1TMC1    H313881   3.283   0.452  14.197 -0.9495 -0.1049 -0.4858
    1TMC1    O513882   2.692   0.422  14.303 -0.1291 -0.2339 -0.0688
    1TMC1    H513883   2.739   0.349  14.350  0.2472 -0.1459 -0.3050
    2MPD2     C13884   3.083   1.084  14.857 -0.3140 -0.5617 -0.1382
    2MPD2    C113885   2.974   1.076  14.774  0.4521  0.9758 -1.0133
    2MPD2    C213886   2.964   0.968  14.687  0.1596 -0.5030  0.4011
    2MPD2    C313887   3.061   0.869  14.687  0.5174 -0.4936  0.5971
    2MPD2    C413888   3.163   0.875  14.784  0.1160 -0.2592  0.6716
    2MPD2    C513889   3.183   0.991  14.857 -0.2591 -0.3412  0.3845
    2MPD2     H13890   2.882   0.964  14.616 -0.0178  1.1995  0.5241
    2MPD2    H113891   3.230   0.792  14.804  1.2661  0.5061  0.0385
    2MPD2    H213892   3.090   1.161  14.933  1.7986 -1.3372  0.4684
    2MPD2    H313893   3.266   1.003  14.926 -0.3492  1.7665  0.1004
    2MPD2     N13894   3.042   0.756  14.604  0.3974  0.0943 -0.4032
    2MPD2    H513895   2.952   0.765  14.558  0.4318 -0.5613 -0.5895
    2MPD2    N113896   2.883   1.189  14.768 -0.6467  0.1599  0.3662
    2MPD2    H713897   2.902   1.270  14.826 -0.4013  0.6615 -0.4160
    3TMC2    C113898   2.695   1.321  14.695 -0.0509 -0.0103  0.2776
    3TMC2    C213899   2.748   1.419  14.762  0.5849  0.3643  0.0966
    3TMC2    C313900   2.707   1.548  14.718  0.3870  1.4270  0.1397
    3TMC2    C413901   2.605   1.329  14.590  0.6183 -0.6675  0.4420
    3TMC2    C513902   2.567   1.454  14.551  0.5307  0.1186  0.5616
    3TMC2    C613903   2.620   1.566  14.611 -0.4935 -0.5887 -0.0690
    3TMC2     C13904   2.767   1.195  14.690 -0.2018  0.2182  0.2095
    3TMC2     O13905   2.721   1.105  14.619 -0.1677  0.3756  0.2061
    3TMC2     H13906   2.805   1.414  14.854  0.9756 -0.8051 -0.2228
    3TMC2    H113907   2.577   1.237  14.538 -1.4135 -0.3846  1.0077
    3TMC2    H213908   2.589   1.658  14.562  0.1124 -0.0663  0.5256
    3TMC2    C713909   2.478   1.460  14.436  0.0612 -0.5835 -0.3972
    3TMC2    C813910   2.765   1.659  14.784 -0.0494 -0.0185  0.0279
    3TMC2    O113911   2.395   1.371  14.441  0.5681 -0.2740  0.4731
    3TMC2    O213912   2.868   1.645  14.848  0.0570  0.2174  0.5925
    3TMC2    O513913   2.702   1.773  14.740  0.1416 -0.2744  0.2667
    3TMC2    H513914   2.614   1.741  14.710 -0.1168  1.4148 -0.7902
    4TMC2    C113915   2.236   2.204  13.826  0.4378 -0.4895 -0.8871
    4TMC2    C213916   2.328   2.301  13.800 -0.0259 -0.4122 -0.0826
    4TMC2    C313917   2.447   2.285  13.868  0.1309 -0.5191  0.2515
    4TMC2    C413918   2.272   2.087  13.883  0.8646  0.4583 -0.3317
    4TMC2    C513919   2.394   2.068  13.941  0.3225  0.0088 -0.2961
    4TMC2    C613920   2.474   2.173  13.941 -0.2498 -0.7916 -0.0829
    4TMC2     C13921   2.128   2.195  13.728 -0.0389 -0.1380 -0.1595
    4TMC2     O13922   2.137   2.273  13.631  0.1138  0.4909  0.0853
    4TMC2     H13923   2.308   2.384  13.734  0.6882  2.7693  3.7340
    4TMC2    H113924   2.210   1.999  13.870  2.1860 -0.5654  0.3292
    4TMC2    H213925   2.559   2.178  14.008 -0.8439  2.0338  0.4469
    4TMC2    C713926   2.442   1.947  14.006  0.0839  0.1286  0.3143
    4TMC2    C813927   2.537   2.402  13.887  0.5982  0.5849 -0.7324
    4TMC2    O113928   2.533   1.963  14.085  0.3096 -0.2246 -0.0095
    4TMC2    O213929   2.565   2.434  13.999  0.0218 -0.8000  0.2632
    4TMC2    O513930   2.506   2.491  13.793 -0.3033 -0.4260  0.1539
    4TMC2    H513931   2.480   2.447  13.709  0.5826 -1.1813  0.2827
    5MPD2     C13932   1.623   2.178  13.613 -0.0182 -0.2247  0.1282
    5MPD2    C113933   1.739   2.209  13.537  0.0302  0.2333  0.5120
    5MPD2    C213934   1.867   2.195  13.583  0.2312 -0.5247  0.2320
    5MPD2    C313935   1.888   2.142  13.706  0.4259  0.1646 -0.8843
    5MPD2    C413936   1.776   2.103  13.775  0.4384 -0.1941 -0.1993
    5MPD2    C513937   1.647   2.120  13.732 -0.1519  0.3824  0.7397
    5MPD2     H13938   1.951   2.219  13.519  0.7174 -0.9936  0.6997
    5MPD2    H113939   1.789   2.058  13.873 -2.6066 -1.6621 -0.4887
    5MPD2    H213940   1.522   2.189  13.574  1.1108 -2.0227 -3.3121
    5MPD2    H313941   1.564   2.094  13.796 -0.1172 -1.7594 -0.1130
    5MPD2     N13942   2.012   2.129  13.770 -0.7492  0.3579 -0.1209
    5MPD2    H513943   2.022   2.086  13.862 -1.6393 -0.9094 -0.6249
    5MPD2    N113944   1.710   2.253  13.407  0.3206 -0.5062  0.4557
    5MPD2    H713945   1.612   2.253  13.380  0.4561 -1.9216 -0.0382
    6MPD1     C13946   1.255   2.315  11.678  0.2735 -0.4091  0.2051
    6MPD1    C113947   1.361   2.402  11.681 -0.7662  0.2004 -0.0702
    6MPD1    C213948   1.390   2.476  11.799  0.2983 -0.3464  0.0507
    6MPD1    C313949   1.294   2.487  11.899 -0.6382 -0.0004 -0.1985
    6MPD1    C413950   1.184   2.407  11.895 -0.0091  0.1971 -0.0300
    6MPD1    C513951   1.170   2.323  11.787  0.3005 -1.0007 -0.6068
    6MPD1     H13952   1.485   2.527  11.807  0.1981  0.4086 -3.6189
    6MPD1    H113953   1.113   2.407  11.976 -1.6328  1.6404 -1.4671
    6MPD1    H213954   1.232   2.245  11.598 -0.3807  1.0722 -0.8938
    6MPD1    H313955   1.082   2.260  11.786 -0.5965  0.2556 -1.1781
    6MPD1     N13956   1.316   2.544  12.026 -0.5344  0.3375  0.5378
    6MPD1    H513957   1.249   2.527  12.100 -0.7824 -0.8182  0.0490
    6MPD1    N113958   1.454   2.404  11.578  0.1131 -0.4807  0.6504
    6MPD1    H613959   1.412   2.372  11.491  1.2850 -0.1056 -0.0391
    6MPD1    H713960   1.501   2.494  11.568 -0.2699 -0.3712 -0.1869
    7MPD2     C13961   1.063   2.366  12.655 -0.6906 -1.4020 -0.0556
    7MPD2    C113962   1.163   2.442  12.698  0.6231  0.3169 -0.1535
    7MPD2    C213963   1.232   2.414  12.815 -0.7101  0.3249  0.4422
    7MPD2    C313964   1.206   2.293  12.881 -0.3624  1.6739  0.1781
    7MPD2    C413965   1.110   2.209  12.833 -0.3967  0.3427  0.2631
    7MPD2    C513966   1.034   2.251  12.728 -0.2046 -0.0899  0.2500
    7MPD2     H13967   1.313   2.479  12.845  1.0753 -1.9447  0.5339
    7MPD2    H113968   1.081   2.117  12.882  0.6698  1.2409  2.6286
    7MPD2    H213969   0.998   2.387  12.570 -2.4149 -4.4699  0.4956
    7MPD2    H313970   0.963   2.178  12.690 -1.0460  0.8942 -0.0610
    7MPD2     N13971   1.281   2.247  12.998  0.4847 -0.4560 -0.0626
    7MPD2    H513972   1.280   2.146  13.014  0.0979 -0.3082  0.8826
    7MPD2    N113973   1.226   2.543  12.615  0.1752  0.2280  0.4557
    7MPD2    H713974   1.316   2.575  12.648  0.1233  1.5928 -0.7361
    8TMC3    C113975   1.504   2.242  13.091  0.5480  1.0105 -0.1692
    8TMC3    C213976   1.577   2.297  13.195  0.0075 -0.6758 -0.2117
    8TMC3    C313977   1.713   2.274  13.183  0.8656  0.0070 -0.5410
    8TMC3    C413978   1.556   2.168  12.987 -0.3277  0.0470  0.3926
    8TMC3    C513979   1.695   2.153  12.984 -0.3279 -0.1036  0.1558
    8TMC3    C613980   1.775   2.206  13.085  0.3467  0.7859 -0.3850
    8TMC3     C13981   1.386   2.321  13.056 -0.6686  0.0299 -0.2579
    8TMC3     O13982   1.390   2.443  13.071  0.0906 -0.0676 -0.4699
    8TMC3     H13983   1.537   2.375  13.259 -0.0813 -0.2498 -0.7887
    8TMC3    H113984   1.482   2.130  12.918 -0.2370  2.0773 -0.7966
    8TMC3    H213985   1.872   2.160  13.100  0.0848  0.2701 -0.2784
    8TMC3    C713986   1.745   2.156  12.850 -0.0104  1.0002 -1.0620
    8TMC3    C813987   1.792   2.277  13.300  0.4998  0.1746 -0.4665
    8TMC3    O113988   1.670   2.130  12.756 -0.1732 -0.3423  0.2265
    8TMC3    O213989   1.915   2.270  13.284  0.2359  0.5777 -0.5617
    9TMC3    C113990   1.422   2.657  12.199 -0.0526 -0.0223 -0.2066
    9TMC3    C213991   1.540   2.702  12.258 -0.3720  0.1961  0.0638
    9TMC3    C313992   1.554   2.680  12.397 -1.1245 -0.3001 -0.0504
    9TMC3    C413993   1.313   2.625  12.277  0.4540 -0.3238  0.2853
    9TMC3    C513994   1.321   2.620  12.412  0.0482  0.3242  0.6599
    9TMC3    C613995   1.447   2.630  12.474  0.7222  0.3772 -0.4001
    9TMC3     C13996   1.418   2.626  12.064  0.0350 -0.2045  0.4915
    9TMC3     O13997   1.502   2.681  11.993 -0.1907 -0.0305 -0.2390
    9TMC3     H13998   1.629   2.714  12.196 -0.5058 -1.3175 -0.4116
    9TMC3    H113999   1.218   2.605  12.231  1.1450  0.0461 -1.3082
    9TMC3    H214000   1.458   2.620  12.581  1.5642 -0.4993 -0.5650
    9TMC3    C714001   1.210   2.554  12.480  0.1784  0.5865 -0.6932
    9TMC3    C814002   1.685   2.643  12.428 -0.2153  0.3281  0.0952
    9TMC3    O114003   1.113   2.533  12.407 -0.0356  0.1459 -0.1658
    9TMC3    O214004   1.781   2.700  12.372  0.2300 -0.1874 -0.4912
   10MPD2     C14005   2.005   2.371  12.711 -0.5772 -0.0204 -0.4360
   10MPD2    C114006   1.882   2.324  12.732 -0.2882 -0.7198 -0.1480
   10MPD2    C214007   1.778   2.373  12.658 -0.4642 -0.2743 -0.0385
   10MPD2    C314008   1.801   2.473  12.570  0.1900  0.2476 -0.1203
   10MPD2    C414009   1.930   2.524  12.542 -0.4824 -0.1626  0.0806
   10MPD2    C514010   2.031   2.467  12.615 -0.2237  0.0311 -1.1195
   10MPD2     H14011   1.677   2.342  12.679 -0.4412 -1.6038 -1.8446
   10MPD2    H114012   1.956   2.598  12.468  0.1974 -1.4155 -0.9424
   10MPD2    H214013   2.088   2.339  12.772 -0.6447  0.9395  0.1614
   10MPD2    H314014   2.131   2.504  12.601 -0.1628 -0.1153 -1.0764
   10MPD2     N14015   1.684   2.530  12.510 -0.2366 -0.6060 -0.1148
   10MPD2    H514016   1.595   2.495  12.542 -0.4905  0.1656  0.0395
   10MPD2    N114017   1.852   2.237  12.843  0.1343 -0.9597 -0.1868
   10MPD2    H714018   1.905   2.262  12.926 -0.8030 -1.1154  0.4629
   11MPD2     C14019   2.367   1.469  14.162  0.1945  0.2599  0.3886
   11MPD2    C114020   2.429   1.575  14.227  0.3427  0.7838 -0.0794
   11MPD2    C214021   2.436   1.695  14.160 -0.0234  0.2438  0.2005
   11MPD2    C314022   2.371   1.710  14.037  0.2832 -0.9707  0.2327
   11MPD2    C414023   2.322   1.608  13.967 -0.3585  0.4879 -0.6826
   11MPD2    C514024   2.318   1.484  14.032 -0.4844  0.2299  0.0571
   11MPD2     H14025   2.479   1.778  14.215  0.9399  0.0444 -0.2652
   11MPD2    H114026   2.270   1.613  13.872 -1.1633  2.7915 -0.1081
   11MPD2    H214027   2.365   1.368  14.201  0.2356  0.5818  1.2228
   11MPD2    H314028   2.294   1.402  13.966 -1.8426  0.2173  0.5727
   11MPD2     N14029   2.373   1.836  13.971  0.3657  0.0301  0.2825
   11MPD2    H514030   2.311   1.839  13.891 -1.4269  0.7086  1.6683
   11MPD2    N114031   2.485   1.568  14.354 -0.5064 -0.0113  0.0300
   11MPD2    H714032   2.552   1.640  14.382 -0.2266 -0.0583 -0.5079
    1MPD1     C14033   1.208   2.404  17.458 -0.4717  0.4612 -0.4875
    1MPD1    C114034   1.219   2.469  17.342  0.1294 -0.0042  0.6266
    1MPD1    C214035   1.114   2.540  17.285  0.3311 -0.2917  0.4100
    1MPD1    C314036   0.991   2.550  17.358  0.4864  0.9008  0.6271
    1MPD1    C414037   0.984   2.484  17.480  0.2223  0.5346  0.6113
    1MPD1    C514038   1.085   2.409  17.523 -0.4487  0.1887 -0.0662
    1MPD1     H14039   1.141   2.594  17.195 -1.3579 -1.1212 -0.6043
    1MPD1    H114040   0.888   2.483  17.530 -0.6627 -0.3482 -1.0788
    1MPD1    H214041   1.288   2.364  17.519 -0.8021 -1.6495 -1.4406
    1MPD1    H314042   1.060   2.352  17.612  0.8366  0.1331  0.2728
    1MPD1     N14043   0.879   2.615  17.305  0.4497  0.1013 -0.2577
    1MPD1    H514044   0.794   2.615  17.360 -0.3453  0.5692 -1.4838
    1MPD1    N114045   1.345   2.497  17.293  0.4072  0.2983 -0.3717
    1MPD1    H614046   1.342   2.512  17.192  0.9654  2.3012 -0.0944
    1MPD1    H714047   1.398   2.412  17.308 -0.2508  0.1884  1.2862
    2MPD1     C14048   0.112   2.729  17.617 -0.8481  0.3194 -0.8202
    2MPD1    C114049   0.234   2.676  17.654  0.2301  0.0222 -0.2935
    2MPD1    C214050   0.336   2.693  17.563  0.1531 -0.0168 -0.4562
    2MPD1    C314051   0.323   2.768  17.445  0.3772 -0.0293 -0.1894
    2MPD1    C414052   0.193   2.808  17.408 -0.2284 -0.7510  0.7854
    2MPD1    C514053   0.092   2.795  17.498 -0.4171  0.5066 -0.1219
    2MPD1     H14054   0.426   2.637  17.585  0.9460  0.5454 -2.1934
    2MPD1    H114055   0.174   2.856  17.313  0.2655 -1.8231  0.1548
    2MPD1    H214056   0.034   2.727  17.693 -2.0191  0.1115 -2.0260
    2MPD1    H314057   4.730   2.829  17.476  0.3615  1.5112 -2.1434
    2MPD1     N14058   0.432   2.785  17.360  0.2377  0.1697 -0.7894
    2MPD1    H514059   0.524   2.765  17.397  1.4749  3.9348 -1.8076
    2MPD1    N114060   0.240   2.584   0.011  0.0398 -0.1227  0.1784
    2MPD1    H614061   0.335   2.570   0.045 -0.1380 -0.4624  0.5340
    2MPD1    H714062   0.181   2.603   0.093  1.6085 -0.5413  1.4020
    3TMC3    C114063   0.569   2.875  17.194  0.7010 -0.2494  0.3766
    3TMC3    C214064   0.591   2.973  17.096  0.3008  0.0869 -0.2505
    3TMC3    C314065   0.721   2.973  17.044 -0.1626 -0.1725 -0.8885
    3TMC3    C414066   0.661   2.776  17.218  0.1859  0.2313 -0.1746
    3TMC3    C514067   0.781   2.780  17.153 -0.1902 -0.5931 -0.2631
    3TMC3    C614068   0.820   2.889  17.081  0.3593  0.2874  0.1112
    3TMC3     C14069   0.432   2.854  17.237  0.4921  0.9746  0.1229
    3TMC3     O14070   0.341   2.897  17.168  0.1919 -0.1268  0.0163
    3TMC3     H14071   0.518   3.049  17.071  1.9578  1.6978 -0.1973
    3TMC3    H114072   0.629   2.679  17.255  1.0324 -0.4658 -1.2409
    3TMC3    H214073   0.923   2.903  17.049 -0.0028  0.3251 -1.0407
    3TMC3    C714074   0.885   2.679  17.175 -0.3190  0.2757 -0.4231
    3TMC3    C814075   0.750   3.083  16.952  0.0461 -0.2062  0.1806
    3TMC3    O114076   0.950   2.651  17.077 -0.1215  0.0248 -0.6040
    3TMC3    O214077   0.675   3.178  16.965  0.1509 -0.6927  0.1734
    4MPD1     C14078   0.974   3.324  16.561  0.2507 -0.6708 -0.3048
    4MPD1    C114079   1.037   3.203  16.570 -0.2200 -0.3131 -1.0920
    4MPD1    C214080   0.992   3.120  16.667 -0.5641 -0.0056 -0.0152
    4MPD1    C314081   0.894   3.158  16.764  0.1333  0.5818  0.6915
    4MPD1    C414082   0.853   3.284  16.758  0.1380 -0.5612  0.3622
    4MPD1    C514083   0.886   3.367  16.659  0.0378 -0.3360 -0.1426
    4MPD1     H14084   1.036   3.021  16.673 -1.4481 -0.5356 -2.3409
    4MPD1    H114085   0.786   3.324  16.833 -0.3830  1.9731 -1.4379
    4MPD1    H214086   0.993   3.402  16.488  3.7761 -2.3753 -1.2191
    4MPD1    H314087   0.846   3.467  16.651 -0.8908 -0.8763 -2.3360
    4MPD1     N14088   0.854   3.066  16.868  0.3156  0.0405 -0.7687
    4MPD1    H514089   0.886   2.970  16.865 -0.1369 -0.1250 -0.3172
    4MPD1    N114090   1.130   3.167  16.474  0.3085 -0.0616 -0.0481
    4MPD1    H614091   1.175   3.251  16.439 -2.1610  1.4631  0.4128
    4MPD1    H714092   1.207   3.113  16.515  0.2062 -0.1935 -0.0265
    1TCq1    O114093   0.407   3.360  10.504  0.8375 -0.0663  0.0508
    1TCq1    C114094   0.506   3.402  10.589  1.1946  0.1111  0.2718
    1TCq1    O214095   0.550   3.516  10.603  0.4926  0.3967  0.0500
    1TCq1    C214096   0.531   3.306  10.692  0.0348 -0.1452  0.1146
    1TCq1    C314097   0.567   3.358  10.814  0.2169 -1.1716  0.1680
    1TCq1    C414098   0.588   3.268  10.918  0.3583  0.0838 -0.4684
    1TCq1    C514099   0.591   3.134  10.894  0.5741 -0.1997 -0.1818
    1TCq1    C614100   0.567   3.091  10.764  0.4961  0.1205  0.1014
    1TCq1    C714101   0.539   3.172  10.659 -0.4101 -0.0668 -0.2914
    1TCq1    C814102   0.608   2.958  10.723 -0.0371 -0.7101  0.4115
    1TCq1    O414103   0.579   2.923  10.607 -0.5564  0.5787 -0.7054
    1TCq1    C914104   0.657   3.318  11.031 -0.2476 -0.3133  0.8463
    1TCq1    O514105   0.671   3.443  11.047 -0.1219  0.0561 -0.1893
    1TCq1    O614106   0.678   3.233  11.120 -0.3918 -0.1667  0.5004
    1TCq1    H114107   0.366   3.281  10.543 -3.3927  2.8884  1.6126
    1TCq1    H214108   0.545   3.461  10.841 -0.1410 -1.6010  1.5257
    1TCq1    H314109   0.632   3.068  10.970  0.9751 -0.0734 -0.2848
    1TCq1    H414110   0.524   3.139  10.557 -0.7556 -2.8033  0.6719
    2MPD1     C14111   0.931   2.552  10.778 -0.3930 -0.4476  0.3727
    2MPD1    C114112   0.955   2.641  10.880  0.3239  0.4880  0.6845
    2MPD1    C214113   0.868   2.743  10.884 -0.6228  0.0109  0.2195
    2MPD1    C314114   0.764   2.768  10.795  0.1230  0.0313 -0.6739
    2MPD1    C414115   0.753   2.679  10.685  0.5885 -0.4796  0.0845
    2MPD1    C514116   0.830   2.566  10.689  0.5799  0.5388  1.0679
    2MPD1     H14117   0.876   2.812  10.967 -0.2615  0.1420  0.0726
    2MPD1    H114118   0.689   2.691  10.598 -2.1849  2.0674  2.4382
    2MPD1    H214119   0.991   2.462  10.779  0.7306  0.3262  2.0957
    2MPD1    H314120   0.812   2.491  10.613 -0.1976  1.2257  0.5660
    2MPD1     N14121   0.707   2.903  10.802 -0.0901 -0.0801  0.0997
    2MPD1    H514122   0.719   2.955  10.889  0.0372 -1.1205  0.6966
    2MPD1    N114123   1.044   2.616  10.981  0.5271 -0.4415  0.1101
    2MPD1    H614124   1.115   2.544  10.965 -0.6107 -1.5673  0.1675
    2MPD1    H714125   1.087   2.695  11.030 -0.0288  1.1838 -2.0326
    1TMC1    C114126   0.724   0.976   0.444 -0.4806 -0.2168  0.2060
    1TMC1    C214127   0.590   0.985   0.446  0.2076 -0.9778 -0.4268
    1TMC1    C314128   0.520   0.890   0.513 -0.0481  0.1959 -1.0149
    1TMC1    C414129   0.787   0.877   0.506  0.1540 -0.7495 -0.1546
    1TMC1    C514130   0.710   0.789   0.572 -0.0521  0.2869  0.1496
    1TMC1    C614131   0.577   0.794   0.583 -0.2041  0.0651  0.3328
    1TMC1     C14132   0.807   1.093   0.404  0.3782 -0.5292 -0.2714
    1TMC1     O14133   0.926   1.077   0.387  0.4394 -0.2329  0.0457
    1TMC1     H14134   0.529   1.049   0.384  0.9311 -0.3181 -0.4546
    1TMC1    H114135   0.892   0.861   0.482  0.0403  0.6125 -1.5878
    1TMC1    H214136   0.521   0.717   0.634 -1.0089  1.0674  0.9551
    1TMC1    C714137   0.782   0.682   0.640 -0.3371  0.2268  0.2862
    1TMC1    C814138   0.384   0.866   0.485  0.7840  0.2481  0.0735
    1TMC1    O114139   0.714   0.605   0.703  0.6195 -0.1917  0.5060
    1TMC1    O214140   0.321   0.760   0.491 -0.4624 -0.0944  0.3329
    1TMC1    O314141   0.911   0.716   0.661 -0.7409  0.8432  0.2223
    1TMC1    H314142   0.966   0.652   0.710 -0.2715  0.7024 -0.4772
    1TMC1    O514143   0.323   0.992   0.485  0.1859  0.2617  0.6057
    1TMC1    H514144   0.393   1.057   0.508  0.5433 -0.0129  0.3067
    2MPD1     C14145   0.832   1.592   0.293  0.8328 -0.7026  0.6307
    2MPD1    C114146   0.701   1.559   0.289 -0.8278  0.3826  0.0953
    2MPD1    C214147   0.672   1.425   0.305  0.2585 -1.0637 -0.1027
    2MPD1    C314148   0.766   1.333   0.340 -0.8875 -0.0702 -0.2537
    2MPD1    C414149   0.893   1.375   0.370 -0.5558 -0.7051 -0.1729
    2MPD1    C514150   0.922   1.503   0.352  0.1763 -0.0458 -0.3606
    2MPD1     H14151   0.569   1.397   0.286  0.4617 -1.1627 -1.0552
    2MPD1    H114152   0.975   1.308   0.393  0.4353 -0.0410 -1.7406
    2MPD1    H214153   0.877   1.687   0.266  0.4354 -1.0020 -1.0910
    2MPD1    H314154   1.025   1.537   0.359 -0.6883  2.1496  1.8280
    2MPD1     N14155   0.722   1.200   0.365 -0.0692  0.0564  0.5182
    2MPD1    H514156   0.621   1.188   0.360  0.0149  0.5366 -2.2003
    2MPD1    N114157   0.610   1.652   0.240  0.3521 -0.2240  0.2702
    2MPD1    H614158   0.632   1.743   0.279  0.1795 -1.4833  3.2707
    2MPD1    H714159   0.516   1.615   0.253 -0.8473  2.0689 -1.8902
    1MPD1     C14160   2.118   2.249  12.133  0.4683 -0.5310  0.0614
    1MPD1    C114161   2.092   2.360  12.216 -0.7282  0.3903  0.1818
    1MPD1    C214162   2.190   2.445  12.258  0.0044  0.0651 -0.5473
    1MPD1    C314163   2.318   2.425  12.217  0.2236  0.2540  0.4178
    1MPD1    C414164   2.342   2.315  12.132 -0.7942  0.1284 -0.0820
    1MPD1    C514165   2.245   2.231  12.099  0.6083  0.6367  0.7700
    1MPD1     H14166   2.161   2.521  12.330 -3.5264 -2.2934  0.4984
    1MPD1    H114167   2.439   2.290  12.091  0.0908 -0.6051  2.4459
    1MPD1    H214168   2.043   2.175  12.109 -0.0901  0.5654 -1.5437
    1MPD1    H314169   2.267   2.142  12.039  0.1409  1.4852 -0.6698
    1MPD1     N14170   2.419   2.514  12.252  0.1691  0.3485 -0.7265
    1MPD1    H514171   2.392   2.592  12.312  0.1355 -1.0769  1.1039
    1MPD1    N114172   1.959   2.396  12.240  0.1033 -0.1400 -0.5751
    1MPD1    H614173   1.906   2.392  12.153  1.1247  3.3135 -1.3813
    1MPD1    H714174   1.963   2.488  12.284  0.3910 -0.2496 -0.3767
    2MPD1     C14175   1.996   3.492  11.119  0.1346 -0.4215 -0.3260
    2MPD1    C114176   2.024   3.536  10.996  0.2418  0.2190 -0.4020
    2MPD1    C214177   2.130   3.481  10.927 -0.1008 -0.2843 -0.5174
    2MPD1    C314178   2.195   3.371  10.975  0.2774  0.2956 -1.0988
    2MPD1    C414179   2.160   3.315  11.093  0.1043  0.8326  0.5973
    2MPD1    C514180   2.064   3.381  11.172 -0.0632 -0.1212  0.5944
    2MPD1     H14181   2.161   3.531  10.836  0.4137  1.5299  0.6626
    2MPD1    H114182   2.217   3.235  11.138 -2.3715 -0.5083  1.3361
    2MPD1    H214183   1.937   3.552  11.187 -1.0349 -0.0960 -1.6235
    2MPD1    H314184   2.023   3.346  11.266  1.5347 -1.1871  0.9080
    2MPD1     N14185   2.297   3.303  10.914 -0.4098 -0.3013  0.4840
    2MPD1    H514186   2.359   3.247  10.972 -2.4666 -0.2625  2.7404
    2MPD1    N114187   1.967   3.662  10.960  0.1613  0.0330 -0.8921
    2MPD1    H614188   1.969   3.661  10.858 -1.6902 -0.2003 -0.9293
    2MPD1    H714189   1.869   3.678  10.985 -0.1635 -1.1043 -1.4084
    3MPD1     C14190   2.423   2.725  10.158 -0.1875  0.0645 -0.4640
    3MPD1    C114191   2.353   2.725  10.273  0.2944 -0.4868  0.1438
    3MPD1    C214192   2.370   2.828  10.355  0.2747  0.0705  0.5995
    3MPD1    C314193   2.480   2.913  10.340 -0.1288  0.2273 -0.1303
    3MPD1    C414194   2.563   2.901  10.228 -0.3390  0.8576  0.0483
    3MPD1    C514195   2.529   2.808  10.132 -0.2916 -0.1628 -0.3434
    3MPD1     H14196   2.302   2.835  10.440  0.7035 -0.8328  1.0160
    3MPD1    H114197   2.639   2.976  10.209 -0.4514  0.5989 -1.4560
    3MPD1    H214198   2.396   2.656  10.079  1.3592  1.5584 -2.2908
    3MPD1    H314199   2.576   2.804  10.035  1.7439 -1.4831  0.6715
    3MPD1     N14200   2.507   3.014  10.439 -0.7272  0.0444  0.1216
    3MPD1    H514201   2.443   3.007  10.518 -0.3738  0.7428  0.4680
    3MPD1    N114202   2.243   2.637  10.281 -0.1291  0.0825 -0.1146
    3MPD1    H614203   2.230   2.603  10.376  0.2262  0.2213 -0.0138
    3MPD1    H714204   2.260   2.549  10.231 -1.0447  0.7768 -1.6427
    4MPD2     C14205   2.646   3.185  12.016  0.3668  0.0169 -0.1408
    4MPD2    C114206   2.746   3.092  12.040 -0.0019  0.2797 -0.7872
    4MPD2    C214207   2.858   3.101  11.963 -0.4086  0.1835 -0.8707
    4MPD2    C314208   2.863   3.189  11.854 -0.0687 -0.5361  0.0242
    4MPD2    C414209   2.759   3.274  11.832  0.1387 -0.5355  0.2186
    4MPD2    C514210   2.650   3.275  11.910  0.4690 -0.0585 -0.5063
    4MPD2     H14211   2.945   3.043  11.990 -1.7833 -0.9599  1.0982
    4MPD2    H114212   2.764   3.343  11.749  1.1166 -2.0586 -1.0139
    4MPD2    H214213   2.569   3.201  12.091 -0.8279 -1.6853 -0.9890
    4MPD2    H314214   2.567   3.337  11.880 -0.3529 -1.3751 -0.9640
    4MPD2     N14215   2.980   3.191  11.773 -0.0434 -0.3168 -0.0476
    4MPD2    H514216   2.969   3.262  11.701  0.6877 -0.7252 -0.5727
    4MPD2    N114217   2.747   2.998  12.144 -0.1749  0.1453  0.2670
    4MPD2    H714218   2.838   2.953  12.152 -0.7674 -0.7879  1.7070
    5TMC3    C114219   2.662   2.843  12.286  0.1700  0.3246  0.3039
    5TMC3    C214220   2.570   2.740  12.268 -0.1460  0.4728  0.4221
    5TMC3    C314221   2.628   2.617  12.249 -0.5631 -0.2210 -0.0190
    5TMC3    C414222   2.798   2.824  12.302 -0.1784  0.1407  0.1466
    5TMC3    C514223   2.848   2.698  12.280  0.6762  0.3572 -0.6362
    5TMC3    C614224   2.762   2.599  12.245  0.0077  0.3678  0.6827
    5TMC3     C14225   2.627   2.961  12.209 -0.2453  0.4832  0.6411
    5TMC3     O14226   2.511   2.983  12.183  0.6061  0.5481 -0.2605
    5TMC3     H14227   2.465   2.767  12.263 -0.2125  0.1985  0.3006
    5TMC3    H114228   2.862   2.904  12.337 -0.9359  1.4734 -1.4874
    5TMC3    H214229   2.809   2.504  12.221 -0.8203  0.0985  0.1150
    5TMC3    C714230   2.966   2.719  12.193 -0.1234  0.6489 -0.4151
    5TMC3    C814231   2.553   2.497  12.224 -0.5005  0.0417  0.8186
    5TMC3    O114232   2.997   2.835  12.174  0.5868  0.4898 -0.0494
    5TMC3    O214233   2.612   2.394  12.190 -0.4796  0.4656  0.2555
    6TMC3    C114234   2.456   3.255  10.740  0.6154 -0.0513  0.7496
    6TMC3    C214235   2.474   3.234  10.605  0.2375 -0.1938  1.0331
    6TMC3    C314236   2.597   3.184  10.566 -0.2257 -0.4119 -0.4471
    6TMC3    C414237   2.552   3.231  10.834 -0.2301 -0.3856 -0.0553
    6TMC3    C514238   2.678   3.193  10.788  0.2016 -0.3350 -0.0676
    6TMC3    C614239   2.705   3.175  10.657  0.3753 -0.0487  0.0288
    6TMC3     C14240   2.334   3.322  10.780  0.0837  0.3605  0.3617
    6TMC3     O14241   2.272   3.386  10.692 -0.1091 -0.2926  0.0707
    6TMC3     H14242   2.385   3.246  10.544 -0.2560 -2.0475  1.3882
    6TMC3    H114243   2.538   3.252  10.940  2.0956  0.3057  0.1084
    6TMC3    H214244   2.796   3.140  10.610 -0.9790 -0.9744 -1.9316
    6TMC3    C714245   2.770   3.150  10.890  0.8315 -0.0899 -0.1631
    6TMC3    C814246   2.602   3.110  10.443 -0.0031  0.2331  0.3406
    6TMC3    O114247   2.767   3.211  10.992 -0.1786  0.1188 -0.0070
    6TMC3    O214248   2.712   3.107  10.389  0.1112  0.1255 -0.3585
    7MPD2     C14249   3.301   2.559  11.832  0.4362 -0.8788 -0.3324
    7MPD2    C114250   3.261   2.685  11.872 -0.7198  0.6272  0.6677
    7MPD2    C214251   3.175   2.710  11.982  0.2292  0.4908 -0.0217
    7MPD2    C314252   3.123   2.597  12.046 -0.0622  0.2009 -0.3024
    7MPD2    C414253   3.164   2.471  12.007  0.0507  0.3914  0.1196
    7MPD2    C514254   3.253   2.455  11.899  0.6779  0.5620  0.2111
    7MPD2     H14255   3.163   2.809  12.022  0.7371  0.0536  1.2128
    7MPD2    H114256   3.144   2.384  12.068  0.9032  0.2457  0.1935
    7MPD2    H214257   3.344   2.549  11.732  0.5553 -0.5440 -0.3128
    7MPD2    H314258   3.285   2.356  11.869  1.6233  1.6471 -2.3233
    7MPD2     N14259   3.021   2.601  12.141  0.8042  0.5382 -0.3512
    7MPD2    H514260   3.003   2.520  12.199  1.6756  1.2462  0.8770
    7MPD2    N114261   3.285   2.804  11.801 -0.1457  0.2292  0.3131
    7MPD2    H714262   3.242   2.885  11.843  2.0867  3.2989 -3.2819
    8TMC3    C114263   3.314   2.937  11.607 -0.9008 -0.4612  0.5126
    8TMC3    C214264   3.250   2.917  11.486  0.1891  0.9527  0.1327
    8TMC3    C314265   3.143   2.997  11.458  0.3162  0.4192 -0.4600
    8TMC3    C414266   3.282   3.042  11.693  0.5858  0.0174  0.7184
    8TMC3    C514267   3.177   3.122  11.657  0.3708 -0.8585  0.2796
    8TMC3    C614268   3.108   3.098  11.544 -0.0199  0.9789  0.6321
    8TMC3     C14269   3.339   2.812  11.674  0.8772 -0.2117 -0.5595
    8TMC3     O14270   3.367   2.724  11.588  0.1817 -1.1238 -0.6604
    8TMC3     H14271   3.295   2.850  11.413 -0.4011 -0.7029  1.2874
    8TMC3    H114272   3.335   3.067  11.784  1.3718 -0.5848  0.4303
    8TMC3    H214273   3.014   3.149  11.522 -0.4846 -1.4897 -3.1096
    8TMC3    C714274   3.094   3.115  11.781 -0.0987  0.3033 -0.2998
    8TMC3    C814275   3.072   2.992  11.331 -1.3635  0.5574 -0.0192
    8TMC3    O114276   3.139   3.047  11.872 -0.4616  0.2944  0.9977
    8TMC3    O214277   2.982   3.076  11.321  0.1286 -0.4301  0.8625
    9MPD2     C14278   3.164   2.837  11.012  0.7523  0.5769 -0.3955
    9MPD2    C114279   3.086   2.913  11.098  0.7361  0.4032 -0.3207
    9MPD2    C214280   2.983   2.982  11.044  0.4998 -0.2151  0.4904
    9MPD2    C314281   2.965   2.993  10.909  0.2527  0.9750  0.6774
    9MPD2    C414282   3.040   2.914  10.828  0.5674 -0.0048  0.4703
    9MPD2    C514283   3.139   2.832  10.877  0.5583  0.2081  0.1288
    9MPD2     H14284   2.908   3.023  11.111  0.7659 -0.8170  1.1537
    9MPD2    H114285   3.023   2.919  10.721 -1.3729  0.4952  0.7992
    9MPD2    H214286   3.246   2.778  11.051 -0.0271 -0.4576 -0.3283
    9MPD2    H314287   3.212   2.788  10.809 -0.7595 -0.0797 -1.0963
    9MPD2     N14288   2.855   3.054  10.849 -0.0379  0.3012 -0.2793
    9MPD2    H514289   2.851   3.014  10.756 -1.3089 -1.1560  0.4071
    9MPD2    N114290   3.121   2.912  11.237 -0.2510 -0.5122  0.2566
    9MPD2    H714291   3.207   2.862  11.256  0.1425 -0.8745 -2.4541
    1MPD1     C14292   1.918   0.747  15.567 -0.1356 -0.0108 -0.6341
    1MPD1    C114293   1.945   0.876  15.603  0.5835 -0.5002 -0.4796
    1MPD1    C214294   2.022   0.953  15.512  0.2029 -0.7545  0.2970
    1MPD1    C314295   2.060   0.906  15.389 -0.4179 -0.4815  0.2903
    1MPD1    C414296   2.027   0.780  15.364 -0.0628  0.0722  0.6899
    1MPD1    C514297   1.958   0.696  15.447 -0.4484 -0.7789 -0.2744
    1MPD1     H14298   2.044   1.051  15.553  2.4836 -0.5875 -1.3291
    1MPD1    H114299   2.048   0.737  15.267  0.3481  0.0008  0.8144
    1MPD1    H214300   1.869   0.676  15.632 -1.2159  1.5398  0.2364
    1MPD1    H314301   1.937   0.597  15.407 -0.1186  0.4333 -3.4673
    1MPD1     N14302   2.140   0.970  15.289 -0.1359 -0.1859  0.7063
    1MPD1    H514303   2.152   0.921  15.201  0.9470  1.0165  0.1957
    1MPD1    N114304   1.919   0.924  15.730 -0.0803  0.0614 -0.1779
    1MPD1    H614305   1.837   0.878  15.770 -1.4365  0.8009 -2.1595
    1MPD1    H714306   1.893   1.022  15.740 -0.2156  0.0439 -0.3551
    2TMC2    C114307   2.477   1.215  15.129 -0.6531 -0.3764 -0.2936
    2TMC2    C214308   2.434   1.191  15.002  0.2896 -0.6730 -0.2471
    2TMC2    C314309   2.311   1.152  14.973 -0.6506 -0.1572  0.1508
    2TMC2    C414310   2.387   1.207  15.237 -0.2869 -0.0646  0.2719
    2TMC2    C514311   2.262   1.160  15.206  0.4990  0.6346  0.0595
    2TMC2    C614312   2.226   1.124  15.077 -0.4933 -0.4919 -0.3814
    2TMC2     C14313   2.621   1.229  15.146 -0.7777 -0.2302 -0.2016
    2TMC2     O14314   2.692   1.209  15.049  0.6035 -0.3228 -0.2625
    2TMC2     H14315   2.508   1.201  14.923  0.5524 -1.1880 -0.0607
    2TMC2    H114316   2.418   1.214  15.340 -1.3280 -0.8495  0.6273
    2TMC2    H214317   2.131   1.075  15.059 -0.0631 -1.5555  0.2027
    2TMC2    C714318   2.184   1.103  15.318  0.6053  0.0710 -0.9178
    2TMC2    C814319   2.275   1.094  14.850 -0.0981 -0.5392  0.2748
    2TMC2    O114320   2.165   1.168  15.419  0.1337 -0.4480  0.2605
    2TMC2    O214321   2.200   0.997  14.831 -0.3486 -0.0092  0.1827
    2TMC2    O514322   2.300   1.194  14.770 -0.1951  0.3374  0.2455
    2TMC2    H514323   2.334   1.272  14.819 -0.3049 -0.1366  1.0890
    3MPD1     C14324   3.055   1.319  15.412  0.3998  0.1164  0.1376
    3MPD1    C114325   2.947   1.327  15.496 -0.1973 -0.0110 -0.1026
    3MPD1    C214326   2.817   1.311  15.444 -0.5659  0.2468  0.0544
    3MPD1    C314327   2.793   1.285  15.313 -0.8301 -0.1928 -0.3375
    3MPD1    C414328   2.904   1.273  15.232  0.6852  0.1074 -0.4852
    3MPD1    C514329   3.039   1.292  15.278  0.4618  0.1091  0.0778
    3MPD1     H14330   2.730   1.329  15.505 -1.1954 -1.2866 -0.3780
    3MPD1    H114331   2.894   1.261  15.125  0.9227  1.7034 -0.6896
    3MPD1    H214332   3.155   1.351  15.436  0.9206 -2.4712  1.4921
    3MPD1    H314333   3.124   1.295  15.212 -0.7431  0.7944 -1.4594
    3MPD1     N14334   2.658   1.266  15.270 -0.0756 -0.2723  0.0571
    3MPD1    H514335   2.587   1.308  15.329 -0.8711  4.5569 -4.3662
    3MPD1    N114336   2.968   1.380  15.624  0.4020 -0.6020  0.9920
    3MPD1    H614337   2.887   1.368  15.683 -0.5392  0.7365 -0.0324
    3MPD1    H714338   3.049   1.333  15.664  0.6560  1.1238  2.5202
    1TMC1    C114339   1.461   0.993  13.139  0.5005 -0.1605 -0.6794
    1TMC1    C214340   1.414   1.019  13.261  0.0784 -0.2488  0.2258
    1TMC1    C314341   1.328   1.122  13.274  0.3328  0.3712 -0.1307
    1TMC1    C414342   1.424   1.063  13.026  0.1000  0.4807  0.3044
    1TMC1    C514343   1.328   1.159  13.039  0.1549 -0.2163  0.6054
    1TMC1    C614344   1.281   1.194  13.164  0.2137  0.1515  1.0393
    1TMC1     C14345   1.583   0.922  13.124  0.2783 -0.4288 -0.6619
    1TMC1     O14346   1.637   0.916  13.014 -0.0944  0.0729 -0.2803
    1TMC1     H14347   1.457   0.968  13.346  1.8197  0.2727 -0.3437
    1TMC1    H114348   1.479   1.046  12.935 -1.1800 -0.6774 -0.2670
    1TMC1    H214349   1.201   1.266  13.175  0.9539  1.0883  0.2245
    1TMC1    C714350   1.295   1.261  12.937  0.1106 -0.0708 -0.7578
    1TMC1    C814351   1.298   1.177  13.401  0.3374 -0.0031 -0.1686
    1TMC1    O114352   1.182   1.302  12.923  0.7893  0.1869  0.2673
    1TMC1    O214353   1.283   1.293  13.431 -0.0975 -0.7560 -0.0907
    1TMC1    O314354   1.405   1.342  12.922 -0.9321  0.0639  0.5321
    1TMC1    H314355   1.486   1.316  12.971 -1.5357  0.3723  1.7081
    1TMC1    O514356   1.298   1.079  13.493 -0.1076  0.6330  0.0088
    1TMC1    H514357   1.302   0.988  13.458 -1.2138  0.7266 -0.3421
    2MPD2     C14358   1.826   0.764  13.158  0.1596  0.2896 -0.0153
    2MPD2    C114359   1.719   0.752  13.236 -0.2726 -0.6793  0.6773
    2MPD2    C214360   1.720   0.647  13.334  0.1117  0.0258  0.2583
    2MPD2    C314361   1.836   0.568  13.354  0.1771  0.2157 -0.3409
    2MPD2    C414362   1.949   0.596  13.278 -0.2987  0.5940  0.0371
    2MPD2    C514363   1.938   0.691  13.184 -0.5315 -0.3232  0.2498
    2MPD2     H14364   1.627   0.634  13.389  0.2421  1.3692  0.7799
    2MPD2    H114365   2.045   0.546  13.271  0.1555  1.5882 -0.9389
    2MPD2    H214366   1.829   0.837  13.078  0.4138 -0.2740 -0.5198
    2MPD2    H314367   2.026   0.714  13.126  0.2356 -3.4822  0.1227
    2MPD2     N14368   1.832   0.459  13.447  0.3382 -0.1219  0.0354
    2MPD2    H514369   1.750   0.456  13.507  0.2635  0.4263 -0.0362
    2MPD2    N114370   1.602   0.832  13.223  0.2878  0.6553 -0.1589
    2MPD2    H714371   1.530   0.816  13.293 -0.4174  3.2786 -0.3062
    3TCq1    O114372   2.097   4.651  13.665 -0.1917 -1.0677  0.1147
    3TCq1    C114373   1.957   4.647  13.673  0.1208  0.6722  0.4423
    3TCq1    O214374   1.885   4.547  13.688  0.1658 -0.6950  0.2065
    3TCq1    C214375   1.900   0.046  13.651  0.2126  0.0969 -1.3157
    3TCq1    C314376   1.785   0.068  13.725  0.2956  0.7462 -0.7668
    3TCq1    C414377   1.736   0.196  13.737  0.4880  0.1429  0.2744
    3TCq1    C514378   1.793   0.296  13.659 -0.2884  0.1311 -0.6265
    3TCq1    C614379   1.897   0.266  13.574 -0.2332  0.6917 -0.9016
    3TCq1    C714380   1.961   0.144  13.581  0.3662 -0.2744 -0.4222
    3TCq1    C814381   1.932   0.369  13.473 -0.6020 -0.3052  0.3965
    3TCq1    O414382   2.051   0.366  13.438 -0.6504  0.3246 -0.4975
    3TCq1    C914383   1.616   0.221  13.815  0.2611 -0.7831  0.0293
    3TCq1    O514384   1.560   0.120  13.866 -0.1838 -0.1275  0.0076
    3TCq1    O614385   1.591   0.342  13.834 -0.3562 -0.5272  0.1765
    3TCq1    H114386   2.126   0.006  13.675 -2.7880 -0.1828 -0.5938
    3TCq1    H214387   1.743   4.729  13.788  2.2981 -0.2693 -0.6608
    3TCq1    H314388   1.755   0.396  13.676 -0.0547  0.4852 -2.2130
    3TCq1    H414389   2.042   0.114  13.515  1.6840  0.8778  0.6722
    1MPD2     C14390   0.259   1.772  15.361  0.2062  0.0608 -0.3476
    1MPD2    C114391   0.217   1.686  15.260  0.1268  0.1110 -0.6283
    1MPD2    C214392   0.308   1.584  15.219  0.1480 -0.0653  0.9172
    1MPD2    C314393   0.436   1.573  15.265 -0.1956 -0.5154 -0.4673
    1MPD2    C414394   0.478   1.657  15.369 -0.1436 -0.1104  0.3405
    1MPD2    C514395   0.393   1.750  15.411 -0.3701  0.5578 -0.3811
    1MPD2     H14396   0.275   1.504  15.154 -1.3299  0.6279  0.8099
    1MPD2    H114397   0.579   1.665  15.409 -0.9593 -0.3310  2.4158
    1MPD2    H214398   0.195   1.852  15.395 -0.5007  0.0210 -1.5826
    1MPD2    H314399   0.419   1.823  15.487 -1.0518  0.3529  0.0507
    1MPD2     N14400   0.511   1.462  15.223 -0.3495 -0.0451 -0.0363
    1MPD2    H514401   0.460   1.403  15.158 -0.8028 -0.8262  1.0382
    1MPD2    N114402   0.096   1.719  15.189  0.1545  0.1037 -0.3444
    1MPD2    H714403   0.040   1.797  15.221  1.4532  0.9124 -0.0319
    2TMC3    C114404   4.651   1.689  15.027 -0.3696  0.2675  0.1608
    2TMC3    C214405   4.594   1.583  14.969  0.3535 -0.9314 -0.3524
    2TMC3    C314406   4.532   1.606  14.847 -0.5563  0.4042 -0.7884
    2TMC3    C414407   4.644   1.817  14.968 -1.2837 -0.8859 -0.0668
    2TMC3    C514408   4.576   1.842  14.850 -0.2484 -0.5368 -0.5757
    2TMC3    C614409   4.523   1.731  14.794 -0.0825  0.0225 -0.3698
    2TMC3     C14410   0.039   1.643  15.086  0.4542  0.5201 -0.4690
    2TMC3     O14411   0.080   1.540  15.031  0.4662 -0.1310  0.0501
    2TMC3     H14412   4.596   1.491  15.025 -0.6534  0.2789  1.6737
    2TMC3    H114413   4.688   1.898  15.024  0.6581 -3.2847  1.8996
    2TMC3    H214414   4.487   1.743  14.692  4.6962  0.6666 -1.9822
    2TMC3    C714415   4.563   1.976  14.796  0.1327  0.1671 -0.1064
    2TMC3    C814416   4.585   1.509  14.750 -0.4071  0.3035 -0.1862
    2TMC3    O114417   4.466   2.001  14.725  0.2604  0.6009  0.0988
    2TMC3    O214418   4.536   1.502  14.639  0.2246 -0.0589  0.0804
    3TCq1    O114419   0.639   2.890  14.632  0.3678 -0.3359 -0.0616
    3TCq1    C114420   0.724   2.785  14.634 -0.5684 -0.1523  0.4439
    3TCq1    O214421   0.850   2.796  14.647 -0.0821 -0.6110  0.3876
    3TCq1    C214422   0.655   2.659  14.672  0.3319  0.0614  0.3934
    3TCq1    C314423   0.741   2.551  14.685  0.0112  0.0505 -0.5519
    3TCq1    C414424   0.688   2.430  14.702 -0.1162 -0.6132 -0.2639
    3TCq1    C514425   0.553   2.417  14.722 -0.5661 -0.0719  0.2265
    3TCq1    C614426   0.468   2.520  14.708 -0.1689  0.2464 -0.1624
    3TCq1    C714427   0.518   2.650  14.686  0.2429 -0.1102 -0.0892
    3TCq1    C814428   0.317   2.502  14.697  0.5901 -0.5915 -0.1998
    3TCq1    O414429   0.256   2.607  14.703  0.4764 -0.4017  0.7277
    3TCq1    C914430   0.772   2.311  14.708 -0.0439 -0.4353 -0.0673
    3TCq1    O514431   0.889   2.331  14.656 -0.4189  0.0363  0.2689
    3TCq1    O614432   0.731   2.201  14.753 -0.1673 -0.2352 -0.1888
    3TCq1    H114433   0.556   2.849  14.598 -0.5515  2.9091 -1.7620
    3TCq1    H214434   0.847   2.560  14.662  0.1143 -0.0124 -0.1014
    3TCq1    H314435   0.524   2.313  14.733 -0.3853 -0.4689 -2.9559
    3TCq1    H414436   0.445   2.730  14.678  0.2116 -0.2043 -0.7478
    4MPD2     C14437   0.042   2.421  14.638  1.0284  0.2698 -0.4619
    4MPD2    C114438   0.136   2.341  14.695 -0.7414 -0.2390 -0.0881
    4MPD2    C214439   0.099   2.219  14.740  0.5312  0.5891  0.3081
    4MPD2    C314440   4.707   2.176  14.743 -0.1303  0.7349  0.4801
    4MPD2    C414441   4.610   2.256  14.688 -0.1573  0.1174 -0.1085
    4MPD2    C514442   4.651   2.374  14.633 -0.3398  0.3446 -0.0757
    4MPD2     H14443   0.179   2.153  14.772  1.3864  1.2864 -0.3825
    4MPD2    H114444   4.508   2.221  14.675  0.0771 -0.5126 -0.2731
    4MPD2    H214445   0.065   2.512  14.584 -0.1205  0.5818 -0.4216
    4MPD2    H314446   4.580   2.436  14.580 -1.7296 -0.4544  0.8616
    4MPD2     N14447   4.685   2.047  14.795  0.0684 -0.2031  0.0015
    4MPD2    H514448   0.031   2.007  14.835 -0.3378 -0.0541  1.0058
    4MPD2    N114449   0.270   2.374  14.700  0.1007  0.3956  0.2312
    4MPD2    H714450   0.336   2.299  14.719  1.0761  1.6602  1.8632
    5TMC2    C114451   0.593   1.277  14.915 -0.5432  0.1608  0.5633
    5TMC2    C214452   0.685   1.341  14.842 -0.0928  0.1962  0.7130
    5TMC2    C314453   0.785   1.405  14.910 -0.0603 -0.5277  0.4654
    5TMC2    C414454   0.597   1.287  15.052 -0.5805  0.9592  0.1625
    5TMC2    C514455   0.695   1.360  15.115  0.2230  0.6632  0.4423
    5TMC2    C614456   0.803   1.400  15.046 -0.4162 -0.3580 -0.0009
    5TMC2     C14457   0.455   1.301  14.868 -0.2443  0.2904 -0.1904
    5TMC2     O14458   0.388   1.363  14.950  0.0756  0.2806  0.1388
    5TMC2     H14459   0.681   1.317  14.736  1.5874  2.5248  0.1111
    5TMC2    H114460   0.518   1.244  15.113  0.0473 -1.4847 -0.7413
    5TMC2    H214461   0.883   1.442  15.105  0.3809 -0.0437 -1.3035
    5TMC2    C714462   0.649   1.457  15.222 -0.1106  1.0061 -0.6934
    5TMC2    C814463   0.907   1.420  14.840 -0.7448 -0.8982  0.0535
    5TMC2    O114464   0.725   1.535  15.282 -0.0133  0.1377  0.4428
    5TMC2    O214465   0.942   1.345  14.748 -0.3138 -0.6582  0.2594
    5TMC2    O514466   0.954   1.544  14.870  0.2134 -0.1287 -0.2718
    5TMC2    H514467   0.901   1.587  14.940 -1.9722 -0.9589 -1.4398
    6MPD2     C14468   0.029   1.337  14.584 -0.1101  0.4522  0.6373
    6MPD2    C114469   0.061   1.397  14.712  0.4470 -0.0486  0.1232
    6MPD2    C214470   0.180   1.367  14.763  0.2849 -0.5824 -0.6273
    6MPD2    C314471   0.279   1.295  14.698  0.1052  0.5514  0.1897
    6MPD2    C414472   0.257   1.253  14.571  0.2489 -0.0173 -0.0060
    6MPD2    C514473   0.131   1.270  14.513  0.1491  0.4503  0.1014
    6MPD2     H14474   0.187   1.397  14.867 -1.2259  2.5434 -1.4303
    6MPD2    H114475   0.337   1.201  14.520 -0.3212 -0.0895 -0.8152
    6MPD2    H214476   4.675   1.349  14.528  0.0601  0.1279  0.2876
    6MPD2    H314477   0.117   1.244  14.409  1.3420  0.5688 -0.0917
    6MPD2     N14478   0.418   1.271  14.742  0.1122 -0.4742 -0.3759
    6MPD2    H514479   0.471   1.227  14.667 -1.7907 -0.4966 -1.7090
    6MPD2    N114480   4.706   1.465  14.798  0.4271 -0.4503  0.2900
    6MPD2    H714481   4.734   1.492  14.892  0.6811  1.1384 -0.2483
  945NH4     N114482   2.227   1.173  14.458  0.1406 -0.1466 -0.5721
  945NH4     H214483   2.143   1.209  14.508  1.2221  0.6753  0.6509
  945NH4     H314484   2.308   1.238  14.469  0.1221 -0.5927  2.0924
  945NH4     H414485   2.211   1.158  14.356 -1.2673 -0.3941 -0.3085
  945NH4     H514486   2.259   1.079  14.488 -0.8621 -0.4899 -0.6052
  946SOD     NA14487   1.275   2.800  10.012  0.0766 -0.5886  0.0784
  947SOD     NA14488   4.376   2.667  11.468  0.4119 -0.1181  0.5098
  948SOD     NA14489   1.896   0.602  13.958 -0.5408 -0.3768  0.5856
  949SOD     NA14490   1.425   2.156  16.405  0.2896  0.3725 -0.4135
  950SOD     NA14491   1.070   3.656  16.924  0.2172  0.1245 -0.0034
  951SOD     NA14492   3.581   1.696   6.625  0.1158 -0.3749 -0.1613
  952SOD     NA14493   4.137   0.090   9.898  0.3204 -0.5377  0.5083
  953SOL     OW14494   4.677   1.739  13.695 -0.0613  0.0356  0.0563
  953SOL    HW114495   4.595   1.787  13.703  0.8077  1.5052  0.1316
  953SOL    HW214496   0.008   1.804  13.706 -0.0044 -0.6480  3.8160
  954SOL     OW14497   1.172   3.169   4.868  0.0574 -0.3199  0.0625
  954SOL    HW114498   1.124   3.244   4.833  1.8422  1.7161  1.9827
  954SOL    HW214499   1.106   3.106   4.898 -0.5931  0.4878  0.3207
  955SOL     OW14500   4.450   0.496   8.070  0.2253 -0.0767 -0.8258
  955SOL    HW114501   4.419   0.504   8.160  2.1250 -0.9108 -0.1039
  955SOL    HW214502   4.373   0.520   8.019 -0.5184 -0.0745  0.2990
  956SOL     OW14503   4.118   2.840   0.177  1.1803  0.3197  0.0162
  956SOL    HW114504   4.087   2.906   0.115 -0.5203 -0.2919  0.2095
  956SOL    HW214505   4.066   2.766   0.144  1.3552 -0.4429  1.4384
  957SOL     OW14506   1.103   1.167   6.158  0.1468 -0.6949 -0.1418
  957SOL    HW114507   1.147   1.117   6.228  0.5559 -1.6008 -1.0440
  957SOL    HW214508   1.160   1.241   6.140  0.4194 -1.3725 -2.0310
  958SOL     OW14509   4.235   3.657  13.724 -0.0376  0.6630 -0.1579
  958SOL    HW114510   4.295   3.636  13.652  1.3092  2.3117  0.4941
  958SOL    HW214511   4.152   3.659  13.675 -0.5775 -0.3857  0.7257
  959SOL     OW14512   4.013   2.457   0.637 -0.3413  0.0880 -0.0050
  959SOL    HW114513   4.065   2.534   0.615  0.0294 -0.4050 -0.8085
  959SOL    HW214514   3.940   2.468   0.576 -1.3534  1.5205  1.4383
  960SOL     OW14515   3.503   3.802   2.572  0.0470 -0.4211 -0.6009
  960SOL    HW114516   3.434   3.801   2.505 -0.0699  1.6572 -0.5014
  960SOL    HW214517   3.495   3.713   2.607  0.0020  0.2274  1.0129
  961SOL     OW14518   1.197   2.600   1.774  0.1101  0.3337 -0.1625
  961SOL    HW114519   1.155   2.629   1.693 -1.0323 -0.9495 -0.0452
  961SOL    HW214520   1.229   2.685   1.801 -0.9755  0.6303  0.1998
  962SOL     OW14521   4.718   2.354   2.937 -0.2814 -0.3100  0.0469
  962SOL    HW114522   0.057   2.324   2.985 -0.1344  0.5038  0.3243
  962SOL    HW214523   4.668   2.273   2.949 -1.7421  0.6878  0.6198
  963SOL     OW14524   3.199   3.960   0.396 -0.0084  0.6771  0.4080
  963SOL    HW114525   3.207   4.054   0.383 -1.2107  0.8012  0.5689
  963SOL    HW214526   3.210   3.922   0.309  0.4906 -0.7980  1.1142
  964SOL     OW14527   2.465   0.690   6.960  0.4339  0.1662  0.3118
  964SOL    HW114528   2.481   0.605   7.001 -1.4388 -0.1406  0.4236
  964SOL    HW214529   2.507   0.753   7.019  1.7908 -0.2910 -0.1546
  965SOL     OW14530   3.832   0.254   4.264  0.1264  0.0740  0.0040
  965SOL    HW114531   3.901   0.275   4.326  0.9315  1.6975 -1.4429
  965SOL    HW214532   3.844   0.322   4.197  0.2559 -0.2151 -0.2672
  966SOL     OW14533   3.133   0.085   1.728  0.2454  0.0211  0.6382
  966SOL    HW114534   3.141   0.089   1.823  0.0749  0.0100  0.6536
  966SOL    HW214535   3.043   0.053   1.725 -0.2287  1.4625 -0.4552
  967SOL     OW14536   3.840   1.394   8.535  0.1162 -0.6359  0.5089
  967SOL    HW114537   3.855   1.467   8.595  0.7736  1.3859 -2.1318
  967SOL    HW214538   3.771   1.427   8.478  0.8309  0.1856  0.1200
  968SOL     OW14539   0.937   3.709   2.393  0.0715 -0.1607  0.2020
  968SOL    HW114540   0.985   3.653   2.455 -0.2776  0.0749  0.6807
  968SOL    HW214541   0.971   3.795   2.418  1.8499 -1.5427  2.6246
  969SOL     OW14542   1.197   4.432   9.441  0.3400 -0.0078  0.7003
  969SOL    HW114543   1.190   4.515   9.489 -0.3285  0.1284  0.3581
  969SOL    HW214544   1.289   4.416   9.461  0.5244 -0.2660 -0.3602
  970SOL     OW14545   0.582   1.386   5.513 -0.6906 -0.2658 -0.3807
  970SOL    HW114546   0.538   1.443   5.451  0.0491  0.0990 -0.5692
  970SOL    HW214547   0.511   1.347   5.564 -2.0852 -1.0657 -2.9387
  971SOL     OW14548   0.589   3.126  14.512 -0.4993  0.0962 -0.5177
  971SOL    HW114549   0.678   3.090  14.509  0.1503  1.7307 -0.6229
  971SOL    HW214550   0.580   3.149  14.605 -2.5778 -1.2029 -0.3977
  972SOL     OW14551   0.026   0.423   8.176 -0.1698 -0.0502  0.0887
  972SOL    HW114552   4.693   0.361   8.155 -0.6807  1.2934 -2.1529
  972SOL    HW214553   4.719   0.506   8.190 -0.4726 -0.0188 -1.0681
  973SOL     OW14554   0.086   4.573   8.487 -0.5844 -0.3481 -0.3157
  973SOL    HW114555   0.069   4.614   8.571  0.1274 -2.2901  0.7740
  973SOL    HW214556   0.005   4.526   8.468 -0.0413 -1.4900  0.2075
  974SOL     OW14557   3.595   2.926  15.373 -0.4310  0.2985  0.1609
  974SOL    HW114558   3.545   2.973  15.305  1.7414  2.3971  0.0200
  974SOL    HW214559   3.647   2.878  15.308  1.5401  0.7490  1.4240
  975SOL     OW14560   3.713   3.326  12.733 -0.5299 -0.4588  0.0420
  975SOL    HW114561   3.670   3.323  12.818  1.6797  2.2695  1.2520
  975SOL    HW214562   3.669   3.390  12.678  1.1162  2.4304  2.0971
  976SOL     OW14563   1.757   1.096   6.003 -0.1889 -0.2685 -0.6075
  976SOL    HW114564   1.717   1.116   5.919  1.3004 -0.2876 -1.3155
  976SOL    HW214565   1.716   1.019   6.043  0.1079  0.2967  0.8106
  977SOL     OW14566   3.937   2.274  11.404  0.0054  0.0069  0.2067
  977SOL    HW114567   3.896   2.248  11.321 -1.6588  1.9654  0.4046
  977SOL    HW214568   3.922   2.193  11.454  1.5167 -0.9501 -0.8835
  978SOL     OW14569   3.029   0.798   8.012  0.6059 -0.2616 -0.7701
  978SOL    HW114570   3.060   0.714   8.045  2.9793  0.8019 -0.2253
  978SOL    HW214571   3.039   0.791   7.917 -3.2699 -0.6498 -1.1515
  979SOL     OW14572   2.133   1.956   2.202 -0.1296  0.1668  0.0933
  979SOL    HW114573   2.067   1.948   2.270  0.5386 -0.7337  0.6323
  979SOL    HW214574   2.212   1.962   2.256 -0.1109 -1.5244  0.2515
  980SOL     OW14575   3.200   2.481  12.505  0.2187  0.4497 -0.5752
  980SOL    HW114576   3.187   2.394  12.541  1.5778 -0.2181 -1.7028
  980SOL    HW214577   3.271   2.459  12.445  1.2000  1.0281  0.3635
  981SOL     OW14578   1.462   3.051   6.487  0.6208  0.2950  0.5658
  981SOL    HW114579   1.443   3.113   6.416  2.8808 -1.1965 -1.3455
  981SOL    HW214580   1.372   3.040   6.520  0.9684 -2.7973  0.5115
  982SOL     OW14581   2.082   1.143   3.807  0.5831 -0.1688  0.2822
  982SOL    HW114582   2.108   1.083   3.736  1.1859 -0.1050  0.4456
  982SOL    HW214583   1.993   1.168   3.783 -0.0855  0.7167  3.7738
  983SOL     OW14584   4.240   4.314   2.935  0.8016  0.5270 -0.7454
  983SOL    HW114585   4.280   4.370   3.001 -1.1317  0.3722  0.5337
  983SOL    HW214586   4.180   4.377   2.895 -0.0758  0.3845  0.3654
  984SOL     OW14587   0.686   3.522   4.168  0.4207  0.2388  0.1282
  984SOL    HW114588   0.632   3.445   4.188  1.3034 -1.0426 -2.4615
  984SOL    HW214589   0.748   3.485   4.105  0.7526  1.0962 -0.0462
  985SOL     OW14590   2.379   2.488   1.788 -0.5352 -0.4025 -0.0663
  985SOL    HW114591   2.379   2.398   1.820 -5.4243  0.5973  2.8329
  985SOL    HW214592   2.372   2.530   1.874 -2.2236  0.9878 -0.8843
  986SOL     OW14593   0.673   1.620   9.893 -0.2454  0.5759  0.2779
  986SOL    HW114594   0.753   1.654   9.933  1.1521 -0.9151 -1.2592
  986SOL    HW214595   0.706   1.532   9.878 -0.6773  0.7895 -1.9498
  987SOL     OW14596   4.035   4.135   6.658 -0.1606 -0.3178  0.6229
  987SOL    HW114597   4.043   4.172   6.570 -2.6412  0.1527  0.5829
  987SOL    HW214598   4.128   4.126   6.679 -0.3284 -1.5979  0.8232
  988SOL     OW14599   4.137   2.721   0.949  0.2550  0.4846 -0.2247
  988SOL    HW114600   4.228   2.701   0.971 -0.8810 -0.3830  3.6084
  988SOL    HW214601   4.117   2.776   1.025 -1.7885  0.0702 -0.4375
  989SOL     OW14602   4.594   2.874   8.017 -0.3157 -0.0858  0.3271
  989SOL    HW114603   4.581   2.783   7.992 -1.4870  0.2858 -0.4451
  989SOL    HW214604   4.668   2.893   7.958 -0.4152 -1.7429 -0.3342
  990SOL     OW14605   4.568   2.015   8.570  0.0545  0.3296 -0.8109
  990SOL    HW114606   4.535   1.931   8.601  2.4211  0.7561  2.8639
  990SOL    HW214607   4.659   2.022   8.599  0.9699 -0.5111 -3.3943
  991SOL     OW14608   0.748   0.443  13.586  0.5153  0.0666  0.3326
  991SOL    HW114609   0.728   0.472  13.675 -4.2295 -0.1757 -0.6169
  991SOL    HW214610   0.684   0.373  13.571  1.6890 -0.7954 -0.6718
  992SOL     OW14611   3.591   1.473   3.484  0.2585 -0.2475  0.2771
  992SOL    HW114612   3.555   1.443   3.567 -0.7640 -0.0437 -0.0888
  992SOL    HW214613   3.564   1.565   3.481 -1.4647 -0.7720 -0.3932
  993SOL     OW14614   3.584   4.326   3.834  0.1962 -0.2884 -0.1269
  993SOL    HW114615   3.539   4.243   3.818  0.3669 -0.2827 -0.6308
  993SOL    HW214616   3.643   4.302   3.905 -1.3294  1.4810  1.7408
  994SOL     OW14617   0.904   4.301   6.992  0.7579  0.6449  0.3490
  994SOL    HW114618   0.914   4.348   7.074  1.4479 -2.7577  2.2258
  994SOL    HW214619   0.949   4.361   6.933 -0.1960  1.2268  0.2042
  995SOL     OW14620   0.808   0.513   8.852  0.2805 -0.6933 -0.3480
  995SOL    HW114621   0.864   0.436   8.838 -0.4891 -1.3792  0.4602
  995SOL    HW214622   0.850   0.585   8.803 -0.8659  1.0552  1.2400
  996SOL     OW14623   1.993   0.611   7.978 -0.0245  0.3946 -0.0675
  996SOL    HW114624   2.025   0.612   7.888 -0.8087  0.0306 -0.3469
  996SOL    HW214625   1.914   0.664   7.968 -0.8389 -0.7856  0.1139
  997SOL     OW14626   2.346   3.064   5.792 -0.0064 -0.8496 -0.2484
  997SOL    HW114627   2.330   3.150   5.830  1.1355 -0.9444  0.4793
  997SOL    HW214628   2.258   3.027   5.798 -0.4215  0.3530  1.1382
  998SOL     OW14629   0.435   1.168   4.045 -0.1923  0.1183  0.0987
  998SOL    HW114630   0.452   1.232   4.114  0.5109 -0.3173  0.3317
  998SOL    HW214631   0.520   1.171   4.001 -0.4214  0.1661 -0.3412
  999SOL     OW14632   3.767   1.755   1.671  0.2347  0.2216  0.5178
  999SOL    HW114633   3.710   1.780   1.743 -2.2322  1.7257 -1.9344
  999SOL    HW214634   3.803   1.843   1.655  1.7617 -0.3903  0.6711
 1000SOL     OW14635   0.671   2.493   7.484 -0.7370  0.0968 -0.1630
 1000SOL    HW114636   0.731   2.455   7.548 -0.0338 -0.0400 -0.8938
 1000SOL    HW214637   0.646   2.418   7.431  0.2529 -1.0238  0.9432
 1001SOL     OW14638   1.754   4.502  17.200  0.7418  0.3131 -0.4178
 1001SOL    HW114639   1.842   4.516  17.235  1.3866 -1.0845 -1.4462
 1001SOL    HW214640   1.766   4.561  17.125 -0.7260 -1.7860 -2.3084
 1002SOL     OW14641   3.274   0.613  12.671 -0.0318  0.2370 -0.6944
 1002SOL    HW114642   3.323   0.532  12.686  1.8570  1.7407  1.0634
 1002SOL    HW214643   3.345   0.670  12.642 -0.4106  1.0456  0.0112
 1003SOL     OW14644   4.112   0.835   1.885  0.7353 -0.5736 -0.2723
 1003SOL    HW114645   4.146   0.820   1.973  1.6367  1.4990 -0.2818
 1003SOL    HW214646   4.183   0.865   1.829 -0.6031  2.7929 -0.1518
 1004SOL     OW14647   4.584   3.824   5.715  0.4524 -0.6107 -0.0563
 1004SOL    HW114648   4.655   3.807   5.653  0.7710 -0.1209  0.1773
 1004SOL    HW214649   4.503   3.819   5.665 -0.9832 -1.2408  2.3233
 1005SOL     OW14650   3.736   1.301   5.385 -0.7787 -0.8718  0.4159
 1005SOL    HW114651   3.821   1.280   5.423 -1.7667 -4.0070  0.9516
 1005SOL    HW214652   3.683   1.257   5.452  0.1148 -1.8519  0.4720
 1006SOL     OW14653   3.711   0.434   4.827  0.0262  0.1808 -0.9412
 1006SOL    HW114654   3.745   0.379   4.756 -1.6470  0.3754 -1.9046
 1006SOL    HW214655   3.764   0.514   4.835  0.9085 -0.4551 -0.4685
 1007SOL     OW14656   0.313   3.377  15.524  0.0418 -0.7088 -0.1317
 1007SOL    HW114657   0.244   3.429  15.565  0.2460  0.7227 -1.6218
 1007SOL    HW214658   0.314   3.296  15.575  0.0870 -1.0445 -0.6645
 1008SOL     OW14659   4.122   2.879   6.232  0.0085 -0.1188  0.0878
 1008SOL    HW114660   4.032   2.868   6.263  0.0151 -0.9390 -0.2024
 1008SOL    HW214661   4.120   2.949   6.167  0.7616 -1.9864 -1.9026
 1009SOL     OW14662   1.668   2.559   4.818  0.0342  0.0869 -0.0258
 1009SOL    HW114663   1.710   2.474   4.808 -0.6094  0.1585 -3.2593
 1009SOL    HW214664   1.693   2.597   4.734  1.5869  0.9476  0.8255
 1010SOL     OW14665   3.119   0.286  13.416 -0.1104  0.8049 -0.0685
 1010SOL    HW114666   3.153   0.375  13.405 -1.0326  1.0151 -1.2883
 1010SOL    HW214667   3.139   0.248  13.330 -3.5423  1.4612 -1.1793
 1011SOL     OW14668   2.835   4.159   6.029 -0.4757  0.2249  0.6368
 1011SOL    HW114669   2.830   4.086   6.090 -2.5283 -1.9210 -2.1290
 1011SOL    HW214670   2.831   4.232   6.091 -0.6247  0.2403  0.6092
 1012SOL     OW14671   3.426   2.964  11.218 -0.3551  0.2867  0.2536
 1012SOL    HW114672   3.509   2.918  11.206  1.7721  4.2020 -0.2324
 1012SOL    HW214673   3.425   3.012  11.135  1.0136  1.7104  1.0663
 1013SOL     OW14674   2.120   2.388  13.358 -0.9054 -0.3191  0.8939
 1013SOL    HW114675   2.121   2.357  13.448 -1.2386  1.6433  1.5878
 1013SOL    HW214676   2.044   2.352  13.312  1.0037  0.0898 -2.5952
 1014SOL     OW14677   2.015   1.297   2.736  0.0357 -0.0180  0.3622
 1014SOL    HW114678   2.052   1.245   2.664  0.1331  0.8447 -0.2101
 1014SOL    HW214679   2.092   1.325   2.785  0.1279  2.3122 -1.1114
 1015SOL     OW14680   1.092   0.785   8.235  0.4229 -0.2997 -0.6292
 1015SOL    HW114681   1.043   0.860   8.202  0.2937 -0.4675 -0.8231
 1015SOL    HW214682   1.173   0.808   8.190  0.1812  0.2458 -0.7858
 1016SOL     OW14683   4.318   2.733   6.939 -0.8128 -0.1037  0.8675
 1016SOL    HW114684   4.383   2.718   7.007 -1.9888 -1.2588  1.7319
 1016SOL    HW214685   4.367   2.779   6.871  0.8504  0.0973  2.2146
 1017SOL     OW14686   0.700   3.944  11.880 -0.1581  0.5882 -0.0344
 1017SOL    HW114687   0.656   3.898  11.809 -0.3346  1.1437 -0.2869
 1017SOL    HW214688   0.722   4.032  11.850 -2.2384  1.0444 -0.2287
 1018SOL     OW14689   1.640   1.818  17.459 -0.5109 -0.0287  0.1740
 1018SOL    HW114690   1.606   1.895  17.504  0.8631 -0.2795  1.6222
 1018SOL    HW214691   1.577   1.809  17.387  0.6587 -0.4458 -0.7859
 1019SOL     OW14692   3.680   0.706   1.838  0.3000 -0.2133 -0.4482
 1019SOL    HW114693   3.758   0.761   1.830 -1.8067  2.7371 -0.8137
 1019SOL    HW214694   3.620   0.765   1.884 -0.9132 -0.2886 -1.9313
 1020SOL     OW14695   2.941   4.427  10.200 -0.6575  0.3192  0.0756
 1020SOL    HW114696   2.943   4.503  10.259 -1.5428 -1.7942  2.8745
 1020SOL    HW214697   2.949   4.358  10.266 -1.6148 -0.5117 -0.6893
 1021SOL     OW14698   1.167   1.269  13.706  0.1655  0.2476  0.4450
 1021SOL    HW114699   1.202   1.220  13.631 -0.1589 -0.9258  1.0708
 1021SOL    HW214700   1.147   1.202  13.771  2.2078 -0.6350  0.1632
 1022SOL     OW14701   3.860   4.089   5.974  0.1437  0.6707  0.2876
 1022SOL    HW114702   3.850   4.157   6.041  0.7521  1.1765 -0.1299
 1022SOL    HW214703   3.939   4.043   6.005 -0.1772  0.3134  0.5811
 1023SOL     OW14704   3.998   4.047  14.824  0.4417  0.1481  0.0460
 1023SOL    HW114705   3.947   4.124  14.799 -1.3522 -1.0167  0.0674
 1023SOL    HW214706   3.940   4.011  14.891  0.7596  1.5579  1.0785
 1024SOL     OW14707   4.366   0.823   6.857  0.5364 -0.3099  0.0769
 1024SOL    HW114708   4.376   0.767   6.934 -2.2330 -1.4248 -0.3709
 1024SOL    HW214709   4.414   0.778   6.787  1.4703  0.9610 -0.1077
 1025SOL     OW14710   2.905   4.613  15.910 -0.6479 -0.1144  0.2990
 1025SOL    HW114711   2.964   4.682  15.880 -1.1213  0.0417 -0.2672
 1025SOL    HW214712   2.961   4.567  15.972 -0.2215  0.1846  0.1356
 1026SOL     OW14713   1.706   2.306   2.623 -0.3762 -0.3563 -0.1958
 1026SOL    HW114714   1.708   2.382   2.565 -3.0865  0.7536  1.1232
 1026SOL    HW214715   1.708   2.229   2.566 -0.8467 -0.5676  0.0712
 1027SOL     OW14716   0.548   0.119  15.531  0.4188 -0.4547  0.0822
 1027SOL    HW114717   0.491   0.190  15.501  2.2778  0.6410 -0.8734
 1027SOL    HW214718   0.630   0.141  15.487  0.0940 -0.5167 -0.5550
 1028SOL     OW14719   0.557   2.231   3.609  0.3882 -0.1170 -0.2727
 1028SOL    HW114720   0.634   2.239   3.553  0.2491 -0.4428 -0.5060
 1028SOL    HW214721   0.504   2.301   3.571 -0.2006 -0.4368 -0.0366
 1029SOL     OW14722   4.143   2.179   4.451  0.0991 -0.3529 -0.1968
 1029SOL    HW114723   4.138   2.179   4.547  0.8076  0.4048 -0.1556
 1029SOL    HW214724   4.051   2.173   4.425  1.0702  0.4419 -3.8054
 1030SOL     OW14725   3.529   3.314  17.090 -0.2194  0.3621 -0.4050
 1030SOL    HW114726   3.456   3.333  17.030  1.0761  1.0280 -1.7830
 1030SOL    HW214727   3.591   3.359  17.032 -0.7903  1.3056 -0.2871
 1031SOL     OW14728   1.811   1.275  12.773  0.1148  0.5256 -0.4709
 1031SOL    HW114729   1.719   1.275  12.798 -0.2497  2.5661 -1.7508
 1031SOL    HW214730   1.806   1.370  12.756 -0.9450  0.6285  0.4691
 1032SOL     OW14731   0.225   4.119   7.137  0.6896 -0.2589 -0.4275
 1032SOL    HW114732   0.240   4.182   7.207  1.0575 -0.7776 -0.0406
 1032SOL    HW214733   0.223   4.184   7.067  0.9530 -0.1589 -0.3394
 1033SOL     OW14734   2.402   0.029   6.736 -0.1961  0.0549  0.8275
 1033SOL    HW114735   2.428   0.114   6.772 -0.1774  0.1140  0.6741
 1033SOL    HW214736   2.463   0.014   6.664 -0.2766  0.0239  0.7660
 1034SOL     OW14737   3.953   2.094  16.417  0.3778  0.6457  0.3479
 1034SOL    HW114738   3.975   2.010  16.378  0.7292 -0.0729  2.1179
 1034SOL    HW214739   3.974   2.085  16.510  1.1647  0.1468  0.1236
 1035SOL     OW14740   0.912   0.917   7.936 -0.6114  0.6380  0.1067
 1035SOL    HW114741   0.985   0.883   7.885 -0.1318  2.1316 -0.2075
 1035SOL    HW214742   0.952   0.954   8.015 -1.5876  0.6373  0.6091
 1036SOL     OW14743   3.179   2.102  15.655 -0.2045  0.3351  0.8419
 1036SOL    HW114744   3.110   2.169  15.661  1.9735  2.8790 -2.6762
 1036SOL    HW214745   3.128   2.023  15.637 -0.0122  0.2839  0.5328
 1037SOL     OW14746   0.696   2.902  14.249  0.7068 -0.6040 -0.9352
 1037SOL    HW114747   0.698   2.813  14.283 -2.3719 -0.7710 -1.1289
 1037SOL    HW214748   0.604   2.915  14.224  0.2692 -2.0077 -0.0906
 1038SOL     OW14749   0.797   3.302  13.401  0.1507 -0.5650 -0.3909
 1038SOL    HW114750   0.786   3.390  13.437  1.3100  0.3816 -2.3175
 1038SOL    HW214751   0.804   3.253  13.482 -0.9762  0.6191  0.4299
 1039SOL     OW14752   0.585   4.257   6.383 -0.1816  0.3043  0.3023
 1039SOL    HW114753   0.580   4.182   6.324 -2.0708 -0.7419  1.8049
 1039SOL    HW214754   0.643   4.235   6.457  0.3325  1.8718  0.3704
 1040SOL     OW14755   0.149   1.925   3.615 -0.4093 -0.1462 -0.0879
 1040SOL    HW114756   0.244   1.939   3.604 -0.6057 -1.9086 -3.9203
 1040SOL    HW214757   0.123   2.017   3.616  1.4443  0.3833 -0.5182
 1041SOL     OW14758   3.741   2.892   2.765 -0.1484  0.5531  0.3124
 1041SOL    HW114759   3.757   2.965   2.705  1.1007  2.2308  2.6914
 1041SOL    HW214760   3.779   2.820   2.714  1.3923  1.5788  0.0062
 1042SOL     OW14761   2.839   4.390   0.584  0.6757  0.1003  0.0051
 1042SOL    HW114762   2.745   4.377   0.594  0.9621 -2.1333 -0.2558
 1042SOL    HW214763   2.863   4.339   0.662 -1.1452 -0.4158  0.2409
 1043SOL     OW14764   0.590   0.875   5.601 -0.1717  0.1291 -0.4898
 1043SOL    HW114765   0.656   0.938   5.632  0.6100 -1.1529  0.4593
 1043SOL    HW214766   0.641   0.815   5.547  0.6417 -0.4547  0.9064
 1044SOL     OW14767   2.011   1.977   3.405 -0.2606  0.3789  0.0274
 1044SOL    HW114768   1.991   1.986   3.312  1.6296  1.7051 -0.2467
 1044SOL    HW214769   2.070   1.902   3.407 -1.0050 -0.1349  2.3431
 1045SOL     OW14770   3.531   0.579   9.336  0.3061 -0.8569  0.5113
 1045SOL    HW114771   3.559   0.513   9.400  0.3025 -0.2756  1.1108
 1045SOL    HW214772   3.502   0.512   9.275  0.8806 -0.3768 -0.2908
 1046SOL     OW14773   3.496   1.371   4.094  0.5478  0.0680 -0.0897
 1046SOL    HW114774   3.511   1.461   4.067  0.7958 -0.4620 -1.7203
 1046SOL    HW214775   3.585   1.335   4.090  0.5801  0.3863 -2.2008
 1047SOL     OW14776   3.360   1.785   4.575 -0.4119  0.6267 -0.1362
 1047SOL    HW114777   3.418   1.856   4.601 -0.1897  0.6994 -0.8155
 1047SOL    HW214778   3.311   1.826   4.503  1.0990 -0.8603 -1.9992
 1048SOL     OW14779   2.653   3.507   7.628  0.2734 -0.4643  0.0700
 1048SOL    HW114780   2.681   3.589   7.669  0.6595  0.4126 -1.9999
 1048SOL    HW214781   2.721   3.485   7.565 -0.6962 -2.0902 -0.4034
 1049SOL     OW14782   0.462   0.392   4.443 -0.4587  0.6616 -0.2801
 1049SOL    HW114783   0.501   0.405   4.357 -3.0928  2.2445 -1.2303
 1049SOL    HW214784   0.397   0.323   4.428  0.7554 -0.5080 -0.1015
 1050SOL     OW14785   2.648   4.334   8.033 -0.1556 -0.5358 -0.4889
 1050SOL    HW114786   2.722   4.305   7.979  0.6106 -0.7285  0.6589
 1050SOL    HW214787   2.577   4.308   7.975 -0.6303 -0.1089 -0.0881
 1051SOL     OW14788   0.895   3.559  14.500 -0.0771 -0.3517 -0.7540
 1051SOL    HW114789   0.892   3.464  14.511 -0.9280 -0.1851  0.3141
 1051SOL    HW214790   0.808   3.574  14.535  0.3932 -1.1198  0.7122
 1052SOL     OW14791   2.593   2.755   4.257  0.1530 -0.0583  0.2727
 1052SOL    HW114792   2.599   2.720   4.168  2.2912  0.9607  0.0023
 1052SOL    HW214793   2.518   2.814   4.247  0.6549  0.6119  0.4238
 1053SOL     OW14794   2.498   2.057   4.941 -0.2642  0.4402  0.3423
 1053SOL    HW114795   2.493   2.098   4.854  1.2812  1.0196  0.5263
 1053SOL    HW214796   2.478   2.135   4.992  3.0521  0.6093  1.3876
 1054SOL     OW14797   1.596   4.488  13.018 -0.0453  0.3853  0.4375
 1054SOL    HW114798   1.685   4.466  13.045  0.0248  0.9142  0.6359
 1054SOL    HW214799   1.588   4.433  12.940  0.7718  0.7838  0.0663
 1055SOL     OW14800   3.163   4.113   8.205  0.5446 -0.0048  0.0769
 1055SOL    HW114801   3.085   4.109   8.259  0.4366 -0.2067 -0.0938
 1055SOL    HW214802   3.235   4.105   8.268  2.0575  1.2701 -1.4739
 1056SOL     OW14803   3.871   1.214   2.471 -0.5790 -0.9586 -0.3965
 1056SOL    HW114804   3.872   1.161   2.551  1.7242 -0.4369 -0.0812
 1056SOL    HW214805   3.908   1.295   2.503 -2.0175 -0.2867 -0.4161
 1057SOL     OW14806   1.826   4.359  14.468  0.1100  0.4443  0.3565
 1057SOL    HW114807   1.779   4.318  14.395 -0.1073 -0.7154  1.1316
 1057SOL    HW214808   1.895   4.295  14.485 -2.5457 -2.5951 -0.1230
 1058SOL     OW14809   3.565   3.959   4.081 -0.8481  0.6069  0.2722
 1058SOL    HW114810   3.534   3.990   4.166 -0.3778  1.8112  0.0136
 1058SOL    HW214811   3.638   3.906   4.114 -0.1245  1.7134  0.4680
 1059SOL     OW14812   3.979   3.853   9.104  0.6552  0.2354  0.1289
 1059SOL    HW114813   3.930   3.918   9.054 -1.5928 -2.9137 -1.7236
 1059SOL    HW214814   3.906   3.793   9.118 -1.8255  2.5350 -3.0384
 1060SOL     OW14815   1.963   3.905  11.130  0.1977 -0.5283  0.1338
 1060SOL    HW114816   1.959   3.814  11.102  0.5357 -0.9992  1.6708
 1060SOL    HW214817   1.872   3.924  11.106  0.1197  1.4629  2.0060
 1061SOL     OW14818   3.999   3.211   6.411  0.6429  0.2125 -0.8280
 1061SOL    HW114819   3.983   3.164   6.493 -4.5554  1.9762 -0.8377
 1061SOL    HW214820   3.929   3.175   6.358 -0.8174 -1.2361  2.0841
 1062SOL     OW14821   2.052   3.864   5.380 -0.2360 -0.2143  0.1208
 1062SOL    HW114822   1.981   3.890   5.322  0.7885 -0.1290 -1.0870
 1062SOL    HW214823   2.122   3.922   5.349 -2.2312  0.8502 -2.4397
 1063SOL     OW14824   2.326   1.236  10.273 -0.0265 -0.4543 -0.6913
 1063SOL    HW114825   2.328   1.146  10.241  0.3820 -0.2905 -1.1220
 1063SOL    HW214826   2.313   1.225  10.367  1.4758  0.8002 -0.3313
 1064SOL     OW14827   1.353   3.989   1.756 -0.6364  0.2141  0.6771
 1064SOL    HW114828   1.312   4.041   1.825 -2.2856  0.4333 -0.4594
 1064SOL    HW214829   1.291   3.918   1.742 -0.0458  0.0758 -1.2480
 1065SOL     OW14830   2.085   4.173   7.336  0.2206 -0.1504 -0.1283
 1065SOL    HW114831   2.034   4.103   7.296  0.1707  0.9102 -1.9003
 1065SOL    HW214832   2.034   4.190   7.415 -2.0508 -0.7998 -1.4711
 1066SOL     OW14833   0.892   1.564  17.501  0.1718  0.5150 -0.1408
 1066SOL    HW114834   0.844   1.557  17.583  1.6456 -1.0311  0.6077
 1066SOL    HW214835   0.876   1.474  17.472 -0.3635  0.0156  1.7318
 1067SOL     OW14836   3.483   0.216   9.378  0.0172  0.2908 -0.0932
 1067SOL    HW114837   3.411   0.153   9.379 -1.1324  1.6428  2.8530
 1067SOL    HW214838   3.456   0.272   9.306 -0.9025 -0.9353 -0.7046
 1068SOL     OW14839   3.265   0.787   7.112  0.3368 -1.0703 -0.0026
 1068SOL    HW114840   3.317   0.867   7.120 -0.7475 -0.6375  2.7561
 1068SOL    HW214841   3.177   0.814   7.140  0.8925  0.2233  0.4675
 1069SOL     OW14842   1.663   2.202   6.965 -0.4520 -0.1655 -0.4434
 1069SOL    HW114843   1.746   2.210   7.012  0.2665 -0.6076 -1.6614
 1069SOL    HW214844   1.696   2.145   6.896  0.1156 -0.1943 -0.1483
 1070SOL     OW14845   0.185   1.523   1.099 -0.4604  0.0754  0.0444
 1070SOL    HW114846   0.161   1.561   1.183  0.4824 -1.5188  1.0428
 1070SOL    HW214847   0.225   1.599   1.056  1.1120 -0.0409  1.2938
 1071SOL     OW14848   1.670   3.510  12.272  0.1799  1.1117 -0.1972
 1071SOL    HW114849   1.589   3.487  12.226  0.1819  2.9799 -1.1170
 1071SOL    HW214850   1.736   3.451  12.235 -0.8188 -0.3029  0.2580
 1072SOL     OW14851   3.761   4.198   6.661  0.3205 -0.2822 -0.6466
 1072SOL    HW114852   3.843   4.248   6.662  1.6476 -2.4554 -3.5247
 1072SOL    HW214853   3.784   4.134   6.729  1.0775 -0.1759 -0.8020
 1073SOL     OW14854   4.469   1.028   7.766  0.2881  0.0485 -0.3201
 1073SOL    HW114855   4.464   1.071   7.680  3.1512  1.9933  0.4701
 1073SOL    HW214856   4.416   1.084   7.823  1.0552  0.3428  0.0999
 1074SOL     OW14857   4.521   2.428   4.184  0.1977 -0.2522  0.4590
 1074SOL    HW114858   4.457   2.371   4.226 -1.5407  0.7182 -0.8693
 1074SOL    HW214859   4.571   2.452   4.262  0.8260  1.5315 -0.4814
 1075SOL     OW14860   2.136   1.426  16.550  0.3425  0.0145 -0.3674
 1075SOL    HW114861   2.142   1.369  16.627 -0.5835 -2.3768 -2.0523
 1075SOL    HW214862   2.153   1.357  16.485  1.7899 -0.6429  0.7008
 1076SOL     OW14863   2.227   3.543   3.633  0.0046 -0.7066 -0.1227
 1076SOL    HW114864   2.283   3.591   3.572 -0.7814  1.2505  0.6934
 1076SOL    HW214865   2.174   3.606   3.681 -1.3250 -1.4790 -0.5820
 1077SOL     OW14866   3.268   2.327   8.204 -0.4496 -0.3402 -0.1331
 1077SOL    HW114867   3.285   2.349   8.296 -0.5761  0.0412 -0.1985
 1077SOL    HW214868   3.318   2.393   8.156  0.1497 -0.1350  0.7697
 1078SOL     OW14869   0.927   0.313   4.053 -0.0649 -0.0606 -0.2676
 1078SOL    HW114870   0.979   0.241   4.019  0.9314  1.4999 -2.1036
 1078SOL    HW214871   0.933   0.372   3.977 -0.0227  2.1812  1.4532
 1079SOL     OW14872   0.523   1.248   9.356  0.3866  0.3306  0.9112
 1079SOL    HW114873   0.445   1.201   9.327 -0.5501  1.9673  0.7700
 1079SOL    HW214874   0.543   1.204   9.439  2.8322  0.2854  0.3189
 1080SOL     OW14875   2.063   0.886   1.293  0.4338  0.4047 -0.0415
 1080SOL    HW114876   2.138   0.832   1.270  1.0492  0.5367  1.6269
 1080SOL    HW214877   2.043   0.862   1.384 -1.6965 -3.2378 -1.4743
 1081SOL     OW14878   0.384   1.933   8.841 -0.3794  0.2562 -0.0834
 1081SOL    HW114879   0.320   1.892   8.899  0.4852 -1.0038  0.0036
 1081SOL    HW214880   0.468   1.906   8.878  0.5894 -0.4191 -2.7620
 1082SOL     OW14881   0.251   2.515  12.823 -0.1748 -0.3026 -0.3795
 1082SOL    HW114882   0.253   2.458  12.900  0.6279  3.7105  2.5595
 1082SOL    HW214883   0.156   2.521  12.810 -0.3346 -1.5682  0.2166
 1083SOL     OW14884   2.349   3.116   7.465 -0.2417 -0.7041  0.0786
 1083SOL    HW114885   2.369   3.023   7.461  0.4973 -0.4806 -1.3754
 1083SOL    HW214886   2.435   3.155   7.477 -1.7534  3.0145 -1.2069
 1084SOL     OW14887   4.340   1.964   2.319  1.1255  0.1437 -1.0724
 1084SOL    HW114888   4.343   2.060   2.321 -1.1644  0.2098 -0.3414
 1084SOL    HW214889   4.361   1.946   2.227 -0.7016  0.9431 -1.6594
 1085SOL     OW14890   3.253   4.428   3.737 -0.3977  0.1971  0.0163
 1085SOL    HW114891   3.249   4.344   3.692 -0.2905  0.1844  0.0314
 1085SOL    HW214892   3.283   4.402   3.824  1.3580  1.9650 -0.0483
 1086SOL     OW14893   2.952   0.429   5.236  0.0073 -0.6416  0.4998
 1086SOL    HW114894   2.873   0.436   5.182 -0.2338  0.3330  0.9955
 1086SOL    HW214895   2.994   0.348   5.205 -0.4385 -1.0189  0.8878
 1087SOL     OW14896   2.705   4.605   7.009  0.6064 -0.3615 -0.0415
 1087SOL    HW114897   2.786   4.576   6.966  0.3464 -0.8796 -0.1817
 1087SOL    HW214898   2.650   4.527   6.998  0.6831 -0.6501  1.6426
 1088SOL     OW14899   0.611   2.513  12.283  0.0031  0.0959  0.4015
 1088SOL    HW114900   0.685   2.533  12.340  0.8818 -1.1417 -0.3294
 1088SOL    HW214901   0.642   2.543  12.198  0.5797  1.5449  1.1130
 1089SOL     OW14902   0.296   2.555   1.610  0.3983 -0.0393 -0.8114
 1089SOL    HW114903   0.297   2.548   1.515 -0.4323  2.8135 -1.0297
 1089SOL    HW214904   0.255   2.641   1.620  0.0455 -0.4753  1.3914
 1090SOL     OW14905   4.376   2.434  11.392 -0.4348  0.6128  0.2014
 1090SOL    HW114906   4.306   2.428  11.327  0.7511  2.4148 -1.2556
 1090SOL    HW214907   4.352   2.356  11.441  1.4809  0.4212  0.8296
 1091SOL     OW14908   0.940   0.231   2.851 -0.3637  0.4784  0.4246
 1091SOL    HW114909   0.980   0.235   2.938 -0.2166 -1.0693  0.4392
 1091SOL    HW214910   0.863   0.175   2.862 -0.2461  0.8633  3.2054
 1092SOL     OW14911   3.052   0.891   4.377 -0.1099  0.3036  0.4011
 1092SOL    HW114912   3.068   0.926   4.464  0.4824  2.0987 -0.4347
 1092SOL    HW214913   2.978   0.947   4.354  0.7119  1.8419  1.5601
 1093SOL     OW14914   4.245   2.302   0.594  0.3925  0.1955  0.4135
 1093SOL    HW114915   4.239   2.334   0.504 -0.6029  0.3983  0.5471
 1093SOL    HW214916   4.160   2.331   0.628  0.6674 -0.9632  2.0877
 1094SOL     OW14917   1.146   2.928  17.177  0.3018 -0.3625  0.3580
 1094SOL    HW114918   1.083   2.982  17.224  0.7679 -0.6044  1.2599
 1094SOL    HW214919   1.173   2.968  17.094 -0.1505 -1.0218 -0.1040
 1095SOL     OW14920   1.349   1.779   4.577  0.3049  0.0140 -0.1430
 1095SOL    HW114921   1.321   1.866   4.603  0.2936  0.9711 -3.3634
 1095SOL    HW214922   1.266   1.737   4.556  0.6180 -0.1775 -1.0315
 1096SOL     OW14923   1.767   1.524  17.628  0.0765  0.1102  0.0727
 1096SOL    HW114924   1.752   1.480  17.712  3.4870  2.5310  1.9503
 1096SOL    HW214925   1.693   1.497  17.574 -0.3130 -0.0446  0.6844
 1097SOL     OW14926   3.109   4.661   3.947 -0.2033 -0.2889 -0.1260
 1097SOL    HW114927   3.080   4.572   3.927 -1.2672 -0.5274  2.4671
 1097SOL    HW214928   3.038   4.675   4.009  0.4547  1.1507  0.2874
 1098SOL     OW14929   4.198   3.432  12.843 -0.0951 -0.2356 -0.2777
 1098SOL    HW114930   4.222   3.340  12.835  1.0623  0.1249 -1.1005
 1098SOL    HW214931   4.113   3.439  12.800 -1.0068 -2.0711  1.2749
 1099SOL     OW14932   2.835   3.470   3.879  0.4145 -0.9566  0.0344
 1099SOL    HW114933   2.749   3.436   3.905 -0.1208  1.1363  1.0572
 1099SOL    HW214934   2.887   3.397   3.913  1.0076  0.0510  1.2743
 1100SOL     OW14935   3.320   0.509   1.443 -0.1973  0.3941  0.9726
 1100SOL    HW114936   3.263   0.445   1.401  2.7874 -1.3710 -0.3809
 1100SOL    HW214937   3.378   0.459   1.501  1.9035  1.3276 -0.3507
 1101SOL     OW14938   0.310   3.016   2.048 -0.6854  0.3472 -0.0493
 1101SOL    HW114939   0.283   3.001   2.139 -1.1812 -0.9534 -0.4173
 1101SOL    HW214940   0.246   2.957   2.010  1.1069 -0.4421 -1.8487
 1102SOL     OW14941   2.686   2.087   6.752  0.5046  0.7977 -0.1990
 1102SOL    HW114942   2.727   2.003   6.729  0.5667  0.6353  0.4963
 1102SOL    HW214943   2.765   2.141   6.761  0.8157  0.6962 -2.2318
 1103SOL     OW14944   3.867   4.199   8.724 -0.3421  0.5004 -0.0873
 1103SOL    HW114945   3.948   4.149   8.720 -0.7454 -0.1432 -0.0708
 1103SOL    HW214946   3.826   4.166   8.804 -0.4902 -0.7962 -0.7064
 1104SOL     OW14947   4.506   0.858   3.154  0.1775  0.2524  0.2683
 1104SOL    HW114948   4.478   0.861   3.246 -3.0518 -0.0684 -0.7052
 1104SOL    HW214949   4.564   0.933   3.166  1.6378 -0.3397 -3.3207
 1105SOL     OW14950   0.415   4.625   3.144 -0.5435  0.8525 -0.3543
 1105SOL    HW114951   0.387   4.716   3.135 -1.1642  0.3871 -3.2769
 1105SOL    HW214952   0.468   4.634   3.223  1.9643 -1.8020 -1.7142
 1106SOL     OW14953   1.538   0.937   9.856 -0.1707 -0.4700  0.0660
 1106SOL    HW114954   1.497   0.908   9.774 -1.4483  2.0343 -0.2015
 1106SOL    HW214955   1.525   0.853   9.900  3.7315 -1.8550 -1.4860
 1107SOL     OW14956   3.372   0.043   6.199  0.1962  0.2030  0.0834
 1107SOL    HW114957   3.379   0.090   6.116 -1.3886  1.9050  0.9306
 1107SOL    HW214958   3.445   0.085   6.245  1.3448 -0.0689 -1.4599
 1108SOL     OW14959   2.564   1.241   6.858 -0.0736 -0.0392 -0.0335
 1108SOL    HW114960   2.639   1.251   6.799  0.3872  0.8032  0.6824
 1108SOL    HW214961   2.522   1.327   6.860 -0.9615 -0.4412 -1.4803
 1109SOL     OW14962   0.277   3.369   4.040 -0.2071 -0.7152  0.1114
 1109SOL    HW114963   0.197   3.333   4.001 -0.3465 -0.4412  0.1371
 1109SOL    HW214964   0.308   3.410   3.959 -0.0572  0.5588  0.7988
 1110SOL     OW14965   2.312   4.000   4.067 -0.6337 -0.5133  0.1894
 1110SOL    HW114966   2.336   3.912   4.039  0.8108  0.3553 -1.2897
 1110SOL    HW214967   2.372   4.049   4.010 -1.0367 -0.2125  0.0246
 1111SOL     OW14968   0.457   2.653   7.610 -0.5915 -1.0002 -0.3552
 1111SOL    HW114969   0.536   2.606   7.584 -0.0260 -0.2733  0.0423
 1111SOL    HW214970   0.460   2.736   7.562 -1.6548 -0.2918  0.8144
 1112SOL     OW14971   1.313   2.778  11.607 -0.0673 -0.4689  0.7127
 1112SOL    HW114972   1.362   2.838  11.551 -0.0782  0.1802  1.3925
 1112SOL    HW214973   1.381   2.710  11.607  1.9804  1.5697  0.3965
 1113SOL     OW14974   2.141   4.715   8.771 -0.3687 -0.3286  0.2175
 1113SOL    HW114975   2.149   4.634   8.721  1.0535 -0.4346  0.6294
 1113SOL    HW214976   2.228   4.725   8.809 -0.6237 -0.1659  0.7715
 1114SOL     OW14977   0.738   3.177   1.127  0.2316  0.1381 -0.1351
 1114SOL    HW114978   0.809   3.159   1.065 -0.8451  2.5765 -2.1046
 1114SOL    HW214979   0.672   3.127   1.080 -0.3936 -0.3514  1.2945
 1115SOL     OW14980   0.665   4.117   7.573  0.8332  0.3992 -0.8082
 1115SOL    HW114981   0.691   4.195   7.525  2.5479  0.0446 -0.4292
 1115SOL    HW214982   0.695   4.043   7.520  0.6701 -0.4461  0.2948
 1116SOL     OW14983   0.892   0.951  17.227 -0.3174  0.4347  0.2654
 1116SOL    HW114984   0.801   0.972  17.244 -0.8535 -1.0509 -0.7382
 1116SOL    HW214985   0.886   0.858  17.203  0.9635 -0.0099  1.6370
 1117SOL     OW14986   2.634   2.832  11.649 -0.1465 -0.3299  0.4613
 1117SOL    HW114987   2.610   2.794  11.565 -0.6476  1.7380 -0.3319
 1117SOL    HW214988   2.624   2.757  11.707  0.1398 -1.3804 -0.8415
 1118SOL     OW14989   2.595   0.808   8.304 -0.0823  0.1432 -0.4076
 1118SOL    HW114990   2.571   0.893   8.269  0.6050  0.3718 -0.3089
 1118SOL    HW214991   2.690   0.803   8.291 -0.1893 -0.9473 -0.8213
 1119SOL     OW14992   3.865   2.930  16.588 -0.0065 -0.2228 -0.0821
 1119SOL    HW114993   3.838   2.923  16.497 -0.4158  0.6082 -0.0211
 1119SOL    HW214994   3.945   2.877  16.581  1.7457  2.2644  0.9748
 1120SOL     OW14995   1.463   0.303   2.353  0.1086 -0.0757 -0.5028
 1120SOL    HW114996   1.410   0.261   2.421 -0.9247  2.4106  0.2286
 1120SOL    HW214997   1.539   0.339   2.399  0.6749 -0.8629 -0.8229
 1121SOL     OW14998   0.483   2.314   8.280  0.6707 -0.4093  0.1275
 1121SOL    HW114999   0.528   2.395   8.302 -1.8914  1.1885 -0.4889
 1121SOL    HW215000   0.495   2.264   8.361  2.6894  0.2355  0.2248
 1122SOL     OW15001   2.469   0.320  12.411 -0.2070  0.0357 -0.2522
 1122SOL    HW115002   2.450   0.262  12.336  2.5353  0.4722 -1.2839
 1122SOL    HW215003   2.452   0.401  12.362 -3.3298  0.4341  1.4822
 1123SOL     OW15004   2.886   1.340  14.429 -0.1836  0.1217 -0.3284
 1123SOL    HW115005   2.936   1.409  14.471  0.2616 -0.3060 -0.1618
 1123SOL    HW215006   2.922   1.265  14.476  2.7622  2.3332  0.9587
 1124SOL     OW15007   1.795   2.248   8.281 -0.1628 -0.5717  0.0926
 1124SOL    HW115008   1.883   2.267   8.312 -0.2181 -1.5750  0.8753
 1124SOL    HW215009   1.746   2.309   8.336 -0.3366 -0.5639 -0.0701
 1125SOL     OW15010   0.163   3.013  12.159 -0.0626 -0.0927  0.4424
 1125SOL    HW115011   0.248   3.052  12.179 -0.7991  1.8457 -0.2127
 1125SOL    HW215012   0.181   2.945  12.094  1.5698 -1.5924  2.4513
 1126SOL     OW15013   4.256   4.099   7.003 -0.2331  0.2505 -0.5724
 1126SOL    HW115014   4.247   4.022   7.058 -3.9218 -1.0850 -3.0186
 1126SOL    HW215015   4.334   4.132   7.048 -0.6806  0.4199  0.0740
 1127SOL     OW15016   0.459   3.297   9.694  0.1578 -0.4629  0.1023
 1127SOL    HW115017   0.415   3.251   9.765 -0.2953  0.1081  0.1977
 1127SOL    HW215018   0.535   3.336   9.737 -0.1083 -0.5383  0.6536
 1128SOL     OW15019   3.668   0.080  13.617 -0.4436 -0.6546 -0.1351
 1128SOL    HW115020   3.712   0.162  13.640 -0.7896 -0.8729  1.3453
 1128SOL    HW215021   3.622   0.055  13.697 -0.6754  0.8486  0.1994
 1129SOL     OW15022   3.531   3.210   6.992  0.2168 -0.5449 -0.5969
 1129SOL    HW115023   3.550   3.226   7.084 -0.8949 -0.0263 -0.4466
 1129SOL    HW215024   3.529   3.115   6.988 -1.5182 -0.4476 -1.9063
 1130SOL     OW15025   1.011   2.213   2.794 -0.3386 -0.0470  0.0885
 1130SOL    HW115026   0.983   2.133   2.749  0.4513  0.0090 -0.5104
 1130SOL    HW215027   1.071   2.179   2.860  0.8487  0.8145 -0.5490
 1131SOL     OW15028   4.485   2.507   3.278  0.2823 -0.1184 -0.5372
 1131SOL    HW115029   4.488   2.495   3.183  0.4882  0.2441 -0.5762
 1131SOL    HW215030   4.521   2.596   3.279  0.4202 -0.1669 -1.7519
 1132SOL     OW15031   2.737   1.723   6.416 -0.3683  0.0287 -0.0356
 1132SOL    HW115032   2.664   1.690   6.364 -0.4544  2.5731 -1.5181
 1132SOL    HW215033   2.796   1.647   6.413 -0.9035 -0.3751 -0.4327
 1133SOL     OW15034   1.840   4.369   9.002  0.0705 -0.2135  0.0256
 1133SOL    HW115035   1.755   4.401   9.031 -0.1486  1.8454 -2.8401
 1133SOL    HW215036   1.858   4.419   8.922  0.5082 -1.4101 -0.6180
 1134SOL     OW15037   2.960   4.589  12.216 -0.1120  0.3573  0.3960
 1134SOL    HW115038   2.992   4.601  12.126 -0.2539  2.3284  0.6031
 1134SOL    HW215039   2.943   4.681  12.236 -1.1447 -0.0201  1.2542
 1135SOL     OW15040   4.472   2.009   3.470 -0.2965  0.1054 -0.2433
 1135SOL    HW115041   4.460   2.104   3.474 -3.3099 -0.3716  1.5106
 1135SOL    HW215042   4.524   1.997   3.549 -0.0216 -0.9855 -0.5783
 1136SOL     OW15043   0.038   4.690  15.144  0.8161  0.1623 -0.0579
 1136SOL    HW115044   0.074   0.040  15.153 -0.8951  0.7766  0.6749
 1136SOL    HW215045   0.105   4.630  15.176  1.0993  0.5714  0.1231
 1137SOL     OW15046   0.823   0.239  16.808  0.2074  0.0348  0.1885
 1137SOL    HW115047   0.806   0.263  16.716 -0.3413  1.3139  0.6285
 1137SOL    HW215048   0.793   0.148  16.813  1.5994 -0.3981  0.6940
 1138SOL     OW15049   3.668   4.293   9.552 -0.5486  0.2485  0.3222
 1138SOL    HW115050   3.709   4.221   9.601  1.9048 -0.0921 -2.2082
 1138SOL    HW215051   3.714   4.366   9.593  2.0888 -1.0563 -0.2920
 1139SOL     OW15052   4.256   2.252   4.999 -0.1776 -0.2341 -0.0518
 1139SOL    HW115053   4.284   2.252   4.907  0.9485 -0.2992  0.3016
 1139SOL    HW215054   4.219   2.163   4.998 -1.0801  0.1492 -0.8058
 1140SOL     OW15055   0.197   4.581   5.929 -0.2658  0.3798 -0.0381
 1140SOL    HW115056   0.144   4.542   5.860  0.2809 -0.0391 -0.2156
 1140SOL    HW215057   0.243   4.505   5.965 -0.4048  0.4768  0.3543
 1141SOL     OW15058   2.464   0.041   4.780  0.3157  0.2393  0.1440
 1141SOL    HW115059   2.370   0.028   4.784  0.2982  0.0463 -0.7516
 1141SOL    HW215060   2.466   0.090   4.697 -2.8565 -1.5399 -0.9933
 1142SOL     OW15061   3.524   2.877   1.489 -0.2733  0.3755  0.0048
 1142SOL    HW115062   3.465   2.808   1.460  1.1143  0.0940 -2.2114
 1142SOL    HW215063   3.503   2.950   1.430 -0.9014  0.0763 -0.1434
 1143SOL     OW15064   3.736   1.854   6.182  0.0544 -0.6245 -0.4330
 1143SOL    HW115065   3.803   1.844   6.249 -0.9518 -0.5912  0.5746
 1143SOL    HW215066   3.706   1.765   6.167 -1.8761 -0.0335 -0.1317
 1144SOL     OW15067   2.758   1.665  15.859  0.2724  0.0582 -0.2335
 1144SOL    HW115068   2.832   1.672  15.919  1.2868  0.7162 -1.5651
 1144SOL    HW215069   2.690   1.640  15.922  2.0562 -1.1067  1.2207
 1145SOL     OW15070   1.935   4.469  11.757  0.1652  0.4094  0.3910
 1145SOL    HW115071   2.026   4.490  11.734  0.6116 -1.0625  0.7716
 1145SOL    HW215072   1.945   4.395  11.817  0.6471 -0.2747 -0.5444
 1146SOL     OW15073   1.739   3.728  12.390  0.0689 -0.3923  0.2836
 1146SOL    HW115074   1.704   3.641  12.371  0.4203 -0.1417 -1.5176
 1146SOL    HW215075   1.823   3.712  12.434  0.0947  1.5378  0.9531
 1147SOL     OW15076   1.707   3.428  17.191  0.3283  0.0831 -0.1558
 1147SOL    HW115077   1.777   3.366  17.212 -0.0727  0.4471  2.2376
 1147SOL    HW215078   1.689   3.473  17.274 -0.6639 -1.4788  0.4767
 1148SOL     OW15079   2.673   0.608   4.798 -0.5518 -0.1529 -0.0850
 1148SOL    HW115080   2.648   0.609   4.706  0.3732 -2.2440 -0.3534
 1148SOL    HW215081   2.644   0.695   4.826  0.3309  0.2794 -0.5498
 1149SOL     OW15082   2.549   3.702  12.331  0.0920  0.1562 -0.2158
 1149SOL    HW115083   2.579   3.786  12.364  0.4229 -0.2614  0.5573
 1149SOL    HW215084   2.528   3.722  12.240 -0.8077 -0.7031 -0.2110
 1150SOL     OW15085   3.183   0.260   6.984 -0.4320  0.4642 -0.0309
 1150SOL    HW115086   3.262   0.313   6.981  0.6819 -1.2272 -0.4015
 1150SOL    HW215087   3.126   0.302   7.049 -0.6406 -1.5587  1.1123
 1151SOL     OW15088   4.467   2.988   0.612 -0.2366 -0.0329 -0.3528
 1151SOL    HW115089   4.535   3.054   0.602  0.8404 -1.1028 -0.0608
 1151SOL    HW215090   4.518   2.921   0.567  0.1313  0.3932 -0.5673
 1152SOL     OW15091   0.933   4.154   4.902  0.1012 -0.7127 -0.3394
 1152SOL    HW115092   0.878   4.150   4.979 -0.0395  0.2599 -0.3953
 1152SOL    HW215093   0.899   4.236   4.867  0.0415  0.5998  2.8297
 1153SOL     OW15094   2.106   3.476   5.993 -0.4001  0.1774 -0.1786
 1153SOL    HW115095   2.082   3.389   6.025  3.0955  0.0696  2.2098
 1153SOL    HW215096   2.019   3.512   6.008 -0.0136  0.8170  0.5188
 1154SOL     OW15097   2.230   1.987  14.627  0.3621 -0.2658  0.6463
 1154SOL    HW115098   2.236   2.076  14.659 -2.9726 -0.2357  1.2693
 1154SOL    HW215099   2.146   1.963  14.668 -0.0571  0.5552  0.2649
 1155SOL     OW15100   1.059   0.526   0.785  0.3968  0.0378 -0.0005
 1155SOL    HW115101   1.137   0.570   0.818 -0.6117  1.7097  0.1637
 1155SOL    HW215102   1.092   0.442   0.753 -2.6012 -1.7116  1.5496
 1156SOL     OW15103   2.791   0.532  10.698  0.4737 -0.3764  0.8853
 1156SOL    HW115104   2.738   0.489  10.631  1.4160 -0.5462  0.2524
 1156SOL    HW215105   2.879   0.496  10.700  1.1327  1.1391 -0.4954
 1157SOL     OW15106   0.388   1.763   4.613 -0.1363 -0.7080  0.3232
 1157SOL    HW115107   0.356   1.761   4.703 -0.3930  0.2361  0.2558
 1157SOL    HW215108   0.461   1.818   4.640 -1.0933  1.6306 -1.7591
 1158SOL     OW15109   3.016   4.688  12.482 -0.2347 -0.5542  0.5550
 1158SOL    HW115110   3.026   4.608  12.430 -0.9620 -0.3845  0.1476
 1158SOL    HW215111   3.093   4.737  12.453  0.6284 -0.1111  3.6893
 1159SOL     OW15112   3.177   4.249  10.575 -0.0745  0.0715  0.1833
 1159SOL    HW115113   3.218   4.286  10.497 -0.3675  0.1522  0.0709
 1159SOL    HW215114   3.239   4.280  10.642 -0.4679  2.6800 -0.6291
 1160SOL     OW15115   4.433   0.675   9.677 -0.2504  0.0086 -0.7612
 1160SOL    HW115116   4.458   0.767   9.682  1.2757 -0.3108 -2.6767
 1160SOL    HW215117   4.468   0.629   9.754 -0.3541  1.1123 -0.0541
 1161SOL     OW15118   1.907   1.595  16.531 -0.6189 -0.0129 -0.6244
 1161SOL    HW115119   1.975   1.628  16.590  1.1548 -2.0219 -1.5293
 1161SOL    HW215120   1.920   1.500  16.539 -0.4850  0.0585 -0.0093
 1162SOL     OW15121   2.016   4.556  17.254 -0.1182 -0.1999  0.2239
 1162SOL    HW115122   1.992   4.646  17.233 -1.0661 -0.6153 -0.4773
 1162SOL    HW215123   2.096   4.557  17.202  0.6855  1.2255  1.4866
 1163SOL     OW15124   1.833   4.035   4.409 -0.3043  0.2973  0.0198
 1163SOL    HW115125   1.767   3.992   4.354 -0.1829  2.2886 -1.7008
 1163SOL    HW215126   1.899   3.967   4.419 -0.4563  0.0483 -0.6089
 1164SOL     OW15127   2.009   0.373   6.470 -0.1649 -0.6037 -0.5101
 1164SOL    HW115128   2.002   0.360   6.376  1.5395 -3.2179 -0.2703
 1164SOL    HW215129   2.102   0.373   6.491  0.5012  0.1978 -3.4550
 1165SOL     OW15130   3.728   3.882   7.027  0.5258 -0.2768  0.0906
 1165SOL    HW115131   3.794   3.898   7.094  1.5069  0.8915 -1.1450
 1165SOL    HW215132   3.760   3.923   6.947  1.8077 -2.2348 -0.4067
 1166SOL     OW15133   0.149   3.236   3.001  0.5665 -0.4349 -0.3846
 1166SOL    HW115134   0.120   3.327   3.008  1.7559 -0.1545  0.8200
 1166SOL    HW215135   0.114   3.220   2.914  0.2384 -2.0960  0.0578
 1167SOL     OW15136   2.161   4.005   9.703  0.3764 -0.0826 -0.0785
 1167SOL    HW115137   2.204   4.083   9.668  0.2380 -0.5473 -1.2702
 1167SOL    HW215138   2.216   3.933   9.672  0.9190 -0.6616  2.2169
 1168SOL     OW15139   4.718   3.014   3.063  0.8150  0.1229 -0.0620
 1168SOL    HW115140   0.027   3.097   3.053 -2.8103  2.2736  1.0267
 1168SOL    HW215141   4.677   3.046   3.143 -0.5792  1.3002 -1.2475
 1169SOL     OW15142   0.598   2.639   1.699  0.1642  0.1385 -0.4728
 1169SOL    HW115143   0.584   2.641   1.794 -2.8166  0.0766 -0.9394
 1169SOL    HW215144   0.577   2.727   1.667 -1.7275 -0.8487 -1.8974
 1170SOL     OW15145   3.347   1.373   1.013  0.5385  0.4202 -0.0480
 1170SOL    HW115146   3.308   1.457   0.988  1.7288  0.3331 -2.1008
 1170SOL    HW215147   3.436   1.399   0.992 -0.2074  1.9100 -1.3931
 1171SOL     OW15148   1.711   3.929  10.222  0.0967 -0.1630 -0.2484
 1171SOL    HW115149   1.696   3.958  10.132  1.4601  0.5114 -0.2670
 1171SOL    HW215150   1.621   3.921  10.253  1.5069 -0.9194  3.5930
 1172SOL     OW15151   3.696   3.172   7.877  0.1008  0.1063  0.2245
 1172SOL    HW115152   3.746   3.191   7.798 -1.4443  0.7428 -0.6051
 1172SOL    HW215153   3.723   3.247   7.930 -1.4121  1.0644 -0.3424
 1173SOL     OW15154   0.110   2.568   6.162 -0.0628 -0.1341 -0.0683
 1173SOL    HW115155   0.122   2.639   6.098  1.2704  1.1375  1.5836
 1173SOL    HW215156   0.047   2.609   6.222 -1.3872 -0.7162 -1.0422
 1174SOL     OW15157   2.775   1.391   5.342 -0.3374  0.3540  0.5382
 1174SOL    HW115158   2.742   1.436   5.264 -0.2072 -0.4494  0.0185
 1174SOL    HW215159   2.694   1.344   5.356 -0.5529 -0.0594 -2.1102
 1175SOL     OW15160   0.141   0.282   5.115  0.2376  0.5058 -0.0968
 1175SOL    HW115161   0.099   0.310   5.196  0.9054 -0.8927  0.7170
 1175SOL    HW215162   0.077   0.325   5.058  0.4032  3.3941  1.9327
 1176SOL     OW15163   3.795   3.000   8.326  0.1749  0.4656 -0.7693
 1176SOL    HW115164   3.866   3.002   8.262  0.0416  1.2963 -0.8887
 1176SOL    HW215165   3.740   2.937   8.279 -2.1961  2.4817 -0.7282
 1177SOL     OW15166   0.418   4.700  14.207  0.3090 -0.2175  0.5272
 1177SOL    HW115167   0.472   4.730  14.133  0.5939  1.8577  1.5769
 1177SOL    HW215168   0.347   0.021  14.185  1.1136  0.4638 -0.2553
 1178SOL     OW15169   4.728   3.607  12.464 -0.0579 -0.0311  0.3800
 1178SOL    HW115170   4.729   3.603  12.559  1.0847  1.6703  0.4190
 1178SOL    HW215171   0.001   3.701  12.453 -0.8668 -0.2797 -2.8206
 1179SOL     OW15172   2.890   0.736   5.757 -0.1341 -0.2626 -0.3605
 1179SOL    HW115173   2.833   0.730   5.834  0.5293  2.0096  0.3112
 1179SOL    HW215174   2.918   0.644   5.748 -2.2661 -0.8824 -0.6497
 1180SOL     OW15175   0.632   2.883   7.215 -0.5453 -1.0357  0.2807
 1180SOL    HW115176   0.586   2.900   7.297 -0.2234  2.7583 -0.3199
 1180SOL    HW215177   0.560   2.901   7.155 -1.4217 -2.3659  0.9406
 1181SOL     OW15178   2.614   2.793   3.047 -0.5394 -0.1173 -0.6229
 1181SOL    HW115179   2.687   2.737   3.073 -1.1290 -0.4182  0.3533
 1181SOL    HW215180   2.656   2.880   3.050 -0.3197 -0.3310  2.7893
 1182SOL     OW15181   1.974   2.772   0.670  0.0317 -0.1693 -0.1813
 1182SOL    HW115182   1.965   2.845   0.732  0.9320 -0.6802  0.5551
 1182SOL    HW215183   1.925   2.706   0.717 -0.0600  0.0324  0.0090
 1183SOL     OW15184   4.136   0.574  14.041  0.5330  0.0289  0.5969
 1183SOL    HW115185   4.062   0.590  13.982  0.6821 -0.5260  0.2667
 1183SOL    HW215186   4.175   0.658  14.064  2.2575 -0.7481  0.4748
 1184SOL     OW15187   2.347   2.565   5.250 -0.4085  0.7076 -0.5841
 1184SOL    HW115188   2.425   2.554   5.304 -2.1187 -0.1423  1.6647
 1184SOL    HW215189   2.285   2.599   5.314  1.5398 -0.2496  1.7842
 1185SOL     OW15190   2.042   0.688   0.424 -0.5997  0.1844  0.8936
 1185SOL    HW115191   2.102   0.762   0.421  0.9716 -1.0770  0.9029
 1185SOL    HW215192   1.985   0.685   0.346 -0.6628 -1.4413  1.0010
 1186SOL     OW15193   0.502   3.934   2.743 -0.6541 -0.3148  0.1317
 1186SOL    HW115194   0.454   3.873   2.800 -2.4616  1.1671  0.1840
 1186SOL    HW215195   0.539   3.987   2.813 -0.4831 -1.2729  0.7744
 1187SOL     OW15196   1.029   2.348   1.652  0.2922 -0.0935 -0.2272
 1187SOL    HW115197   1.064   2.407   1.586  0.6736 -0.0818 -0.0205
 1187SOL    HW215198   0.971   2.407   1.701  0.4936  0.7535 -1.0242
 1188SOL     OW15199   3.432   0.739   1.307  0.1913  0.7027  0.0204
 1188SOL    HW115200   3.525   0.747   1.328  0.3305 -2.0582  0.4901
 1188SOL    HW215201   3.408   0.672   1.371 -2.1282  0.0479 -1.5159
 1189SOL     OW15202   2.515   1.978   1.986 -0.2062 -0.1375  0.0204
 1189SOL    HW115203   2.566   1.905   2.019 -2.5420 -1.9856 -0.4940
 1189SOL    HW215204   2.422   1.954   1.987 -0.1685 -0.1916  1.7101
 1190SOL     OW15205   3.508   3.988  16.353  0.0334 -0.1821 -0.3522
 1190SOL    HW115206   3.469   4.069  16.386  0.2906 -0.3561  0.3758
 1190SOL    HW215207   3.495   3.932  16.429  3.5470 -1.9905 -1.0767
 1191SOL     OW15208   2.502   2.035  12.266  0.1512  0.0364 -0.2239
 1191SOL    HW115209   2.458   2.067  12.345  2.3816 -0.7884  1.3669
 1191SOL    HW215210   2.578   2.093  12.266  1.1092 -1.2254 -1.3863
 1192SOL     OW15211   4.706   0.617   0.409  0.9984  0.5121 -0.3119
 1192SOL    HW115212   0.014   0.533   0.404  1.3491  0.8585 -3.3990
 1192SOL    HW215213   4.635   0.618   0.344  1.1521  2.2847 -0.4644
 1193SOL     OW15214   3.232   3.491  11.265  0.5987 -0.2980  0.0526
 1193SOL    HW115215   3.147   3.520  11.232  0.0245  0.9267  2.6485
 1193SOL    HW215216   3.235   3.397  11.250  1.9180 -0.4233  1.1511
 1194SOL     OW15217   2.277   1.915  13.303  0.4053  1.0620 -0.0662
 1194SOL    HW115218   2.188   1.948  13.310  0.7731  2.4330 -1.7754
 1194SOL    HW215219   2.261   1.852  13.233  3.4279 -0.2803  0.4342
 1195SOL     OW15220   3.703   1.331   6.470 -0.4753 -0.4072 -0.3763
 1195SOL    HW115221   3.615   1.299   6.451 -0.6306 -0.6491  0.7932
 1195SOL    HW215222   3.690   1.426   6.481 -0.9800 -0.9666  3.6475
 1196SOL     OW15223   1.229   2.984   6.092 -0.0800  0.4026  0.0480
 1196SOL    HW115224   1.189   3.061   6.132 -2.6336 -0.3678 -0.9893
 1196SOL    HW215225   1.302   3.025   6.046 -0.4028  0.4550 -0.4127
 1197SOL     OW15226   2.465   0.985   6.856  0.2142 -0.3064  0.4828
 1197SOL    HW115227   2.537   1.043   6.880 -0.8476  0.6808  1.2648
 1197SOL    HW215228   2.475   0.919   6.925  0.5899 -0.7397  0.0114
 1198SOL     OW15229   3.284   3.761   2.387 -0.0621 -0.3235 -0.1970
 1198SOL    HW115230   3.234   3.833   2.425 -2.1820 -0.6602 -2.3448
 1198SOL    HW215231   3.246   3.687   2.435 -0.2343 -0.4429 -0.5223
 1199SOL     OW15232   0.267   3.567   7.962 -0.4706  0.0842 -0.4034
 1199SOL    HW115233   0.199   3.548   7.898 -1.6491  0.7102  0.6725
 1199SOL    HW215234   0.280   3.659   7.940  2.5094 -0.2991 -0.2921
 1200SOL     OW15235   2.579   3.374  16.340  0.4702  0.4427  0.1656
 1200SOL    HW115236   2.489   3.405  16.341  0.4229  0.2762  3.8578
 1200SOL    HW215237   2.589   3.341  16.251 -1.0212 -2.3815  1.0645
 1201SOL     OW15238   0.919   0.274   3.700 -0.4164 -0.0466  0.2521
 1201SOL    HW115239   0.970   0.348   3.667  0.8385 -0.2956  1.6226
 1201SOL    HW215240   0.994   0.216   3.714 -0.2244  0.2512  0.4612
 1202SOL     OW15241   1.686   0.299   4.926  0.8065 -0.0682 -0.2826
 1202SOL    HW115242   1.642   0.381   4.903 -0.3877 -0.8519 -0.8092
 1202SOL    HW215243   1.617   0.244   4.961 -1.4191  1.1937 -2.6219
 1203SOL     OW15244   4.053   4.518   8.899  0.5259  0.0784 -0.9431
 1203SOL    HW115245   4.131   4.487   8.853  0.9614  2.4857 -1.8436
 1203SOL    HW215246   4.009   4.440   8.933  0.3261  1.0864  1.1417
 1204SOL     OW15247   2.078   4.130   8.690  0.4226  0.1349  0.6583
 1204SOL    HW115248   1.992   4.117   8.729 -0.2883  2.1421 -0.2783
 1204SOL    HW215249   2.038   4.187   8.625  0.9629 -2.3054 -1.8339
 1205SOL     OW15250   2.804   0.397  10.973 -0.0233 -0.1914 -0.7888
 1205SOL    HW115251   2.819   0.485  11.005 -0.9164  0.0556 -1.0487
 1205SOL    HW215252   2.825   0.405  10.880  2.3176 -1.5683 -0.3848
 1206SOL     OW15253   4.375   0.652   6.213 -0.0053 -0.1501  0.2645
 1206SOL    HW115254   4.332   0.645   6.299  0.7655 -0.8129  0.5929
 1206SOL    HW215255   4.355   0.744   6.196 -2.1561 -0.5839  0.4541
 1207SOL     OW15256   4.714   2.561   5.659  0.0650 -1.1857  0.0537
 1207SOL    HW115257   4.659   2.518   5.725 -1.5139 -1.1331 -1.2274
 1207SOL    HW215258   0.028   2.624   5.709  0.9958 -0.2183 -2.1508
 1208SOL     OW15259   3.731   2.309   4.342  0.3558 -0.5905 -0.3753
 1208SOL    HW115260   3.792   2.333   4.273 -0.2630  0.4963 -0.5550
 1208SOL    HW215261   3.774   2.330   4.425 -1.7118 -1.5685  0.9476
 1209SOL     OW15262   0.327   0.501   7.750 -0.0216 -0.0307 -0.3078
 1209SOL    HW115263   0.390   0.430   7.741  0.2464  0.2123 -0.3715
 1209SOL    HW215264   0.302   0.495   7.842 -0.3919 -0.6138 -0.4524
 1210SOL     OW15265   2.327   1.104   2.658  0.4159  0.3915 -0.2034
 1210SOL    HW115266   2.261   1.156   2.614 -1.3462 -3.2264 -1.9002
 1210SOL    HW215267   2.355   1.044   2.589 -0.0385 -0.1505  0.0827
 1211SOL     OW15268   2.851   0.981   6.734  0.6215 -0.7259 -0.9033
 1211SOL    HW115269   2.856   0.891   6.767  1.7655 -0.1226  0.5753
 1211SOL    HW215270   2.822   1.019   6.817 -0.6266 -1.4123 -1.0174
 1212SOL     OW15271   1.242   4.388   6.947  0.4005  0.4883  0.5308
 1212SOL    HW115272   1.187   4.461   6.920  1.0614  0.3759 -1.1706
 1212SOL    HW215273   1.327   4.428   6.967  1.1089  0.7172 -2.9363
 1213SOL     OW15274   4.291   4.670   8.167 -0.1843  0.2801 -0.6824
 1213SOL    HW115275   4.245   0.013   8.147 -0.2684 -0.3701 -3.1945
 1213SOL    HW215276   4.355   4.703   8.231 -1.3682  0.6804  0.2880
 1214SOL     OW15277   4.556   1.916   3.728  0.0209  0.8364 -0.7586
 1214SOL    HW115278   4.518   1.972   3.796 -1.0036 -1.5246  0.5961
 1214SOL    HW215279   4.626   1.871   3.776 -0.7187  1.8113  1.2072
 1215SOL     OW15280   4.454   3.979   2.038  0.0524 -0.0558 -0.5324
 1215SOL    HW115281   4.384   3.932   2.083 -0.8566  0.4502 -1.4096
 1215SOL    HW215282   4.506   3.911   1.996 -1.1717 -1.8191  0.8130
 1216SOL     OW15283   3.600   1.169   5.600 -0.6191 -0.3902 -0.0806
 1216SOL    HW115284   3.588   1.074   5.603  1.9845 -0.6710  1.6448
 1216SOL    HW215285   3.512   1.203   5.587 -1.9652 -2.9351  2.4642
 1217SOL     OW15286   1.444   2.853   1.012  0.2937 -0.1427  0.4565
 1217SOL    HW115287   1.433   2.787   1.081  1.1580 -0.0843  0.6529
 1217SOL    HW215288   1.414   2.813   0.931 -1.2945  3.0550 -0.5299
 1218SOL     OW15289   1.528   2.905   5.145  0.3413  0.0463 -0.1660
 1218SOL    HW115290   1.517   2.958   5.066  0.3528 -1.8111 -1.4183
 1218SOL    HW215291   1.487   2.824   5.112 -1.8492  0.6709  1.0469
 1219SOL     OW15292   0.591   1.078   2.743 -0.1181 -0.0282  0.7039
 1219SOL    HW115293   0.644   1.059   2.665 -1.4248  0.4473 -0.2967
 1219SOL    HW215294   0.566   1.170   2.731 -0.2639 -0.3407 -1.3748
 1220SOL     OW15295   3.772   3.788  16.050 -0.0717 -0.7549 -0.4263
 1220SOL    HW115296   3.800   3.831  16.130 -3.2198 -1.5382  1.0858
 1220SOL    HW215297   3.823   3.836  15.985 -0.6196 -0.0708 -0.3498
 1221SOL     OW15298   3.953   2.307   9.307 -0.0969  0.1278 -0.3820
 1221SOL    HW115299   3.979   2.304   9.399 -1.4830 -4.0656 -0.1173
 1221SOL    HW215300   3.898   2.385   9.304 -0.2970  0.0703  1.5574
 1222SOL     OW15301   0.251   1.315   7.863 -0.0848 -0.4597 -0.5611
 1222SOL    HW115302   0.257   1.273   7.777  1.0199  1.9765 -1.6702
 1222SOL    HW215303   0.317   1.383   7.847 -0.3126 -0.2849 -0.7640
 1223SOL     OW15304   1.813   2.660  11.271  0.1259  0.1223  0.1541
 1223SOL    HW115305   1.825   2.705  11.354  3.0473  0.7754 -0.6084
 1223SOL    HW215306   1.901   2.622  11.259 -0.3213 -1.2941  1.3086
 1224SOL     OW15307   0.571   3.259   4.198  0.3125  0.5396  0.0752
 1224SOL    HW115308   0.507   3.209   4.148 -1.6960  2.0962  1.0819
 1224SOL    HW215309   0.636   3.200   4.235  0.1556  0.5346  0.3437
 1225SOL     OW15310   2.035   1.603   2.342 -1.0336 -0.6413  0.1077
 1225SOL    HW115311   1.942   1.596   2.365 -1.0143 -0.1562  0.3140
 1225SOL    HW215312   2.026   1.626   2.249  3.3666 -1.1586 -0.4499
 1226SOL     OW15313   0.372   4.334  17.684 -0.1269 -0.5672 -0.1243
 1226SOL    HW115314   0.394   4.315   0.025  0.2316 -2.2119 -0.5720
 1226SOL    HW215315   0.342   4.251  17.649 -1.2932  0.1244 -0.7665
 1227SOL     OW15316   4.497   1.480   1.858 -0.2550  0.3619 -0.7824
 1227SOL    HW115317   4.507   1.513   1.769  2.0149  0.8632 -0.3654
 1227SOL    HW215318   4.407   1.504   1.878 -0.3464 -1.6250  1.1694
 1228SOL     OW15319   4.465   4.384  13.767 -0.2094  0.0551  0.0630
 1228SOL    HW115320   4.382   4.401  13.810  0.9589  0.4520  2.1657
 1228SOL    HW215321   4.428   4.326  13.701 -1.9776 -0.1466  1.2539
 1229SOL     OW15322   1.419   0.101   5.805 -0.3396 -0.2886 -0.1744
 1229SOL    HW115323   1.328   0.125   5.784 -0.0612  1.6046  0.6835
 1229SOL    HW215324   1.444   0.053   5.726 -1.9461  0.2608 -1.0180
 1230SOL     OW15325   2.494   1.476   3.296 -0.2650 -0.5082 -0.1664
 1230SOL    HW115326   2.561   1.443   3.356 -0.2912  0.7660  0.5662
 1230SOL    HW215327   2.424   1.412   3.304 -1.0505  0.4207  0.4430
 1231SOL     OW15328   0.317   0.085   7.886 -0.3621  0.5592  0.5680
 1231SOL    HW115329   0.366   0.061   7.964  0.8610  0.4266 -0.2430
 1231SOL    HW215330   0.368   0.160   7.856  0.8125  0.0383  1.2699
 1232SOL     OW15331   2.782   2.988   0.458  0.1836 -0.7268 -0.4487
 1232SOL    HW115332   2.743   2.920   0.404 -2.1178 -0.9859  1.5441
 1232SOL    HW215333   2.707   3.010   0.513 -0.2076  0.8278 -1.5863
 1233SOL     OW15334   4.105   1.698   7.537 -0.3193 -0.0317 -0.4291
 1233SOL    HW115335   4.158   1.670   7.463  0.3701 -2.5025  1.0269
 1233SOL    HW215336   4.155   1.776   7.561  1.6725 -1.8339  1.2588
 1234SOL     OW15337   1.032   2.266   6.521  0.2867 -0.5317  0.3200
 1234SOL    HW115338   1.069   2.250   6.433 -1.0289  0.0959 -0.3452
 1234SOL    HW215339   1.075   2.215   6.590 -0.6161 -0.3407  1.0217
 1235SOL     OW15340   3.337   2.548   4.231  0.1272 -0.2584  0.0432
 1235SOL    HW115341   3.400   2.517   4.296  0.5672 -0.2752 -0.3912
 1235SOL    HW215342   3.287   2.617   4.276 -0.8174  0.0532 -1.5029
 1236SOL     OW15343   4.391   1.188   0.419  0.2654  0.3700  0.2952
 1236SOL    HW115344   4.376   1.217   0.329  0.9589  0.1423  0.1062
 1236SOL    HW215345   4.336   1.247   0.470  0.7875  0.9892  0.1495
 1237SOL     OW15346   0.972   3.295   7.669 -0.6853 -0.2925  0.2850
 1237SOL    HW115347   0.912   3.236   7.716  0.0818 -1.2427  0.0782
 1237SOL    HW215348   1.047   3.236   7.677 -0.1287  0.3908  0.0927
 1238SOL     OW15349   1.107   0.078   1.322  0.2048 -0.3137  0.7533
 1238SOL    HW115350   1.101   0.166   1.284 -0.9150 -1.1242 -0.9406
 1238SOL    HW215351   1.027   0.039   1.286  0.4322 -0.9453  0.9356
 1239SOL     OW15352   2.586   1.750   4.052 -0.1298  0.1654 -0.3470
 1239SOL    HW115353   2.522   1.679   4.062 -0.0338  0.0060 -0.8783
 1239SOL    HW215354   2.534   1.819   4.011 -2.4488 -2.1948 -1.3666
 1240SOL     OW15355   3.259   0.569   8.077  0.1659 -0.0765  0.3420
 1240SOL    HW115356   3.291   0.482   8.052 -1.0834 -1.1588  2.4302
 1240SOL    HW215357   3.330   0.626   8.048  1.3821 -2.8090 -2.0531
 1241SOL     OW15358   3.577   1.241   1.363 -0.5261 -0.1518 -0.1908
 1241SOL    HW115359   3.514   1.273   1.428 -0.2213  0.3746 -0.1496
 1241SOL    HW215360   3.578   1.146   1.366  3.6409 -0.0472  0.9036
 1242SOL     OW15361   0.200   4.114   0.368  0.3501  0.5852 -0.2803
 1242SOL    HW115362   0.211   4.064   0.449  2.3695  1.4147 -0.0482
 1242SOL    HW215363   0.181   4.201   0.404  1.0253  1.0237 -0.9818
 1243SOL     OW15364   3.644   2.123  15.814 -0.2651  0.4999 -0.3396
 1243SOL    HW115365   3.585   2.166  15.751  1.0658 -0.0635 -1.9759
 1243SOL    HW215366   3.629   2.034  15.782  0.0385  0.9732 -1.7933
 1244SOL     OW15367   0.373   3.243   1.895  0.5076 -0.1353  0.1079
 1244SOL    HW115368   0.380   3.172   1.959 -0.8928 -1.1009 -0.8146
 1244SOL    HW215369   0.425   3.216   1.820  0.5176  0.3333 -0.0566
 1245SOL     OW15370   3.307   2.821   0.773 -0.2512  0.4305 -0.5041
 1245SOL    HW115371   3.339   2.907   0.743  0.8515 -0.1437 -0.9941
 1245SOL    HW215372   3.332   2.755   0.708  0.6469 -1.7474  2.0800
 1246SOL     OW15373   0.795   4.096   5.170 -0.2826  0.2278 -0.5220
 1246SOL    HW115374   0.709   4.137   5.170 -1.1026 -1.4572  0.1086
 1246SOL    HW215375   0.765   4.009   5.198  1.7028 -0.7073 -1.2896
 1247SOL     OW15376   2.806   2.884   6.867 -0.4176  0.7203  0.1759
 1247SOL    HW115377   2.774   2.875   6.777 -2.7506 -2.5937  1.3688
 1247SOL    HW215378   2.902   2.892   6.863 -0.4967  0.1440 -3.1520
 1248SOL     OW15379   1.396   4.730   8.987  0.0156 -0.7336 -0.2130
 1248SOL    HW115380   1.490   4.719   8.973  0.4544 -1.0892  2.8730
 1248SOL    HW215381   1.398   0.085   8.964 -0.8530 -0.2516  1.6795
 1249SOL     OW15382   2.833   4.461   6.099  0.2412 -0.1340 -0.3411
 1249SOL    HW115383   2.852   4.553   6.083  1.9134 -0.3628  0.2792
 1249SOL    HW215384   2.750   4.450   6.053 -0.3109 -1.3297  0.9146
 1250SOL     OW15385   2.429   4.189   8.975 -0.0168 -0.1490 -0.1860
 1250SOL    HW115386   2.365   4.122   8.950  0.6256 -0.7837 -0.1357
 1250SOL    HW215387   2.389   4.272   8.949  0.6867  0.7260  1.5646
 1251SOL     OW15388   4.334   3.190  12.452  0.0491 -0.4416 -0.4943
 1251SOL    HW115389   4.381   3.214  12.532 -2.4566  1.4023  0.4160
 1251SOL    HW215390   4.411   3.188  12.395 -0.4676  1.5801 -1.2679
 1252SOL     OW15391   1.417   3.222   3.302  0.2590 -0.2029 -0.6826
 1252SOL    HW115392   1.439   3.130   3.321 -0.5741  0.0116  1.2992
 1252SOL    HW215393   1.362   3.211   3.225 -0.6510 -1.5197  0.1533
 1253SOL     OW15394   3.471   0.388   5.072 -0.3699 -0.0005 -0.3952
 1253SOL    HW115395   3.561   0.387   5.040  0.1878 -1.2753  1.2217
 1253SOL    HW215396   3.488   0.429   5.157 -0.3677  2.0276 -1.3703
 1254SOL     OW15397   1.245   1.199  15.328 -0.0965 -0.4378  0.0536
 1254SOL    HW115398   1.248   1.108  15.356 -0.1123 -0.2576  0.6461
 1254SOL    HW215399   1.243   1.236  15.417 -0.5361  0.3869 -0.2912
 1255SOL     OW15400   2.826   1.408   9.195  0.4098  0.7333 -0.4012
 1255SOL    HW115401   2.911   1.452   9.208  1.4281 -0.9889 -1.2384
 1255SOL    HW215402   2.770   1.486   9.194  0.4838  0.7763 -1.4611
 1256SOL     OW15403   1.056   1.573   8.852  0.1796 -0.0736 -0.3178
 1256SOL    HW115404   1.086   1.515   8.781 -0.9291  1.4973 -2.0803
 1256SOL    HW215405   1.036   1.518   8.928 -2.0893  0.5778 -0.4403
 1257SOL     OW15406   3.351   2.375   3.177 -0.0505  0.7016 -0.0292
 1257SOL    HW115407   3.435   2.344   3.211 -1.3066 -3.4620 -0.8229
 1257SOL    HW215408   3.330   2.308   3.112 -0.0040  0.3014  0.3700
 1258SOL     OW15409   2.679   2.053  11.084 -0.1040  0.1603  0.5554
 1258SOL    HW115410   2.725   2.113  11.025  0.2056 -1.0103 -0.4083
 1258SOL    HW215411   2.591   2.090  11.077 -0.4478 -0.6580  0.6160
 1259SOL     OW15412   3.421   3.826   9.595  0.0005  0.3924 -0.1826
 1259SOL    HW115413   3.356   3.777   9.645  1.1100  0.2995  1.1484
 1259SOL    HW215414   3.475   3.756   9.560 -1.5616 -0.2387 -1.3177
 1260SOL     OW15415   0.612   1.163  15.407  0.3739 -0.1087 -0.2278
 1260SOL    HW115416   0.689   1.177  15.353  0.2625 -0.2263 -0.4166
 1260SOL    HW215417   0.647   1.151  15.495 -2.4480 -0.2974  0.8745
 1261SOL     OW15418   2.985   2.809   0.247 -0.3791 -0.0500 -0.1712
 1261SOL    HW115419   2.929   2.882   0.222 -0.0196  0.4192  0.3844
 1261SOL    HW215420   2.964   2.743   0.180  0.5007 -0.5845  0.0751
 1262SOL     OW15421   3.720   4.650  11.336  0.3367  0.9222 -0.3519
 1262SOL    HW115422   3.760   4.703  11.405 -0.4083  1.5743 -0.4178
 1262SOL    HW215423   3.641   4.701  11.319  0.0768 -0.6365 -3.8868
 1263SOL     OW15424   3.809   1.915  12.527  0.0988 -1.0432  0.3090
 1263SOL    HW115425   3.768   1.837  12.490 -0.4140 -0.9802  0.7318
 1263SOL    HW215426   3.902   1.894  12.530  0.3112  0.0372  1.3765
 1264SOL     OW15427   0.301   1.667  11.693  0.0450 -0.1821  0.4128
 1264SOL    HW115428   0.206   1.669  11.698  0.1254  3.9301  0.3385
 1264SOL    HW215429   0.339   1.744  11.734  1.0041 -0.4005 -0.0517
 1265SOL     OW15430   3.816   2.739   2.274 -0.5278  0.0216  0.4099
 1265SOL    HW115431   3.731   2.697   2.264 -0.6885  0.8703 -1.7160
 1265SOL    HW215432   3.792   2.830   2.290 -2.1873 -0.3887  0.2718
 1266SOL     OW15433   0.269   3.969   8.479 -0.0732 -0.2527 -0.0640
 1266SOL    HW115434   0.275   3.897   8.416  1.1208 -0.4399  0.2629
 1266SOL    HW215435   0.270   3.916   8.559 -1.0394 -0.8061 -0.4139
 1267SOL     OW15436   3.663   3.372   5.605 -0.0906  0.6944 -0.2476
 1267SOL    HW115437   3.615   3.377   5.522  0.4725  1.8087 -0.5089
 1267SOL    HW215438   3.746   3.354   5.561 -0.2377 -0.8987  0.1340
 1268SOL     OW15439   1.508   3.980  12.023 -0.8486  0.0784  0.0497
 1268SOL    HW115440   1.467   3.966  12.109 -3.4533 -0.9438 -1.3612
 1268SOL    HW215441   1.439   3.951  11.964 -1.7500 -0.7406  1.5052
 1269SOL     OW15442   2.955   4.439   7.538 -0.2963 -0.4846  0.1830
 1269SOL    HW115443   2.973   4.450   7.445 -0.8403  0.5015  0.1940
 1269SOL    HW215444   2.888   4.505   7.553 -0.7582 -0.3242 -2.6004
 1270SOL     OW15445   0.169   4.520   8.919 -0.1269 -0.1469 -0.2710
 1270SOL    HW115446   0.222   4.597   8.898  2.0840 -0.7157  3.0885
 1270SOL    HW215447   0.087   4.553   8.954 -0.9389 -1.1581 -1.2097
 1271SOL     OW15448   2.366   0.473   4.391  0.0216  0.3756 -0.2027
 1271SOL    HW115449   2.294   0.425   4.431  1.1677 -1.0591  0.1471
 1271SOL    HW215450   2.374   0.435   4.303 -1.3089  1.6963 -0.8925
 1272SOL     OW15451   0.435   3.578   1.596 -0.2083 -0.0395  0.1035
 1272SOL    HW115452   0.501   3.517   1.630 -0.6322  0.0335  1.0752
 1272SOL    HW215453   0.367   3.554   1.660 -0.3216  0.9963  0.3817
 1273SOL     OW15454   1.929   2.367   6.415  0.2827  0.2519  0.2626
 1273SOL    HW115455   1.993   2.436   6.401  1.6762 -1.6212 -2.5356
 1273SOL    HW215456   1.901   2.346   6.326  0.2928 -1.1347  0.5850
 1274SOL     OW15457   0.300   4.023   8.817  0.4296  0.3551  0.3156
 1274SOL    HW115458   0.369   3.977   8.866 -1.2538 -1.8827  0.5741
 1274SOL    HW215459   0.235   4.021   8.887 -1.0148  0.5684 -1.0477
 1275SOL     OW15460   2.941   2.167   3.366 -0.3892  0.2408  0.6580
 1275SOL    HW115461   2.985   2.238   3.318 -1.3470  1.4141  1.5214
 1275SOL    HW215462   2.856   2.158   3.323 -0.7051  2.9974  0.7375
 1276SOL     OW15463   1.425   3.647   7.930 -0.4927  0.1195  0.2537
 1276SOL    HW115464   1.362   3.696   7.877 -0.5585 -1.5915 -1.2699
 1276SOL    HW215465   1.439   3.698   8.010  0.5655  0.2427 -0.0214
 1277SOL     OW15466   3.785   1.061   8.250 -0.6218  0.2290  0.5035
 1277SOL    HW115467   3.745   1.096   8.170 -0.7953 -0.1182  0.4409
 1277SOL    HW215468   3.879   1.068   8.234 -0.7205  0.6545  0.0889
 1278SOL     OW15469   1.205   3.871   4.527  0.3281  0.5218 -0.2742
 1278SOL    HW115470   1.233   3.838   4.442  0.1043 -0.1781 -0.0749
 1278SOL    HW215471   1.203   3.786   4.570  0.0509  1.0976  0.8469
 1279SOL     OW15472   2.256   1.879   1.958  0.3247  0.2404  0.1682
 1279SOL    HW115473   2.250   1.786   1.935 -0.3853  0.0686  1.0685
 1279SOL    HW215474   2.210   1.877   2.041 -2.2244  0.4282 -1.2271
 1280SOL     OW15475   2.708   3.233  16.940 -0.6291  0.1254 -0.0517
 1280SOL    HW115476   2.770   3.236  16.867  0.6457  1.5311  1.1001
 1280SOL    HW215477   2.768   3.249  17.012  0.4652  1.5983 -1.2989
 1281SOL     OW15478   2.291   3.074   4.834 -0.0677  0.2451 -0.0223
 1281SOL    HW115479   2.373   3.056   4.879  0.9532 -0.2263 -2.0401
 1281SOL    HW215480   2.246   3.126   4.900  0.7491 -0.5882  1.1887
 1282SOL     OW15481   1.267   3.415   8.000 -0.5401 -0.6529  0.1081
 1282SOL    HW115482   1.337   3.481   7.995 -0.9204 -0.1146  1.8166
 1282SOL    HW215483   1.191   3.463   7.966 -0.9419  0.4484  2.5647
 1283SOL     OW15484   2.646   1.605   7.100  0.0516 -0.4645 -0.0735
 1283SOL    HW115485   2.581   1.568   7.040 -1.6434  0.3198  1.2808
 1283SOL    HW215486   2.624   1.571   7.187 -1.0677 -0.8687 -0.5106
 1284SOL     OW15487   3.493   1.251  16.151 -0.4398 -0.4876 -0.5303
 1284SOL    HW115488   3.505   1.345  16.139  2.4435 -0.6531  1.0822
 1284SOL    HW215489   3.404   1.242  16.188 -0.3769  0.0841 -0.2352
 1285SOL     OW15490   1.416   1.399  15.175 -0.0543 -0.2085 -0.2781
 1285SOL    HW115491   1.347   1.346  15.216 -0.3333 -0.1857 -0.7113
 1285SOL    HW215492   1.435   1.354  15.093 -2.5254 -2.4036  0.3338
 1286SOL     OW15493   4.072   4.396   7.551 -0.1002  0.4953  0.0010
 1286SOL    HW115494   4.082   4.403   7.646  1.4962 -2.0591  0.0373
 1286SOL    HW215495   4.043   4.484   7.527 -0.9022 -0.3125 -1.9742
 1287SOL     OW15496   2.405   1.864   6.493  0.0415  0.1123 -0.3418
 1287SOL    HW115497   2.435   1.823   6.413  0.2271  1.4742 -0.9673
 1287SOL    HW215498   2.316   1.882   6.463  0.1887 -0.7016 -1.2731
 1288SOL     OW15499   3.116   2.629   6.547 -0.4307 -0.3021 -0.3084
 1288SOL    HW115500   3.035   2.649   6.499  0.6762 -0.2698 -2.1362
 1288SOL    HW215501   3.163   2.575   6.484 -1.8781 -2.7695  0.7148
 1289SOL     OW15502   0.645   4.165   3.001  0.0833 -0.3815  0.1622
 1289SOL    HW115503   0.582   4.094   3.010  0.7758 -1.3082 -2.3676
 1289SOL    HW215504   0.640   4.209   2.917  2.2161 -0.5499 -0.0700
 1290SOL     OW15505   1.865   1.919  11.535 -0.7070  0.0909 -0.2877
 1290SOL    HW115506   1.825   1.910  11.621 -0.4396 -4.3754 -0.6264
 1290SOL    HW215507   1.792   1.914  11.474 -1.8940 -1.5969  1.2703
 1291SOL     OW15508   1.973   0.999   7.074  0.4820 -0.4185  0.8584
 1291SOL    HW115509   1.978   0.986   7.169 -1.1532 -2.2781  0.6719
 1291SOL    HW215510   1.882   0.973   7.064  0.3608  0.7777 -1.1556
 1292SOL     OW15511   4.402   4.365   7.587 -0.3647 -0.0493  0.1115
 1292SOL    HW115512   4.490   4.354   7.623 -0.1604  0.0940 -0.3315
 1292SOL    HW215513   4.360   4.422   7.651  0.5189  1.8496 -0.9710
 1293SOL     OW15514   3.319   2.496   6.428  0.2208  0.5522 -0.1353
 1293SOL    HW115515   3.406   2.506   6.466  0.1194  1.0681 -0.0400
 1293SOL    HW215516   3.305   2.402   6.442  1.3123  0.3465 -0.4168
 1294SOL     OW15517   0.656   1.302   7.582 -0.3421  0.4449 -0.7878
 1294SOL    HW115518   0.679   1.300   7.490 -2.2376  0.2584 -1.2515
 1294SOL    HW215519   0.653   1.208   7.603 -0.6364  0.5349 -0.4148
 1295SOL     OW15520   0.674   1.136   9.649  0.6545 -0.1131  0.3282
 1295SOL    HW115521   0.611   1.131   9.721  2.4637  1.4169  1.9836
 1295SOL    HW215522   0.721   1.053   9.656 -0.5875 -0.7944  0.6635
 1296SOL     OW15523   1.333   1.274  17.664  0.3079  0.3211 -0.0859
 1296SOL    HW115524   1.405   1.239  17.612 -2.0454 -1.9431 -1.8390
 1296SOL    HW215525   1.282   1.197  17.689  2.0344 -0.5644  0.7253
 1297SOL     OW15526   2.632   0.234   1.143 -0.0765 -0.0884  1.0208
 1297SOL    HW115527   2.536   0.239   1.146 -0.0164  1.0104  1.1384
 1297SOL    HW215528   2.640   0.275   1.057  0.7946  1.4017  1.8071
 1298SOL     OW15529   3.619   3.697   7.400  0.1472  0.1577 -0.2273
 1298SOL    HW115530   3.687   3.647   7.357  2.0091  2.6840 -0.2030
 1298SOL    HW215531   3.547   3.695   7.338 -1.2784  1.8965  1.3598
 1299SOL     OW15532   4.256   3.019   1.632  0.7222  0.3381 -0.2895
 1299SOL    HW115533   4.211   3.041   1.713  0.7139  4.1550 -1.3534
 1299SOL    HW215534   4.315   3.092   1.616 -0.9370  1.4386 -1.3833
 1300SOL     OW15535   0.222   1.879  14.867  0.3185  0.0517  0.7689
 1300SOL    HW115536   0.264   1.920  14.792 -1.8863 -0.8516 -0.9454
 1300SOL    HW215537   0.251   1.788  14.856 -3.8084 -0.7440 -3.7480
 1301SOL     OW15538   2.281   1.333   9.533  0.0362  0.3131 -0.0724
 1301SOL    HW115539   2.239   1.411   9.568 -0.4399 -0.2305  0.5569
 1301SOL    HW215540   2.298   1.286   9.614 -0.8814 -1.7658 -1.0883
 1302SOL     OW15541   0.737   4.012   0.241 -0.2690  0.2875 -0.8023
 1302SOL    HW115542   0.718   4.104   0.222 -0.7681  0.2467 -0.4998
 1302SOL    HW215543   0.781   4.024   0.325  1.2897 -0.2995 -1.5345
 1303SOL     OW15544   1.892   2.360   6.769  0.3796 -0.0624 -0.6303
 1303SOL    HW115545   1.853   2.447   6.782  1.4062  0.4071 -0.7335
 1303SOL    HW215546   1.824   2.304   6.806  1.3992  0.1231  1.5280
 1304SOL     OW15547   2.666   0.951   5.551 -0.0040 -0.0907  0.0630
 1304SOL    HW115548   2.660   1.034   5.504 -1.0509 -0.9265 -1.3112
 1304SOL    HW215549   2.648   0.972   5.642 -1.3546  0.2408 -0.2693
 1305SOL     OW15550   3.759   0.877   4.200 -0.7149  0.0218 -0.4097
 1305SOL    HW115551   3.679   0.835   4.170  0.4328 -1.1510 -1.8590
 1305SOL    HW215552   3.822   0.806   4.182 -0.9498 -0.3290  0.1532
 1306SOL     OW15553   3.396   0.278   8.268 -0.4307  0.0449  0.1396
 1306SOL    HW115554   3.367   0.345   8.330  1.4378  0.4666  0.5406
 1306SOL    HW215555   3.345   0.295   8.188  0.7781  0.3920 -0.5507
 1307SOL     OW15556   2.218   0.313  17.638 -0.0711  0.2345  0.3514
 1307SOL    HW115557   2.148   0.342  17.696 -0.0824  0.7777  0.0739
 1307SOL    HW215558   2.189   0.225  17.616  0.3410  0.2424 -0.2421
 1308SOL     OW15559   4.705   1.500  15.860  0.1745 -0.2539 -0.5779
 1308SOL    HW115560   4.649   1.425  15.878  3.4639 -2.8565 -1.2328
 1308SOL    HW215561   0.055   1.463  15.869  0.8650  2.1899  2.7613
 1309SOL     OW15562   1.181   1.294   1.627 -0.0045 -0.4318 -0.2402
 1309SOL    HW115563   1.208   1.232   1.559  2.1027  0.3690 -0.1332
 1309SOL    HW215564   1.119   1.359   1.592  0.0376 -0.5272 -0.4917
 1310SOL     OW15565   0.845   1.464   3.813  0.4961 -0.2360 -0.1352
 1310SOL    HW115566   0.836   1.543   3.759 -0.1165 -0.0289  0.2686
 1310SOL    HW215567   0.805   1.488   3.897 -1.6464 -0.4665 -1.0981
 1311SOL     OW15568   0.926   0.284   7.899  0.2822  0.2000 -0.1217
 1311SOL    HW115569   0.877   0.275   7.817 -0.6794  0.7377  0.3846
 1311SOL    HW215570   0.983   0.209   7.885  0.7420  0.6442 -0.6286
 1312SOL     OW15571   3.830   0.573  10.353  0.2574 -0.6604 -0.2859
 1312SOL    HW115572   3.834   0.667  10.369 -0.7995 -0.1784 -2.8178
 1312SOL    HW215573   3.766   0.562  10.283  2.5301 -0.2149 -2.4225
 1313SOL     OW15574   1.549   2.884   6.742 -0.2187 -0.6370  0.0722
 1313SOL    HW115575   1.560   2.824   6.816 -0.2347 -0.5014  0.1849
 1313SOL    HW215576   1.484   2.840   6.688 -1.2214  3.3549 -1.9845
 1314SOL     OW15577   0.232   4.170   8.039  0.6218  0.1804  0.1384
 1314SOL    HW115578   0.245   4.215   7.955  1.3482 -0.6291 -0.1780
 1314SOL    HW215579   0.141   4.197   8.054  0.5118 -0.2062  0.1440
 1315SOL     OW15580   4.536   2.140   8.196  0.5268 -0.2947 -0.2801
 1315SOL    HW115581   4.602   2.132   8.127  2.0833  2.4101  0.9003
 1315SOL    HW215582   4.581   2.108   8.274  0.4645  1.9630  0.6732
 1316SOL     OW15583   0.378   3.989  11.345  0.2951  0.0623  0.1189
 1316SOL    HW115584   0.440   3.980  11.273 -0.8125 -0.2195 -0.7904
 1316SOL    HW215585   0.337   4.071  11.316  2.1081  1.5796  1.8250
 1317SOL     OW15586   2.546   3.396   1.949  0.0314 -0.1681 -0.4762
 1317SOL    HW115587   2.537   3.302   1.963  1.4463  0.3972  4.1658
 1317SOL    HW215588   2.617   3.417   1.888 -2.3907 -0.0855 -3.3097
 1318SOL     OW15589   0.469   0.992   1.692 -0.0561  0.1122  0.0510
 1318SOL    HW115590   0.497   1.019   1.779  1.1770 -1.6283  0.2034
 1318SOL    HW215591   0.383   0.951   1.705 -0.1917 -0.1977 -1.8121
 1319SOL     OW15592   3.356   2.436  15.945  0.4782  0.0888  0.0441
 1319SOL    HW115593   3.389   2.349  15.919  1.3283  0.5649 -0.4655
 1319SOL    HW215594   3.309   2.460  15.866 -0.7892  0.8858  1.0592
 1320SOL     OW15595   1.871   2.291  16.405 -0.7870  0.0644 -0.2551
 1320SOL    HW115596   1.896   2.201  16.384  0.6843  0.4892 -0.2927
 1320SOL    HW215597   1.935   2.336  16.350  0.3514 -0.6848  0.4510
 1321SOL     OW15598   1.254   1.547   0.585  0.0266  0.3048  0.2811
 1321SOL    HW115599   1.222   1.611   0.521 -1.8642 -1.8908 -0.9703
 1321SOL    HW215600   1.338   1.589   0.605 -0.9426  2.0268  0.6406
 1322SOL     OW15601   4.629   0.645   7.812  0.0064  0.2632  0.3576
 1322SOL    HW115602   4.639   0.600   7.728 -0.8038 -1.1643  1.0381
 1322SOL    HW215603   4.626   0.563   7.861  3.0233  0.3729  0.6954
 1323SOL     OW15604   1.543   3.868   2.080 -0.0297 -0.6102 -0.2422
 1323SOL    HW115605   1.633   3.849   2.103 -0.1688 -0.7532  0.1790
 1323SOL    HW215606   1.552   3.886   1.986 -0.8052  0.8552 -0.0363
 1324SOL     OW15607   0.219   0.033   2.404  0.3322 -0.1647  0.1696
 1324SOL    HW115608   0.249   4.687   2.440  1.4034  0.5987  1.0492
 1324SOL    HW215609   0.275   0.040   2.326 -0.8143  1.7630 -0.4833
 1325SOL     OW15610   4.052   1.310   3.247  0.2445 -0.5147 -0.8530
 1325SOL    HW115611   4.144   1.290   3.265 -0.0034 -0.7095  0.2062
 1325SOL    HW215612   4.035   1.378   3.312 -0.5969 -1.1276 -0.4224
 1326SOL     OW15613   2.486   3.572   9.298 -0.3814 -0.3865  0.4133
 1326SOL    HW115614   2.558   3.632   9.319 -0.9174  0.6373 -0.6652
 1326SOL    HW215615   2.487   3.505   9.366 -0.9489 -1.0229 -0.2073
 1327SOL     OW15616   3.957   2.090  15.591  0.1652  0.4398  0.9745
 1327SOL    HW115617   3.965   2.176  15.549  1.6727 -0.3693 -0.4295
 1327SOL    HW215618   3.865   2.069  15.577  0.1308  1.1542  0.1597
 1328SOL     OW15619   0.722   4.584   7.152 -0.3029 -0.2401  0.6566
 1328SOL    HW115620   0.639   4.563   7.194 -1.5674  1.6600 -0.8797
 1328SOL    HW215621   0.692   4.659   7.100  0.4493  0.2864  0.9937
 1329SOL     OW15622   3.284   4.164   3.693 -0.4500  0.1644 -0.2659
 1329SOL    HW115623   3.368   4.121   3.708 -0.1420  0.1353 -2.0323
 1329SOL    HW215624   3.253   4.139   3.606 -1.0831  1.9807 -0.5577
 1330SOL     OW15625   4.580   3.238   4.061  0.1574  0.3690 -0.0983
 1330SOL    HW115626   4.637   3.201   4.127  1.5408  0.7641 -1.0693
 1330SOL    HW215627   4.538   3.165   4.016  1.0950  1.4095 -2.6633
 1331SOL     OW15628   2.846   1.728   8.111 -0.1578  0.0141 -0.1673
 1331SOL    HW115629   2.754   1.711   8.133  0.2997  0.7453  2.2838
 1331SOL    HW215630   2.878   1.638   8.120  0.5060  0.1892 -0.7837
 1332SOL     OW15631   0.336   4.368   7.014  0.4206 -0.0229 -0.1148
 1332SOL    HW115632   0.382   4.452   7.017  0.8332 -0.2725  0.4671
 1332SOL    HW215633   0.398   4.299   6.996  1.5330  1.7397 -2.9763
 1333SOL     OW15634   2.433   2.325   1.143 -0.5281  0.2390 -0.0212
 1333SOL    HW115635   2.500   2.371   1.192  0.4245 -0.3524 -0.7614
 1333SOL    HW215636   2.358   2.318   1.202 -1.3847  0.9345 -1.0136
 1334SOL     OW15637   2.031   3.187   3.134 -0.3334 -0.3166 -0.3832
 1334SOL    HW115638   2.095   3.258   3.138 -0.1709 -0.5235  0.6877
 1334SOL    HW215639   1.954   3.232   3.098  1.3707  1.0500 -2.3510
 1335SOL     OW15640   2.589   1.223  13.954  0.6448 -0.3128 -0.0281
 1335SOL    HW115641   2.616   1.132  13.948 -0.4464 -0.7282  1.1534
 1335SOL    HW215642   2.502   1.225  13.914 -0.8901  1.9117  3.3869
 1336SOL     OW15643   4.430   2.634  17.434  0.2348  0.2424  0.3667
 1336SOL    HW115644   4.430   2.699  17.505  0.2809  1.0626 -0.3721
 1336SOL    HW215645   4.468   2.553  17.467 -0.3437  0.6064  1.9501
 1337SOL     OW15646   4.310   3.436  13.078  0.1552  0.1439  0.1986
 1337SOL    HW115647   4.271   3.433  12.991 -0.8803 -1.9104  0.7351
 1337SOL    HW215648   4.335   3.345  13.095  0.8850  0.0438 -1.3866
 1338SOL     OW15649   1.543   1.532   6.726 -0.0517  0.2092  0.3175
 1338SOL    HW115650   1.527   1.512   6.634 -0.6311  1.2724  0.1862
 1338SOL    HW215651   1.494   1.467   6.776  1.0014 -0.7411  0.1026
 1339SOL     OW15652   0.584   3.976  11.548 -0.5508  0.4802  0.3505
 1339SOL    HW115653   0.525   3.991  11.474 -0.7796 -2.4881 -0.0699
 1339SOL    HW215654   0.615   4.063  11.571 -1.5325  0.8667  0.2116
 1340SOL     OW15655   0.133   1.710   5.345  0.0294  0.1212  0.7574
 1340SOL    HW115656   0.044   1.727   5.375 -0.0073 -0.3744  0.9270
 1340SOL    HW215657   0.156   1.637   5.402  1.7611 -0.5731 -0.8205
 1341SOL     OW15658   0.337   0.280   4.857  0.3039  0.3053 -0.4679
 1341SOL    HW115659   0.390   0.349   4.898 -1.1899  1.8846 -1.2121
 1341SOL    HW215660   0.248   0.307   4.877  0.2229 -1.0714  1.0198
 1342SOL     OW15661   0.228   2.755   7.284 -0.7282 -0.4460 -0.0074
 1342SOL    HW115662   0.218   2.781   7.376 -1.3545 -0.8691  0.0430
 1342SOL    HW215663   0.257   2.840   7.252  0.2301  0.1440  2.4309
 1343SOL     OW15664   1.110   0.206  16.778 -0.0246 -0.0563  0.2618
 1343SOL    HW115665   1.126   0.283  16.832  0.3580 -1.0088  1.4889
 1343SOL    HW215666   1.018   0.225  16.761  0.6202  1.7089 -1.3001
 1344SOL     OW15667   0.579   3.655  11.212  0.4516 -0.7120  0.5219
 1344SOL    HW115668   0.590   3.576  11.158  0.4776  0.5125 -1.2578
 1344SOL    HW215669   0.663   3.653  11.258  0.3306 -0.5465  0.7485
 1345SOL     OW15670   2.399   0.949  10.226  0.0460  0.7235 -0.4001
 1345SOL    HW115671   2.322   0.894  10.241  0.3744  0.1310 -0.9062
 1345SOL    HW215672   2.428   0.945  10.135  3.1786  1.1856  0.5710
 1346SOL     OW15673   3.608   0.822   0.053  0.0989  0.2390  0.0123
 1346SOL    HW115674   3.663   0.898   0.038  2.1674 -1.2491  0.0280
 1346SOL    HW215675   3.644   0.753  17.748 -0.5673 -0.6303  0.6614
 1347SOL     OW15676   3.601   4.706  16.835 -0.2804 -0.1713  0.6389
 1347SOL    HW115677   3.528   4.690  16.895 -0.7448 -0.3619  0.0197
 1347SOL    HW215678   3.671   0.005  16.890 -0.7638 -2.2089  2.6347
 1348SOL     OW15679   1.092   4.259   4.053  0.6586  0.8948  0.0185
 1348SOL    HW115680   1.123   4.327   4.112 -2.7785  2.8650 -0.4746
 1348SOL    HW215681   1.114   4.177   4.099  3.3342  2.1909  1.0537
 1349SOL     OW15682   0.151   0.799   7.739  0.3345 -0.6800  0.1324
 1349SOL    HW115683   0.179   0.741   7.668  0.7632 -1.5308  0.9953
 1349SOL    HW215684   0.062   0.763   7.749 -0.4804  1.5031  0.8231
 1350SOL     OW15685   4.220   2.225   3.587 -0.2219  0.4291 -0.3413
 1350SOL    HW115686   4.205   2.170   3.664  1.0743  0.3304 -0.1522
 1350SOL    HW215687   4.159   2.178   3.531 -0.7400 -0.0545  0.6407
 1351SOL     OW15688   2.936   2.762   2.768  0.5140  0.6943  0.4268
 1351SOL    HW115689   2.883   2.831   2.808  1.6181  2.1276 -0.5856
 1351SOL    HW215690   2.876   2.692   2.742  0.3834  1.0443 -0.2314
 1352SOL     OW15691   1.846   0.745   8.976 -0.3152 -0.9836 -0.0309
 1352SOL    HW115692   1.859   0.757   9.070  0.1716 -0.7986 -0.1261
 1352SOL    HW215693   1.933   0.758   8.938 -0.3517 -0.1395  0.1812
 1353SOL     OW15694   2.466   0.013  10.110 -0.7156  0.5082  0.3996
 1353SOL    HW115695   2.544   0.025  10.055 -1.2211  3.8847  0.4048
 1353SOL    HW215696   2.495   4.665  10.139 -2.6750 -0.3728 -0.2772
 1354SOL     OW15697   1.666   4.712  15.034 -0.0842 -0.5520 -0.4483
 1354SOL    HW115698   1.693   0.012  15.117 -2.0163 -0.4695  0.1463
 1354SOL    HW215699   1.636   0.057  14.999 -0.5083 -1.4078 -2.1284
 1355SOL     OW15700   0.116   3.184   0.390  0.1808 -0.0134 -0.1352
 1355SOL    HW115701   0.049   3.148   0.334 -1.4082  1.9328  0.4982
 1355SOL    HW215702   0.198   3.139   0.370  0.1264 -0.7139  1.1869
 1356SOL     OW15703   4.518   1.758  16.269  0.5895 -0.1763  0.2707
 1356SOL    HW115704   4.527   1.703  16.192  0.4835 -1.2560  1.0274
 1356SOL    HW215705   4.534   1.845  16.233  0.4163  0.1992  1.0933
 1357SOL     OW15706   1.723   3.573   8.862  0.0390  0.3541 -0.2415
 1357SOL    HW115707   1.750   3.492   8.818 -0.2183 -0.5498  1.2705
 1357SOL    HW215708   1.634   3.582   8.828 -0.3585  0.1906  0.7610
 1358SOL     OW15709   4.393   0.414  13.134 -0.5414  0.2976  0.1564
 1358SOL    HW115710   4.450   0.423  13.210 -1.3624  2.6720  0.4919
 1358SOL    HW215711   4.348   0.335  13.163 -1.4214  1.3271  1.6071
 1359SOL     OW15712   3.301   3.754   6.966  0.2986  0.4745  0.0066
 1359SOL    HW115713   3.309   3.659   6.957  1.5584  0.5801  0.0943
 1359SOL    HW215714   3.228   3.766   7.027 -1.0784 -0.2210 -1.5312
 1360SOL     OW15715   3.936   0.762   5.817  0.1091  0.1594 -0.8706
 1360SOL    HW115716   3.985   0.690   5.776  1.1559  0.9841 -1.0586
 1360SOL    HW215717   3.995   0.807   5.877 -0.7797  0.3242 -0.1390
 1361SOL     OW15718   3.153   3.224  12.107  0.0871  0.2391 -0.1561
 1361SOL    HW115719   3.118   3.155  12.050  2.2394 -0.7975 -0.2189
 1361SOL    HW215720   3.215   3.264  12.046  1.9482 -1.1837  0.8068
 1362SOL     OW15721   2.870   4.298   2.318 -0.2482 -0.0385  0.0010
 1362SOL    HW115722   2.813   4.275   2.245  0.3039 -1.9499  0.1689
 1362SOL    HW215723   2.809   4.349   2.372  0.3920  1.2604 -0.4829
 1363SOL     OW15724   0.147   2.263  10.807 -0.1117 -0.1084  0.0213
 1363SOL    HW115725   0.078   2.300  10.863  1.1945 -0.2292  1.7187
 1363SOL    HW215726   0.099   2.181  10.793  0.4522 -0.1023 -1.8786
 1364SOL     OW15727   1.548   2.243  16.576  0.0162  0.4545 -0.1405
 1364SOL    HW115728   1.587   2.202  16.654  0.6626  0.2043 -0.5903
 1364SOL    HW215729   1.506   2.320  16.613  1.8222  1.1595  0.4562
 1365SOL     OW15730   2.916   3.522   3.609  0.1337 -0.3160  0.0180
 1365SOL    HW115731   2.998   3.564   3.634  0.0227 -0.7540  1.1358
 1365SOL    HW215732   2.890   3.482   3.692  0.0436 -1.2301 -0.4483
 1366SOL     OW15733   3.178   2.877   2.871  0.5745 -0.3259 -0.1963
 1366SOL    HW115734   3.156   2.923   2.951  1.9556 -1.6030  0.9142
 1366SOL    HW215735   3.092   2.843   2.845  0.0924 -0.7067  1.8936
 1367SOL     OW15736   1.632   2.173   1.678 -0.3428  0.2054 -0.3264
 1367SOL    HW115737   1.638   2.134   1.591  0.9938  1.6470 -0.8864
 1367SOL    HW215738   1.671   2.259   1.661  1.0621 -0.7877 -2.1369
 1368SOL     OW15739   0.828   4.422   4.885  0.9208  0.0001 -0.2365
 1368SOL    HW115740   0.817   4.508   4.925 -0.6288 -0.3151  0.0227
 1368SOL    HW215741   0.835   4.454   4.795 -0.5545 -0.6646 -0.5834
 1369SOL     OW15742   1.177   4.422   4.970  0.8343  0.0879  0.0106
 1369SOL    HW115743   1.123   4.408   5.048 -1.7008  0.1947 -1.7239
 1369SOL    HW215744   1.223   4.503   4.988 -0.5754  0.2944  2.7253
 1370SOL     OW15745   0.959   3.249   8.175 -0.6664 -0.0481 -0.1272
 1370SOL    HW115746   0.908   3.259   8.256 -1.9701 -1.4143 -0.7781
 1370SOL    HW215747   1.022   3.321   8.175 -0.6272 -0.0877 -2.2345
 1371SOL     OW15748   0.148   1.303   2.215 -0.1041  0.2978 -0.6150
 1371SOL    HW115749   0.057   1.310   2.189  0.2141  3.7811 -0.9067
 1371SOL    HW215750   0.156   1.326   2.308  0.4213  0.6568 -0.7453
 1372SOL     OW15751   1.470   2.363   5.535  0.0803 -0.3259  0.2682
 1372SOL    HW115752   1.381   2.392   5.516 -0.9448 -2.1593  2.3781
 1372SOL    HW215753   1.516   2.395   5.457 -1.0996  0.0978 -0.2498
 1373SOL     OW15754   3.845   1.904   8.203  0.0788 -0.0148 -0.4003
 1373SOL    HW115755   3.921   1.935   8.153  1.9200 -0.4117  2.1547
 1373SOL    HW215756   3.877   1.856   8.279 -0.1072  0.6844  0.1190
 1374SOL     OW15757   4.540   0.999  12.397  0.2081  0.0331  0.5247
 1374SOL    HW115758   4.491   1.050  12.333 -0.6916 -0.9413  0.4435
 1374SOL    HW215759   4.510   1.044  12.476  0.3790 -0.4861  0.8839
 1375SOL     OW15760   4.299   1.705  12.804 -0.5257  0.1400  0.0912
 1375SOL    HW115761   4.379   1.744  12.768  0.0109 -2.2576 -1.3066
 1375SOL    HW215762   4.313   1.670  12.892  0.6899 -0.2463 -0.2591
 1376SOL     OW15763   1.581   1.049   4.964  0.0971  0.3218  0.3068
 1376SOL    HW115764   1.486   1.043   4.950  0.1497  0.9043 -0.2854
 1376SOL    HW215765   1.589   1.129   4.913  0.4966 -1.3276 -2.2239
 1377SOL     OW15766   0.316   0.431  11.369  0.3601 -0.7583 -0.1724
 1377SOL    HW115767   0.269   0.478  11.438 -1.1330 -1.1904 -0.9019
 1377SOL    HW215768   0.258   0.435  11.294 -2.3847  4.3084  2.2076
 1378SOL     OW15769   0.958   3.549  14.782  0.2059  0.7805  0.4719
 1378SOL    HW115770   1.043   3.505  14.772  0.1122  0.2472  1.9503
 1378SOL    HW215771   0.913   3.504  14.711  2.4015  1.0940 -1.1011
 1379SOL     OW15772   4.279   2.716   3.139  0.2813  0.0135  0.5676
 1379SOL    HW115773   4.339   2.777   3.183 -2.6812  1.5454  2.4349
 1379SOL    HW215774   4.319   2.722   3.052  0.3269 -3.5305  0.3457
 1380SOL     OW15775   0.503   0.068   4.822  0.0968 -0.1649 -0.2866
 1380SOL    HW115776   0.455   0.147   4.846 -1.0206 -1.6117  2.1764
 1380SOL    HW215777   0.521   0.083   4.729 -0.2258  3.3170  0.2254
 1381SOL     OW15778   1.302   1.988  13.982  0.0834  0.3562  0.6446
 1381SOL    HW115779   1.352   1.933  13.922 -2.4630 -0.8686 -0.3289
 1381SOL    HW215780   1.252   2.032  13.913  1.8740 -0.0269 -0.8944
 1382SOL     OW15781   0.187   3.414   6.452 -0.2242 -0.4113  0.0518
 1382SOL    HW115782   0.144   3.490   6.412  0.5796  0.0433  0.0569
 1382SOL    HW215783   0.125   3.389   6.521 -1.7377  1.2011 -0.7030
 1383SOL     OW15784   3.537   4.608   3.797 -0.4394 -0.8308 -0.0702
 1383SOL    HW115785   3.561   4.517   3.815 -1.6239 -1.0247  0.4969
 1383SOL    HW215786   3.622   4.652   3.804 -0.5433 -0.7799  0.8326
 1384SOL     OW15787   2.993   3.722   1.907 -0.3828  0.3296 -0.4660
 1384SOL    HW115788   2.950   3.802   1.938  0.4310 -0.0187  1.5302
 1384SOL    HW215789   3.052   3.699   1.978 -0.1762  0.3056 -0.6434
 1385SOL     OW15790   3.071   3.544   7.172  0.1519  0.2000 -0.1280
 1385SOL    HW115791   3.138   3.569   7.108  0.1392  1.0159  0.1766
 1385SOL    HW215792   3.092   3.598   7.248  1.2309  0.3933 -0.5606
 1386SOL     OW15793   1.308   2.735   6.167  0.2761 -0.2719  0.3087
 1386SOL    HW115794   1.315   2.749   6.261  1.0678 -1.3125  0.3997
 1386SOL    HW215795   1.294   2.824   6.133  0.5851 -0.7916 -1.2020
 1387SOL     OW15796   2.064   0.244  10.559  0.2517  0.8900  0.0483
 1387SOL    HW115797   2.035   0.171  10.505 -0.7361  1.5058 -0.2608
 1387SOL    HW215798   2.151   0.224  10.592 -0.7011  1.2652  2.8238
 1388SOL     OW15799   4.511   2.590   7.987  0.5447  0.0842  0.1748
 1388SOL    HW115800   4.424   2.629   7.980  0.6499  0.2960  0.0448
 1388SOL    HW215801   4.501   2.521   8.054 -1.3352  0.4921  0.3177
 1389SOL     OW15802   1.219   2.690  16.233 -0.6081  0.0293  0.0948
 1389SOL    HW115803   1.266   2.722  16.310  0.2083  0.1719 -0.4589
 1389SOL    HW215804   1.162   2.763  16.207 -1.1648 -0.4177  0.0799
 1390SOL     OW15805   4.694   1.695   7.020 -0.2282  0.8215  0.4580
 1390SOL    HW115806   4.710   1.786   7.044 -3.8702  2.1576 -2.2013
 1390SOL    HW215807   0.044   1.690   6.982 -0.8740  0.5629 -1.0344
 1391SOL     OW15808   1.620   4.412   6.774 -0.6729 -0.2264 -0.3135
 1391SOL    HW115809   1.605   4.397   6.867 -1.8963  0.6518 -0.3696
 1391SOL    HW215810   1.608   4.507   6.764 -2.7242 -0.6765 -2.0677
 1392SOL     OW15811   3.376   1.108   6.779 -0.4237  0.3120 -0.5872
 1392SOL    HW115812   3.420   1.183   6.739  1.4923 -0.4639  0.1142
 1392SOL    HW215813   3.311   1.153   6.833  2.1292  0.6084  2.2241
 1393SOL     OW15814   0.352   1.049   6.014  0.5915  0.4108  0.0350
 1393SOL    HW115815   0.271   1.053   6.065  1.2929 -0.4774  1.2231
 1393SOL    HW215816   0.419   1.066   6.080  0.1847 -0.7896  0.7477
 1394SOL     OW15817   3.400   0.430  11.034 -0.1344 -0.6014 -0.0996
 1394SOL    HW115818   3.440   0.486  10.968 -0.7509  1.3203  1.1720
 1394SOL    HW215819   3.397   0.489  11.109 -1.2359  1.3036 -1.6548
 1395SOL     OW15820   3.909   4.409   3.836 -0.4907 -0.1620 -0.1086
 1395SOL    HW115821   3.920   4.461   3.757 -0.2663 -2.5705 -1.6723
 1395SOL    HW215822   3.815   4.417   3.853 -0.2219 -0.5452  1.5556
 1396SOL     OW15823   2.191   2.368  10.105 -0.0533  0.3849  0.0814
 1396SOL    HW115824   2.286   2.358  10.093 -0.3557 -2.5157  0.2276
 1396SOL    HW215825   2.159   2.372  10.015 -1.4472 -0.0561  0.5697
 1397SOL     OW15826   1.724   4.020   5.468 -0.2483 -0.7373  0.3208
 1397SOL    HW115827   1.631   4.002   5.454  0.1901 -0.1666 -3.3708
 1397SOL    HW215828   1.736   4.097   5.412 -1.2803 -0.5820  0.3211
 1398SOL     OW15829   2.208   3.210  13.641 -0.5332 -0.1960  0.0458
 1398SOL    HW115830   2.163   3.141  13.591  0.6250 -1.1168  0.2733
 1398SOL    HW215831   2.136   3.256  13.685 -1.2012  0.0343 -1.2614
 1399SOL     OW15832   1.744   4.230   5.259 -0.0097  0.1663 -0.2958
 1399SOL    HW115833   1.777   4.248   5.171 -0.8654  1.2019 -0.3960
 1399SOL    HW215834   1.780   4.303   5.310 -2.8643 -1.1866  3.6691
 1400SOL     OW15835   0.281   0.220   0.244 -0.0420  0.2852 -0.3280
 1400SOL    HW115836   0.194   0.217   0.205  0.7259 -0.8942 -1.9814
 1400SOL    HW215837   0.304   0.313   0.243  0.4077  0.1657 -1.1010
 1401SOL     OW15838   4.557   2.817   7.089  0.4287  0.5480  0.4218
 1401SOL    HW115839   4.562   2.902   7.134 -1.6980  0.0488  1.6279
 1401SOL    HW215840   4.594   2.754   7.151  2.7451  1.4053 -0.0899
 1402SOL     OW15841   4.541   3.002   4.502 -0.5016  0.1266 -0.8337
 1402SOL    HW115842   4.564   2.975   4.413  0.0990 -0.2438 -0.5679
 1402SOL    HW215843   4.596   2.950   4.560  1.5055  0.4596 -2.4330
 1403SOL     OW15844   3.423   0.423   6.264  0.3846 -0.1871  0.2930
 1403SOL    HW115845   3.393   0.513   6.275  2.6456  0.4575  1.2170
 1403SOL    HW215846   3.384   0.381   6.341 -0.3022 -1.6023 -0.8344
 1404SOL     OW15847   0.466   3.388   1.354 -0.2115 -0.0903  0.6916
 1404SOL    HW115848   0.477   3.399   1.260 -1.2827  1.0653  0.7069
 1404SOL    HW215849   0.451   3.479   1.382 -2.4908  0.1921 -1.5246
 1405SOL     OW15850   2.394   0.537   9.502 -0.3991  0.5147  0.5789
 1405SOL    HW115851   2.380   0.473   9.571 -0.3808 -0.0513  0.0505
 1405SOL    HW215852   2.462   0.497   9.448 -0.3020  0.6524  0.5974
 1406SOL     OW15853   3.701   1.976   8.607 -0.2349  0.1193  0.7569
 1406SOL    HW115854   3.710   2.021   8.691 -0.7438  0.0321  0.8569
 1406SOL    HW215855   3.624   2.017   8.569 -1.4963 -2.0813  0.9546
 1407SOL     OW15856   3.946   3.079   1.057  0.0343  0.8576  0.5176
 1407SOL    HW115857   3.942   3.171   1.081  1.0331  1.3237 -1.1706
 1407SOL    HW215858   3.860   3.058   1.096 -0.7319 -0.0794 -1.7070
 1408SOL     OW15859   1.293   3.051  10.053  0.4626  0.4420 -0.1714
 1408SOL    HW115860   1.224   3.086  10.109 -1.1463 -1.0989 -1.1973
 1408SOL    HW215861   1.367   3.061  10.113 -0.1633 -4.1213  1.3352
 1409SOL     OW15862   3.039   1.578   1.377  0.4808  0.3352 -0.4724
 1409SOL    HW115863   3.030   1.488   1.408  2.7677  0.5695  0.8704
 1409SOL    HW215864   3.096   1.556   1.304  0.5635 -0.0006 -0.3069
 1410SOL     OW15865   0.784   4.523   3.707 -0.1638 -0.0929  0.2721
 1410SOL    HW115866   0.748   4.586   3.769 -1.2544  1.2774 -1.7671
 1410SOL    HW215867   0.726   4.447   3.704  1.8028 -1.5617 -1.0243
 1411SOL     OW15868   2.101   0.683   9.089 -0.0317  0.1038  0.3157
 1411SOL    HW115869   2.068   0.723   9.169 -1.5215 -2.0647  0.7676
 1411SOL    HW215870   2.130   0.762   9.042  1.3466  0.9033  2.5054
 1412SOL     OW15871   0.798   2.991  11.143 -0.1559 -0.2971 -0.6439
 1412SOL    HW115872   0.756   2.954  11.221 -2.9427 -0.5125 -2.2434
 1412SOL    HW215873   0.753   3.076  11.136  2.8559  1.2360 -1.3587
 1413SOL     OW15874   4.362   4.236  13.232  0.1847  0.0808  0.1227
 1413SOL    HW115875   4.400   4.240  13.144  0.6345 -1.3602  0.2498
 1413SOL    HW215876   4.391   4.322  13.263 -0.7546 -0.2451  1.9287
 1414SOL     OW15877   1.929   4.183   8.178 -0.1833  0.4399  0.4667
 1414SOL    HW115878   1.835   4.186   8.161  0.0880  0.1118 -1.1509
 1414SOL    HW215879   1.968   4.181   8.090  0.1293  0.4881  0.6052
 1415SOL     OW15880   2.999   4.107   5.808 -0.3708 -0.5974 -0.1089
 1415SOL    HW115881   2.990   4.016   5.780  1.4705 -0.8650  0.2020
 1415SOL    HW215882   2.914   4.123   5.849  0.6949  0.9332  1.5182
 1416SOL     OW15883   2.335   2.026   8.938 -0.0436 -0.0479  0.1423
 1416SOL    HW115884   2.363   2.117   8.938 -2.5412  0.7226  0.8561
 1416SOL    HW215885   2.243   2.044   8.959  0.3613 -0.4884  2.2696
 1417SOL     OW15886   4.232   4.511   0.015 -0.1559 -0.0971  0.3961
 1417SOL    HW115887   4.146   4.532  17.727  0.7858  2.1225 -0.4800
 1417SOL    HW215888   4.242   4.581   0.079  1.3763 -0.0263  0.0703
 1418SOL     OW15889   4.168   1.220   9.069 -0.0393 -0.2710  0.3344
 1418SOL    HW115890   4.091   1.164   9.082  0.3717 -0.6667  1.0780
 1418SOL    HW215891   4.196   1.167   8.994 -0.1554 -0.4946  0.4481
 1419SOL     OW15892   1.232   0.052   3.726 -0.5487  0.2825  0.1103
 1419SOL    HW115893   1.246   0.119   3.659 -2.8755  3.0719  2.4069
 1419SOL    HW215894   1.255   4.709   3.679  0.3557 -1.0096  2.7824
 1420SOL     OW15895   1.734   4.218  11.078  0.3721 -0.7778  0.3185
 1420SOL    HW115896   1.769   4.223  10.989  1.1987 -2.0370  0.5686
 1420SOL    HW215897   1.711   4.125  11.072  0.5520 -0.8240  0.3327
 1421SOL     OW15898   4.710   0.216   6.495  0.1195  0.4338  0.2940
 1421SOL    HW115899   4.616   0.199   6.485 -0.3350  2.0273  1.9059
 1421SOL    HW215900   0.012   0.130   6.508 -0.5645 -0.4815 -3.7215
 1422SOL     OW15901   2.095   0.765  17.318  0.1793  0.6175  0.4472
 1422SOL    HW115902   2.097   0.678  17.280  2.9646  1.0190 -0.3503
 1422SOL    HW215903   2.006   0.772  17.353 -1.1958 -1.5734 -2.6440
 1423SOL     OW15904   2.468   2.937   3.287 -0.1079  0.1869 -0.0322
 1423SOL    HW115905   2.429   2.934   3.374 -0.5801 -1.4770 -0.2907
 1423SOL    HW215906   2.557   2.969   3.304 -0.5917  1.9071 -0.7656
 1424SOL     OW15907   3.241   1.135   0.914  0.4351 -0.0847 -0.8510
 1424SOL    HW115908   3.248   1.084   0.995  4.7316  1.1652 -0.3982
 1424SOL    HW215909   3.285   1.214   0.945  0.6281 -0.7565  0.5902
 1425SOL     OW15910   3.306   1.085  10.576  0.2584  1.0815 -0.3504
 1425SOL    HW115911   3.264   1.059  10.658 -0.2562  0.8366 -0.6882
 1425SOL    HW215912   3.396   1.095  10.606 -0.4169 -0.7087  2.2511
 1426SOL     OW15913   3.505   0.284   2.950  0.0800 -0.1184  0.1757
 1426SOL    HW115914   3.484   0.351   3.015  1.1191  0.9233 -0.5763
 1426SOL    HW215915   3.438   0.219   2.974 -1.2741  0.6093 -1.6245
 1427SOL     OW15916   0.009   2.884  11.602  0.4255  0.7000 -0.1886
 1427SOL    HW115917   4.732   2.965  11.652 -1.1283  0.7828 -0.7841
 1427SOL    HW215918   0.052   2.912  11.521  1.6719 -1.8132 -0.3836
 1428SOL     OW15919   4.536   3.545   6.388  0.3534  0.0660 -0.1828
 1428SOL    HW115920   4.507   3.594   6.311  1.8452 -0.0642 -0.8357
 1428SOL    HW215921   4.471   3.583   6.446 -0.0414 -2.9207  1.3073
 1429SOL     OW15922   4.304   1.510   4.392  0.1486 -0.3876 -0.0819
 1429SOL    HW115923   4.390   1.506   4.434  0.1379  0.2748  0.0072
 1429SOL    HW215924   4.254   1.441   4.435 -0.6630  0.3388  0.1177
 1430SOL     OW15925   3.014   0.919  12.018 -0.1155  0.4042  0.2804
 1430SOL    HW115926   3.024   0.988  12.083 -1.0025  1.5499 -0.7982
 1430SOL    HW215927   3.025   0.848  12.081 -1.7679  1.8629  2.2000
 1431SOL     OW15928   2.392   0.077   3.488  0.1301  0.5941  0.0858
 1431SOL    HW115929   2.320   0.136   3.510 -3.0036 -2.8694 -0.9086
 1431SOL    HW215930   2.351   0.010   3.433 -0.2529  1.0533 -0.1786
 1432SOL     OW15931   0.455   0.624  15.585  0.2896 -0.6335 -0.0519
 1432SOL    HW115932   0.411   0.567  15.648  0.1149  0.5932  0.9478
 1432SOL    HW215933   0.429   0.585  15.503 -2.4119  0.0167  0.4994
 1433SOL     OW15934   1.950   1.642  14.919 -0.0983  0.2477  0.3653
 1433SOL    HW115935   1.894   1.720  14.912  0.4510  0.5089 -1.1243
 1433SOL    HW215936   1.894   1.572  14.886 -2.3681  2.1055  0.2679
 1434SOL     OW15937   2.706   4.348   4.419 -0.5364  0.8057 -0.9736
 1434SOL    HW115938   2.667   4.350   4.332  1.3615  1.0493 -1.8296
 1434SOL    HW215939   2.744   4.260   4.422 -0.2489  1.0685  3.3551
 1435SOL     OW15940   4.480   2.540  10.409 -0.0517 -0.0707 -0.1345
 1435SOL    HW115941   4.435   2.616  10.372 -0.0478  1.1948  2.4520
 1435SOL    HW215942   4.549   2.579  10.462  0.3838 -0.1165 -0.6717
 1436SOL     OW15943   2.948   0.123   5.659  0.5645  0.0724  0.5748
 1436SOL    HW115944   2.983   0.091   5.576 -0.8576 -2.0572  0.7930
 1436SOL    HW215945   2.984   0.212   5.661 -1.0770  0.7305  0.8255
 1437SOL     OW15946   2.360   4.667  15.325  0.0050  0.1123 -0.1477
 1437SOL    HW115947   2.378   0.014  15.285 -0.7712  0.0998 -0.5315
 1437SOL    HW215948   2.434   4.648  15.381  1.0280  1.5450 -1.0172
 1438SOL     OW15949   0.312   1.765   4.296 -0.4714  0.2225  0.3692
 1438SOL    HW115950   0.282   1.675   4.307  0.4427 -0.1742 -0.4998
 1438SOL    HW215951   0.356   1.778   4.380  0.1575 -1.0020  0.2338
 1439SOL     OW15952   2.878   1.493   8.238  0.0235 -0.0260 -0.3223
 1439SOL    HW115953   2.960   1.447   8.251  0.3937  0.5809 -0.5313
 1439SOL    HW215954   2.833   1.414   8.208  0.3904 -0.0856 -0.7073
 1440SOL     OW15955   2.956   0.615  16.633  0.1083 -0.4571  0.1023
 1440SOL    HW115956   3.001   0.578  16.557  0.8057 -0.8498  0.7102
 1440SOL    HW215957   3.023   0.605  16.700 -1.4090  0.8654  1.7973
 1441SOL     OW15958   3.756   2.256   3.717  0.0003  0.2682  0.3669
 1441SOL    HW115959   3.823   2.325   3.722  1.5366 -0.9677 -3.3234
 1441SOL    HW215960   3.803   2.184   3.676 -0.2442 -0.4223  1.3211
 1442SOL     OW15961   3.008   1.470   5.127 -0.2255 -0.0824  0.1541
 1442SOL    HW115962   3.101   1.463   5.107 -0.2083  1.6827 -0.3276
 1442SOL    HW215963   3.010   1.424   5.211  2.1675 -0.0963  0.0902
 1443SOL     OW15964   2.116   0.492   3.308  0.4952 -0.2970 -0.0099
 1443SOL    HW115965   2.091   0.584   3.301 -0.7929 -0.8087 -1.9733
 1443SOL    HW215966   2.169   0.477   3.229 -0.5477  1.9082 -1.1499
 1444SOL     OW15967   4.080   0.169   7.884 -0.5282 -0.3004  0.0004
 1444SOL    HW115968   4.174   0.181   7.869 -0.4530 -0.0384  0.6689
 1444SOL    HW215969   4.075   0.118   7.964 -1.8820  0.1093  0.1845
 1445SOL     OW15970   0.050   2.142  11.283 -0.3010  0.0333  0.4438
 1445SOL    HW115971   0.067   2.080  11.211 -0.4049 -1.5553  1.7901
 1445SOL    HW215972   0.015   2.088  11.354  1.9773 -1.6207  0.3230
 1446SOL     OW15973   3.661   0.336   9.915  0.3952 -0.0144  0.1730
 1446SOL    HW115974   3.575   0.363   9.883  0.6513 -0.7613 -1.1267
 1446SOL    HW215975   3.662   0.241   9.911  1.3811 -0.1329  2.7732
 1447SOL     OW15976   0.855   4.692  10.973 -0.3139 -0.0813  0.1286
 1447SOL    HW115977   0.832   0.021  10.909  1.2809  0.4706  0.1318
 1447SOL    HW215978   0.931   4.646  10.936 -0.6440 -0.8373  0.3993
 1448SOL     OW15979   1.607   2.888   3.217 -0.1010  0.4941 -0.3214
 1448SOL    HW115980   1.644   2.964   3.171 -1.2398  1.5719  0.5467
 1448SOL    HW215981   1.651   2.819   3.168 -2.2857  0.2931 -2.0164
 1449SOL     OW15982   2.667   2.909   1.928  0.4709  0.1146 -0.2484
 1449SOL    HW115983   2.640   2.863   1.849 -0.4346  0.7932 -0.3309
 1449SOL    HW215984   2.752   2.871   1.949  1.4223  1.1584 -2.1717
 1450SOL     OW15985   0.130   0.009   3.511  0.0930 -0.2926 -0.0469
 1450SOL    HW115986   0.037   0.005   3.530 -0.1195 -0.3088 -1.1036
 1450SOL    HW215987   0.132   0.048   3.424  0.3957  1.4208  0.7170
 1451SOL     OW15988   3.526   3.802   1.939  0.2311 -0.0015  0.6022
 1451SOL    HW115989   3.444   3.780   1.983  1.1954  0.9450  2.8810
 1451SOL    HW215990   3.589   3.782   2.008  0.8518 -0.6249 -0.1399
 1452SOL     OW15991   4.008   1.213   1.491 -0.5785 -0.5489  0.0594
 1452SOL    HW115992   4.093   1.174   1.471 -0.6515 -0.2931 -0.7771
 1452SOL    HW215993   3.955   1.134   1.481  1.7276 -2.1642  0.7595
 1453SOL     OW15994   1.663   2.473   6.575  0.0729  0.0820  0.2678
 1453SOL    HW115995   1.703   2.545   6.624  1.4849 -1.0011  0.7132
 1453SOL    HW215996   1.742   2.420   6.566 -0.3914 -0.9821  2.5306
 1454SOL     OW15997   3.443   2.943   2.265  0.2305  0.0383 -0.0497
 1454SOL    HW115998   3.491   2.861   2.258  1.1735  0.4362  1.9701
 1454SOL    HW215999   3.455   2.955   2.359 -1.0753  1.3081 -0.0500
 1455SOL     OW16000   4.406   1.240   6.267 -0.9605 -0.1594  0.5112
 1455SOL    HW116001   4.436   1.256   6.177 -1.9552  1.8621  0.5406
 1455SOL    HW216002   4.471   1.297   6.308 -1.1857  1.4588 -1.3921
 1456SOL     OW16003   3.714   2.542  11.321  0.1104  0.5075 -0.5294
 1456SOL    HW116004   3.749   2.461  11.357  0.4832  1.3061  0.9140
 1456SOL    HW216005   3.724   2.605  11.393 -0.0288 -1.2357  1.0032
 1457SOL     OW16006   2.332   3.207   1.429  0.2337 -0.7286 -0.2727
 1457SOL    HW116007   2.413   3.236   1.388  0.6507  1.1325  1.8373
 1457SOL    HW216008   2.354   3.121   1.467 -1.2024 -0.5944  0.8719
 1458SOL     OW16009   2.674   1.147   4.103 -0.2682 -0.0088 -0.3001
 1458SOL    HW116010   2.769   1.142   4.110 -0.1986 -1.3685 -2.0919
 1458SOL    HW216011   2.650   1.054   4.105 -1.3076  0.3137  2.0843
 1459SOL     OW16012   4.635   2.668  15.277  0.0571 -0.6545  0.8020
 1459SOL    HW116013   4.666   2.580  15.299 -0.0250 -1.4913 -2.3596
 1459SOL    HW216014   4.550   2.661  15.320 -1.1776 -0.9758 -1.7082
 1460SOL     OW16015   1.715   1.650   0.426  0.0657  0.5606  0.2873
 1460SOL    HW116016   1.639   1.593   0.414  1.6619 -1.8274  1.5098
 1460SOL    HW216017   1.688   1.726   0.374 -1.4299 -1.2010 -1.5045
 1461SOL     OW16018   4.159   0.766   4.453 -0.4441  0.3135 -0.1257
 1461SOL    HW116019   4.089   0.705   4.476 -0.9408  1.7417  2.0788
 1461SOL    HW216020   4.232   0.738   4.508 -1.1880  0.8722  1.1573
 1462SOL     OW16021   2.153   1.734   8.836  0.1595 -0.5229  0.0176
 1462SOL    HW116022   2.074   1.748   8.888  0.1570 -1.8984  0.3800
 1462SOL    HW216023   2.119   1.776   8.757 -0.3202 -0.5732  0.1993
 1463SOL     OW16024   4.318   2.452   7.630  0.6762 -0.0476  0.2624
 1463SOL    HW116025   4.398   2.401   7.643 -0.3220 -1.8349 -0.6333
 1463SOL    HW216026   4.260   2.399   7.685  0.1174 -0.6033 -0.8686
 1464SOL     OW16027   3.106   4.301   7.724 -0.2327 -0.3246  0.2497
 1464SOL    HW116028   3.062   4.350   7.655  2.9015 -1.1387 -2.3025
 1464SOL    HW216029   3.155   4.237   7.672 -1.7736 -1.1215 -0.2280
 1465SOL     OW16030   1.086   3.713   2.897 -0.2202  0.5763  0.0605
 1465SOL    HW116031   1.066   3.707   2.991  0.7857  1.4382  0.3301
 1465SOL    HW216032   1.131   3.631   2.876 -0.7792  0.6305 -1.3134
 1466SOL     OW16033   2.980   1.445   7.509 -0.0278  0.2270 -0.5317
 1466SOL    HW116034   2.917   1.510   7.540  1.6618  1.3602  0.5060
 1466SOL    HW216035   2.942   1.362   7.539 -1.9849  0.0537 -3.4456
 1467SOL     OW16036   0.760   0.639   5.556 -0.5887  0.6213 -0.4133
 1467SOL    HW116037   0.824   0.698   5.596 -2.1283  1.1632  1.2548
 1467SOL    HW216038   0.801   0.602   5.477 -0.4544  1.2400 -0.6431
 1468SOL     OW16039   3.920   0.823   7.873 -0.2329  0.3684  0.4845
 1468SOL    HW116040   3.967   0.793   7.950  2.1782 -0.7639 -1.4082
 1468SOL    HW216041   3.947   0.762   7.804 -1.9370 -1.3005  1.2993
 1469SOL     OW16042   2.637   0.147   2.784  0.1463  0.3772  0.0164
 1469SOL    HW116043   2.682   0.190   2.857  1.9248  0.1722 -0.9711
 1469SOL    HW216044   2.545   0.175   2.786  0.8383  2.5115  3.0516
 1470SOL     OW16045   2.855   1.925   2.457 -0.2660  0.2407  0.4437
 1470SOL    HW116046   2.872   1.837   2.421 -1.4700 -0.2394  1.0549
 1470SOL    HW216047   2.794   1.898   2.526 -0.4172 -2.2034 -0.6463
 1471SOL     OW16048   4.713   4.361   6.144  0.1222  0.6520 -0.0818
 1471SOL    HW116049   4.646   4.311   6.190  1.4096 -2.1462 -1.2548
 1471SOL    HW216050   0.031   4.290   6.111 -2.0423 -0.8516 -0.5244
 1472SOL     OW16051   0.418   0.872   3.044 -0.2241  0.0245 -0.0874
 1472SOL    HW116052   0.418   0.960   3.082  0.5709  0.3620 -0.8627
 1472SOL    HW216053   0.411   0.815   3.120 -0.8675  0.0978 -0.0968
 1473SOL     OW16054   2.086   1.475   8.558  0.5754  0.0581  0.1817
 1473SOL    HW116055   2.043   1.443   8.637 -0.4037  1.3800  0.2025
 1473SOL    HW216056   2.031   1.439   8.488  0.9133 -0.1064 -0.0008
 1474SOL     OW16057   3.014   0.050   7.683  0.1658 -0.2266 -0.1755
 1474SOL    HW116058   2.935   0.103   7.680 -1.3017 -2.4647 -0.7300
 1474SOL    HW216059   3.034   0.047   7.590  2.4712 -2.1427  0.3919
 1475SOL     OW16060   0.808   0.836   1.594 -0.0045  0.8591  0.2235
 1475SOL    HW116061   0.777   0.879   1.673 -2.1222  0.0570 -0.1692
 1475SOL    HW216062   0.725   0.800   1.563  1.1301 -0.4232 -1.3420
 1476SOL     OW16063   1.741   2.643   5.136 -0.3422 -0.0684 -0.4488
 1476SOL    HW116064   1.815   2.663   5.078  0.1255 -0.7333 -0.0748
 1476SOL    HW216065   1.669   2.659   5.075 -1.4566 -0.2619  0.8402
 1477SOL     OW16066   2.068   2.010   0.899  0.1052 -0.3821  0.0978
 1477SOL    HW116067   2.080   1.971   0.812  2.2804  0.4721  0.0254
 1477SOL    HW216068   2.049   2.102   0.885  0.4136 -0.8102 -3.1260
 1478SOL     OW16069   1.159   3.846  12.846  0.1263  0.1797  0.1219
 1478SOL    HW116070   1.075   3.825  12.887 -0.2774  1.7587  0.0935
 1478SOL    HW216071   1.216   3.836  12.922 -1.4349 -1.0335  1.1341
 1479SOL     OW16072   0.809   3.812  11.508  0.3631 -0.2397 -0.1851
 1479SOL    HW116073   0.802   3.742  11.574  1.6266 -0.9369 -0.7855
 1479SOL    HW216074   0.734   3.868  11.527 -2.4874 -3.4469 -1.8768
 1480SOL     OW16075   4.682   4.060  10.956  0.2447  0.3669 -0.1524
 1480SOL    HW116076   4.624   4.083  11.028 -1.4556 -0.1534 -1.3698
 1480SOL    HW216077   0.020   4.033  11.007 -1.4982 -1.5019  1.4280
 1481SOL     OW16078   2.869   3.920   2.975 -0.1751 -0.1387 -0.6133
 1481SOL    HW116079   2.911   3.848   2.929 -1.8287 -0.3363 -1.8347
 1481SOL    HW216080   2.922   3.991   2.940 -1.0122  0.8538  0.1251
 1482SOL     OW16081   1.779   3.923   5.720 -0.4147  0.6803  0.0891
 1482SOL    HW116082   1.728   3.842   5.719  1.0840 -0.2443 -1.6373
 1482SOL    HW216083   1.761   3.960   5.634  1.0926  0.5080 -0.3165
 1483SOL     OW16084   2.003   0.089  11.511  0.2710  0.3401  0.3777
 1483SOL    HW116085   1.981   0.150  11.440  0.5436  1.5285  1.3175
 1483SOL    HW216086   2.024   0.155  11.578 -1.0051  1.8249 -0.6613
 1484SOL     OW16087   2.252   2.804   0.679  0.0268  0.5114  0.1127
 1484SOL    HW116088   2.162   2.796   0.709 -0.4468 -0.5592 -1.6111
 1484SOL    HW216089   2.241   2.896   0.656 -0.0862  0.2067 -1.0199
 1485SOL     OW16090   4.408   0.182  12.653 -0.4028  0.6063  0.1996
 1485SOL    HW116091   4.397   0.247  12.722 -1.5148  0.2286  0.3748
 1485SOL    HW216092   4.429   0.240  12.580 -0.0271 -1.5932 -1.4396
 1486SOL     OW16093   3.130   0.216  13.955 -0.3951 -0.2152  0.1510
 1486SOL    HW116094   3.212   0.170  13.940  0.4157  1.0066  0.8283
 1486SOL    HW216095   3.094   0.215  13.867 -0.8987  3.3531  0.3120
 1487SOL     OW16096   3.330   3.616   7.851 -0.0191 -0.0860 -0.1597
 1487SOL    HW116097   3.386   3.692   7.870 -0.9755 -0.1580  3.0481
 1487SOL    HW216098   3.343   3.552   7.921 -0.4417  1.1887  1.1061
 1488SOL     OW16099   4.297   1.344   2.760  1.1254  0.2519 -0.4605
 1488SOL    HW116100   4.302   1.439   2.763  0.0714  0.2424  1.7187
 1488SOL    HW216101   4.234   1.333   2.831  0.3237  1.0902 -1.0426
 1489SOL     OW16102   2.454   4.316   7.838 -0.8372 -0.6852 -0.2503
 1489SOL    HW116103   2.438   4.245   7.775 -2.8545 -1.1232  0.7678
 1489SOL    HW216104   2.466   4.390   7.779  1.7851 -1.4776 -0.7538
 1490SOL     OW16105   3.721   3.038   9.058  0.0274 -0.0148  0.3580
 1490SOL    HW116106   3.662   2.989   9.000  0.5651  0.3850 -0.5430
 1490SOL    HW216107   3.805   3.033   9.011 -1.2227  0.7079 -1.9996
 1491SOL     OW16108   3.854   0.491   9.650 -0.3722 -0.6727  0.0108
 1491SOL    HW116109   3.839   0.482   9.744  1.6172 -0.6625  0.3329
 1491SOL    HW216110   3.774   0.448   9.619  0.3138 -0.1752 -2.5311
 1492SOL     OW16111   4.205   3.577   8.108  0.0758  0.0754 -0.5954
 1492SOL    HW116112   4.156   3.599   8.187  0.9168  2.8752 -0.8599
 1492SOL    HW216113   4.295   3.601   8.129 -0.4674  2.1931 -0.7044
 1493SOL     OW16114   2.603   2.324   3.653  0.0413 -0.5839  0.1324
 1493SOL    HW116115   2.594   2.349   3.745 -2.2057 -0.0031 -0.2376
 1493SOL    HW216116   2.529   2.370   3.614 -0.4721 -0.8013  0.8435
 1494SOL     OW16117   2.224   1.804   3.460 -1.0990 -0.1062 -0.1140
 1494SOL    HW116118   2.312   1.841   3.448 -0.8081 -1.0334 -0.8957
 1494SOL    HW216119   2.238   1.755   3.541  0.8266  1.8609  0.7431
 1495SOL     OW16120   1.977   4.334  16.844 -0.1121 -0.1299 -0.2588
 1495SOL    HW116121   2.001   4.254  16.892  1.5549  1.7415  1.9870
 1495SOL    HW216122   1.884   4.348  16.857  0.5918  2.7806  1.4568
 1496SOL     OW16123   2.950   1.069  11.578  0.1091 -0.5649  0.1101
 1496SOL    HW116124   2.894   1.081  11.655  0.5309 -2.0604  0.6504
 1496SOL    HW216125   2.892   1.092  11.506 -0.5569  1.6679  1.3734
 1497SOL     OW16126   0.532   3.167   7.309  0.5767  0.1617  0.1759
 1497SOL    HW116127   0.592   3.198   7.378  0.6519 -2.6165  1.3694
 1497SOL    HW216128   0.542   3.228   7.236  0.9728 -0.1851 -0.0614
 1498SOL     OW16129   2.258   2.821   2.057 -1.1095 -0.4982 -0.3724
 1498SOL    HW116130   2.343   2.836   2.101 -0.0014 -0.7614 -2.4341
 1498SOL    HW216131   2.218   2.770   2.128  3.0030 -0.6230  1.8712
 1499SOL     OW16132   4.626   2.480   1.234 -1.0012 -0.4922  0.5724
 1499SOL    HW116133   4.575   2.458   1.312 -0.9839  1.0343  1.0185
 1499SOL    HW216134   4.561   2.477   1.164  0.7024  1.2774 -1.0835
 1500SOL     OW16135   1.172   0.427   7.055 -0.0884  0.1276  0.1449
 1500SOL    HW116136   1.234   0.497   7.036 -0.5717  1.2986  2.9933
 1500SOL    HW216137   1.140   0.449   7.142 -1.7521 -0.8812 -0.2048
 1501SOL     OW16138   1.829   3.243   4.320 -0.0523 -0.0237 -0.3027
 1501SOL    HW116139   1.738   3.222   4.340 -0.1807  1.0555  0.2586
 1501SOL    HW216140   1.866   3.175   4.376 -0.9213  0.0159  0.3230
 1502SOL     OW16141   2.191   3.073   2.143  0.6962  0.0308  0.4689
 1502SOL    HW116142   2.247   3.059   2.219 -0.9328 -0.4654  1.5885
 1502SOL    HW216143   2.205   2.991   2.096  0.5203  0.2130  0.1019
 1503SOL     OW16144   1.857   3.640   9.260  0.3923  0.4796 -0.0027
 1503SOL    HW116145   1.900   3.643   9.175 -0.4718 -0.5786 -0.4686
 1503SOL    HW216146   1.812   3.556   9.250  1.6933 -0.1987 -0.0259
 1504SOL     OW16147   3.255   2.843   0.446  0.1807 -0.7011  0.1867
 1504SOL    HW116148   3.275   2.762   0.399 -1.4896 -0.4412 -0.9705
 1504SOL    HW216149   3.167   2.832   0.481 -0.1266 -3.2474 -1.3794
 1505SOL     OW16150   0.870   3.775   5.983  0.5777  0.3386  0.3496
 1505SOL    HW116151   0.802   3.773   6.051 -0.7503  0.1896 -0.9786
 1505SOL    HW216152   0.945   3.786   6.041  0.9396 -1.5405  0.2621
 1506SOL     OW16153   3.217   3.493  11.734  0.0690 -0.2842  0.4445
 1506SOL    HW116154   3.260   3.515  11.651  1.0429 -0.6830  0.8527
 1506SOL    HW216155   3.133   3.448  11.719  0.0407 -0.5038  1.2624
 1507SOL     OW16156   4.014   3.232   2.544 -0.2075 -0.1810  0.7436
 1507SOL    HW116157   4.028   3.267   2.456 -0.3228 -1.6446  0.1323
 1507SOL    HW216158   4.055   3.146   2.555  0.3091 -0.0204  0.0526
 1508SOL     OW16159   3.460   1.731   6.815 -0.6521  0.2877  0.2386
 1508SOL    HW116160   3.367   1.718   6.793 -0.2064  0.9387 -2.0543
 1508SOL    HW216161   3.454   1.805   6.875  2.1162  0.8697 -0.2283
 1509SOL     OW16162   4.569   3.134   2.852  0.3647 -0.1525  1.0485
 1509SOL    HW116163   4.601   3.100   2.936  0.2259 -0.1508  1.1021
 1509SOL    HW216164   4.479   3.101   2.849  0.3033  0.2557 -1.2308
 1510SOL     OW16165   3.245   4.024  11.471  0.2439 -0.0040 -0.2383
 1510SOL    HW116166   3.183   4.029  11.543 -0.3885  3.2024 -1.0215
 1510SOL    HW216167   3.328   4.018  11.518 -0.6726 -1.3899  1.2031
 1511SOL     OW16168   1.036   0.932   1.435 -0.1009 -0.4139  0.5993
 1511SOL    HW116169   1.020   0.976   1.518 -2.4810 -0.4323  0.1538
 1511SOL    HW216170   0.967   0.866   1.428  0.5178 -1.0825  0.8010
 1512SOL     OW16171   4.402   3.564  12.696 -0.5814 -0.0721 -0.6508
 1512SOL    HW116172   4.324   3.583  12.748  0.0440  0.7507 -0.0133
 1512SOL    HW216173   4.418   3.474  12.724 -3.0138 -0.7481 -1.4898
 1513SOL     OW16174   3.850   3.937   2.716  0.3191  0.1029 -0.1880
 1513SOL    HW116175   3.933   3.985   2.704 -0.3411  0.9604 -1.2814
 1513SOL    HW216176   3.858   3.871   2.648  1.2160 -0.0301  0.0469
 1514SOL     OW16177   2.291   2.313   5.559  0.0279 -0.6876 -0.5861
 1514SOL    HW116178   2.329   2.287   5.475 -0.8427 -0.2462 -1.1137
 1514SOL    HW216179   2.197   2.295   5.556  0.0566 -0.8300 -0.6174
 1515SOL     OW16180   0.222   4.068   1.674  0.3906 -0.5091  0.4664
 1515SOL    HW116181   0.180   4.136   1.728 -1.4620 -0.7473 -0.6848
 1515SOL    HW216182   0.249   4.007   1.743 -0.4158 -1.6535 -0.2402
 1516SOL     OW16183   4.681   0.503   9.071  0.2857  0.0976 -0.3470
 1516SOL    HW116184   0.027   0.489   9.115  0.4855 -0.1296 -0.8045
 1516SOL    HW216185   4.628   0.466   9.141 -1.6770 -2.0124 -2.9457
 1517SOL     OW16186   3.689   1.153   9.020  0.3398  0.1735  0.2926
 1517SOL    HW116187   3.683   1.160   9.116 -1.4467  0.7065  0.1469
 1517SOL    HW216188   3.746   1.077   9.007 -1.7985 -1.5043  0.6936
 1518SOL     OW16189   3.179   4.620   2.742  0.4999  0.1205 -0.4666
 1518SOL    HW116190   3.145   4.544   2.694 -1.0476  0.6313 -0.1483
 1518SOL    HW216191   3.184   4.587   2.832 -0.4992  1.4612  0.0643
 1519SOL     OW16192   0.244   2.766   9.757  0.2689  0.2557 -0.0367
 1519SOL    HW116193   0.254   2.699   9.825 -1.8291 -0.6523 -0.6395
 1519SOL    HW216194   0.226   2.725   9.672 -3.7720  1.1805  0.3879
 1520SOL     OW16195   1.779   0.533   8.667  0.1510 -0.1260 -0.7473
 1520SOL    HW116196   1.852   0.518   8.727 -1.2483 -1.5903  0.6059
 1520SOL    HW216197   1.824   0.551   8.584 -0.3948 -1.5519 -1.3484
 1521SOL     OW16198   1.197   2.266   4.471  0.1575  0.0198 -0.5923
 1521SOL    HW116199   1.152   2.273   4.554  1.6335 -0.0162  0.2096
 1521SOL    HW216200   1.132   2.314   4.418  1.0633  0.1015 -1.6500
 1522SOL     OW16201   3.851   1.040   5.934  0.1585  0.4905 -0.6366
 1522SOL    HW116202   3.856   0.989   6.015 -0.0514  2.2230  0.4670
 1522SOL    HW216203   3.777   0.996   5.892 -0.2086 -1.5053  2.1306
 1523SOL     OW16204   4.045   0.041   8.167 -0.1626  0.6589  0.4040
 1523SOL    HW116205   3.979   0.059   8.234 -0.7142  1.8348 -0.4564
 1523SOL    HW216206   4.021   4.687   8.153  1.6389  0.1262  0.7545
 1524SOL     OW16207   0.775   0.076   4.174 -0.3182  0.5814 -0.4233
 1524SOL    HW116208   0.804   0.167   4.179  1.2397  0.1754 -2.1496
 1524SOL    HW216209   0.841   0.041   4.234 -1.0310 -1.0001 -0.5323
 1525SOL     OW16210   1.331   1.994   0.502  0.4703 -0.2886 -0.5132
 1525SOL    HW116211   1.284   1.915   0.475  1.6290 -0.7060 -1.2999
 1525SOL    HW216212   1.421   1.974   0.477  0.0943 -1.4250 -0.9684
 1526SOL     OW16213   0.539   4.674   2.692  0.0834 -0.3265 -0.0717
 1526SOL    HW116214   0.476   4.651   2.760 -0.2650  0.7304 -0.0368
 1526SOL    HW216215   0.561   4.588   2.655  1.3532 -0.0070 -0.0575
 1527SOL     OW16216   0.724   0.777   1.934  0.4869  0.4624 -0.4785
 1527SOL    HW116217   0.754   0.868   1.935  0.1291  0.5053  3.2396
 1527SOL    HW216218   0.633   0.789   1.909 -0.5945 -0.4869  3.1353
 1528SOL     OW16219   3.005   4.514   6.880  0.3533 -0.2898 -0.8336
 1528SOL    HW116220   3.030   4.574   6.950 -2.6001 -0.3420  0.2833
 1528SOL    HW216221   3.053   4.436   6.909 -0.9209 -0.2210  1.5171
 1529SOL     OW16222   0.649   0.563   6.239  0.2414 -0.4204  0.3673
 1529SOL    HW116223   0.671   0.472   6.220  1.8849  0.1911 -0.6236
 1529SOL    HW216224   0.554   0.558   6.253 -0.0200  1.3326 -0.7589
 1530SOL     OW16225   3.546   0.706   7.239 -0.2349  0.1216  0.0667
 1530SOL    HW116226   3.470   0.698   7.182  1.4368 -1.5573 -1.9163
 1530SOL    HW216227   3.528   0.790   7.281 -1.0598 -0.0599  0.0826
 1531SOL     OW16228   3.732   4.647   6.626  0.3680 -0.7523  0.1658
 1531SOL    HW116229   3.795   4.578   6.606  0.7645 -0.1270 -0.7821
 1531SOL    HW216230   3.667   4.643   6.556  0.5891  1.2274 -0.1692
 1532SOL     OW16231   0.721   0.593   6.792  0.2416  0.3817 -0.0598
 1532SOL    HW116232   0.738   0.499   6.800  1.4274  0.7516  1.6150
 1532SOL    HW216233   0.626   0.596   6.775  0.6670 -2.2083 -2.9637
 1533SOL     OW16234   0.704   3.804  13.239  0.0640  0.3894  0.2256
 1533SOL    HW116235   0.690   3.736  13.304 -0.3689 -1.8248 -2.1982
 1533SOL    HW216236   0.783   3.848  13.270 -0.1618 -1.5316  3.4808
 1534SOL     OW16237   3.632   0.968   1.053 -0.5332  0.4767  0.4594
 1534SOL    HW116238   3.697   0.969   1.123 -2.9217 -2.0687  2.7213
 1534SOL    HW216239   3.651   0.890   1.002  0.5029  0.3534  1.0266
 1535SOL     OW16240   2.021   2.932   4.106  0.2991 -0.0177  0.0751
 1535SOL    HW116241   1.983   2.868   4.046  1.5390 -0.3379 -0.3577
 1535SOL    HW216242   2.104   2.948   4.061  0.8153  0.6417  1.2649
 1536SOL     OW16243   3.636   3.949   9.783  0.0277 -0.1195 -0.2700
 1536SOL    HW116244   3.587   3.875   9.820 -1.1225  0.2932 -0.9642
 1536SOL    HW216245   3.571   4.019   9.795  0.5266  0.1245  1.0323
 1537SOL     OW16246   1.058   3.543   8.212  0.0409 -0.0985  0.2766
 1537SOL    HW116247   0.967   3.543   8.184  0.5387  0.1442 -1.3297
 1537SOL    HW216248   1.109   3.544   8.131 -0.1645  1.4853  0.1788
 1538SOL     OW16249   4.549   2.239  11.804 -0.6902  0.1828  0.0207
 1538SOL    HW116250   4.459   2.207  11.807 -1.1699  1.5612  0.4093
 1538SOL    HW216251   4.599   2.166  11.840  0.4420  1.6112  1.3476
 1539SOL     OW16252   1.309   2.969   1.950  0.1680 -0.1093 -0.0194
 1539SOL    HW116253   1.265   2.990   2.033  2.5501  0.1000  1.1883
 1539SOL    HW216254   1.233   2.926   1.913  0.3735  0.5128 -1.1578
 1540SOL     OW16255   2.820   0.872  16.397  0.5864 -0.3491  0.5046
 1540SOL    HW116256   2.729   0.901  16.393  0.1872 -1.5314  0.7363
 1540SOL    HW216257   2.808   0.780  16.422 -3.1312  0.0654  0.1497
 1541SOL     OW16258   3.526   4.205   9.059  0.5266 -0.6940  0.6641
 1541SOL    HW116259   3.555   4.247   9.140 -1.3595  0.9138  0.5089
 1541SOL    HW216260   3.489   4.280   9.013  0.4401 -1.8929 -1.2065
 1542SOL     OW16261   1.307   2.427   1.571  0.3331  0.1260 -0.4053
 1542SOL    HW116262   1.267   2.444   1.486 -1.4136 -0.3199  0.3196
 1542SOL    HW216263   1.278   2.501   1.623  0.2329  0.1210 -0.4544
 1543SOL     OW16264   3.803   3.224  15.562  0.8271 -0.0380 -0.5111
 1543SOL    HW116265   3.781   3.311  15.595  0.2063 -1.1064  1.8685
 1543SOL    HW216266   3.794   3.174  15.643  0.7584  0.7358 -0.0419
 1544SOL     OW16267   3.207   0.437   5.689 -0.2338  0.3499 -0.0343
 1544SOL    HW116268   3.117   0.414   5.714 -0.7988  0.4654 -1.9405
 1544SOL    HW216269   3.208   0.532   5.694  0.7292  0.4857 -2.6819
 1545SOL     OW16270   4.632   0.909  14.032  0.4568  0.0833 -0.2890
 1545SOL    HW116271   4.652   0.998  14.061  3.1131 -0.1028 -1.4830
 1545SOL    HW216272   4.691   0.898  13.957  1.9461 -0.2725  0.9235
 1546SOL     OW16273   3.823   0.928   8.947 -0.4424  0.2704  0.4885
 1546SOL    HW116274   3.817   0.845   8.900 -1.4189  1.4638 -1.5101
 1546SOL    HW216275   3.868   0.976   8.878 -1.2071 -0.4706 -0.5204
 1547SOL     OW16276   0.689   4.047   8.650  0.4196  0.0063  0.0448
 1547SOL    HW116277   0.619   4.113   8.648 -1.2172 -1.7544 -0.1045
 1547SOL    HW216278   0.767   4.091   8.684  1.2340 -1.1989 -0.2749
 1548SOL     OW16279   4.125   2.075   2.840  0.0647  0.0259  0.3035
 1548SOL    HW116280   4.161   1.994   2.876  3.3106  0.5321 -1.7445
 1548SOL    HW216281   4.190   2.134   2.880 -0.0200 -0.1949  0.7658
 1549SOL     OW16282   1.032   0.429   5.065 -0.4517  0.0538 -0.1599
 1549SOL    HW116283   0.977   0.426   4.987  0.6257  1.7833 -0.9890
 1549SOL    HW216284   1.001   0.350   5.110  0.2071  0.6858  1.4124
 1550SOL     OW16285   2.296   1.278   3.666 -0.4132 -0.3598  0.3308
 1550SOL    HW116286   2.214   1.235   3.690 -0.5065 -0.2828  0.1543
 1550SOL    HW216287   2.260   1.366   3.655  1.6964  0.7372  2.2467
 1551SOL     OW16288   2.216   3.278   0.169  0.1300 -0.7547 -0.2867
 1551SOL    HW116289   2.293   3.257   0.220  0.4933  0.5032 -0.3233
 1551SOL    HW216290   2.149   3.215   0.195 -1.0634  0.3876 -0.5491
 1552SOL     OW16291   4.363   2.653   2.594  0.2028 -0.6752 -0.5025
 1552SOL    HW116292   4.282   2.683   2.636  2.5050  0.7135  2.9861
 1552SOL    HW216293   4.427   2.683   2.658 -1.3370 -2.9055  2.1158
 1553SOL     OW16294   2.056   4.143   8.413 -0.3054 -0.2922  0.4465
 1553SOL    HW116295   2.010   4.163   8.332  0.8010 -2.6224 -0.7529
 1553SOL    HW216296   2.005   4.062   8.417 -0.9263 -0.0381 -2.3894
 1554SOL     OW16297   3.791   2.587  11.063  0.4567 -0.4377 -0.0819
 1554SOL    HW116298   3.771   2.675  11.031  0.5353  0.1553  1.5267
 1554SOL    HW216299   3.778   2.586  11.157  2.3869  0.9171  0.2030
 1555SOL     OW16300   2.865   0.484   9.235 -0.4982 -0.7111  0.2383
 1555SOL    HW116301   2.923   0.557   9.256 -1.5554 -0.4787  2.4069
 1555SOL    HW216302   2.780   0.526   9.219 -2.2297 -3.3635  2.4120
 1556SOL     OW16303   2.462   3.587   3.430  0.5310  0.1457 -0.3878
 1556SOL    HW116304   2.520   3.524   3.387  1.1455 -0.4016  1.2344
 1556SOL    HW216305   2.404   3.607   3.357 -0.8111 -3.0328 -0.2056
 1557SOL     OW16306   0.527   3.866   8.169 -0.1377 -0.7231  0.2158
 1557SOL    HW116307   0.598   3.930   8.163  0.8946 -1.9809 -0.7375
 1557SOL    HW216308   0.530   3.834   8.079  0.3326  1.0916 -0.4261
 1558SOL     OW16309   2.335   3.626   2.021  0.1578 -0.2837 -0.2147
 1558SOL    HW116310   2.357   3.536   2.047  1.5844 -0.2339 -1.2230
 1558SOL    HW216311   2.278   3.612   1.945  0.4866 -1.7932 -0.1991
 1559SOL     OW16312   3.101   3.978   1.657 -0.4215  0.7055  0.2230
 1559SOL    HW116313   3.105   3.990   1.752 -0.1645  1.0417  0.1680
 1559SOL    HW216314   3.123   4.067   1.631 -0.9761  0.3986 -1.2803
 1560SOL     OW16315   1.697   1.481  14.895 -0.7468 -0.1307 -0.3197
 1560SOL    HW116316   1.643   1.408  14.926  1.0043 -1.2196  0.1997
 1560SOL    HW216317   1.635   1.519  14.833 -1.3477  1.0698  1.0106
 1561SOL     OW16318   0.404   0.684   5.748 -0.2333 -0.5808 -0.2901
 1561SOL    HW116319   0.427   0.725   5.832  0.6309  0.9365 -1.2769
 1561SOL    HW216320   0.439   0.750   5.688 -0.0097  0.2546  0.7456
 1562SOL     OW16321   3.905   1.993   2.562 -0.3315  0.5628 -1.3102
 1562SOL    HW116322   3.848   2.013   2.636  1.4571 -2.7387  0.9798
 1562SOL    HW216323   3.928   2.083   2.539  1.0196 -0.4451 -3.9586
 1563SOL     OW16324   1.244   0.968   7.155  0.0762  0.4988  0.4780
 1563SOL    HW116325   1.210   0.982   7.243  0.0617 -2.3277  0.9122
 1563SOL    HW216326   1.207   0.883   7.131 -2.4904  1.3656  1.3320
 1564SOL     OW16327   2.695   1.705   0.034 -0.0399 -0.5236  0.2373
 1564SOL    HW116328   2.738   1.771  17.730 -1.9183 -0.7262 -1.5061
 1564SOL    HW216329   2.720   1.621  17.745 -1.9521  0.6725 -3.6325
 1565SOL     OW16330   2.317   3.653   5.104 -0.5046 -0.0393  0.3934
 1565SOL    HW116331   2.375   3.721   5.068 -1.9205  0.3346 -1.2355
 1565SOL    HW216332   2.251   3.659   5.035  0.2579  1.4101 -0.2180
 1566SOL     OW16333   3.083   0.700   7.750 -0.2017 -0.2099  0.2255
 1566SOL    HW116334   3.175   0.672   7.746  0.1897  0.8940  1.6505
 1566SOL    HW216335   3.040   0.627   7.705  2.2030 -0.3729 -1.8046
 1567SOL     OW16336   0.111   0.259   8.398  0.2657 -0.2030  0.1084
 1567SOL    HW116337   0.026   0.246   8.440  0.6764  1.0723  1.3579
 1567SOL    HW216338   0.083   0.324   8.334  3.4335  1.1192  0.0467
 1568SOL     OW16339   0.859   1.727   2.132 -0.6030  0.1100  0.1318
 1568SOL    HW116340   0.907   1.759   2.056 -0.9953  0.2796 -0.0451
 1568SOL    HW216341   0.828   1.810   2.168  2.5198  0.4469  2.0332
 1569SOL     OW16342   4.393   2.000  11.262 -0.9615  0.2371  0.4429
 1569SOL    HW116343   4.420   2.077  11.213 -0.3838 -0.7043 -0.7170
 1569SOL    HW216344   4.310   2.037  11.292 -0.2116  0.6505  2.0200
 1570SOL     OW16345   2.423   2.761   3.828  0.0047  0.0299  0.1420
 1570SOL    HW116346   2.346   2.734   3.777  1.4538 -0.9306 -1.5865
 1570SOL    HW216347   2.383   2.759   3.914  0.9821  4.2175  0.6730
 1571SOL     OW16348   0.599   3.591  13.401 -0.1760  0.8154  0.1680
 1571SOL    HW116349   0.597   3.588  13.496  2.9243  3.2491  0.3098
 1571SOL    HW216350   0.513   3.559  13.375  1.3968 -1.2436 -2.4214
 1572SOL     OW16351   4.251   4.374   8.130 -0.5383 -0.0893 -0.3207
 1572SOL    HW116352   4.264   4.464   8.160 -1.4958 -0.5614  1.4818
 1572SOL    HW216353   4.161   4.350   8.153 -0.9336  2.5547  0.8563
 1573SOL     OW16354   3.882   4.385   1.147  0.1464  0.2765 -0.2662
 1573SOL    HW116355   3.861   4.302   1.103  0.5586  0.0473 -0.0305
 1573SOL    HW216356   3.964   4.397   1.101  0.7712 -1.3662  0.4105
 1574SOL     OW16357   0.567   4.564   5.375 -0.2215 -0.3810  0.3978
 1574SOL    HW116358   0.476   4.573   5.402 -0.4581 -1.8345  0.0650
 1574SOL    HW216359   0.566   4.621   5.299  2.9820 -1.1584 -0.2349
 1575SOL     OW16360   4.621   1.399   6.321  0.0931  0.8892  0.2827
 1575SOL    HW116361   4.649   1.381   6.411  0.3301 -1.6141 -0.2747
 1575SOL    HW216362   4.708   1.408   6.282 -0.2930  1.6971 -0.3852
 1576SOL     OW16363   0.822   2.682   7.770 -0.1227  0.1877  0.4745
 1576SOL    HW116364   0.807   2.634   7.852 -1.3689 -0.4684 -0.1304
 1576SOL    HW216365   0.900   2.643   7.729 -0.3771 -0.5643  0.6906
 1577SOL     OW16366   0.226   0.208   9.126  0.4681  0.2904  0.0992
 1577SOL    HW116367   0.131   0.200   9.132  0.3537  2.6543  1.2605
 1577SOL    HW216368   0.235   0.267   9.201 -0.0904  1.3183 -0.6538
 1578SOL     OW16369   3.813   1.481   1.836 -0.0330 -0.1062  0.8276
 1578SOL    HW116370   3.885   1.429   1.800 -1.0884 -0.8319 -0.2290
 1578SOL    HW216371   3.798   1.550   1.771  0.3748 -0.0801  0.7654
 1579SOL     OW16372   4.517   3.989   1.227 -0.0835  0.4960  0.4874
 1579SOL    HW116373   4.475   4.075   1.224 -2.1601 -0.5943 -1.9822
 1579SOL    HW216374   4.601   4.007   1.185 -1.3045  0.7191 -1.8916
 1580SOL     OW16375   3.744   2.519   3.424 -0.1802 -0.4233  0.5975
 1580SOL    HW116376   3.816   2.457   3.416  0.6487  0.3415  2.2922
 1580SOL    HW216377   3.671   2.466   3.391 -0.3786  0.3214 -0.1494
 1581SOL     OW16378   1.266   0.372   4.234  0.0819 -0.5427  0.4135
 1581SOL    HW116379   1.314   0.344   4.156 -0.1787 -0.4610  0.2242
 1581SOL    HW216380   1.203   0.431   4.193  0.7233  0.1047  0.3619
 1582SOL     OW16381   2.212   4.431   4.825  0.3664  0.1248 -0.1126
 1582SOL    HW116382   2.257   4.448   4.742 -0.6517  0.2148 -0.6460
 1582SOL    HW216383   2.204   4.523   4.852 -1.2755 -0.3749  1.0648
 1583SOL     OW16384   1.368   1.815   0.098  0.1753 -0.4316  0.3360
 1583SOL    HW116385   1.393   1.739   0.046 -3.0043 -1.3436  0.1644
 1583SOL    HW216386   1.273   1.802   0.099  0.1651 -0.5630 -2.1048
 1584SOL     OW16387   3.797   3.363   9.618  0.1643  0.0711 -0.0438
 1584SOL    HW116388   3.777   3.302   9.688 -0.2748 -1.2174 -1.2874
 1584SOL    HW216389   3.892   3.372   9.617  0.4794 -3.2705  0.1715
 1585SOL     OW16390   3.497   1.098   2.124  0.0722  0.3617 -0.3610
 1585SOL    HW116391   3.543   1.143   2.194  2.7330  0.3331 -2.1043
 1585SOL    HW216392   3.541   1.131   2.046  1.7867 -1.6365 -0.2360
 1586SOL     OW16393   4.102   1.082  14.568 -0.9245  0.4311  0.0531
 1586SOL    HW116394   4.192   1.049  14.561 -1.1188 -0.5171  1.9985
 1586SOL    HW216395   4.111   1.174  14.593  1.3035  0.2157  0.0288
 1587SOL     OW16396   1.880   4.515  15.026  0.0805  0.0451  0.6700
 1587SOL    HW116397   1.790   4.540  15.044  0.1788 -0.1413  1.4463
 1587SOL    HW216398   1.896   4.539  14.935 -0.7630  0.1737  0.5571
 1588SOL     OW16399   1.108   1.788   5.456  0.3583 -1.0004  0.5850
 1588SOL    HW116400   1.035   1.809   5.398  2.1039 -2.0991 -1.9901
 1588SOL    HW216401   1.072   1.710   5.499 -0.2004 -0.8863  0.3257
 1589SOL     OW16402   1.999   0.016   0.869  1.0133 -0.1072  0.7969
 1589SOL    HW116403   1.953   0.083   0.819 -0.6081 -0.6232  1.5784
 1589SOL    HW216404   1.939   4.680   0.861  1.9836 -0.8797  0.7856
 1590SOL     OW16405   1.489   3.203   2.089  0.3886 -0.3137 -0.0760
 1590SOL    HW116406   1.395   3.210   2.070 -0.4037 -1.8796  3.2973
 1590SOL    HW216407   1.531   3.277   2.046 -0.9997 -0.4438 -1.6658
 1591SOL     OW16408   2.173   4.078   6.957  0.1522  0.1655  0.4398
 1591SOL    HW116409   2.232   4.107   6.887  0.1350  0.5207  0.5690
 1591SOL    HW216410   2.092   4.126   6.939 -0.2606 -0.2635  1.1646
 1592SOL     OW16411   2.225   3.814  15.274  0.2156 -0.2563 -0.1122
 1592SOL    HW116412   2.184   3.806  15.360  0.9067  1.0512  0.3428
 1592SOL    HW216413   2.182   3.888  15.231 -1.5915 -0.3052  1.6371
 1593SOL     OW16414   2.250   2.072   2.583  0.0551 -0.0831 -0.2971
 1593SOL    HW116415   2.322   2.028   2.628  1.0863  0.6978 -1.1654
 1593SOL    HW216416   2.186   2.002   2.597 -0.0268  0.1123  0.3133
 1594SOL     OW16417   0.771   4.518   0.007  0.2926  0.5433  0.5467
 1594SOL    HW116418   0.730   4.446  17.709 -2.3158  1.7699  0.9471
 1594SOL    HW216419   0.752   4.596  17.704  2.5158  0.6145 -0.1498
 1595SOL     OW16420   1.893   4.368   5.839 -0.1499  0.0292 -0.0469
 1595SOL    HW116421   1.948   4.434   5.881 -1.7237  1.5107 -0.3296
 1595SOL    HW216422   1.955   4.298   5.819 -1.2977 -0.4855 -1.7726
 1596SOL     OW16423   0.386   3.829   1.471 -0.2727  0.0963  0.3478
 1596SOL    HW116424   0.474   3.841   1.435 -1.7572  2.3201 -2.5608
 1596SOL    HW216425   0.399   3.748   1.520  0.4815 -0.2712 -0.4696
 1597SOL     OW16426   4.217   0.437   4.968  0.0370  0.0898 -0.0053
 1597SOL    HW116427   4.292   0.389   5.002  0.2519  0.5945  0.2320
 1597SOL    HW216428   4.145   0.398   5.018  0.8635  2.9079  3.3686
 1598SOL     OW16429   1.786   2.179   5.808 -0.1981 -0.4710 -0.4363
 1598SOL    HW116430   1.869   2.202   5.850 -1.1126 -1.7838  2.1252
 1598SOL    HW216431   1.772   2.237   5.734  0.3378 -3.7770 -3.1264
 1599SOL     OW16432   1.658   1.738   2.121  0.6809  0.2914  0.3674
 1599SOL    HW116433   1.725   1.785   2.072  0.7743 -1.0552 -0.8005
 1599SOL    HW216434   1.611   1.684   2.057 -2.5381  0.1886  2.7944
 1600SOL     OW16435   4.648   4.236   3.119 -0.3026 -0.4184 -0.1179
 1600SOL    HW116436   4.639   4.140   3.116  2.2860 -0.6996  1.7362
 1600SOL    HW216437   4.636   4.254   3.026  1.5604 -0.2948 -0.3266
 1601SOL     OW16438   2.436   0.734   9.290  0.1636 -0.0595 -0.7441
 1601SOL    HW116439   2.433   0.786   9.209 -1.6017  0.7659 -0.1448
 1601SOL    HW216440   2.348   0.737   9.327  0.5093  0.2159  0.0365
 1602SOL     OW16441   4.007   3.326  12.046  0.3304  0.6558 -0.1035
 1602SOL    HW116442   3.953   3.248  12.027  1.3618  0.3549 -1.7705
 1602SOL    HW216443   4.005   3.334  12.141  1.3819  2.1257 -0.2059
 1603SOL     OW16444   1.662   1.036   3.524 -0.4554 -0.5310 -0.3951
 1603SOL    HW116445   1.662   0.946   3.559 -0.4905 -0.4862 -0.2784
 1603SOL    HW216446   1.611   1.080   3.593  0.8454 -2.7109  1.9898
 1604SOL     OW16447   3.885   4.091   9.748  0.6924 -1.1956  0.0120
 1604SOL    HW116448   3.807   4.041   9.723  1.3033 -1.5402 -1.2193
 1604SOL    HW216449   3.914   4.039   9.823  3.1421 -0.3347 -0.3516
 1605SOL     OW16450   3.529   4.045   8.733  0.1610 -0.4283 -0.4312
 1605SOL    HW116451   3.611   4.042   8.685  0.4773  2.3551 -0.0746
 1605SOL    HW216452   3.504   4.137   8.739  0.9480 -0.1963 -0.8208
 1606SOL     OW16453   2.329   1.271   7.953 -0.1162  0.1550 -0.2105
 1606SOL    HW116454   2.258   1.309   8.006  0.5891 -0.5099  1.2117
 1606SOL    HW216455   2.316   1.312   7.867 -1.8847  0.3074  0.1218
 1607SOL     OW16456   2.111   3.900   7.491 -0.3406  0.3378  0.0699
 1607SOL    HW116457   2.043   3.922   7.427  1.9073  1.6954 -1.8439
 1607SOL    HW216458   2.084   3.808   7.493 -1.3118  0.6892  3.6359
 1608SOL     OW16459   0.876   1.399   8.666  0.0186 -0.6327  0.1773
 1608SOL    HW116460   0.968   1.391   8.638  0.6885  2.1379  1.5299
 1608SOL    HW216461   0.826   1.386   8.585  0.7184 -0.5201 -0.2843
 1609SOL     OW16462   2.331   3.080  13.234 -0.5512 -0.1303  0.2467
 1609SOL    HW116463   2.315   2.986  13.236  0.6903 -0.3614 -1.4048
 1609SOL    HW216464   2.375   3.105  13.316 -1.3694 -2.6710  1.4759
 1610SOL     OW16465   3.472   1.767   7.612 -0.2163 -0.1032 -0.0688
 1610SOL    HW116466   3.383   1.772   7.648 -0.0376  2.5017  0.0608
 1610SOL    HW216467   3.475   1.717   7.530  1.6898  0.4819 -0.3519
 1611SOL     OW16468   2.295   1.890  12.101  0.0186  0.2677  0.9784
 1611SOL    HW116469   2.302   1.929  12.189  0.9843  1.0628  0.5577
 1611SOL    HW216470   2.341   1.807  12.115  3.3987  2.1871  1.3067
 1612SOL     OW16471   3.415   1.364   1.558 -0.1129 -0.2269 -0.2194
 1612SOL    HW116472   3.350   1.419   1.600  1.3902  0.0764  1.6915
 1612SOL    HW216473   3.478   1.432   1.531 -0.0156 -0.7980 -1.4655
 1613SOL     OW16474   0.045   3.133  15.778  0.1805  0.5183 -0.3318
 1613SOL    HW116475   0.100   3.093  15.711  0.8561  0.0075  0.5226
 1613SOL    HW216476   0.105   3.172  15.842  3.8405 -0.4404 -3.1230
 1614SOL     OW16477   3.018   0.391   2.839  0.2117 -0.5480 -0.3536
 1614SOL    HW116478   3.054   0.316   2.793  0.2265  0.0240 -1.2649
 1614SOL    HW216479   3.005   0.456   2.770  1.4766  2.3164  2.0724
 1615SOL     OW16480   2.932   0.451   6.024  0.3849  0.5187 -0.1684
 1615SOL    HW116481   2.887   0.534   6.037  1.2907  0.7460  1.5914
 1615SOL    HW216482   2.967   0.431   6.111  0.4366 -1.4567 -0.6378
 1616SOL     OW16483   2.281   0.623  16.414  0.1598  0.2276  0.1331
 1616SOL    HW116484   2.353   0.598  16.357 -0.0249  2.8475 -1.2272
 1616SOL    HW216485   2.307   0.703  16.459 -0.0556  0.7585 -0.6929
 1617SOL     OW16486   4.249   2.815   1.438 -0.2280 -0.1113 -0.1901
 1617SOL    HW116487   4.316   2.861   1.388  1.4476 -0.4192  1.7587
 1617SOL    HW216488   4.246   2.864   1.520  0.4401  0.5270 -0.5554
 1618SOL     OW16489   2.950   3.004  10.381 -0.4661  0.4180  0.6751
 1618SOL    HW116490   2.866   3.049  10.373 -2.1103 -2.5519  1.1297
 1618SOL    HW216491   2.991   3.049  10.454  1.0782 -0.4201  0.3245
 1619SOL     OW16492   1.256   3.693  13.057 -0.4818  0.0646 -0.4182
 1619SOL    HW116493   1.167   3.726  13.070 -0.1562  1.6597 -2.3159
 1619SOL    HW216494   1.230   3.607  13.023  0.5285 -0.5025  0.2513
 1620SOL     OW16495   0.982   4.542   2.211 -0.3791  0.6242  0.0467
 1620SOL    HW116496   0.922   4.520   2.140 -0.6424  1.2575  0.0734
 1620SOL    HW216497   0.938   4.506   2.288 -0.6184 -1.3322 -1.0032
 1621SOL     OW16498   0.951   1.414   1.258 -0.2962 -0.0569  0.2265
 1621SOL    HW116499   0.991   1.500   1.258  0.7254 -0.5288  3.0386
 1621SOL    HW216500   0.935   1.404   1.352 -0.0016 -2.7166 -0.0080
 1622SOL     OW16501   2.762   1.850   7.181  0.1698 -0.1249 -0.4980
 1622SOL    HW116502   2.681   1.858   7.231  0.2704 -0.0277 -0.3514
 1622SOL    HW216503   2.738   1.767   7.140  2.3726 -2.0646  2.0867
 1623SOL     OW16504   3.466   4.420   4.218  0.5553 -0.1336  0.2107
 1623SOL    HW116505   3.408   4.476   4.166  2.7967  1.6434 -0.3595
 1623SOL    HW216506   3.546   4.472   4.217  0.9496 -0.7050  1.1444
 1624SOL     OW16507   3.172   1.136  11.807 -0.0216  0.5529 -0.5273
 1624SOL    HW116508   3.233   1.171  11.742 -1.6535  0.6838 -1.9846
 1624SOL    HW216509   3.096   1.110  11.756  0.0169  0.0854 -0.3525
 1625SOL     OW16510   2.793   0.176   4.693 -1.1487  0.3216 -0.0906
 1625SOL    HW116511   2.725   0.202   4.631  0.6276  1.1079 -1.6945
 1625SOL    HW216512   2.756   0.197   4.779  0.5119  1.0884  0.4464
 1626SOL     OW16513   4.584   3.031  11.355  0.8014 -0.3198 -0.0625
 1626SOL    HW116514   4.611   3.112  11.399 -0.4803  0.1790 -0.1791
 1626SOL    HW216515   4.540   2.986  11.427  1.0590  1.6114  1.2976
 1627SOL     OW16516   4.721   4.585  12.277  0.0781 -0.7768 -0.3721
 1627SOL    HW116517   4.636   4.614  12.309  1.6087  2.8340  0.3486
 1627SOL    HW216518   0.040   4.627  12.341 -0.9317  1.6288 -1.0495
 1628SOL     OW16519   3.238   2.968   3.319  0.1185 -0.0604  0.3363
 1628SOL    HW116520   3.235   2.882   3.361 -1.8650  0.5203  1.3789
 1628SOL    HW216521   3.301   2.958   3.247 -0.4023  1.2090 -0.2980
 1629SOL     OW16522   0.414   1.677   9.142  1.3479  0.0603  0.2520
 1629SOL    HW116523   0.424   1.625   9.222 -2.4696  1.2175  1.4951
 1629SOL    HW216524   0.423   1.764   9.180  1.1594  0.1195  0.1643
 1630SOL     OW16525   0.761   1.703   3.991  0.0374  0.1037  0.1026
 1630SOL    HW116526   0.789   1.791   4.017  1.0375 -0.3899  0.7144
 1630SOL    HW216527   0.666   1.713   3.987 -0.0536 -0.1188  1.7748
 1631SOL     OW16528   1.764   1.844  11.984 -0.2293 -0.0233  0.4092
 1631SOL    HW116529   1.858   1.847  12.004  0.1272  2.5207 -1.6311
 1631SOL    HW216530   1.761   1.924  11.931 -1.1725  0.0471  0.5760
 1632SOL     OW16531   1.200   0.277  10.254 -0.4678 -0.0950 -0.6737
 1632SOL    HW116532   1.185   0.269  10.160 -1.9295 -0.5578 -0.3882
 1632SOL    HW216533   1.261   0.351  10.253 -2.2234  1.3124 -2.4218
 1633SOL     OW16534   2.010   2.711   8.270 -0.3255 -0.3818  0.2622
 1633SOL    HW116535   2.106   2.707   8.266 -0.1887  0.1405  2.7594
 1633SOL    HW216536   1.995   2.805   8.263  0.6775 -0.2183  0.3336
 1634SOL     OW16537   1.448   4.489   9.606  0.1932  0.4459  0.0974
 1634SOL    HW116538   1.477   4.566   9.558 -2.7028  1.2627 -0.3433
 1634SOL    HW216539   1.505   4.485   9.682  1.8249 -2.5681 -1.2894
 1635SOL     OW16540   4.426   2.380   1.401 -0.2371 -0.3577  0.1250
 1635SOL    HW116541   4.451   2.306   1.457 -0.3785  0.4452  1.2540
 1635SOL    HW216542   4.352   2.424   1.443 -0.0123  0.6996 -0.5791
 1636SOL     OW16543   1.069   2.233   4.727  0.5813 -0.2351 -0.2570
 1636SOL    HW116544   1.019   2.309   4.757  0.3878 -1.4363  2.4147
 1636SOL    HW216545   1.109   2.216   4.812 -0.3434 -0.4286  0.1306
 1637SOL     OW16546   2.285   2.549  13.221  0.4096 -0.0823 -0.2842
 1637SOL    HW116547   2.227   2.505  13.283  0.5296 -2.1511 -1.6472
 1637SOL    HW216548   2.225   2.558  13.147  0.3553  1.5438 -0.0569
 1638SOL     OW16549   0.807   3.457   2.398  0.5540  0.4493  0.5415
 1638SOL    HW116550   0.823   3.550   2.413  1.4687 -0.0272  2.5458
 1638SOL    HW216551   0.807   3.432   2.491 -0.8081 -1.4822  0.0425
 1639SOL     OW16552   1.216   2.089  14.452  0.2378 -0.2791 -0.0464
 1639SOL    HW116553   1.217   1.994  14.444 -2.0775 -0.4410  1.4876
 1639SOL    HW216554   1.201   2.113  14.360 -1.0131  0.6914  0.4035
 1640SOL     OW16555   1.098   4.369  15.811  0.3222  1.2216 -0.3327
 1640SOL    HW116556   1.151   4.405  15.882 -0.5656  0.0892  0.8974
 1640SOL    HW216557   1.006   4.377  15.836  0.6954  2.2306  0.7377
 1641SOL     OW16558   1.253   1.369   5.415 -0.3920  0.1310  0.0171
 1641SOL    HW116559   1.346   1.393   5.417 -0.5812  0.8478  0.6411
 1641SOL    HW216560   1.231   1.398   5.504 -2.2736 -1.3785  0.0306
 1642SOL     OW16561   2.728   4.591   3.341  0.5783 -0.1976 -0.0215
 1642SOL    HW116562   2.799   4.653   3.356 -1.7259  2.6540 -0.8341
 1642SOL    HW216563   2.749   4.539   3.419  1.6895  1.4354  0.7475
 1643SOL     OW16564   0.183   2.194   5.636  0.1415 -0.4547 -0.6235
 1643SOL    HW116565   0.187   2.167   5.727  1.6145  3.4706  0.4934
 1643SOL    HW216566   0.130   2.123   5.600  2.4350 -2.7497  0.5948
 1644SOL     OW16567   4.034   2.625   1.362 -0.0100 -0.0099  0.3162
 1644SOL    HW116568   4.001   2.625   1.272 -0.8319 -2.6208  0.6249
 1644SOL    HW216569   4.089   2.703   1.371  2.1721 -1.1610 -2.8627
 1645SOL     OW16570   1.128   0.897  17.527  0.5689  0.4510 -0.2712
 1645SOL    HW116571   1.125   0.971  17.467 -2.7058 -1.7659 -2.8237
 1645SOL    HW216572   1.172   0.940  17.600 -3.1589 -1.2486  2.9756
 1646SOL     OW16573   2.091   4.187   4.904 -0.2132 -0.0284  0.5105
 1646SOL    HW116574   2.037   4.195   4.825  0.6424 -4.4970 -0.5105
 1646SOL    HW216575   2.119   4.278   4.915 -1.9432  0.5217  0.3248
 1647SOL     OW16576   1.348   4.641   5.101 -0.4659  0.7419 -0.2958
 1647SOL    HW116577   1.299   4.718   5.073 -0.4432  0.2481 -1.7265
 1647SOL    HW216578   1.346   4.640   5.196 -2.8024 -1.6665 -0.3644
 1648SOL     OW16579   3.665   3.748   3.475  0.0648 -0.6117 -0.1520
 1648SOL    HW116580   3.616   3.763   3.556 -0.6467  2.2221 -1.0948
 1648SOL    HW216581   3.663   3.653   3.487 -1.8545 -0.6143 -0.4593
 1649SOL     OW16582   0.418   1.298   3.754 -0.4261 -0.2479 -0.2479
 1649SOL    HW116583   0.410   1.346   3.836 -0.2516  0.9896 -0.9532
 1649SOL    HW216584   0.419   1.364   3.685  1.6907 -0.2328 -0.2167
 1650SOL     OW16585   3.778   1.992   5.701 -0.4590  0.1085  0.7540
 1650SOL    HW116586   3.683   1.983   5.702 -0.4891  0.1386 -1.0310
 1650SOL    HW216587   3.797   1.998   5.795  2.6952  1.7813  0.0036
 1651SOL     OW16588   1.766   2.922  13.628  0.1781  0.9942  0.1909
 1651SOL    HW116589   1.832   2.991  13.628 -0.5030  1.6428  0.6906
 1651SOL    HW216590   1.777   2.894  13.537  1.3597  1.2280  0.2721
 1652SOL     OW16591   2.394   2.675  14.012 -0.0203  0.0862 -0.8430
 1652SOL    HW116592   2.478   2.684  14.057  0.0215 -1.9968 -0.5347
 1652SOL    HW216593   2.415   2.596  13.963 -1.5970 -0.9857  0.2170
 1653SOL     OW16594   0.090   3.765   3.344 -0.0338  0.5494 -0.4154
 1653SOL    HW116595   0.091   3.709   3.267 -1.6574  1.2038 -0.9137
 1653SOL    HW216596   0.021   3.718   3.391  0.4994  1.3873  1.2052
 1654SOL     OW16597   0.245   3.548   1.787  0.2589 -0.1898 -0.4151
 1654SOL    HW116598   0.228   3.487   1.859  1.2739 -2.2081 -1.9049
 1654SOL    HW216599   0.187   3.619   1.816 -1.3519 -2.4672  2.0360
 1655SOL     OW16600   3.973   2.368   8.543 -0.1720  0.5129 -0.3819
 1655SOL    HW116601   3.974   2.382   8.637  1.5103 -1.1357 -0.1391
 1655SOL    HW216602   4.067   2.366   8.524  0.0525 -0.1484  0.8336
 1656SOL     OW16603   4.038   0.280   4.479 -0.4585  1.0351 -0.6064
 1656SOL    HW116604   4.079   0.196   4.456 -2.8016  0.1196 -1.4846
 1656SOL    HW216605   4.072   0.296   4.567  0.0069  1.1204 -0.8052
 1657SOL     OW16606   0.662   1.628   4.379  0.1637  0.2549  0.4704
 1657SOL    HW116607   0.636   1.598   4.466  1.6104  0.2011  0.8839
 1657SOL    HW216608   0.681   1.720   4.397 -0.7337  0.8644 -1.7140
 1658SOL     OW16609   4.183   4.610   3.701 -0.2009 -0.3546  0.0738
 1658SOL    HW116610   4.101   4.660   3.704 -0.5929 -1.0519  0.7909
 1658SOL    HW216611   4.166   4.546   3.632  2.9001 -1.9914  0.8701
 1659SOL     OW16612   1.631   2.490   4.488  0.3574 -0.0913 -0.4082
 1659SOL    HW116613   1.665   2.469   4.402  0.6590 -0.0326 -0.3039
 1659SOL    HW216614   1.636   2.409   4.539  1.6378  1.6199  2.1991
 1660SOL     OW16615   2.546   4.636   8.386  0.7126 -0.2493  0.2751
 1660SOL    HW116616   2.557   4.723   8.424  1.2140 -0.7848  1.3542
 1660SOL    HW216617   2.508   4.592   8.462  2.7657 -1.2926  0.7005
 1661SOL     OW16618   0.570   0.932   3.462 -0.4294  0.5008 -0.9806
 1661SOL    HW116619   0.500   0.985   3.500 -1.7228 -0.9176 -1.4318
 1661SOL    HW216620   0.516   0.889   3.396 -1.1585  3.4841 -2.3630
 1662SOL     OW16621   2.094   1.463  15.402  0.2573  0.5849  0.0431
 1662SOL    HW116622   2.109   1.490  15.311  1.1792  0.4569  0.1658
 1662SOL    HW216623   2.110   1.369  15.392 -1.0538  0.3712 -0.0740
 1663SOL     OW16624   2.491   1.498   8.829 -0.1087  0.6382 -0.5195
 1663SOL    HW116625   2.428   1.535   8.766  0.3487  0.0667 -1.3010
 1663SOL    HW216626   2.566   1.556   8.820 -0.2101  1.1440  1.7876
 1664SOL     OW16627   2.295   1.257   5.438 -0.3430 -0.0918  0.1198
 1664SOL    HW116628   2.253   1.257   5.524 -1.3927 -0.1879 -0.3905
 1664SOL    HW216629   2.212   1.264   5.389 -1.2723  1.0068  1.8181
 1665SOL     OW16630   1.845   2.117  14.469  1.2027  0.6615  0.1497
 1665SOL    HW116631   1.912   2.184  14.458 -0.1327  1.3085 -4.0229
 1665SOL    HW216632   1.785   2.147  14.401  3.1165  0.5439 -1.5568
 1666SOL     OW16633   4.691   0.417   7.206 -0.0494 -0.6516  0.6340
 1666SOL    HW116634   0.022   0.469   7.246 -0.3758  0.4357 -0.2084
 1666SOL    HW216635   0.002   0.371   7.138 -1.1680 -2.3532  0.9747
 1667SOL     OW16636   4.198   2.995   3.807 -0.0678  0.1022 -0.0209
 1667SOL    HW116637   4.174   2.922   3.864  0.4187 -1.3316 -1.6501
 1667SOL    HW216638   4.113   3.026   3.775  0.1265 -0.0346 -0.6607
 1668SOL     OW16639   3.715   2.207   6.459 -0.1433 -0.0027  0.5028
 1668SOL    HW116640   3.671   2.268   6.519 -0.1020 -0.5129  1.0426
 1668SOL    HW216641   3.789   2.258   6.426  0.7597 -1.1631  0.7418
 1669SOL     OW16642   2.660   3.751   4.865 -0.0239 -0.5832  0.2354
 1669SOL    HW116643   2.603   3.685   4.824 -1.3470  0.4204  0.4356
 1669SOL    HW216644   2.706   3.786   4.789  0.8410  1.6495  1.7954
 1670SOL     OW16645   4.678   2.115   1.326  0.5867  0.3683  0.1891
 1670SOL    HW116646   4.719   2.085   1.245  0.6074 -1.1824  0.7737
 1670SOL    HW216647   4.732   2.188   1.357 -1.0409  0.9565  1.6933
 1671SOL     OW16648   0.975   0.318   8.934  0.0661  0.6056  0.0294
 1671SOL    HW116649   0.955   0.243   8.878 -0.1611  0.2759  0.5550
 1671SOL    HW216650   0.926   0.289   9.011  1.0355  0.1867  0.4913
 1672SOL     OW16651   0.919   1.997   2.662 -0.2198  0.3601 -0.1917
 1672SOL    HW116652   0.913   1.964   2.573  2.1192 -1.2415  0.2257
 1672SOL    HW216653   0.829   1.985   2.694 -0.8067 -1.0021 -2.3748
 1673SOL     OW16654   1.324   3.174   4.571 -0.2272 -0.4252 -0.3491
 1673SOL    HW116655   1.285   3.139   4.491 -0.1615 -0.7308 -0.2439
 1673SOL    HW216656   1.243   3.190   4.621  0.0789 -0.8461  0.2812
 1674SOL     OW16657   2.823   3.179   6.891  0.0518 -0.6733  0.3857
 1674SOL    HW116658   2.868   3.210   6.969 -1.8469  0.7020  0.9084
 1674SOL    HW216659   2.795   3.090   6.913  2.0731 -1.2646  0.5569
 1675SOL     OW16660   1.908   3.510  16.002  0.2260  0.5249  0.5420
 1675SOL    HW116661   1.898   3.602  16.028 -1.1510 -0.1888  2.4746
 1675SOL    HW216662   1.815   3.491  16.006  0.1472  0.4475 -1.3958
 1676SOL     OW16663   2.343   0.513  14.181  0.7032 -0.4662 -0.1251
 1676SOL    HW116664   2.397   0.563  14.242  1.3708 -1.0791 -0.2155
 1676SOL    HW216665   2.412   0.452  14.154 -1.5007 -3.2448  0.5089
 1677SOL     OW16666   1.037   2.340   7.983 -0.2773 -0.5156 -0.1275
 1677SOL    HW116667   0.986   2.419   7.967  1.2058  0.3223 -0.6796
 1677SOL    HW216668   1.084   2.330   7.901  0.4761 -0.5294  0.2986
 1678SOL     OW16669   2.096   3.756   8.492 -0.1091  0.4237 -0.0923
 1678SOL    HW116670   2.121   3.748   8.400  1.3180 -1.2587  0.4402
 1678SOL    HW216671   2.038   3.680   8.503  3.1988 -2.0043  0.3644
 1679SOL     OW16672   3.584   2.145   0.687 -0.0670 -0.2706  0.3791
 1679SOL    HW116673   3.630   2.174   0.609 -0.2959  0.9703  0.7092
 1679SOL    HW216674   3.499   2.126   0.647 -0.0376 -1.1183  0.7210
 1680SOL     OW16675   0.780   1.493   5.917 -0.0433 -0.6840  0.2640
 1680SOL    HW116676   0.758   1.586   5.915 -1.4636 -1.0005  1.2994
 1680SOL    HW216677   0.718   1.462   5.982 -0.1199 -1.2437 -0.0752
 1681SOL     OW16678   2.358   3.604   1.501  0.9579 -0.0363 -0.0942
 1681SOL    HW116679   2.357   3.673   1.435 -0.0810 -0.7493 -0.8239
 1681SOL    HW216680   2.385   3.530   1.445 -1.2943  0.2191 -1.5228
 1682SOL     OW16681   3.311   0.268   6.463 -0.4319 -0.1370  0.2267
 1682SOL    HW116682   3.352   0.196   6.511 -0.7352 -0.1948  0.3960
 1682SOL    HW216683   3.230   0.233   6.427 -0.4570 -1.1244  1.2652
 1683SOL     OW16684   4.561   3.920   1.569 -0.3336 -0.3214 -0.0278
 1683SOL    HW116685   4.646   3.953   1.540  0.4096 -1.3829  0.9387
 1683SOL    HW216686   4.563   3.960   1.656  3.5692  0.4724 -0.5092
 1684SOL     OW16687   3.122   1.086   7.785 -0.6894  0.4415 -0.6581
 1684SOL    HW116688   3.179   1.010   7.773 -0.3429  0.6408 -0.2811
 1684SOL    HW216689   3.177   1.164   7.778 -0.9251  0.5948 -0.7815
 1685SOL     OW16690   0.699   0.201  10.335 -0.0886  0.3824 -0.6095
 1685SOL    HW116691   0.657   0.118  10.355  1.8336 -0.5059 -0.2882
 1685SOL    HW216692   0.792   0.186  10.349  0.0225 -2.3623 -4.2951
 1686SOL     OW16693   3.610   4.329   6.270  0.0825  0.3684  0.0452
 1686SOL    HW116694   3.670   4.256   6.288 -0.2011 -0.1226 -0.9899
 1686SOL    HW216695   3.528   4.280   6.279  0.5772 -0.1010  2.0745
 1687SOL     OW16696   2.786   2.992   2.851  0.3278 -0.1650  0.4369
 1687SOL    HW116697   2.769   3.008   2.944  2.8554  0.1040  0.8664
 1687SOL    HW216698   2.718   3.052   2.821  0.3187  0.3518  1.4986
 1688SOL     OW16699   0.183   2.655   7.967  0.2603 -0.0636  0.6964
 1688SOL    HW116700   0.278   2.663   7.963  0.2580  0.3568  1.4842
 1688SOL    HW216701   0.192   2.583   8.031  2.2680 -3.1041 -3.0424
 1689SOL     OW16702   1.206   3.482   2.278 -0.4451 -0.0413  0.3107
 1689SOL    HW116703   1.224   3.571   2.247 -0.5183  0.1237  0.7474
 1689SOL    HW216704   1.175   3.510   2.364 -1.0793  3.0176 -0.8988
 1690SOL     OW16705   0.960   3.121   1.810  0.0022 -0.0156 -0.6169
 1690SOL    HW116706   1.026   3.170   1.761 -0.0859  2.0490  1.3393
 1690SOL    HW216707   0.883   3.178   1.814 -0.9241 -1.2841 -0.3058
 1691SOL     OW16708   4.371   3.856   2.391  0.4488  0.1894  0.6473
 1691SOL    HW116709   4.369   3.826   2.482 -0.7955 -1.3450  0.1212
 1691SOL    HW216710   4.284   3.888   2.368  0.0449  0.3823  2.5078
 1692SOL     OW16711   0.385   4.017   6.609  0.4402  0.0175 -0.8284
 1692SOL    HW116712   0.300   3.999   6.648  1.9499  0.6212  2.8358
 1692SOL    HW216713   0.442   3.944   6.635  1.9397  0.9612 -1.4433
 1693SOL     OW16714   0.929   0.687   7.456  0.1120  0.2867 -0.5627
 1693SOL    HW116715   0.888   0.764   7.496  0.0472  0.4432 -0.9331
 1693SOL    HW216716   0.881   0.620   7.504  0.9581  0.0033 -0.1005
 1694SOL     OW16717   0.307   3.458  13.304  0.1768  0.1513 -1.2043
 1694SOL    HW116718   0.369   3.386  13.297 -0.6055 -0.6170 -0.1232
 1694SOL    HW216719   0.320   3.494  13.216  0.4701  0.3706 -1.0699
 1695SOL     OW16720   1.292   3.266   6.849 -0.6544 -0.0913 -0.0130
 1695SOL    HW116721   1.257   3.283   6.762 -1.2615  0.9124  0.4316
 1695SOL    HW216722   1.213   3.217   6.873  0.3956 -1.7614  0.0847
 1696SOL     OW16723   2.052   3.264   5.375  0.4243 -0.7426 -0.1421
 1696SOL    HW116724   1.978   3.248   5.316 -1.4503  0.7324  1.8219
 1696SOL    HW216725   2.103   3.322   5.319 -0.9079  1.4142  0.9043
 1697SOL     OW16726   1.883   0.641   6.452 -0.5126 -0.1722  0.0125
 1697SOL    HW116727   1.949   0.702   6.484 -0.6716 -0.0785  0.1597
 1697SOL    HW216728   1.919   0.553   6.466  0.6408  0.1573 -0.8818
 1698SOL     OW16729   3.411   0.422   4.755 -0.0275  0.8597  0.2917
 1698SOL    HW116730   3.351   0.443   4.826 -1.3853 -1.4738 -0.1509
 1698SOL    HW216731   3.496   0.441   4.794  1.5862  0.3516 -2.9401
 1699SOL     OW16732   3.894   4.322   9.283  0.9801 -0.2226 -0.0015
 1699SOL    HW116733   3.801   4.343   9.295  0.9448  0.2092 -0.9880
 1699SOL    HW216734   3.906   4.265   9.359 -0.6759  0.6099  0.8944
 1700SOL     OW16735   1.416   4.320  10.062 -0.4388 -0.0241 -0.0814
 1700SOL    HW116736   1.393   4.409  10.089  0.1223 -0.3001  1.2878
 1700SOL    HW216737   1.365   4.258  10.114 -1.9347  0.1184 -1.3704
 1701SOL     OW16738   1.914   4.213   6.451 -0.1942  0.9587  0.0907
 1701SOL    HW116739   1.841   4.259   6.491 -0.6959 -0.9796  1.4200
 1701SOL    HW216740   1.957   4.281   6.400 -1.5921  2.2968  0.6840
 1702SOL     OW16741   0.868   3.626   8.458  0.0224  0.0639  0.1303
 1702SOL    HW116742   0.803   3.556   8.449 -0.5802  0.8327 -1.5496
 1702SOL    HW216743   0.813   3.704   8.450  1.0057  0.7020 -0.4332
 1703SOL     OW16744   0.383   3.339   6.649 -0.3958 -0.1728  0.3710
 1703SOL    HW116745   0.317   3.375   6.591 -3.0391 -3.6483  1.2183
 1703SOL    HW216746   0.390   3.249   6.615  2.2165  0.1791 -0.0576
 1704SOL     OW16747   4.172   1.852   6.534 -0.0926  0.0699  0.0999
 1704SOL    HW116748   4.126   1.916   6.479  0.2335 -0.3973 -0.7298
 1704SOL    HW216749   4.105   1.839   6.601  2.0802  0.4698  2.3530
 1705SOL     OW16750   3.419   2.529  13.356 -0.0403  0.4968  0.5956
 1705SOL    HW116751   3.387   2.591  13.421 -0.3643 -1.8395  2.6632
 1705SOL    HW216752   3.340   2.479  13.335 -0.6065  0.6874  2.3163
 1706SOL     OW16753   3.939   0.822   8.501 -0.0123  0.2709  0.1045
 1706SOL    HW116754   4.008   0.847   8.440  0.2263  0.4287  0.4380
 1706SOL    HW216755   3.958   0.864   8.585  1.9253 -1.1097  0.3653
 1707SOL     OW16756   3.043   1.398   5.421 -0.3468 -0.1872 -0.3656
 1707SOL    HW116757   2.949   1.380   5.409 -1.0552  0.7067  3.7485
 1707SOL    HW216758   3.059   1.311   5.460  0.4575 -0.7442 -1.9586
 1708SOL     OW16759   4.649   3.115   3.313  0.2129 -0.6025 -0.4123
 1708SOL    HW116760   4.601   3.119   3.396 -0.2406 -0.4367 -0.6775
 1708SOL    HW216761   4.720   3.053   3.331 -1.0264 -1.5522  1.2165
 1709SOL     OW16762   3.856   0.988   1.233 -0.0048 -0.2773  0.4985
 1709SOL    HW116763   3.874   0.941   1.314 -1.3770 -1.7639 -0.0477
 1709SOL    HW216764   3.930   0.974   1.174 -0.9724  0.8338 -0.9952
 1710SOL     OW16765   3.214   1.579   2.853  0.5001  0.2055  0.1651
 1710SOL    HW116766   3.179   1.505   2.803  2.5790  0.2140 -1.2754
 1710SOL    HW216767   3.301   1.600   2.821  0.4765 -1.3138 -0.9184
 1711SOL     OW16768   1.585   1.004  14.887  0.4800 -0.7549  0.7135
 1711SOL    HW116769   1.577   0.920  14.842  2.7429 -1.3786  1.5034
 1711SOL    HW216770   1.632   1.055  14.821  0.3510 -2.6792 -0.8736
 1712SOL     OW16771   1.113   1.660   4.474  0.1837 -1.1971  0.6622
 1712SOL    HW116772   1.062   1.709   4.410 -0.7494 -0.7625  1.7381
 1712SOL    HW216773   1.089   1.570   4.452  2.7100 -1.6917 -0.1144
 1713SOL     OW16774   1.136   2.721   7.179  0.0111 -0.2331  0.1728
 1713SOL    HW116775   1.042   2.712   7.188 -0.1561 -0.4158 -1.7526
 1713SOL    HW216776   1.144   2.728   7.084 -1.3319 -0.0278  0.0749
 1714SOL     OW16777   0.393   4.539   6.491  0.3288  0.5750  0.0637
 1714SOL    HW116778   0.367   4.466   6.546  2.7279  0.5609  1.1917
 1714SOL    HW216779   0.313   4.558   6.442  0.3963  1.1152  0.1597
 1715SOL     OW16780   2.142   0.466   4.820  0.2897  0.0676 -0.0890
 1715SOL    HW116781   2.176   0.420   4.897  0.8225  0.5399 -0.0410
 1715SOL    HW216782   2.130   0.400   4.752 -1.8273  0.0134  0.3241
 1716SOL     OW16783   3.077   3.689  13.523 -0.2043  0.1286 -0.5392
 1716SOL    HW116784   3.150   3.668  13.582 -0.8663  0.6088  0.4492
 1716SOL    HW216785   3.050   3.599  13.503 -1.5450  0.6942 -1.2438
 1717SOL     OW16786   3.913   1.037   8.714  0.5169  0.1635  0.0501
 1717SOL    HW116787   3.865   1.062   8.635  3.0568  1.0788 -1.2162
 1717SOL    HW216788   3.922   1.123   8.755  0.3311 -0.0174  0.4716
 1718SOL     OW16789   3.578   2.297   3.307 -0.1730  0.1127  0.1570
 1718SOL    HW116790   3.628   2.225   3.269  0.8022  1.1662 -0.5501
 1718SOL    HW216791   3.511   2.255   3.361  1.3988 -1.5105  0.8306
 1719SOL     OW16792   3.259   1.741   5.890  0.2366  0.4372  0.0103
 1719SOL    HW116793   3.196   1.740   5.962 -0.9161 -3.2595 -1.0710
 1719SOL    HW216794   3.242   1.825   5.846 -0.2151  0.8958  1.0653
 1720SOL     OW16795   0.682   2.023  14.575  0.2527 -0.0679 -0.1616
 1720SOL    HW116796   0.770   2.014  14.538  0.4348 -1.1656  0.5186
 1720SOL    HW216797   0.691   2.095  14.637  0.0158  0.9079 -1.2674
 1721SOL     OW16798   4.101   3.587   6.272  0.0919  0.6805  0.1801
 1721SOL    HW116799   4.171   3.524   6.293  0.2583  0.2029 -1.7860
 1721SOL    HW216800   4.075   3.557   6.185 -0.3804 -0.1806  0.6118
 1722SOL     OW16801   1.506   1.601   5.311 -0.1708 -0.3077  0.0157
 1722SOL    HW116802   1.525   1.692   5.290  0.7337 -1.1323 -2.7853
 1722SOL    HW216803   1.508   1.605   5.406 -1.3149 -0.4158  0.0424
 1723SOL     OW16804   1.386   4.077   2.870  0.8791 -0.5783 -0.2330
 1723SOL    HW116805   1.447   4.039   2.933  2.4572 -0.7713 -1.8824
 1723SOL    HW216806   1.445   4.079   2.794  1.3354  0.6691  0.1690
 1724SOL     OW16807   4.076   4.237  10.812  0.1193  0.0011  0.0441
 1724SOL    HW116808   4.122   4.191  10.742 -1.2935 -1.6285  0.1915
 1724SOL    HW216809   3.991   4.196  10.797 -0.4981  1.3116 -0.0230
 1725SOL     OW16810   1.415   0.982   5.354 -0.1305  0.1114 -0.7688
 1725SOL    HW116811   1.491   1.025   5.315  0.6361 -1.3161 -0.8737
 1725SOL    HW216812   1.392   1.053   5.413  0.1140 -0.4276 -0.0155
 1726SOL     OW16813   3.608   3.459   6.727 -0.1873 -0.0835 -0.1422
 1726SOL    HW116814   3.582   3.518   6.656  0.7881 -0.6412 -0.9619
 1726SOL    HW216815   3.653   3.522   6.784 -0.8133 -0.9499  1.3026
 1727SOL     OW16816   4.046   2.237   8.262 -0.0830 -0.7993  0.0274
 1727SOL    HW116817   4.104   2.172   8.300 -1.4166 -1.9226  0.1647
 1727SOL    HW216818   4.094   2.315   8.289  0.0089 -0.3884 -1.3308
 1728SOL     OW16819   1.827   0.633   2.888 -0.0408  0.0695  0.3875
 1728SOL    HW116820   1.816   0.626   2.983  0.6375  1.9751  0.6117
 1728SOL    HW216821   1.922   0.646   2.881 -0.5484  1.3417 -4.3021
 1729SOL     OW16822   0.982   3.970  11.356 -0.3704 -0.0474  0.4548
 1729SOL    HW116823   0.931   4.046  11.330 -0.0236 -1.1958 -3.6271
 1729SOL    HW216824   0.925   3.917  11.411  0.3381 -0.9519  0.3142
 1730SOL     OW16825   4.218   3.140   6.827  0.2916 -0.3990  0.1720
 1730SOL    HW116826   4.203   3.086   6.749 -0.3472 -1.7583  1.2521
 1730SOL    HW216827   4.311   3.120   6.830 -0.0275 -1.6496  1.5077
 1731SOL     OW16828   3.261   4.284  15.303  0.1285  0.1126 -0.5414
 1731SOL    HW116829   3.325   4.303  15.370 -1.1444 -0.7055  0.9096
 1731SOL    HW216830   3.315   4.284  15.224  1.9576  2.7119  0.7384
 1732SOL     OW16831   0.283   2.907   2.793  0.9791 -0.2210 -0.1048
 1732SOL    HW116832   0.345   2.966   2.748 -0.5682  1.0099 -0.6199
 1732SOL    HW216833   0.328   2.825   2.815  0.2718 -0.1571  1.5325
 1733SOL     OW16834   2.059   0.622   2.705  0.5887 -0.2643 -0.0447
 1733SOL    HW116835   2.050   0.532   2.737  3.6027  0.3462  2.5490
 1733SOL    HW216836   2.100   0.610   2.620 -1.9677 -0.4513 -1.2462
 1734SOL     OW16837   1.050   2.308   9.018  0.5822  0.3797  0.7132
 1734SOL    HW116838   1.041   2.366   8.942  2.5901 -0.6848 -0.3452
 1734SOL    HW216839   1.071   2.368   9.089  0.3821 -1.0169  1.9447
 1735SOL     OW16840   2.150   2.058   1.791  0.0956 -0.1125  0.3090
 1735SOL    HW116841   2.074   2.081   1.844  0.0596  0.0766  0.1732
 1735SOL    HW216842   2.197   1.991   1.840 -0.4559 -0.4464  0.3832
 1736SOL     OW16843   2.662   1.089   4.757 -0.4913  0.0216 -0.0481
 1736SOL    HW116844   2.647   0.996   4.741 -2.4080  0.1840  0.8312
 1736SOL    HW216845   2.577   1.113   4.793 -0.3436  1.0021 -0.3634
 1737SOL     OW16846   3.734   2.342   2.011  0.4472  0.3837  0.5802
 1737SOL    HW116847   3.647   2.308   1.990 -0.4063  2.3486  0.9891
 1737SOL    HW216848   3.743   2.417   1.953  0.7054 -1.3120 -1.5922
 1738SOL     OW16849   3.799   1.676   7.494  0.0669 -0.4311 -0.0761
 1738SOL    HW116850   3.894   1.684   7.493 -0.2525  3.1178 -1.4508
 1738SOL    HW216851   3.784   1.604   7.556 -0.4415 -1.3710 -1.2956
 1739SOL     OW16852   2.069   1.008  16.997  0.6718 -0.7635  0.1838
 1739SOL    HW116853   2.024   0.998  16.913 -0.3655 -2.0553  0.9076
 1739SOL    HW216854   2.111   1.094  16.986  1.0857 -0.8744  0.8547
 1740SOL     OW16855   1.230   4.066   7.537  0.0577  0.0985 -0.2607
 1740SOL    HW116856   1.252   3.986   7.490  2.3710 -1.7991  4.0552
 1740SOL    HW216857   1.146   4.098   7.502 -0.9282  0.4622  2.4066
 1741SOL     OW16858   1.925   3.120   5.153 -0.4835 -0.1505  0.2624
 1741SOL    HW116859   1.906   3.027   5.149 -2.0147  0.1285  1.1701
 1741SOL    HW216860   1.834   3.150   5.155 -0.8095 -1.1555  0.4640
 1742SOL     OW16861   4.615   1.696   3.309 -0.1792 -0.3500  0.1881
 1742SOL    HW116862   4.533   1.746   3.316  0.9217  1.1119  2.4847
 1742SOL    HW216863   4.606   1.653   3.223 -1.8308  0.9352 -0.2875
 1743SOL     OW16864   0.184   1.578   4.516  0.4765  0.0107  0.1993
 1743SOL    HW116865   0.214   1.669   4.523  0.9898 -0.1229 -0.2481
 1743SOL    HW216866   0.143   1.564   4.601  0.9987  1.2264  0.6502
 1744SOL     OW16867   2.110   2.395   2.209  0.4928  0.1039 -0.3359
 1744SOL    HW116868   2.092   2.340   2.285  1.2552  1.0882  0.5629
 1744SOL    HW216869   2.090   2.329   2.143 -3.2790  0.7791  0.1480
 1745SOL     OW16870   2.689   0.772   3.943 -0.0624 -0.2828  0.3958
 1745SOL    HW116871   2.718   0.753   3.854  3.0060  2.2289  0.8362
 1745SOL    HW216872   2.620   0.708   3.957 -0.7164  0.6715  1.5802
 1746SOL     OW16873   1.378   1.670   4.104  0.2015 -0.1319 -0.3474
 1746SOL    HW116874   1.298   1.633   4.140  0.6242 -0.3076  0.4071
 1746SOL    HW216875   1.400   1.742   4.163  1.0606  0.2057 -1.0726
 1747SOL     OW16876   0.274   4.083   0.864  0.0377 -0.3060 -0.1916
 1747SOL    HW116877   0.368   4.070   0.876 -0.3769 -2.4522  0.7574
 1747SOL    HW216878   0.240   4.026   0.934  0.9998  1.0547  1.3609
 1748SOL     OW16879   1.225   0.151   7.650 -0.2306 -0.1949 -0.4834
 1748SOL    HW116880   1.170   0.162   7.728  2.8419  0.5548  1.5943
 1748SOL    HW216881   1.304   0.112   7.689 -1.2008 -3.4592 -1.7355
 1749SOL     OW16882   3.963   3.507   5.459  0.2291 -0.3476  0.2359
 1749SOL    HW116883   4.052   3.472   5.463  1.1114  1.8151 -0.4360
 1749SOL    HW216884   3.971   3.557   5.378 -0.9992  0.1377  0.4158
 1750SOL     OW16885   2.640   2.535   8.407 -0.1830 -0.4697  0.3568
 1750SOL    HW116886   2.670   2.483   8.482 -1.0415 -0.4958  0.6842
 1750SOL    HW216887   2.586   2.465   8.370 -1.2284 -0.7037  2.3191
 1751SOL     OW16888   1.892   2.426  15.506  0.2172 -0.2729 -0.0615
 1751SOL    HW116889   1.803   2.452  15.531 -0.4382 -2.1300 -0.4639
 1751SOL    HW216890   1.929   2.504  15.465  3.4159 -2.0716 -0.6054
 1752SOL     OW16891   4.018   3.114  11.747 -0.7184 -0.4131  0.1407
 1752SOL    HW116892   4.061   3.084  11.827 -0.2001 -2.0324 -0.7432
 1752SOL    HW216893   3.928   3.124  11.779 -1.0220 -1.2372 -0.4479
 1753SOL     OW16894   1.606   0.697  12.872 -0.7512  0.1722  0.3901
 1753SOL    HW116895   1.678   0.714  12.810 -1.4665  2.2804  0.1496
 1753SOL    HW216896   1.607   0.774  12.928  0.0000  0.3878  0.0889
 1754SOL     OW16897   4.096   4.710   1.467 -1.0826 -0.9507  0.1600
 1754SOL    HW116898   4.091   4.617   1.444 -2.2062 -0.9937  0.6047
 1754SOL    HW216899   4.180   0.000   1.431 -1.4797 -1.7590 -1.4386
 1755SOL     OW16900   2.924   4.035   7.574  0.1904 -0.1238  0.0807
 1755SOL    HW116901   2.914   4.011   7.666  1.0397 -2.4188 -0.4295
 1755SOL    HW216902   2.867   4.112   7.572  0.6773  0.2176 -0.4475
 1756SOL     OW16903   1.646   2.410  15.251  0.2637  0.0811 -0.2476
 1756SOL    HW116904   1.726   2.458  15.229 -1.2386  3.6518  1.9847
 1756SOL    HW216905   1.647   2.416  15.347 -1.0236 -1.0086 -0.1658
 1757SOL     OW16906   3.567   1.392  10.441  0.1595  0.1863  0.1778
 1757SOL    HW116907   3.477   1.370  10.416  0.3047  0.2653 -0.4253
 1757SOL    HW216908   3.571   1.345  10.524  1.4688  0.7242  0.4132
 1758SOL     OW16909   0.420   1.424   7.057  0.4660 -0.2470  0.0277
 1758SOL    HW116910   0.449   1.474   6.981  0.8523 -1.0134 -0.3259
 1758SOL    HW216911   0.496   1.420   7.115 -0.1372 -0.0730  0.8423
 1759SOL     OW16912   0.112   3.220   7.106 -0.3466 -0.4748 -0.2573
 1759SOL    HW116913   0.161   3.207   7.025 -1.8161  0.1117 -1.2482
 1759SOL    HW216914   0.026   3.237   7.066  0.0320  0.5342 -0.6310
 1760SOL     OW16915   1.966   2.123   6.063  0.3099 -0.1052  0.4237
 1760SOL    HW116916   2.060   2.115   6.050  0.4487 -0.6275  1.6937
 1760SOL    HW216917   1.968   2.205   6.113 -0.8280  0.7045 -0.8713
 1761SOL     OW16918   1.533   1.855   7.245 -0.0667  0.1437 -0.0819
 1761SOL    HW116919   1.487   1.939   7.253  1.7720  1.2740 -1.5916
 1761SOL    HW216920   1.535   1.821   7.335 -1.7146 -1.5074 -0.6739
 1762SOL     OW16921   0.092   1.972   2.678  0.6348  0.1650  0.1371
 1762SOL    HW116922   0.161   1.950   2.616 -1.1540 -0.0739 -1.7876
 1762SOL    HW216923   0.088   2.068   2.675  0.4777  0.1783  0.6710
 1763SOL     OW16924   0.506   1.145   2.391  0.3046  0.3520 -0.0277
 1763SOL    HW116925   0.427   1.106   2.353  0.4559  1.3198 -1.3557
 1763SOL    HW216926   0.470   1.199   2.462 -1.0580 -0.0363 -0.4316
 1764SOL     OW16927   4.060   3.569   8.369  0.6759 -0.8020  0.1337
 1764SOL    HW116928   4.143   3.541   8.409  0.0742 -2.2402  0.3968
 1764SOL    HW216929   3.995   3.499   8.374  0.5516 -0.5922  1.5609
 1765SOL     OW16930   2.963   0.848   5.013 -0.5375  0.5316  0.4056
 1765SOL    HW116931   2.979   0.838   5.107  1.6246  0.4189  0.0062
 1765SOL    HW216932   2.920   0.934   5.014 -1.0975  0.2476  1.3223
 1766SOL     OW16933   1.982   1.673   0.435 -0.9601  0.1977 -0.3550
 1766SOL    HW116934   1.896   1.634   0.424 -0.9959  0.8085 -2.2641
 1766SOL    HW216935   1.977   1.737   0.506 -5.3936  1.4371 -1.8090
 1767SOL     OW16936   2.065   0.846  12.081  0.2350  0.0096  0.0154
 1767SOL    HW116937   2.090   0.873  12.169  0.0356  0.2936 -0.0163
 1767SOL    HW216938   2.154   0.823  12.051  0.2236 -2.1474  1.6165
 1768SOL     OW16939   4.060   0.385   9.466 -0.1530 -0.7627 -0.4497
 1768SOL    HW116940   3.991   0.417   9.525  0.2112  0.4287 -0.6791
 1768SOL    HW216941   4.124   0.456   9.466 -0.8538 -0.1194  0.9838
 1769SOL     OW16942   3.967   4.582   3.100 -0.7085 -0.2722  0.3051
 1769SOL    HW116943   3.970   4.642   3.174 -0.7184 -0.5334  0.5207
 1769SOL    HW216944   4.046   4.598   3.048  1.3217 -0.9680  3.1750
 1770SOL     OW16945   1.533   1.413   1.509 -0.5777  0.4338  0.3621
 1770SOL    HW116946   1.554   1.464   1.431 -2.3585  0.9059  0.1853
 1770SOL    HW216947   1.538   1.324   1.475 -0.8711 -0.1772  1.9497
 1771SOL     OW16948   1.607   3.962   6.434 -0.0664  0.1947 -0.2726
 1771SOL    HW116949   1.688   3.960   6.484 -0.0339 -0.3674 -0.3474
 1771SOL    HW216950   1.645   3.974   6.347  1.1086 -0.6589  0.1230
 1772SOL     OW16951   0.844   4.411   1.756  0.7767 -0.0623  0.5637
 1772SOL    HW116952   0.822   4.331   1.709 -0.7351  1.7572 -1.7925
 1772SOL    HW216953   0.937   4.423   1.735  0.3059 -0.8978 -2.0392
 1773SOL     OW16954   3.743   3.027   2.316  0.3474 -0.1063  0.7034
 1773SOL    HW116955   3.705   3.096   2.261  0.5081 -1.0944 -0.6329
 1773SOL    HW216956   3.779   3.073   2.392  0.1541 -0.2379  0.8723
 1774SOL     OW16957   0.504   3.289   4.666  0.3338  0.2807  0.2882
 1774SOL    HW116958   0.425   3.329   4.702  0.9805  0.8663  1.0507
 1774SOL    HW216959   0.501   3.200   4.699  2.5063 -0.2771 -0.9766
 1775SOL     OW16960   1.236   4.510   9.812  0.4442 -0.3328 -1.0327
 1775SOL    HW116961   1.301   4.503   9.742  0.9726  0.9033 -0.6776
 1775SOL    HW216962   1.284   4.471   9.886  1.1823 -1.5374 -2.1523
 1776SOL     OW16963   1.360   3.440   4.146  0.5213  0.3233 -0.7509
 1776SOL    HW116964   1.382   3.488   4.226  2.3641 -3.0126  0.7517
 1776SOL    HW216965   1.420   3.365   4.138 -0.2839 -0.5509  1.4961
 1777SOL     OW16966   4.347   0.921  11.464 -0.1808  0.2389 -0.6261
 1777SOL    HW116967   4.318   0.904  11.553  0.0783 -0.1169 -0.6116
 1777SOL    HW216968   4.266   0.888  11.426 -0.8310  2.3091 -1.0422
 1778SOL     OW16969   4.454   0.272   7.273 -0.1196  0.1216  0.1293
 1778SOL    HW116970   4.531   0.313   7.234  0.4872 -1.1141  0.0163
 1778SOL    HW216971   4.402   0.350   7.291 -2.1112 -0.8035 -1.5221
 1779SOL     OW16972   3.530   1.592   8.153  0.1920 -0.2835  0.5608
 1779SOL    HW116973   3.455   1.643   8.124 -0.1972 -0.5506  1.1055
 1779SOL    HW216974   3.601   1.630   8.100 -1.3377  2.1578  0.2430
 1780SOL     OW16975   2.761   0.240   6.817 -0.2173  0.0677 -0.9598
 1780SOL    HW116976   2.841   0.241   6.764 -0.5384 -0.1923 -1.4471
 1780SOL    HW216977   2.697   0.275   6.755 -2.4007 -1.7740  0.2558
 1781SOL     OW16978   3.103   0.737   4.159 -0.8525 -0.9904  0.2306
 1781SOL    HW116979   3.185   0.695   4.187 -0.5433 -1.6167 -1.5952
 1781SOL    HW216980   3.067   0.784   4.233 -0.8845 -2.0676  0.9059
 1782SOL     OW16981   4.267   2.387  14.963  0.3744 -0.4832  0.2784
 1782SOL    HW116982   4.354   2.357  14.988 -0.0773 -0.4209  1.9332
 1782SOL    HW216983   4.272   2.358  14.872  0.8728 -1.6927  0.7012
 1783SOL     OW16984   4.538   0.295  14.820 -0.1630  0.0521  0.2800
 1783SOL    HW116985   4.482   0.255  14.753 -0.2433 -0.3623  0.5938
 1783SOL    HW216986   4.479   0.281  14.894  1.4461 -2.0987  1.1463
 1784SOL     OW16987   0.264   1.183  17.033  0.9085  0.3634  0.7503
 1784SOL    HW116988   0.274   1.174  17.128  0.8934  0.8930  0.8007
 1784SOL    HW216989   0.340   1.233  17.005 -0.0252  1.5239  0.2597
 1785SOL     OW16990   1.646   0.388   1.849 -0.8594  0.2575  0.2799
 1785SOL    HW116991   1.674   0.478   1.866  1.9183 -0.4997 -0.3269
 1785SOL    HW216992   1.627   0.392   1.756  1.7848 -0.3692 -0.2925
 1786SOL     OW16993   0.157   2.130   5.301  0.4037 -0.1501  0.2738
 1786SOL    HW116994   0.073   2.085   5.309  0.4347  0.0931  1.8714
 1786SOL    HW216995   0.141   2.220   5.328 -0.0380  0.1732 -1.0451
 1787SOL     OW16996   3.815   2.860  10.931  0.1319 -0.4313  0.4741
 1787SOL    HW116997   3.894   2.873  10.984 -0.3995 -1.4266  1.4875
 1787SOL    HW216998   3.849   2.841  10.843  0.2542  0.9970  0.2122
 1788SOL     OW16999   0.736   4.388   3.325  0.5530 -0.0472 -0.0710
 1788SOL    HW117000   0.682   4.464   3.345  1.1755  0.1415  0.8919
 1788SOL    HW217001   0.748   4.347   3.411  0.0014  0.4842  0.2577
 1789SOL     OW17002   2.191   2.387   5.097  0.2684 -0.5665 -0.1082
 1789SOL    HW117003   2.232   2.438   5.166 -2.0078 -0.4177  1.1227
 1789SOL    HW217004   2.179   2.301   5.138  0.4320 -0.2875  0.5222
 1790SOL     OW17005   2.683   3.365   5.092  0.3126  0.3341  0.2911
 1790SOL    HW117006   2.747   3.435   5.085 -0.5499  0.7894 -2.7287
 1790SOL    HW217007   2.703   3.324   5.177  0.4768 -1.4889 -0.6157
 1791SOL     OW17008   2.219   3.538   2.636 -0.2963 -0.0178 -0.7945
 1791SOL    HW117009   2.173   3.469   2.686 -1.3564  1.1676 -0.1228
 1791SOL    HW217010   2.153   3.572   2.576 -0.4253 -0.4894 -0.9221
 1792SOL     OW17011   4.376   0.402  12.854  0.2102  0.4536 -0.2478
 1792SOL    HW117012   4.290   0.433  12.825 -0.4652 -1.7224 -0.5617
 1792SOL    HW217013   4.370   0.423  12.947 -0.0644 -0.0759 -0.1495
 1793SOL     OW17014   2.876   0.743   6.869  0.3231  0.4112 -0.1524
 1793SOL    HW117015   2.971   0.746   6.861  0.3764 -0.1857  0.2358
 1793SOL    HW217016   2.862   0.661   6.918  0.3946 -0.3165 -1.3503
 1794SOL     OW17017   0.085   1.352   3.444  0.2326  0.0783 -0.1363
 1794SOL    HW117018   0.011   1.293   3.453 -0.1314  0.5651  0.0392
 1794SOL    HW217019   0.151   1.293   3.407 -1.9959 -2.4174 -0.0959
 1795SOL     OW17020   3.009   0.438   3.341  0.2021 -0.0150  0.2487
 1795SOL    HW117021   3.016   0.342   3.347  2.8263  0.1501 -0.3058
 1795SOL    HW217022   3.052   0.449   3.257 -0.7620  2.3317  0.0591
 1796SOL     OW17023   2.840   3.962  10.990 -0.3293  0.3887  0.0269
 1796SOL    HW117024   2.910   3.906  11.022 -1.0127 -0.7787 -0.5400
 1796SOL    HW217025   2.891   4.043  10.985  1.3033 -0.6299  0.3267
 1797SOL     OW17026   1.848   4.134   2.217  0.2011  0.2084  0.0737
 1797SOL    HW117027   1.888   4.205   2.267 -1.2064  1.2480 -0.2522
 1797SOL    HW217028   1.766   4.174   2.186 -1.2191 -1.6350  1.4527
 1798SOL     OW17029   3.705   4.328   4.687 -0.0652 -0.0355  0.1512
 1798SOL    HW117030   3.737   4.250   4.732  0.6081 -1.5911 -2.9670
 1798SOL    HW217031   3.632   4.290   4.638  0.6652 -0.9390 -0.2503
 1799SOL     OW17032   1.292   2.059   4.658 -0.5359  0.0912  0.0805
 1799SOL    HW117033   1.338   2.136   4.693 -1.7283  1.4416 -1.3542
 1799SOL    HW217034   1.242   2.106   4.592  0.6290  0.4400 -0.5663
 1800SOL     OW17035   3.072   2.453   5.920 -0.4325  0.2037  0.3961
 1800SOL    HW117036   3.000   2.493   5.969  0.8717  0.4603  2.1072
 1800SOL    HW217037   3.097   2.531   5.870  0.2477 -1.4493 -1.8383
 1801SOL     OW17038   3.037   1.668   6.990  0.1773 -0.3025 -0.6374
 1801SOL    HW117039   2.942   1.659   6.989  0.1219  0.0578  0.6739
 1801SOL    HW217040   3.063   1.584   6.952 -0.5629 -0.7442 -0.1793
 1802SOL     OW17041   1.102   2.082   5.694 -0.2647  0.7019 -0.1128
 1802SOL    HW117042   1.196   2.100   5.702 -0.5549  2.3626 -0.3988
 1802SOL    HW217043   1.070   2.168   5.667  1.0055  0.9919 -0.7003
 1803SOL     OW17044   3.601   0.989   5.842  0.0192  0.0184  0.7170
 1803SOL    HW117045   3.506   0.980   5.832 -0.4991  1.6209  4.1231
 1803SOL    HW217046   3.617   0.939   5.762  0.9949  1.0852  0.2578
 1804SOL     OW17047   0.698   0.523   9.413 -0.0579 -0.2538  0.0535
 1804SOL    HW117048   0.696   0.495   9.322 -0.6571 -0.5152  0.1470
 1804SOL    HW217049   0.783   0.486   9.439 -0.3163  0.2952  1.6601
 1805SOL     OW17050   3.321   2.216  12.478 -0.3012 -0.1432 -0.1790
 1805SOL    HW117051   3.252   2.157  12.509 -0.1867 -0.6609 -0.8885
 1805SOL    HW217052   3.401   2.175  12.511 -0.8225  1.2850  2.7680
 1806SOL     OW17053   2.081   2.267  10.783  0.3753  0.2096  0.2019
 1806SOL    HW117054   2.044   2.272  10.695  0.1233  0.8101  0.3358
 1806SOL    HW217055   2.123   2.182  10.789 -0.8332 -0.5403 -1.9879
 1807SOL     OW17056   2.560   0.649  16.289  0.2619  0.4424  0.6257
 1807SOL    HW117057   2.542   0.742  16.298  0.9910  0.2748  3.9784
 1807SOL    HW217058   2.615   0.634  16.366  1.2035  1.2764  0.1097
 1808SOL     OW17059   2.066   2.198   8.483  1.1149  0.0981 -0.8235
 1808SOL    HW117060   2.046   2.291   8.474 -4.3718 -0.5142  5.4068
 1808SOL    HW217061   1.988   2.177   8.534  2.8863 -0.8104  1.5414
 1809SOL     OW17062   2.200   0.477   0.527  0.6602  0.1597  0.0261
 1809SOL    HW117063   2.139   0.541   0.490  0.9425 -0.0535 -0.8048
 1809SOL    HW217064   2.159   0.402   0.483 -1.1056  0.8770  0.4509
 1810SOL     OW17065   4.572   0.639  12.364 -0.3822  0.0541 -0.3442
 1810SOL    HW117066   4.662   0.610  12.355  0.2654  1.5787  1.2472
 1810SOL    HW217067   4.573   0.699  12.290  0.7938  0.9583  0.4145
 1811SOL     OW17068   2.264   0.954  11.884 -0.2202  0.3159  0.5027
 1811SOL    HW117069   2.274   0.872  11.834  1.9030  0.7089  0.2827
 1811SOL    HW217070   2.195   1.000  11.836 -0.0203 -0.6319 -0.7063
 1812SOL     OW17071   0.058   4.579   4.468  0.0519  0.2944  0.1387
 1812SOL    HW117072   0.062   4.597   4.562 -3.0333 -1.7196  0.6737
 1812SOL    HW217073   0.151   4.562   4.455 -0.3653 -2.7784  1.2175
 1813SOL     OW17074   3.471   4.104  15.231 -0.1144  0.1830  0.5583
 1813SOL    HW117075   3.554   4.120  15.276  1.5317 -3.2995 -1.2109
 1813SOL    HW217076   3.491   4.114  15.137 -1.3052 -3.2184 -0.0485
 1814SOL     OW17077   1.249   2.509   2.983 -0.5984  0.0184 -0.5121
 1814SOL    HW117078   1.259   2.489   2.890  1.6377  0.8317 -0.4462
 1814SOL    HW217079   1.248   2.604   2.975  0.5219  0.0601 -0.2673
 1815SOL     OW17080   2.156   3.587  10.552  0.1571  0.6771  0.3335
 1815SOL    HW117081   2.192   3.514  10.603  0.3791  1.1914  0.9189
 1815SOL    HW217082   2.173   3.664  10.607 -1.0097  0.6997  0.6550
 1816SOL     OW17083   2.409   2.066   3.596 -0.3862 -0.1450  0.3503
 1816SOL    HW117084   2.476   2.129   3.571 -0.9152 -0.7407 -2.5436
 1816SOL    HW217085   2.379   2.028   3.514 -0.2635 -0.4438  0.4465
 1817SOL     OW17086   1.003   1.700  13.895  0.0213 -0.0634 -0.3553
 1817SOL    HW117087   1.048   1.615  13.888  0.3482 -0.0921  2.0214
 1817SOL    HW217088   0.922   1.663  13.929 -0.0615  0.7350  0.3087
 1818SOL     OW17089   4.685   0.081   2.469 -0.3658  0.2842  0.4441
 1818SOL    HW117090   0.041   0.075   2.454 -0.4245 -1.8587  0.9156
 1818SOL    HW217091   4.666   4.726   2.457 -1.1363  0.4887  0.1012
 1819SOL     OW17092   0.548   1.967   4.706 -0.2482  0.0994 -0.3516
 1819SOL    HW117093   0.638   1.999   4.706 -0.3696  0.4328  0.6460
 1819SOL    HW217094   0.532   1.960   4.801  1.7917  2.6480  0.1704
 1820SOL     OW17095   2.727   1.382  14.121 -0.8329  0.0119 -0.2907
 1820SOL    HW117096   2.805   1.423  14.084 -0.5282 -2.6753 -2.6522
 1820SOL    HW217097   2.678   1.349  14.046 -1.4423 -1.3610  0.7148
 1821SOL     OW17098   4.015   2.043   6.183  0.5943 -0.6899  0.4248
 1821SOL    HW117099   4.107   2.016   6.185  1.3293  1.5576 -1.7676
 1821SOL    HW217100   4.024   2.138   6.188  0.4317 -0.7906  2.6589
 1822SOL     OW17101   4.172   0.221  16.685  0.1133  0.0490 -0.0159
 1822SOL    HW117102   4.098   0.279  16.704  1.1516  1.4869 -0.4416
 1822SOL    HW217103   4.186   0.187  16.773 -0.4033 -0.5105 -0.1488
 1823SOL     OW17104   3.609   4.011   8.102  0.0560 -0.3565 -0.0747
 1823SOL    HW117105   3.560   4.093   8.112  0.2934 -0.0744 -1.2460
 1823SOL    HW217106   3.694   4.055   8.098 -0.0728  0.0030  1.0182
 1824SOL     OW17107   0.298   1.940   3.921 -0.0046 -0.9138 -0.3846
 1824SOL    HW117108   0.275   1.864   3.867  2.3887 -0.8199 -1.5479
 1824SOL    HW217109   0.339   2.000   3.859  1.2218 -0.5684  0.7550
 1825SOL     OW17110   2.398   0.860   6.366  1.1256 -0.2418  0.1149
 1825SOL    HW117111   2.358   0.874   6.452 -0.2506 -0.5192 -0.4694
 1825SOL    HW217112   2.372   0.769   6.349  0.2802 -0.4762  2.6471
 1826SOL     OW17113   0.348   0.121   2.818  0.1144 -0.0023  0.3105
 1826SOL    HW117114   0.413   0.176   2.774  1.1782 -0.4784  1.2856
 1826SOL    HW217115   0.274   0.171   2.785 -0.3772 -0.0916  1.2889
 1827SOL     OW17116   1.744   1.276   7.037  0.1593 -0.7696  0.0978
 1827SOL    HW117117   1.740   1.272   6.942 -0.6162 -0.2206  0.1058
 1827SOL    HW217118   1.701   1.358   7.062  1.7218  0.2991 -0.6879
 1828SOL     OW17119   1.276   0.289   0.998 -0.0490 -0.6552  0.1180
 1828SOL    HW117120   1.255   0.380   1.017  0.7992 -0.3098 -0.5730
 1828SOL    HW217121   1.353   0.282   1.054 -1.0477 -0.1101  1.5342
 1829SOL     OW17122   2.665   3.181   5.767  0.0345  0.5982 -0.1153
 1829SOL    HW117123   2.596   3.247   5.763 -0.4415  0.1106 -0.0746
 1829SOL    HW217124   2.630   3.103   5.810  2.1286 -0.1717  0.1984
 1830SOL     OW17125   1.221   4.008   7.993 -0.2686  0.3152 -0.5942
 1830SOL    HW117126   1.201   4.068   8.064 -0.3015  0.5208 -0.7774
 1830SOL    HW217127   1.188   3.923   8.022  2.3014  0.1292  1.7550
 1831SOL     OW17128   4.090   4.305  14.649  0.4407  0.2000  0.0996
 1831SOL    HW117129   4.068   4.284  14.740  2.0046 -0.1087  0.4084
 1831SOL    HW217130   4.141   4.384  14.668  0.0190  0.9871 -2.0086
 1832SOL     OW17131   0.016   1.508   6.092  0.3084 -0.3288  0.5793
 1832SOL    HW117132   0.001   1.595   6.129 -2.0871  0.9640 -3.3052
 1832SOL    HW217133   4.666   1.473   6.108 -1.0918  1.6082 -2.9087
 1833SOL     OW17134   1.496   2.712   7.535  0.0416 -0.1169 -0.1170
 1833SOL    HW117135   1.443   2.745   7.463 -0.0553  4.1902  1.9046
 1833SOL    HW217136   1.572   2.769   7.525 -0.8409  1.0628 -0.0083
 1834SOL     OW17137   3.508   4.026   0.372  0.5906  0.0240 -0.0581
 1834SOL    HW117138   3.475   3.980   0.449 -0.7430  2.2184  0.6746
 1834SOL    HW217139   3.433   4.081   0.352  0.5768 -0.4602 -1.4000
 1835SOL     OW17140   4.361   3.752   5.514 -0.6340  0.4841  0.3555
 1835SOL    HW117141   4.283   3.780   5.466  1.1006  0.2143 -2.6203
 1835SOL    HW217142   4.327   3.704   5.590 -0.4266  1.0720  0.8235
 1836SOL     OW17143   0.012   2.571   8.331  0.3326  0.3012  0.0482
 1836SOL    HW117144   0.068   2.496   8.355  1.8251  0.9576 -1.4111
 1836SOL    HW217145   0.069   2.645   8.311  0.6377 -0.2113 -0.9534
 1837SOL     OW17146   4.619   4.257   5.566 -0.7855 -0.1813  0.5046
 1837SOL    HW117147   4.594   4.174   5.526 -0.6587  0.9448 -1.9247
 1837SOL    HW217148   4.546   4.315   5.541  1.1771  2.1112  0.0426
 1838SOL     OW17149   0.653   3.753   6.150  0.2143  0.0155 -0.6494
 1838SOL    HW117150   0.650   3.714   6.237  3.2823  0.6144 -0.2770
 1838SOL    HW217151   0.584   3.716   6.095 -0.4859  0.4361 -0.0510
 1839SOL     OW17152   3.441   3.432   3.880  0.5383  0.0883  0.1062
 1839SOL    HW117153   3.406   3.346   3.857  0.5035  0.3810 -0.8992
 1839SOL    HW217154   3.361   3.465   3.922  0.9764  0.8879  0.3158
 1840SOL     OW17155   2.445   0.420   3.640  0.0311  0.2434  0.3058
 1840SOL    HW117156   2.445   0.417   3.544  1.5708  1.3289  0.2719
 1840SOL    HW217157   2.405   0.506   3.653  0.3339  0.7867 -2.3932
 1841SOL     OW17158   4.167   1.551   6.285  0.5658 -0.2414 -0.7147
 1841SOL    HW117159   4.152   1.473   6.232  0.8004 -1.4839  1.0524
 1841SOL    HW217160   4.262   1.558   6.280  0.6991 -1.0459  0.8360
 1842SOL     OW17161   4.107   0.342   3.932  0.4656  0.3848  0.4097
 1842SOL    HW117162   4.069   0.383   4.010 -1.0968 -0.6243  0.1619
 1842SOL    HW217163   4.109   0.250   3.958  0.1116  0.3317  0.2472
 1843SOL     OW17164   2.188   0.970  17.652 -0.1892  0.1533  0.3588
 1843SOL    HW117165   2.118   0.991  17.591  0.0852 -0.9623 -0.3278
 1843SOL    HW217166   2.251   1.039  17.633  0.3483 -0.2366  0.7127
 1844SOL     OW17167   3.926   2.374   6.436 -0.3115  0.8576 -0.2205
 1844SOL    HW117168   3.881   2.449   6.475  1.0676  0.8499  1.3734
 1844SOL    HW217169   3.986   2.348   6.506 -2.1447 -4.0144 -0.4849
 1845SOL     OW17170   3.997   4.170   3.835 -0.3616 -0.0184  0.0474
 1845SOL    HW117171   4.043   4.176   3.918  2.3072  2.0602 -1.5773
 1845SOL    HW217172   3.945   4.248   3.852  1.6710  1.7224 -1.7458
 1846SOL     OW17173   0.732   0.120   8.536 -0.3739  0.0211 -0.2296
 1846SOL    HW117174   0.686   0.039   8.558 -0.1181 -0.1246 -0.2297
 1846SOL    HW217175   0.674   0.166   8.475 -1.0244  0.4822  0.7404
 1847SOL     OW17176   3.315   3.168   8.520  0.4664  0.4751 -0.2137
 1847SOL    HW117177   3.285   3.224   8.591  2.3365  2.1488 -0.7555
 1847SOL    HW217178   3.396   3.212   8.495  0.8994  1.1190  2.3951
 1848SOL     OW17179   0.708   4.385   8.051  0.1890  0.2897  0.6259
 1848SOL    HW117180   0.735   4.300   8.086  0.7862  0.0082 -0.5106
 1848SOL    HW217181   0.780   4.422   8.001 -2.7060  1.7047 -2.5006
 1849SOL     OW17182   1.034   3.952   6.188  0.3156  0.3259 -0.1949
 1849SOL    HW117183   0.997   4.015   6.250 -1.1615  0.5789 -1.3441
 1849SOL    HW217184   1.049   4.005   6.111  2.0173 -0.1682 -0.2080
 1850SOL     OW17185   0.186   2.668  15.831  0.0334  0.0148  0.3578
 1850SOL    HW117186   0.104   2.693  15.875 -0.4201 -0.4831 -0.1912
 1850SOL    HW217187   0.156   2.602  15.768 -3.9345  0.2636  1.9345
 1851SOL     OW17188   4.049   1.670  16.849 -0.4510  0.4405 -0.5223
 1851SOL    HW117189   4.046   1.628  16.763 -2.1950  0.9626 -0.7077
 1851SOL    HW217190   3.994   1.614  16.904  0.6790  0.6017  0.7702
 1852SOL     OW17191   1.638   4.502   9.120  0.1247 -0.5475  0.3719
 1852SOL    HW117192   1.641   4.484   9.214 -0.6692  2.4330  0.9946
 1852SOL    HW217193   1.609   4.594   9.117  1.0660 -0.2246  1.0374
 1853SOL     OW17194   3.101   3.530   8.537 -0.7658 -0.3749 -0.0240
 1853SOL    HW117195   3.194   3.531   8.560 -1.4829  0.3079  2.8331
 1853SOL    HW217196   3.069   3.470   8.604 -3.0685  0.9539  0.0928
 1854SOL     OW17197   1.665   0.611   1.541  0.1151  0.8898  0.0778
 1854SOL    HW117198   1.599   0.542   1.539  0.0892  0.9084  0.4555
 1854SOL    HW217199   1.735   0.580   1.482 -0.7674 -0.2888 -0.3451
 1855SOL     OW17200   2.733   3.069  17.478 -0.2993  0.5196 -0.2547
 1855SOL    HW117201   2.824   3.090  17.499 -0.2614  0.4535 -0.3582
 1855SOL    HW217202   2.693   3.102  17.559  1.5453  3.1523 -0.4111
 1856SOL     OW17203   0.307   1.489   8.838 -0.2594  0.4986  0.4345
 1856SOL    HW117204   0.268   1.575   8.820 -1.8330 -0.6653 -1.8542
 1856SOL    HW217205   0.278   1.440   8.760  0.8949  0.0614  0.2791
 1857SOL     OW17206   2.101   4.254   2.888  0.1454  0.4590  0.1903
 1857SOL    HW117207   2.074   4.199   2.815  1.4419  1.3278 -0.9361
 1857SOL    HW217208   2.189   4.220   2.903  0.4853  0.9203 -0.7928
 1858SOL     OW17209   2.556   1.664   8.080 -0.2936 -0.1863 -0.5100
 1858SOL    HW117210   2.562   1.571   8.059  1.0747 -0.6661  2.0207
 1858SOL    HW217211   2.496   1.695   8.012  0.7261  0.1649 -1.2445
 1859SOL     OW17212   0.616   3.124   3.217 -0.4734  0.0969  0.7108
 1859SOL    HW117213   0.556   3.069   3.268  1.3983 -2.5201  0.0801
 1859SOL    HW217214   0.552   3.192   3.198 -1.7253 -1.6739 -1.4361
 1860SOL     OW17215   1.688   1.068  14.647  0.0236 -0.6568 -0.3612
 1860SOL    HW117216   1.736   1.144  14.615 -1.1389 -0.0621 -0.6784
 1860SOL    HW217217   1.646   1.035  14.568 -2.9044 -1.5963  1.5816
 1861SOL     OW17218   3.064   2.659  13.517 -0.2398  0.0678 -0.4433
 1861SOL    HW117219   2.972   2.683  13.505 -0.1440 -0.6380 -2.6339
 1861SOL    HW217220   3.044   2.573  13.555 -0.0867 -0.3012 -1.1899
 1862SOL     OW17221   2.336   3.773   9.027  0.7006  0.4232 -0.1294
 1862SOL    HW117222   2.344   3.838   9.098 -0.5822 -0.4769  0.8431
 1862SOL    HW217223   2.305   3.832   8.959  0.4395  0.7465  0.2643
 1863SOL     OW17224   1.638   4.336  12.752 -0.2123 -0.5636  1.0615
 1863SOL    HW117225   1.650   4.398  12.680 -0.2901 -0.5639  1.0490
 1863SOL    HW217226   1.608   4.252  12.717  0.8857 -0.8092  0.6858
 1864SOL     OW17227   4.113   0.036   2.163  0.1906 -0.0240  0.6300
 1864SOL    HW117228   4.142   0.111   2.111  0.3376 -0.2291  0.4169
 1864SOL    HW217229   4.177   0.035   2.234 -0.2578 -0.1725  1.0393
 1865SOL     OW17230   3.920   1.197   6.918 -0.0350  0.4756  1.0369
 1865SOL    HW117231   3.866   1.153   6.983 -0.7576 -0.6583 -0.3504
 1865SOL    HW217232   3.998   1.141   6.918 -0.6988 -0.4415  0.3554
 1866SOL     OW17233   3.132   0.104   1.996  0.2473 -0.8315  0.1409
 1866SOL    HW117234   3.077   0.062   2.062 -0.6162  2.0989  1.2968
 1866SOL    HW217235   3.175   0.176   2.041  1.8116 -0.4603 -1.9388
 1867SOL     OW17236   2.017   0.802   5.827  0.3014 -0.2258  0.1612
 1867SOL    HW117237   1.989   0.818   5.737 -1.1030  0.2148  0.6782
 1867SOL    HW217238   1.942   0.749   5.853 -0.0458 -0.5056 -1.4087
 1868SOL     OW17239   1.323   1.635   7.868 -0.4808  0.0953  0.2035
 1868SOL    HW117240   1.348   1.547   7.839 -0.9193 -0.3699  1.2341
 1868SOL    HW217241   1.324   1.614   7.961 -1.5426 -2.5343 -0.3628
 1869SOL     OW17242   3.314   3.684   0.133 -0.7564 -0.4012  0.3696
 1869SOL    HW117243   3.256   3.611   0.112  1.6986 -1.9159 -1.1915
 1869SOL    HW217244   3.248   3.751   0.118  0.8336  0.7777 -1.3317
 1870SOL     OW17245   2.323   2.269   6.183 -0.3972  0.5112 -0.3494
 1870SOL    HW117246   2.292   2.286   6.094 -2.4946 -3.3095 -0.3954
 1870SOL    HW217247   2.373   2.188   6.173  0.8691  1.1843  0.6015
 1871SOL     OW17248   1.987   3.469   6.456 -0.3743 -0.1123 -0.8380
 1871SOL    HW117249   1.983   3.556   6.418 -1.7667  0.4890  0.7074
 1871SOL    HW217250   1.998   3.503   6.544 -0.2884  0.6546 -1.1446
 1872SOL     OW17251   2.188   2.945  15.126  0.1001 -0.4636 -0.3110
 1872SOL    HW117252   2.106   2.935  15.079 -0.8191  1.5115  0.8757
 1872SOL    HW217253   2.255   2.942  15.058  1.2224 -0.5406  0.7925
 1873SOL     OW17254   1.759   3.105   4.004  0.4158  0.1088 -0.3435
 1873SOL    HW117255   1.807   3.186   3.991 -0.0361  0.6153  1.1433
 1873SOL    HW217256   1.835   3.050   3.989  1.1092  0.6619  1.1826
 1874SOL     OW17257   2.664   4.638  17.637  0.4142  0.6719 -0.5121
 1874SOL    HW117258   2.757   4.636  17.658  0.1707  1.0117  0.5841
 1874SOL    HW217259   2.647   4.732  17.644 -1.5700  0.3674 -1.2137
 1875SOL     OW17260   1.241   4.719   9.220 -0.7492  0.0804  0.2812
 1875SOL    HW117261   1.263   4.627   9.207 -0.2410  0.6452 -2.9506
 1875SOL    HW217262   1.274   0.011   9.135  0.2512 -1.2601  0.2005
 1876SOL     OW17263   1.960   4.730   2.775  0.3969  0.2641 -0.3209
 1876SOL    HW117264   1.913   0.009   2.693 -0.4535 -0.5358  0.0021
 1876SOL    HW217265   1.929   0.057   2.838  0.8649 -0.6918  0.8982
 1877SOL     OW17266   4.428   4.403  15.490  0.0278  0.8375  0.5820
 1877SOL    HW117267   4.360   4.464  15.464 -0.8202 -0.7152 -0.8563
 1877SOL    HW217268   4.477   4.464  15.545 -0.9848  1.0567  1.2373
 1878SOL     OW17269   3.001   0.492   8.991 -0.3768 -0.2892 -0.3924
 1878SOL    HW117270   2.946   0.434   8.938 -0.7125 -0.5876  0.2786
 1878SOL    HW217271   2.972   0.474   9.081  1.1264  0.5633  0.2512
 1879SOL     OW17272   4.272   0.396   4.214  0.2778  0.4503 -0.3568
 1879SOL    HW117273   4.241   0.438   4.295  0.5306  1.7880 -0.9460
 1879SOL    HW217274   4.269   0.304   4.238 -0.8585  0.4727 -0.3800
 1880SOL     OW17275   0.404   1.336   1.741  0.0286  0.1600 -0.0814
 1880SOL    HW117276   0.335   1.277   1.711  1.2729 -1.5327  0.4031
 1880SOL    HW217277   0.373   1.343   1.831  1.2367  1.5851  0.2295
 1881SOL     OW17278   2.394   0.106   8.197  0.1160  0.1578  0.7391
 1881SOL    HW117279   2.387   0.072   8.286 -2.8005 -0.8472  0.1247
 1881SOL    HW217280   2.474   0.158   8.209  1.8375 -2.8243  2.2426
 1882SOL     OW17281   1.890   3.865  16.467 -0.0940  0.5253  0.0774
 1882SOL    HW117282   1.869   3.952  16.434  0.2080  0.9068  0.8912
 1882SOL    HW217283   1.984   3.868  16.451 -0.3132  1.2207 -1.0442
 1883SOL     OW17284   3.314   0.304   8.004 -0.1740  0.6076 -0.5768
 1883SOL    HW117285   3.240   0.248   7.984  1.3477 -1.5688 -0.1081
 1883SOL    HW217286   3.363   0.300   7.922  0.3617  0.9741 -0.2784
 1884SOL     OW17287   2.514   0.912  16.336  0.7329  0.1767 -0.0788
 1884SOL    HW117288   2.484   0.915  16.245 -0.3142 -1.1307  0.2281
 1884SOL    HW217289   2.534   1.004  16.354 -0.5236  0.6758 -1.2412
 1885SOL     OW17290   2.529   2.633   5.939 -0.0142 -0.5092 -0.0904
 1885SOL    HW117291   2.507   2.589   5.856  2.5284 -0.5745 -0.7413
 1885SOL    HW217292   2.448   2.683   5.942 -0.6756 -1.5205 -1.0538
 1886SOL     OW17293   2.506   4.274  13.221  0.1589 -0.7373 -0.6430
 1886SOL    HW117294   2.485   4.273  13.314  1.3488 -0.1619 -0.3602
 1886SOL    HW217295   2.526   4.368  13.218 -1.8195 -0.3595 -2.1290
 1887SOL     OW17296   1.062   4.531   4.678  0.1973 -0.4048 -0.0387
 1887SOL    HW117297   1.108   4.511   4.596  0.3080  0.8139 -0.2793
 1887SOL    HW217298   1.088   4.460   4.736  0.5359  0.0124  0.3247
 1888SOL     OW17299   2.120   0.658  16.734 -0.2092 -0.1097 -0.2553
 1888SOL    HW117300   2.182   0.609  16.787  0.3798 -1.8418 -2.5567
 1888SOL    HW217301   2.084   0.585  16.683 -0.6187 -1.0147  1.3364
 1889SOL     OW17302   0.188   2.836  15.060  0.2517 -0.5910  0.0475
 1889SOL    HW117303   0.227   2.921  15.080 -2.6291  0.8164 -0.2667
 1889SOL    HW217304   0.095   2.851  15.077 -0.0202 -1.7870 -0.3750
 1890SOL     OW17305   1.589   1.295   4.836  0.6383 -0.0348 -0.2769
 1890SOL    HW117306   1.655   1.357   4.805  0.3873  0.4291  0.1303
 1890SOL    HW217307   1.506   1.330   4.805  0.9823  2.6799  1.9651
 1891SOL     OW17308   4.378   3.744   1.537 -0.0359  0.0724 -0.2729
 1891SOL    HW117309   4.446   3.808   1.556  0.1712 -0.1783 -0.1737
 1891SOL    HW217310   4.365   3.773   1.446  0.8184  2.2283  0.2995
 1892SOL     OW17311   2.726   4.384  15.984  0.3236  0.3861 -0.0056
 1892SOL    HW117312   2.759   4.473  15.968 -0.6784  0.8440  0.4929
 1892SOL    HW217313   2.816   4.356  16.001  0.8416  1.6400 -0.6776
 1893SOL     OW17314   4.146   2.925  11.594 -0.3749 -1.3685 -0.1431
 1893SOL    HW117315   4.081   2.924  11.665  0.7005 -0.0855  0.8580
 1893SOL    HW217316   4.148   3.019  11.579  1.6376 -1.4274 -0.2844
 1894SOL     OW17317   0.730   3.938  16.175 -0.1922  0.2013 -0.4841
 1894SOL    HW117318   0.756   3.849  16.199  1.8278  0.9176 -0.0321
 1894SOL    HW217319   0.781   3.952  16.095 -3.6039  0.1798 -2.6535
 1895SOL     OW17320   4.249   1.684   7.304 -0.1907 -0.4355 -0.3485
 1895SOL    HW117321   4.339   1.666   7.275 -0.3763 -0.6580 -0.7721
 1895SOL    HW217322   4.200   1.694   7.223  1.4997 -2.2317 -1.5844
 1896SOL     OW17323   0.101   0.205   1.841 -0.1954 -0.0509  0.3226
 1896SOL    HW117324   0.107   0.197   1.937  1.4659  1.1540  0.3134
 1896SOL    HW217325   0.171   0.145   1.817 -0.0123  0.3722 -0.1908
 1897SOL     OW17326   0.514   1.783   6.191 -0.0482 -0.4930 -0.8454
 1897SOL    HW117327   0.553   1.826   6.268  0.2821  0.1118 -1.3462
 1897SOL    HW217328   0.585   1.722   6.169  0.1881 -0.2543 -0.7560
 1898SOL     OW17329   2.099   2.497   7.857  0.2223  0.1489  0.0832
 1898SOL    HW117330   2.158   2.428   7.890  1.5179  0.6193 -1.2499
 1898SOL    HW217331   2.152   2.572   7.831 -0.4669  0.7076  0.3161
 1899SOL     OW17332   1.442   0.634   5.815  0.0963 -0.3361 -0.5253
 1899SOL    HW117333   1.524   0.619   5.862 -1.0534 -3.1287  0.5601
 1899SOL    HW217334   1.455   0.726   5.794  3.1381 -0.9324 -1.2772
 1900SOL     OW17335   3.573   3.310   0.295 -0.4815 -0.1921  0.3207
 1900SOL    HW117336   3.632   3.386   0.299 -0.5432 -0.2873  3.2668
 1900SOL    HW217337   3.547   3.321   0.204  2.5863 -1.6038 -0.7466
 1901SOL     OW17338   2.736   4.595  12.610 -0.3995 -0.1515  0.1214
 1901SOL    HW117339   2.719   4.510  12.568 -1.0043  0.2506 -0.4512
 1901SOL    HW217340   2.748   4.651  12.534 -0.8257  0.2565  0.3555
 1902SOL     OW17341   4.627   0.925   9.590  0.5230 -0.2237 -0.4496
 1902SOL    HW117342   4.564   0.996   9.603 -1.2307 -1.4558 -2.1410
 1902SOL    HW217343   4.649   0.952   9.501 -2.4817  0.1522 -1.0890
 1903SOL     OW17344   1.619   4.511   2.117 -0.6055 -0.0917  0.2260
 1903SOL    HW117345   1.598   4.434   2.066 -1.3163  1.3682 -1.6867
 1903SOL    HW217346   1.555   4.571   2.079 -1.0158  0.5488  1.8992
 1904SOL     OW17347   0.035   2.718   6.428  0.1415  0.2003  0.2938
 1904SOL    HW117348   0.070   2.682   6.509  0.5065 -2.0768 -0.8906
 1904SOL    HW217349   4.692   2.762   6.454 -1.0480 -1.7633 -0.0773
 1905SOL     OW17350   0.264   3.101   3.660 -0.0138 -0.0791  0.0292
 1905SOL    HW117351   0.243   3.111   3.567  4.2227 -0.8163 -1.0159
 1905SOL    HW217352   0.211   3.173   3.696  0.2805 -0.7280  1.7500
 1906SOL     OW17353   3.500   2.478   4.441  0.6655  0.5163  0.0637
 1906SOL    HW117354   3.585   2.465   4.399  0.3139 -0.3711 -0.3673
 1906SOL    HW217355   3.525   2.440   4.526 -1.4140 -0.8191  0.0879
 1907SOL     OW17356   3.263   4.543   6.166 -0.1860 -0.1347  0.0300
 1907SOL    HW117357   3.214   4.512   6.089 -1.3961 -2.8279  1.8732
 1907SOL    HW217358   3.276   4.637   6.156  0.3294 -0.1511  0.5722
 1908SOL     OW17359   0.486   1.649  10.236 -0.2687  0.1693  0.1099
 1908SOL    HW117360   0.429   1.584  10.277  0.2710  0.5348  1.4546
 1908SOL    HW217361   0.549   1.589  10.196  0.8864  0.0358  2.1376
 1909SOL     OW17362   1.315   2.634   7.808  0.3516 -0.0468 -0.0207
 1909SOL    HW117363   1.233   2.661   7.849 -0.3778  0.8554 -2.0481
 1909SOL    HW217364   1.315   2.686   7.727  2.9948 -1.1808 -0.7550
 1910SOL     OW17365   4.452   4.637   6.586 -0.3846 -0.2763  0.0180
 1910SOL    HW117366   4.486   4.725   6.570 -0.2795 -0.2249  0.5348
 1910SOL    HW217367   4.388   4.666   6.651  1.0943  0.2303  1.2412
 1911SOL     OW17368   4.569   0.632   4.835  0.4011 -0.6013 -0.0362
 1911SOL    HW117369   4.487   0.642   4.883  1.2652  1.0182  1.0888
 1911SOL    HW217370   4.587   0.538   4.839  1.4513 -0.4011 -0.0742
 1912SOL     OW17371   0.419   2.265   1.876 -0.1849 -0.3390  0.1877
 1912SOL    HW117372   0.444   2.316   1.799 -3.4270  1.8411  0.5442
 1912SOL    HW217373   0.348   2.207   1.850 -1.1572  1.1646 -0.5192
 1913SOL     OW17374   2.039   4.455   6.406 -0.0127 -0.2218  0.2206
 1913SOL    HW117375   2.125   4.494   6.391  0.0622  0.0120  1.2980
 1913SOL    HW217376   2.026   4.470   6.499 -0.0960  1.6132 -0.0954
 1914SOL     OW17377   1.977   2.830   6.555 -0.7049  0.5925  0.0361
 1914SOL    HW117378   2.070   2.824   6.576 -0.3646  1.3218 -1.2603
 1914SOL    HW217379   1.978   2.756   6.494 -1.6488  0.4215  0.2237
 1915SOL     OW17380   4.372   4.516   1.693  0.3638  0.1379 -0.3295
 1915SOL    HW117381   4.440   4.449   1.694 -2.4015 -2.6833  0.6819
 1915SOL    HW217382   4.388   4.567   1.614  0.9151  1.4366  0.6202
 1916SOL     OW17383   4.054   3.591   0.607  0.0660 -0.0318 -0.1415
 1916SOL    HW117384   4.002   3.615   0.684  1.3863  3.3588 -0.2723
 1916SOL    HW217385   4.126   3.548   0.651 -0.5130 -1.2921 -0.4378
 1917SOL     OW17386   2.923   0.252   8.127 -0.3209 -0.0968 -0.0632
 1917SOL    HW117387   2.993   0.195   8.094  1.0151  0.9673  0.9150
 1917SOL    HW217388   2.849   0.244   8.067 -1.5502 -0.8115  1.5546
 1918SOL     OW17389   4.221   1.678   6.821 -0.0063 -0.1228  0.2172
 1918SOL    HW117390   4.209   1.591   6.782 -1.4352 -0.8538  2.3172
 1918SOL    HW217391   4.279   1.648   6.891  1.0166  0.3711 -0.4125
 1919SOL     OW17392   2.695   4.615  10.397  0.0585 -0.1120 -0.3328
 1919SOL    HW117393   2.786   4.614  10.429 -0.1098 -0.7010  0.1452
 1919SOL    HW217394   2.655   4.577  10.475  1.4338 -0.3430  0.2613
 1920SOL     OW17395   4.684   2.525  14.323  0.5052 -0.1734 -0.2419
 1920SOL    HW117396   4.607   2.580  14.340  0.5852 -0.1224 -0.0433
 1920SOL    HW217397   4.646   2.437  14.318  0.2299 -0.1999  2.1230
 1921SOL     OW17398   3.146   4.486   3.267 -0.2782 -0.3328 -0.0138
 1921SOL    HW117399   3.220   4.425   3.268 -1.1417 -1.3401  1.1041
 1921SOL    HW217400   3.186   4.566   3.302 -0.4619  0.3562 -1.3385
 1922SOL     OW17401   0.383   1.150   4.814  0.2229 -0.0849 -0.4748
 1922SOL    HW117402   0.448   1.082   4.833  0.9378  0.2867 -1.5644
 1922SOL    HW217403   0.303   1.107   4.843  0.7364 -2.2319 -2.2109
 1923SOL     OW17404   4.243   2.224   3.200 -0.3956 -0.1468  0.2757
 1923SOL    HW117405   4.248   2.263   3.113 -1.9596  1.1145  0.7507
 1923SOL    HW217406   4.242   2.308   3.247  1.2278  0.2772 -0.4602
 1924SOL     OW17407   0.505   4.368   2.103 -0.2840 -0.1745  0.2764
 1924SOL    HW117408   0.512   4.463   2.092 -1.0250 -0.1262  0.1691
 1924SOL    HW217409   0.453   4.349   2.181 -1.3253  0.2054 -0.3175
 1925SOL     OW17410   2.865   1.810   5.434  0.5197  0.6437 -0.8008
 1925SOL    HW117411   2.850   1.787   5.342  1.5730  0.9009 -1.0394
 1925SOL    HW217412   2.939   1.757   5.462  0.7788  1.2885 -0.2524
 1926SOL     OW17413   2.630   2.444   3.062  0.9969 -0.2018 -0.1389
 1926SOL    HW117414   2.553   2.500   3.055  1.4820  0.7039  1.5791
 1926SOL    HW217415   2.621   2.407   2.974  0.8356 -1.1369  0.2728
 1927SOL     OW17416   2.601   3.921  17.359  0.0318 -0.0943  0.7181
 1927SOL    HW117417   2.619   4.010  17.389 -2.6601  1.0182 -0.9662
 1927SOL    HW217418   2.576   3.941  17.269  0.4665  0.9530  0.8319
 1928SOL     OW17419   3.375   2.463   7.271  0.0198  0.3374 -0.3496
 1928SOL    HW117420   3.339   2.519   7.201  1.0168  1.7236  0.2409
 1928SOL    HW217421   3.302   2.402   7.281  2.0633 -1.8838  0.8148
 1929SOL     OW17422   3.339   4.385   4.966  0.2056  0.2398  0.5393
 1929SOL    HW117423   3.295   4.385   4.881 -1.3542 -1.4087  1.3616
 1929SOL    HW217424   3.354   4.479   4.977  0.6692  0.1009  1.0948
 1930SOL     OW17425   4.109   2.798  12.365 -0.0189  0.4214  0.5747
 1930SOL    HW117426   4.199   2.828  12.380  0.7252 -1.5770  0.2108
 1930SOL    HW217427   4.064   2.837  12.440  0.3973  2.3998 -0.2203
 1931SOL     OW17428   0.628   4.322   4.693  0.0595 -0.4562  0.1321
 1931SOL    HW117429   0.658   4.240   4.654  0.9958  0.7878 -1.7596
 1931SOL    HW217430   0.643   4.302   4.786  0.7756  1.6342  0.4497
 1932SOL     OW17431   0.333   0.239   8.154  0.2217 -0.0608  0.0851
 1932SOL    HW117432   0.387   0.165   8.127  1.2381  1.6776 -2.5773
 1932SOL    HW217433   0.275   0.194   8.216 -0.1327  1.8786  1.1858
 1933SOL     OW17434   1.979   3.568   1.867  0.2964 -0.1435  0.2311
 1933SOL    HW117435   1.953   3.519   1.789 -0.4566  3.4020 -1.7348
 1933SOL    HW217436   2.072   3.545   1.858  0.1736 -0.7002  0.3513
 1934SOL     OW17437   0.798   1.703   5.059  0.5123  0.3469 -0.3762
 1934SOL    HW117438   0.709   1.672   5.044 -0.1321  1.2950  1.4567
 1934SOL    HW217439   0.813   1.731   4.969 -1.9549 -1.8040 -1.4573
 1935SOL     OW17440   1.686   3.990   8.641  0.2250  0.1666 -0.0914
 1935SOL    HW117441   1.667   4.031   8.726  0.8819 -0.1784  0.2176
 1935SOL    HW217442   1.608   3.997   8.585  0.2899  0.1217 -0.1865
 1936SOL     OW17443   3.881   0.871   1.781  0.3147  0.1645 -0.4618
 1936SOL    HW117444   3.862   0.959   1.813  3.9796 -0.7218  4.1446
 1936SOL    HW217445   3.974   0.869   1.805  0.4024 -2.5063 -0.9845
 1937SOL     OW17446   3.519   4.041  13.304 -0.0535  0.2907 -0.9062
 1937SOL    HW117447   3.428   4.048  13.333  0.3809  1.1161  0.2658
 1937SOL    HW217448   3.535   4.132  13.281  1.0439  0.4688  0.5546
 1938SOL     OW17449   4.505   4.108   0.929 -0.0160 -0.1900 -0.6250
 1938SOL    HW117450   4.434   4.129   0.991 -0.4997 -0.1517 -1.1944
 1938SOL    HW217451   4.582   4.086   0.982 -1.1252  0.4574  1.2739
 1939SOL     OW17452   1.819   4.690   4.595 -0.2137 -0.1341 -0.1853
 1939SOL    HW117453   1.771   4.660   4.518 -0.1707  1.0561 -0.6791
 1939SOL    HW217454   1.910   4.677   4.569 -0.6490 -2.4604 -0.5183
 1940SOL     OW17455   1.194   2.056   5.217  0.2310  0.5061 -0.9521
 1940SOL    HW117456   1.214   2.015   5.302  0.8648 -2.3628 -2.4749
 1940SOL    HW217457   1.142   2.133   5.239  0.0323 -0.0527  0.5181
 1941SOL     OW17458   3.356   0.799   1.657 -0.2794 -1.0932 -1.0540
 1941SOL    HW117459   3.395   0.713   1.643  0.2809 -1.0696  0.4012
 1941SOL    HW217460   3.265   0.771   1.664 -1.1153  2.0165  0.6656
 1942SOL     OW17461   3.705   3.546   5.332  0.2938  0.1579  0.2336
 1942SOL    HW117462   3.779   3.570   5.277 -0.1908  0.5814 -0.2376
 1942SOL    HW217463   3.697   3.607   5.405 -1.0118 -1.2640  1.2814
 1943SOL     OW17464   3.982   0.194   7.625 -0.1207 -0.0981  0.5682
 1943SOL    HW117465   4.010   0.190   7.716  0.0758  0.5446  0.5358
 1943SOL    HW217466   4.034   0.126   7.584 -1.1329 -0.1627 -0.6251
 1944SOL     OW17467   2.942   2.277  17.076  0.0277  0.1383 -0.1236
 1944SOL    HW117468   2.894   2.300  17.156 -0.8523 -1.4411 -0.2041
 1944SOL    HW217469   2.884   2.302  17.004 -1.6250  2.1301  1.8947
 1945SOL     OW17470   0.415   0.555   9.484 -0.2704 -0.5395 -0.0194
 1945SOL    HW117471   0.494   0.531   9.436 -1.3474 -3.2618 -0.4463
 1945SOL    HW217472   0.427   0.650   9.489  1.1108 -0.6438 -1.2876
 1946SOL     OW17473   0.555   3.611  10.304  0.2034  0.4357 -0.1588
 1946SOL    HW117474   0.471   3.575  10.333  1.1926 -1.8039 -0.0807
 1946SOL    HW217475   0.606   3.529  10.306 -0.3330  0.1453  1.9470
 1947SOL     OW17476   1.830   1.935   1.984 -0.3558 -0.3790 -0.1942
 1947SOL    HW117477   1.915   1.891   1.981  0.7724  1.6693  2.3084
 1947SOL    HW217478   1.832   1.999   1.912 -1.5825  0.3362  0.4114
 1948SOL     OW17479   3.758   3.133   2.609 -0.7856 -0.1806 -0.2841
 1948SOL    HW117480   3.840   3.182   2.601 -0.4497 -0.5004  1.2231
 1948SOL    HW217481   3.709   3.189   2.670  0.6226  0.3460  0.3426
 1949SOL     OW17482   0.732   1.397   8.419 -0.0897  0.1406 -0.0301
 1949SOL    HW117483   0.648   1.387   8.464 -0.0658 -0.3977 -0.0997
 1949SOL    HW217484   0.707   1.468   8.360  0.1774  1.5832  1.5953
 1950SOL     OW17485   4.133   1.211   4.367  0.2674 -0.6428  0.0648
 1950SOL    HW117486   4.179   1.128   4.380 -0.0655 -1.0213 -1.2591
 1950SOL    HW217487   4.176   1.255   4.440  1.4394  1.4563 -1.9050
 1951SOL     OW17488   4.575   1.631   8.512  0.0735 -0.0427  0.2997
 1951SOL    HW117489   4.597   1.629   8.605 -0.0669 -1.7514  0.2944
 1951SOL    HW217490   4.487   1.666   8.525 -0.7866 -1.5894 -1.4065
 1952SOL     OW17491   0.152   3.160   6.222 -0.6912  0.2640  0.0598
 1952SOL    HW117492   0.067   3.203   6.229 -0.7315  0.2807 -0.5237
 1952SOL    HW217493   0.133   3.109   6.143 -1.5931 -0.9637  1.0681
 1953SOL     OW17494   2.464   0.592   3.912 -0.5344  0.0165 -0.5251
 1953SOL    HW117495   2.401   0.652   3.951 -1.7704 -0.2953 -2.0670
 1953SOL    HW217496   2.446   0.596   3.818 -2.1011  1.3469 -0.1598
 1954SOL     OW17497   4.623   3.247   7.475  0.1264 -0.2653  0.5735
 1954SOL    HW117498   4.632   3.335   7.510 -4.8829  0.3307  0.3731
 1954SOL    HW217499   4.678   3.193   7.532 -1.6183 -2.7135 -0.0278
 1955SOL     OW17500   0.830   1.056   6.570  0.3191 -0.0198  0.1071
 1955SOL    HW117501   0.788   0.991   6.514  2.4625 -2.7383  1.6379
 1955SOL    HW217502   0.811   1.017   6.655 -0.0084  0.2005  0.1362
 1956SOL     OW17503   1.240   3.695   6.672  0.3489  0.2267 -0.3993
 1956SOL    HW117504   1.295   3.695   6.593 -0.8666  0.3776 -1.2327
 1956SOL    HW217505   1.171   3.752   6.640  1.0625  0.4269 -1.5965
 1957SOL     OW17506   2.601   2.427   1.318  0.2793 -0.1984 -0.0945
 1957SOL    HW117507   2.679   2.464   1.277 -0.0075  1.1358  0.5467
 1957SOL    HW217508   2.641   2.396   1.399 -0.2548  1.9581  1.0008
 1958SOL     OW17509   1.663   4.292  12.302 -0.1213  0.4672 -0.5996
 1958SOL    HW117510   1.653   4.228  12.372  3.4002  2.0993  1.3661
 1958SOL    HW217511   1.706   4.242  12.232 -1.2751 -0.7920 -0.4109
 1959SOL     OW17512   2.176   1.653  14.745  0.0449  0.1448  0.1572
 1959SOL    HW117513   2.106   1.702  14.788  1.4432  0.6014  1.8902
 1959SOL    HW217514   2.133   1.627  14.663  3.0898 -0.8809 -1.1119
 1960SOL     OW17515   2.473   4.620   8.863 -0.7542  0.8066  0.6556
 1960SOL    HW117516   2.466   4.714   8.875  0.0049  0.7303  1.7385
 1960SOL    HW217517   2.526   4.599   8.941  1.0270 -1.2476 -1.0956
 1961SOL     OW17518   1.798   0.179   7.794 -0.4266  0.0247  0.3626
 1961SOL    HW117519   1.884   0.219   7.803 -0.1247 -0.2744 -1.1505
 1961SOL    HW217520   1.796   0.111   7.861  1.1433 -0.3982 -0.0147
 1962SOL     OW17521   0.511   1.784   4.016  0.7030 -0.0172  0.2629
 1962SOL    HW117522   0.443   1.814   4.076 -1.1563 -1.4003 -1.1657
 1962SOL    HW217523   0.479   1.816   3.932 -0.0639 -1.1358  0.1351
 1963SOL     OW17524   3.087   1.186   5.609 -0.4840 -0.0118  0.7070
 1963SOL    HW117525   3.106   1.169   5.701 -1.3777  1.2508  1.1247
 1963SOL    HW217526   3.028   1.111   5.600  0.2013 -0.2420 -1.9626
 1964SOL     OW17527   0.803   3.220   6.465 -0.1414  0.1847  0.3011
 1964SOL    HW117528   0.729   3.170   6.500 -0.7098 -0.1952 -1.4048
 1964SOL    HW217529   0.783   3.303   6.507  2.3738  0.3240  1.1971
 1965SOL     OW17530   3.203   4.131   9.044  0.4949 -0.5282  0.0753
 1965SOL    HW117531   3.225   4.223   9.061  0.2410 -0.4879  0.1911
 1965SOL    HW217532   3.117   4.138   9.003 -0.4584 -1.4299  1.9179
 1966SOL     OW17533   0.348   4.287  16.429  0.1760 -0.6567 -0.2370
 1966SOL    HW117534   0.425   4.240  16.398  0.7247  0.9656 -1.3031
 1966SOL    HW217535   0.280   4.221  16.447 -0.4598 -0.3282 -1.4567
 1967SOL     OW17536   1.095   0.339   2.243 -0.0076 -0.3908 -0.4064
 1967SOL    HW117537   1.159   0.410   2.245  0.1782 -0.5546 -0.5635
 1967SOL    HW217538   1.057   0.363   2.327  0.0200  1.0953 -0.8145
 1968SOL     OW17539   1.388   0.739   6.195 -0.6790  0.0930  1.0716
 1968SOL    HW117540   1.429   0.709   6.276 -0.5637 -0.4018  0.8263
 1968SOL    HW217541   1.296   0.731   6.218 -1.7402  0.5555 -3.0689
 1969SOL     OW17542   0.998   1.131   8.591 -0.2679 -0.3476  0.4966
 1969SOL    HW117543   1.061   1.086   8.535  1.5127  2.0965  0.5081
 1969SOL    HW217544   0.921   1.123   8.534 -2.0089  1.6970  2.5079
 1970SOL     OW17545   1.067   4.121  13.030  0.4051 -0.3443 -0.3966
 1970SOL    HW117546   0.973   4.135  13.041  1.3141  3.2061  2.7051
 1970SOL    HW217547   1.069   4.081  12.943 -0.1899  0.1321 -0.6275
 1971SOL     OW17548   2.121   2.433   1.698  0.4707  0.5136  0.1629
 1971SOL    HW117549   2.104   2.504   1.760  0.3479  1.5286 -1.0237
 1971SOL    HW217550   2.216   2.430   1.703  0.5607  0.7135 -1.4806
 1972SOL     OW17551   1.952   4.507   6.664 -0.1515  0.0624 -0.4429
 1972SOL    HW117552   1.986   4.596   6.668  0.4328 -0.2243  0.9425
 1972SOL    HW217553   1.872   4.523   6.713 -0.6936  0.3957 -1.4192
 1973SOL     OW17554   0.506   1.729  10.917 -0.0899 -0.2279  0.6857
 1973SOL    HW117555   0.501   1.651  10.973  1.7514 -0.6677  0.2470
 1973SOL    HW217556   0.594   1.764  10.931  0.8514 -1.5901 -1.8039
 1974SOL     OW17557   3.842   4.094   2.222  0.1171  0.4968 -0.7173
 1974SOL    HW117558   3.788   4.053   2.289  1.1776  3.5406  2.0466
 1974SOL    HW217559   3.926   4.049   2.236 -0.1732  0.1156 -0.2192
 1975SOL     OW17560   1.984   0.107  17.195 -0.5744  0.1582 -0.4896
 1975SOL    HW117561   2.053   0.168  17.171  0.9676 -1.8996 -1.2921
 1975SOL    HW217562   1.917   0.168  17.226 -0.7667 -1.5569  2.4718
 1976SOL     OW17563   3.732   0.545   3.227 -0.1013  0.2494  0.3479
 1976SOL    HW117564   3.702   0.459   3.199 -1.6314  0.6333  0.7567
 1976SOL    HW217565   3.668   0.605   3.188  0.2836  0.0122 -0.6559
 1977SOL     OW17566   3.689   3.549   4.881  0.1378 -0.3666  0.5513
 1977SOL    HW117567   3.633   3.625   4.893  1.4570  0.5551  0.8352
 1977SOL    HW217568   3.775   3.588   4.893 -0.4796  0.3498  2.5886
 1978SOL     OW17569   0.420   2.934   3.293 -0.3713  0.2996  0.1137
 1978SOL    HW117570   0.325   2.927   3.285 -0.1993 -1.6092 -0.3125
 1978SOL    HW217571   0.432   2.961   3.384  0.4934  0.6391 -0.0965
 1979SOL     OW17572   3.441   0.395   1.720 -0.1458 -0.0537  0.3256
 1979SOL    HW117573   3.409   0.423   1.806  0.6156  4.8064 -0.9695
 1979SOL    HW217574   3.520   0.346   1.744 -0.0701  0.3366  0.8793
 1980SOL     OW17575   2.839   1.300  17.652 -0.4441  0.8493 -0.2453
 1980SOL    HW117576   2.856   1.208  17.634  0.0792  1.0145 -0.6020
 1980SOL    HW217577   2.756   1.288  17.699  0.2774  2.7540  1.5549
 1981SOL     OW17578   2.969   4.564  12.726  0.1956 -0.0699 -0.0563
 1981SOL    HW117579   2.883   4.565  12.684  0.2511  0.5835 -0.1587
 1981SOL    HW217580   3.012   4.619  12.660  1.1965  0.3192  0.9259
 1982SOL     OW17581   0.325   2.171   8.558  0.0910  0.7091 -0.3457
 1982SOL    HW117582   0.389   2.105   8.534 -0.6888 -0.4405  0.7627
 1982SOL    HW217583   0.374   2.216   8.626  0.9883 -0.4378 -0.2454
 1983SOL     OW17584   0.235   1.761   6.705  0.3254 -0.6964  0.2547
 1983SOL    HW117585   0.209   1.673   6.678 -2.4032 -0.4389  2.0579
 1983SOL    HW217586   0.291   1.788   6.632  1.1884  0.0627  1.1948
 1984SOL     OW17587   2.375   2.176   5.342  0.4825 -0.2839  0.1410
 1984SOL    HW117588   2.450   2.125   5.373  0.7998 -0.5112 -0.9823
 1984SOL    HW217589   2.406   2.201   5.254  1.0900  0.2559  0.5082
 1985SOL     OW17590   0.192   3.898   5.623  0.9069 -0.3259 -0.1300
 1985SOL    HW117591   0.286   3.903   5.644  0.9774 -1.0125 -0.3013
 1985SOL    HW217592   0.162   3.832   5.685  1.1548  0.9809  1.3814
 1986SOL     OW17593   3.236   3.515   3.497 -0.1071  0.0227 -0.4648
 1986SOL    HW117594   3.320   3.548   3.529  0.7807 -1.7379 -0.9784
 1986SOL    HW217595   3.259   3.423   3.480 -0.3270 -0.5654  2.4088
 1987SOL     OW17596   2.008   4.413   2.532  0.4020 -0.0828 -0.2911
 1987SOL    HW117597   2.045   4.397   2.445  1.3932 -1.3959  0.3741
 1987SOL    HW217598   1.917   4.428   2.505  0.5236  0.1462 -0.5762
 1988SOL     OW17599   1.714   2.579  17.220  0.0849 -0.1512  0.5643
 1988SOL    HW117600   1.713   2.485  17.204 -4.6816 -0.1684  1.2324
 1988SOL    HW217601   1.709   2.593  17.315  1.2218 -1.1235  0.7686
 1989SOL     OW17602   1.577   0.933   6.869 -0.0812  0.7667 -0.0104
 1989SOL    HW117603   1.625   0.860   6.830 -1.8556 -0.4726  0.0934
 1989SOL    HW217604   1.607   1.005   6.814  0.2535  0.1176 -0.6957
 1990SOL     OW17605   0.082   4.300   2.118 -0.5095  0.6028 -0.0135
 1990SOL    HW117606   0.074   4.246   2.197  1.4754 -0.8722 -0.8159
 1990SOL    HW217607   0.095   4.386   2.158  0.4555  1.1867 -1.6064
 1991SOL     OW17608   4.019   4.705   0.073 -0.0608  0.6830 -0.2157
 1991SOL    HW117609   3.977   0.031   0.129 -1.4645  1.3874 -2.0894
 1991SOL    HW217610   3.952   4.637   0.080  0.6377 -0.1629 -1.6853
 1992SOL     OW17611   1.300   1.331   4.106 -0.4080  0.0210  0.2482
 1992SOL    HW117612   1.207   1.328   4.127 -0.4952  1.3470  0.0500
 1992SOL    HW217613   1.305   1.353   4.013 -3.0941  1.8164  0.5417
 1993SOL     OW17614   3.863   0.832   6.585 -0.3284 -0.2774  0.2673
 1993SOL    HW117615   3.804   0.756   6.586 -0.7152  0.0251  1.0917
 1993SOL    HW217616   3.944   0.803   6.627  0.1645 -0.1944 -0.6490
 1994SOL     OW17617   1.147   1.688   3.826 -0.5698  0.4043 -0.1654
 1994SOL    HW117618   1.127   1.595   3.814 -0.8443  0.1903  1.9592
 1994SOL    HW217619   1.146   1.688   3.922 -1.5270  3.7160 -0.1842
 1995SOL     OW17620   2.039   2.305  15.156 -0.2472 -0.1973 -0.5179
 1995SOL    HW117621   1.998   2.281  15.239 -0.6999  1.2726 -0.3165
 1995SOL    HW217622   2.036   2.219  15.113 -1.4251  0.3695 -1.5565
 1996SOL     OW17623   0.718   0.215   1.195 -0.0240  0.0437  0.1289
 1996SOL    HW117624   0.751   0.126   1.204  0.1428  0.1064  0.1273
 1996SOL    HW217625   0.753   0.257   1.117 -1.9656  0.1408 -0.6944
 1997SOL     OW17626   1.135   3.484  16.815 -0.0242  0.2806 -0.2292
 1997SOL    HW117627   1.073   3.422  16.778  0.7482 -0.6216 -0.0167
 1997SOL    HW217628   1.212   3.428  16.827 -0.2354  0.3003  1.1630
 1998SOL     OW17629   2.188   4.491  13.254  0.3469  0.2519 -0.0372
 1998SOL    HW117630   2.266   4.537  13.286  0.3203  1.4205 -1.6487
 1998SOL    HW217631   2.152   4.450  13.332  1.1145  0.2836  0.3366
 1999SOL     OW17632   0.950   0.399   9.271  0.0402  0.2708  0.4112
 1999SOL    HW117633   0.910   0.315   9.250  2.2510 -0.4487 -0.8562
 1999SOL    HW217634   1.030   0.371   9.316 -1.4325 -0.9173  2.3380
 2000SOL     OW17635   1.181   4.563   1.158  0.1821 -0.4743 -0.6595
 2000SOL    HW117636   1.159   4.575   1.250  0.1713 -0.1841 -0.7002
 2000SOL    HW217637   1.275   4.577   1.167 -0.0614 -0.7739  2.2301
 2001SOL     OW17638   3.054   2.368  13.528  0.1301  0.1694 -0.0082
 2001SOL    HW117639   3.123   2.360  13.462  0.4862 -0.4814  0.4434
 2001SOL    HW217640   2.981   2.319  13.491 -0.2755  3.2367 -3.2424
 2002SOL     OW17641   2.998   4.146   2.834 -0.1982 -0.0768 -0.4887
 2002SOL    HW117642   2.930   4.126   2.769 -1.3259  2.6879 -0.1526
 2002SOL    HW217643   2.955   4.218   2.880 -0.2699  1.1767 -2.5037
 2003SOL     OW17644   2.906   1.261   3.621  0.2627  0.0328  0.4352
 2003SOL    HW117645   2.979   1.257   3.683  0.7460 -3.0030 -0.3226
 2003SOL    HW217646   2.849   1.198   3.665  0.8225 -1.0058 -0.3445
 2004SOL     OW17647   4.507   3.520   2.674 -0.2585 -0.2844 -0.5052
 2004SOL    HW117648   4.518   3.563   2.759 -0.2428 -0.7093 -0.2922
 2004SOL    HW217649   4.581   3.562   2.631  0.8832 -2.1147 -0.3564
 2005SOL     OW17650   1.675   1.835   4.212  0.0048 -0.0500 -0.3330
 2005SOL    HW117651   1.627   1.897   4.157 -0.2756  0.1837  0.1713
 2005SOL    HW217652   1.620   1.810   4.286  0.6313 -1.9694 -0.5219
 2006SOL     OW17653   1.407   0.674   1.271 -0.3116  1.3854 -0.1845
 2006SOL    HW117654   1.361   0.757   1.283 -1.6299  0.3338  1.8987
 2006SOL    HW217655   1.387   0.630   1.353  0.1531 -0.7195 -1.2035
 2007SOL     OW17656   3.199   1.197   1.467  0.1274  0.1646  0.3564
 2007SOL    HW117657   3.278   1.202   1.520  1.3365 -1.9416 -1.2479
 2007SOL    HW217658   3.200   1.107   1.434  0.0438 -0.6898  2.6401
 2008SOL     OW17659   2.386   3.247   8.894 -0.1808  0.2661 -0.0842
 2008SOL    HW117660   2.348   3.323   8.938 -0.4883 -0.3381  0.6875
 2008SOL    HW217661   2.317   3.180   8.886 -1.1655  0.9977  2.2290
 2009SOL     OW17662   1.880   2.751   4.930 -0.4092 -0.1919  0.0635
 2009SOL    HW117663   1.861   2.833   4.885  1.0527  0.5198  0.7174
 2009SOL    HW217664   1.847   2.684   4.870  0.4970  0.4234 -1.1109
 2010SOL     OW17665   1.401   4.629   6.817 -0.3131 -0.1258 -0.0125
 2010SOL    HW117666   1.360   4.715   6.826 -0.5965 -0.5007  2.3808
 2010SOL    HW217667   1.362   4.608   6.733  1.5809  2.6649 -1.5785
 2011SOL     OW17668   1.888   3.490  15.254  0.6605  0.3259 -0.4436
 2011SOL    HW117669   1.802   3.532  15.265  0.2784 -1.2817  2.5911
 2011SOL    HW217670   1.858   3.426  15.189  0.2298  2.3558 -2.2354
 2012SOL     OW17671   4.680   1.039  15.764 -0.3269  0.3132 -0.3401
 2012SOL    HW117672   4.690   0.947  15.789  1.1220  0.5003 -0.2104
 2012SOL    HW217673   4.653   1.030  15.673  2.0242 -0.2909 -0.9857
 2013SOL     OW17674   1.154   1.934   6.476 -0.1992  0.4217 -0.6322
 2013SOL    HW117675   1.202   1.966   6.400 -0.5282 -2.0806 -1.9042
 2013SOL    HW217676   1.203   1.972   6.549 -1.6873 -3.0647  2.1722
 2014SOL     OW17677   0.677   0.114   2.837 -0.2894  0.2216  0.3697
 2014SOL    HW117678   0.634   0.045   2.786 -0.7297  0.0155  1.0171
 2014SOL    HW217679   0.641   0.194   2.801  0.6115  0.7738  0.6886
 2015SOL     OW17680   3.223   2.033   8.167  0.1908  0.1809  0.0904
 2015SOL    HW117681   3.143   2.038   8.219 -1.0569 -1.0425 -1.7259
 2015SOL    HW217682   3.251   2.124   8.174  0.6796 -0.2457  3.3484
 2016SOL     OW17683   1.927   1.305   7.254 -0.1068  0.6417 -0.3891
 2016SOL    HW117684   1.886   1.305   7.167 -1.9246  0.1524  0.4670
 2016SOL    HW217685   1.939   1.399   7.266  3.2176 -0.0135  1.5404
 2017SOL     OW17686   4.298   0.209  14.981 -0.1477 -0.1261  0.1716
 2017SOL    HW117687   4.226   0.228  14.920 -1.5937 -0.7974  1.6529
 2017SOL    HW217688   4.309   0.116  14.960 -1.6035  0.0569 -1.4735
 2018SOL     OW17689   1.612   2.985   7.091 -0.3240  0.1571 -0.0764
 2018SOL    HW117690   1.620   3.024   7.004 -0.8780 -2.9893 -1.5606
 2018SOL    HW217691   1.698   2.946   7.106 -0.9559 -1.0819  0.3558
 2019SOL     OW17692   3.812   1.394   1.399  0.1285  0.0322  0.1011
 2019SOL    HW117693   3.747   1.324   1.389  0.1989 -0.0660  0.3376
 2019SOL    HW217694   3.885   1.340   1.432 -0.0779 -1.0101 -1.1385
 2020SOL     OW17695   0.623   0.962   4.633  0.0949  0.6207 -0.4740
 2020SOL    HW117696   0.714   0.960   4.601  0.1426  1.2192 -0.3722
 2020SOL    HW217697   0.632   0.955   4.728 -2.0279 -2.6308 -0.4830
 2021SOL     OW17698   0.048   3.848   4.105  0.0660  0.1805 -0.1607
 2021SOL    HW117699   4.721   3.869   4.172  1.4185 -1.6558  1.7429
 2021SOL    HW217700   0.054   3.931   4.058 -1.1588  0.3978  0.0712
 2022SOL     OW17701   2.512   1.648  10.450 -0.8202 -0.3344 -0.3346
 2022SOL    HW117702   2.590   1.596  10.430 -1.5959 -0.9105 -1.8499
 2022SOL    HW217703   2.524   1.649  10.545  2.3768  1.0748 -0.7678
 2023SOL     OW17704   2.862   2.881   7.278 -0.1885  1.1524  0.6176
 2023SOL    HW117705   2.937   2.868   7.337  0.4848  3.2074  0.2415
 2023SOL    HW217706   2.874   2.827   7.200 -0.3683  3.3366 -0.9155
 2024SOL     OW17707   0.169   0.524   4.965  0.3846 -0.2518  0.0288
 2024SOL    HW117708   0.223   0.597   4.935 -0.0615  0.5017  1.0561
 2024SOL    HW217709   0.146   0.474   4.887  2.0575 -0.2844 -0.4323
 2025SOL     OW17710   4.397   4.633   1.989 -0.0825  0.5193  0.5421
 2025SOL    HW117711   4.361   4.564   1.933 -0.9356  0.6984  0.8682
 2025SOL    HW217712   4.464   4.582   2.033  1.0981  1.5929 -0.0218
 2026SOL     OW17713   2.263   1.175   6.853 -0.1766 -0.1545 -0.5137
 2026SOL    HW117714   2.307   1.096   6.884 -0.0151 -0.1798 -0.8050
 2026SOL    HW217715   2.323   1.248   6.863  0.9276 -0.9713 -1.1541
 2027SOL     OW17716   2.047   0.653   8.251  0.1059  0.2313  0.2111
 2027SOL    HW117717   2.099   0.575   8.269 -0.8545 -0.1005  1.5118
 2027SOL    HW217718   2.031   0.638   8.157 -0.5368  0.9541  0.2024
 2028SOL     OW17719   4.717   2.224   2.196 -0.5421 -0.0656 -0.7199
 2028SOL    HW117720   0.046   2.156   2.183 -0.9790 -0.9530  1.6174
 2028SOL    HW217721   4.668   2.217   2.114  1.1023 -0.1477 -1.6889
 2029SOL     OW17722   3.867   1.464   3.383  0.2469 -0.8748 -0.0049
 2029SOL    HW117723   3.773   1.455   3.399 -0.1883  2.5784 -0.4496
 2029SOL    HW217724   3.892   1.508   3.464  2.8587 -4.0530  0.8933
 2030SOL     OW17725   4.234   4.203   6.173  0.0438 -0.3628  0.1759
 2030SOL    HW117726   4.289   4.142   6.221  0.0910 -1.8755 -1.8195
 2030SOL    HW217727   4.295   4.261   6.126 -0.5492 -0.5272 -0.7741
 2031SOL     OW17728   1.053   1.391  12.253 -0.5428  0.1715 -0.0601
 2031SOL    HW117729   1.068   1.369  12.345  0.2055 -3.0115 -0.9583
 2031SOL    HW217730   1.000   1.469  12.271 -1.4498 -0.7730  1.2995
 2032SOL     OW17731   4.219   2.140  16.946  0.2156  0.1035 -0.3210
 2032SOL    HW117732   4.239   2.227  16.913 -0.0587  0.1306 -0.4114
 2032SOL    HW217733   4.156   2.099  16.888  0.1849  0.6576 -0.6749
 2033SOL     OW17734   0.537   3.862   3.776  0.0995  0.4128 -0.0417
 2033SOL    HW117735   0.530   3.825   3.688  0.1871 -0.8744  0.5039
 2033SOL    HW217736   0.577   3.796   3.833  0.1585  2.2208  1.9968
 2034SOL     OW17737   4.286   2.450  17.249  0.1240  0.1172  0.0111
 2034SOL    HW117738   4.195   2.473  17.268 -0.2622 -0.8412 -0.6363
 2034SOL    HW217739   4.336   2.503  17.310 -0.2575  2.0730 -1.3886
 2035SOL     OW17740   2.610   1.698   8.396 -0.9100 -0.3463  0.2123
 2035SOL    HW117741   2.670   1.664   8.463  1.9605  1.2526 -1.5524
 2035SOL    HW217742   2.623   1.635   8.325  4.6304 -0.0817  0.9409
 2036SOL     OW17743   4.061   1.394   5.294 -0.4726 -0.1267 -0.2156
 2036SOL    HW117744   3.991   1.405   5.358  0.2414  2.1371  0.1698
 2036SOL    HW217745   4.041   1.464   5.231 -1.4750 -1.2507 -1.1428
 2037SOL     OW17746   1.247   0.865   4.406  0.5982 -0.7239  0.3249
 2037SOL    HW117747   1.296   0.856   4.488  0.2717  1.6050  0.7723
 2037SOL    HW217748   1.282   0.948   4.375 -2.9871  0.6595  0.0075
 2038SOL     OW17749   4.706   1.116   7.956 -0.1323 -0.0072  0.4952
 2038SOL    HW117750   4.692   1.209   7.938  1.0757 -0.7115 -4.0667
 2038SOL    HW217751   4.648   1.085   7.887 -1.2804 -0.0313  1.4690
 2039SOL     OW17752   3.386   1.887  12.242  0.1341  0.6577 -0.2141
 2039SOL    HW117753   3.342   1.878  12.327  1.1315 -0.0244  0.2213
 2039SOL    HW217754   3.361   1.808  12.196  2.3364  0.0895 -0.4263
 2040SOL     OW17755   2.335   3.125   5.514 -0.0963 -0.2889 -0.1206
 2040SOL    HW117756   2.256   3.087   5.477  0.1910 -1.3782  0.3890
 2040SOL    HW217757   2.350   3.080   5.597  0.5748  1.5055  0.7402
 2041SOL     OW17758   0.173   3.907   6.919  0.3250 -0.0782  0.6893
 2041SOL    HW117759   0.197   3.941   7.005  1.0291 -0.9854  0.8521
 2041SOL    HW217760   0.125   3.828   6.945  1.4541 -0.7586  0.7344
 2042SOL     OW17761   1.464   3.000  16.822 -0.3962  0.6595 -0.4883
 2042SOL    HW117762   1.456   3.086  16.779 -2.2185  0.5824 -0.3023
 2042SOL    HW217763   1.494   3.024  16.909 -1.0361 -1.3425  0.2808
 2043SOL     OW17764   1.045   4.694   4.174 -0.4830  0.0379  0.0643
 2043SOL    HW117765   1.099   0.003   4.238 -1.4825 -0.6591  1.4273
 2043SOL    HW217766   1.064   0.006   4.095 -1.6372 -0.8293 -0.7761
 2044SOL     OW17767   2.692   2.040   5.483  0.5948  0.6099 -0.6199
 2044SOL    HW117768   2.724   1.961   5.440  0.3530  1.6631 -2.7358
 2044SOL    HW217769   2.667   2.000   5.566 -1.5465  1.9929 -0.6217
 2045SOL     OW17770   2.437   3.691   7.315  0.1567 -0.5664  0.3168
 2045SOL    HW117771   2.378   3.766   7.326 -0.2838 -1.2698  2.7821
 2045SOL    HW217772   2.367   3.627   7.331  1.6072 -2.1220  0.4315
 2046SOL     OW17773   3.468   0.423   5.973 -0.1459  0.1075  0.2633
 2046SOL    HW117774   3.449   0.413   6.066 -1.6111  1.7876  0.1619
 2046SOL    HW217775   3.492   0.334   5.948  1.2507  0.8539 -1.0195
 2047SOL     OW17776   4.561   0.430  17.293 -0.2685  0.0288  0.0775
 2047SOL    HW117777   4.513   0.503  17.253 -0.1893 -0.6700 -1.3009
 2047SOL    HW217778   4.492   0.366  17.309  0.3347 -1.1584 -2.0674
 2048SOL     OW17779   1.075   0.769   7.044  0.0996  0.5704 -0.0124
 2048SOL    HW117780   1.072   0.685   7.088 -0.7931  1.6696  2.0185
 2048SOL    HW217781   0.997   0.819   7.067  0.3497  1.3413 -0.8418
 2049SOL     OW17782   3.059   2.028  17.123 -0.2224 -0.4933 -0.3217
 2049SOL    HW117783   3.039   2.119  17.103  1.7596  0.3129  1.3389
 2049SOL    HW217784   2.978   1.981  17.103  1.3235 -3.9622  1.6020
 2050SOL     OW17785   2.626   2.491  15.510  0.3425 -0.1659 -0.6213
 2050SOL    HW117786   2.643   2.585  15.502 -0.1711 -0.1065 -1.0072
 2050SOL    HW217787   2.572   2.482  15.432  0.4203  1.7310 -0.8865
 2051SOL     OW17788   0.766   4.413   1.083  0.6408  0.2684 -0.1401
 2051SOL    HW117789   0.733   4.396   1.172 -1.0545  0.4436 -0.7347
 2051SOL    HW217790   0.861   4.414   1.096  0.5501 -2.2584  0.7068
 2052SOL     OW17791   3.748   1.380   4.573  0.4487  0.0678 -0.2364
 2052SOL    HW117792   3.662   1.398   4.534  0.2910  1.4841  0.7521
 2052SOL    HW217793   3.759   1.287   4.552  0.7627 -0.2222  1.1814
 2053SOL     OW17794   4.372   4.476   2.498  0.4079  0.1914 -0.1820
 2053SOL    HW117795   4.291   4.491   2.547 -0.4946  0.7681 -1.8332
 2053SOL    HW217796   4.378   4.567   2.467  1.0848  0.2512  0.1296
 2054SOL     OW17797   0.131   0.117   3.251  0.2696  0.1381 -0.3403
 2054SOL    HW117798   0.103   0.206   3.227  0.4446  0.6445  1.3099
 2054SOL    HW217799   0.205   0.108   3.191 -0.2512  1.9964 -1.2926
 2055SOL     OW17800   0.352   2.507   8.611  0.2838 -0.2264  0.4976
 2055SOL    HW117801   0.369   2.428   8.664  1.8339  0.9497  1.7501
 2055SOL    HW217802   0.392   2.482   8.528 -1.2005  0.0710 -0.2986
 2056SOL     OW17803   2.291   3.669   3.157  0.4471 -0.1037  0.8523
 2056SOL    HW117804   2.231   3.692   3.228  0.1357 -0.8819  0.8399
 2056SOL    HW217805   2.305   3.751   3.110 -2.7808 -0.5351 -0.9017
 2057SOL     OW17806   0.822   0.640  14.640 -0.0927  0.0532  0.0092
 2057SOL    HW117807   0.831   0.588  14.560 -2.0495 -1.4041  0.7224
 2057SOL    HW217808   0.828   0.575  14.711  0.3000  1.4899  1.2773
 2058SOL     OW17809   3.764   1.041   7.717  0.1567 -0.3509 -0.7891
 2058SOL    HW117810   3.853   1.072   7.702 -0.6138  1.8360 -0.7466
 2058SOL    HW217811   3.741   1.033   7.810  1.2647  1.9700 -0.3235
 2059SOL     OW17812   4.589   1.022  17.110 -0.1233  0.5249  0.3910
 2059SOL    HW117813   4.502   0.983  17.112 -0.6296  1.5960 -1.0319
 2059SOL    HW217814   4.631   0.961  17.049 -0.4868  1.1794 -0.5211
 2060SOL     OW17815   2.723   3.908   9.110 -0.2630  0.1941 -0.0235
 2060SOL    HW117816   2.649   3.968   9.097 -0.2281 -0.3622 -2.6398
 2060SOL    HW217817   2.713   3.855   9.031 -1.5543  0.0026  0.2696
 2061SOL     OW17818   2.957   0.695   1.878 -0.3826 -0.4474  1.1981
 2061SOL    HW117819   2.887   0.676   1.816  0.8826 -2.3486  0.3359
 2061SOL    HW217820   2.914   0.760   1.934 -1.4669  0.8696 -1.1553
 2062SOL     OW17821   1.782   0.186  12.659 -0.0303  0.3588 -0.1264
 2062SOL    HW117822   1.787   0.133  12.738 -2.1717  0.6163  0.1786
 2062SOL    HW217823   1.796   0.273  12.697  2.0955 -0.3453  0.6979
 2063SOL     OW17824   1.222   1.007   6.372  0.3751 -0.5832  0.0172
 2063SOL    HW117825   1.236   0.996   6.466  0.4111 -1.8607 -0.1423
 2063SOL    HW217826   1.204   0.920   6.338 -0.7553 -0.6294  0.7436
 2064SOL     OW17827   4.172   0.210  16.409  0.5112 -0.1795  0.6597
 2064SOL    HW117828   4.199   0.119  16.415 -0.8568 -0.6217  0.2143
 2064SOL    HW217829   4.168   0.234  16.502  1.7295 -1.5368  1.0553
 2065SOL     OW17830   1.562   2.264  11.326 -0.0594  0.2067 -0.2677
 2065SOL    HW117831   1.592   2.281  11.415 -0.2953  1.2669 -0.3949
 2065SOL    HW217832   1.641   2.226  11.287  1.4725  1.3712  1.7506
 2066SOL     OW17833   4.437   1.937   4.512  0.4688  0.1585  0.5728
 2066SOL    HW117834   4.367   1.879   4.541 -2.8270  3.7244 -0.3322
 2066SOL    HW217835   4.439   1.995   4.588  0.8922 -0.0555  0.7297
 2067SOL     OW17836   2.095   4.271  11.475 -0.3322 -0.3568 -0.2482
 2067SOL    HW117837   2.033   4.244  11.407  0.1146  0.7005 -1.0788
 2067SOL    HW217838   2.137   4.192  11.507 -1.6491 -1.3247 -0.9341
 2068SOL     OW17839   2.073   3.398   2.796  0.1453  0.9062 -0.3438
 2068SOL    HW117840   2.021   3.322   2.822 -0.8888  1.4610 -0.7882
 2068SOL    HW217841   2.107   3.431   2.879 -1.7255  1.4404  0.2089
 2069SOL     OW17842   3.886   1.128   1.910  0.0173 -0.1819 -0.7483
 2069SOL    HW117843   3.879   1.201   1.970  2.0193  1.2901 -2.3041
 2069SOL    HW217844   3.905   1.056   1.971 -0.8806  1.3104  1.2694
 2070SOL     OW17845   4.007   0.354   6.762  0.5438  0.0459  0.3378
 2070SOL    HW117846   4.019   0.426   6.825 -0.1107  0.7596 -0.3570
 2070SOL    HW217847   3.996   0.414   6.688 -1.0181 -0.6651  0.0024
 2071SOL     OW17848   1.693   2.783  17.054  0.6999  0.0393 -0.5787
 2071SOL    HW117849   1.728   2.723  16.988 -0.2042 -0.4079 -0.6535
 2071SOL    HW217850   1.705   2.716  17.121  0.6011 -1.9783 -2.5784
 2072SOL     OW17851   0.799   1.782   6.910  0.0439 -0.0455  0.1226
 2072SOL    HW117852   0.835   1.834   6.983 -2.6618  1.8550  0.0858
 2072SOL    HW217853   0.819   1.837   6.834 -0.9602  0.1687  0.0125
 2073SOL     OW17854   2.506   0.693  14.321 -0.5414  0.0647  0.2814
 2073SOL    HW117855   2.542   0.741  14.396 -3.4180  0.4534  1.3862
 2073SOL    HW217856   2.592   0.669  14.285 -0.2743  0.2468  0.7898
 2074SOL     OW17857   1.726   1.660  14.464 -0.0535  0.1126 -0.0174
 2074SOL    HW117858   1.648   1.709  14.439 -0.6512 -0.1702  1.3449
 2074SOL    HW217859   1.787   1.729  14.491  1.2011 -0.1718 -2.1042
 2075SOL     OW17860   1.634   0.509   5.983  0.3008  0.6158  0.5633
 2075SOL    HW117861   1.642   0.416   5.961  0.0716  0.2970  1.8110
 2075SOL    HW217862   1.590   0.515   6.068  0.7701 -0.5716  0.8876
 2076SOL     OW17863   1.906   0.546   2.013 -0.0680  0.3921  0.1381
 2076SOL    HW117864   1.822   0.580   2.044 -1.1267 -0.1709 -2.0492
 2076SOL    HW217865   1.939   0.628   1.975 -0.3304  0.5417  0.2324
 2077SOL     OW17866   3.196   0.352   4.386 -0.0879  0.0648  0.3136
 2077SOL    HW117867   3.126   0.361   4.450 -1.4810  0.7691 -1.3307
 2077SOL    HW217868   3.261   0.311   4.444  1.5687  0.5760 -1.1773
 2078SOL     OW17869   1.559   3.499   5.055  0.7672 -0.0012 -0.0850
 2078SOL    HW117870   1.510   3.487   4.973  1.2738 -3.2137  0.1068
 2078SOL    HW217871   1.489   3.528   5.114  1.8843  1.5130  0.4920
 2079SOL     OW17872   3.909   0.125  15.459  0.5246 -0.6065  0.2902
 2079SOL    HW117873   3.916   0.202  15.403 -2.2320 -2.1794 -2.1779
 2079SOL    HW217874   3.827   0.089  15.425  0.5380  0.0290 -0.4012
 2080SOL     OW17875   1.695   0.571  13.886 -0.4424  0.0679 -0.4713
 2080SOL    HW117876   1.649   0.622  13.819 -0.6835 -2.1183 -1.9807
 2080SOL    HW217877   1.648   0.491  13.863  0.8581 -0.7510 -0.2835
 2081SOL     OW17878   2.237   3.759   5.956  0.4320 -0.0698 -0.1332
 2081SOL    HW117879   2.195   3.673   5.962  0.0906  0.0349 -1.1830
 2081SOL    HW217880   2.177   3.816   5.908 -1.7281 -1.2383  1.1966
 2082SOL     OW17881   0.923   0.196   5.147  0.0722 -0.4665  0.3925
 2082SOL    HW117882   0.855   0.172   5.085  0.9130  1.0748 -1.1225
 2082SOL    HW217883   0.893   0.146   5.223  0.6459 -2.2898 -0.6014
 2083SOL     OW17884   1.464   3.276   1.514 -0.0656  0.0272 -0.1301
 2083SOL    HW117885   1.373   3.280   1.484 -0.9305  0.6000  2.5978
 2083SOL    HW217886   1.450   3.208   1.580  0.9892 -1.5983 -1.5731
 2084SOL     OW17887   1.159   1.827  14.408  0.0413  0.1480  0.0677
 2084SOL    HW117888   1.151   1.794  14.318 -3.0443 -0.6934  0.6497
 2084SOL    HW217889   1.098   1.779  14.464 -0.4899  0.8642  0.1106
 2085SOL     OW17890   4.010   4.634   9.859 -0.3744 -0.7370 -0.1097
 2085SOL    HW117891   4.039   4.549   9.827  0.8108 -0.9630  1.5605
 2085SOL    HW217892   3.915   4.624   9.861 -0.4212 -0.3731 -0.5607
 2086SOL     OW17893   2.753   2.072   4.147  0.3570  0.4688 -0.1189
 2086SOL    HW117894   2.814   2.144   4.166  0.2933  0.5109 -0.0745
 2086SOL    HW217895   2.737   2.097   4.056  2.0046 -0.8616 -0.7765
 2087SOL     OW17896   2.028   1.759   6.408 -0.1271  0.1964  0.5878
 2087SOL    HW117897   2.076   1.837   6.433  2.7922 -1.2047 -0.6709
 2087SOL    HW217898   2.087   1.685   6.420 -1.5601 -1.4171 -2.1808
 2088SOL     OW17899   2.411   0.946   1.713 -0.0177 -0.0126 -0.4053
 2088SOL    HW117900   2.426   0.907   1.627 -0.5719  0.6425 -0.7974
 2088SOL    HW217901   2.414   1.039   1.693 -2.6829  0.1003 -0.3287
 2089SOL     OW17902   3.816   2.688   8.837 -0.2766 -0.3349 -0.5517
 2089SOL    HW117903   3.874   2.763   8.849  2.0423 -1.7967 -2.7733
 2089SOL    HW217904   3.777   2.701   8.751  1.2178  0.4225 -1.1056
 2090SOL     OW17905   0.964   3.129   3.744  0.0628 -0.4335  0.3077
 2090SOL    HW117906   1.004   3.046   3.719  1.3965  0.4076 -0.3469
 2090SOL    HW217907   0.874   3.112   3.716  0.1893  2.5164 -1.9630
 2091SOL     OW17908   3.160   3.396   3.901  0.4797  0.0249 -0.2152
 2091SOL    HW117909   3.151   3.427   3.811  0.4956  2.1092  0.4956
 2091SOL    HW217910   3.088   3.334   3.900  0.3108  0.2434 -0.9128
 2092SOL     OW17911   2.416   1.106  14.235  0.1882 -0.2275  0.5373
 2092SOL    HW117912   2.501   1.121  14.276  0.6218  0.3101 -0.5559
 2092SOL    HW217913   2.425   1.161  14.157 -0.6766 -3.2099 -1.6486
 2093SOL     OW17914   4.511   4.669   4.419 -0.0792  0.1177 -0.3561
 2093SOL    HW117915   4.598   4.660   4.457 -1.4440  2.0234  3.1674
 2093SOL    HW217916   4.527   4.624   4.336  3.2649  2.3715 -0.9131
 2094SOL     OW17917   4.439   0.438   2.545  0.6061  0.3914  0.3078
 2094SOL    HW117918   4.359   0.391   2.523  0.1102  0.1833  2.5964
 2094SOL    HW217919   4.426   0.462   2.636  1.5738  1.0699  0.2772
 2095SOL     OW17920   1.378   4.085   8.521 -0.6846 -0.7801 -0.2071
 2095SOL    HW117921   1.345   3.995   8.524  0.1099 -1.1071 -1.8042
 2095SOL    HW217922   1.331   4.141   8.583 -0.9038  0.3863 -1.4343
 2096SOL     OW17923   0.012   0.900   6.893  0.3773  0.3338 -0.0722
 2096SOL    HW117924   0.102   0.910   6.862 -0.4580  3.8804 -1.3244
 2096SOL    HW217925   4.722   0.823   6.844  0.0133  0.0799  0.5328
 2097SOL     OW17926   4.479   4.264   3.398 -0.7760 -0.0273  0.5703
 2097SOL    HW117927   4.406   4.202   3.402 -2.6475  2.2012  0.7051
 2097SOL    HW217928   4.519   4.236   3.316 -2.9490 -0.2235 -0.4265
 2098SOL     OW17929   3.528   2.736   5.526 -0.1789  0.3163 -0.0796
 2098SOL    HW117930   3.466   2.789   5.476  0.0102  0.6809  0.0672
 2098SOL    HW217931   3.507   2.651   5.489  1.8760  0.9865 -2.7914
 2099SOL     OW17932   0.657   2.519   6.810  0.2758  0.2174 -0.2993
 2099SOL    HW117933   0.609   2.600   6.794 -1.0504 -0.7959 -1.4774
 2099SOL    HW217934   0.705   2.508   6.728  0.9597 -1.7526  0.3558
 2100SOL     OW17935   4.651   4.417  15.179  0.1152  0.4988  0.2643
 2100SOL    HW117936   4.652   4.322  15.191 -2.2175  0.8316  3.1020
 2100SOL    HW217937   0.007   4.428  15.167  0.2012  0.6045  1.0265
 2101SOL     OW17938   1.300   2.520   2.714  0.7140 -0.4514  0.5355
 2101SOL    HW117939   1.248   2.582   2.662  1.9862 -0.2445 -0.4911
 2101SOL    HW217940   1.302   2.442   2.659 -0.0221  0.7495 -1.2147
 2102SOL     OW17941   3.263   0.044   9.404 -0.1247  0.3287 -0.3214
 2102SOL    HW117942   3.258   4.690   9.376 -2.4861  0.1804  0.5769
 2102SOL    HW217943   3.217   0.081   9.329  1.3461  0.7393 -1.0251
 2103SOL     OW17944   1.058   3.101  14.656  0.0417  0.6939  0.5083
 2103SOL    HW117945   0.963   3.094  14.653  0.3229 -1.1786 -3.8128
 2103SOL    HW217946   1.073   3.194  14.636 -0.6313  0.5003 -0.8911
 2104SOL     OW17947   3.296   4.133   0.652  0.0631 -0.8258  0.1728
 2104SOL    HW117948   3.230   4.200   0.635  0.0648 -0.6058  1.0052
 2104SOL    HW217949   3.372   4.179   0.687 -0.0276 -0.7292  0.2439
 2105SOL     OW17950   2.110   2.361   4.001  0.3597 -0.7031  0.1048
 2105SOL    HW117951   2.160   2.279   3.996 -0.4004 -1.3092  2.4843
 2105SOL    HW217952   2.020   2.332   3.988  0.1671 -1.4829  3.0397
 2106SOL     OW17953   0.062   4.604   2.176  0.1852 -0.0674 -0.4603
 2106SOL    HW117954   0.121   4.642   2.111 -0.6239  0.8610 -0.6474
 2106SOL    HW217955   0.013   4.684   2.193  1.6969  0.5012  1.2772
 2107SOL     OW17956   1.686   2.956   3.663 -0.0952  0.3338  0.4991
 2107SOL    HW117957   1.718   2.867   3.651 -1.8259 -0.1038 -0.8198
 2107SOL    HW217958   1.626   2.942   3.736  0.8862 -0.8170  1.0895
 2108SOL     OW17959   3.008   2.755   3.404 -0.5647 -0.6368  0.1634
 2108SOL    HW117960   3.045   2.750   3.492  2.5894  0.1423 -1.1244
 2108SOL    HW217961   2.922   2.719   3.423 -0.8940  0.8455  1.4568
 2109SOL     OW17962   4.702   2.353   6.890  0.5083  0.1872 -0.1768
 2109SOL    HW117963   4.712   2.419   6.959 -0.5606 -0.1223  0.2797
 2109SOL    HW217964   4.608   2.338   6.889  0.2021  2.0807 -0.8648
 2110SOL     OW17965   3.299   3.091   6.615 -0.1159  0.5112 -0.3220
 2110SOL    HW117966   3.283   3.136   6.532 -0.3889  1.5206  0.2705
 2110SOL    HW217967   3.371   3.144   6.648  1.3132 -0.9209 -1.1900
 2111SOL     OW17968   1.229   1.528  13.802  0.4330  0.1800 -0.2365
 2111SOL    HW117969   1.222   1.437  13.774 -0.6310  0.7598 -1.8344
 2111SOL    HW217970   1.284   1.560  13.730  3.1077  0.8365  2.0820
 2112SOL     OW17971   1.481   3.785   9.385  0.2914 -0.0622 -0.4055
 2112SOL    HW117972   1.554   3.815   9.331  0.9499 -2.2712 -0.7273
 2112SOL    HW217973   1.532   3.765   9.464 -0.6224  0.5820  0.3529
 2113SOL     OW17974   3.966   1.714  14.222 -0.0457  0.1665  0.2998
 2113SOL    HW117975   4.011   1.788  14.263  1.8303 -0.4868 -0.5813
 2113SOL    HW217976   3.996   1.711  14.131  2.3310  1.0704  1.0820
 2114SOL     OW17977   4.080   2.921   8.474 -0.7727 -0.3555  0.0279
 2114SOL    HW117978   3.988   2.936   8.498 -0.9149 -0.5891 -0.3593
 2114SOL    HW217979   4.116   2.858   8.536  1.8804  1.7932  0.6689
 2115SOL     OW17980   1.951   4.394   1.001 -0.3214  0.0303  0.1859
 2115SOL    HW117981   1.893   4.467   0.975  0.9736  1.3736  1.0533
 2115SOL    HW217982   1.941   4.398   1.096 -1.9772 -0.5198  0.0456
 2116SOL     OW17983   1.168   2.191   7.553  0.0514  0.0915 -0.2431
 2116SOL    HW117984   1.148   2.246   7.629  2.1042  0.9490 -0.3352
 2116SOL    HW217985   1.245   2.235   7.518 -0.6693  2.6197  1.3653
 2117SOL     OW17986   2.199   0.399  13.840 -0.5897 -0.2747  0.4284
 2117SOL    HW117987   2.116   0.418  13.884 -2.0856 -0.5240 -2.2876
 2117SOL    HW217988   2.251   0.472  13.875  0.4933 -0.5710 -0.5720
 2118SOL     OW17989   2.869   2.434   7.116 -0.1385 -0.1315  0.2299
 2118SOL    HW117990   2.780   2.470   7.114 -0.0026  0.2393  1.5676
 2118SOL    HW217991   2.888   2.490   7.191  0.2129 -0.8311  0.6604
 2119SOL     OW17992   0.353   3.567  11.833  0.1471 -0.3623 -0.2216
 2119SOL    HW117993   0.347   3.617  11.751 -0.7572  1.4684  0.9757
 2119SOL    HW217994   0.440   3.601  11.854  0.0619  0.7019 -1.5602
 2120SOL     OW17995   4.477   3.431   8.672  0.1069  0.2303  0.1316
 2120SOL    HW117996   4.571   3.448   8.666 -0.1730  1.1162 -1.8264
 2120SOL    HW217997   4.452   3.442   8.764 -0.8223  1.2950 -0.2368
 2121SOL     OW17998   4.604   1.337   3.706 -0.3178 -0.6474  0.2634
 2121SOL    HW117999   4.634   1.404   3.645 -1.5003 -1.1877 -0.9000
 2121SOL    HW218000   4.619   1.259   3.652 -2.1758  0.3476 -1.6815
 2122SOL     OW18001   0.234   0.562   9.098 -0.0794  0.1586  0.5989
 2122SOL    HW118002   0.211   0.514   9.019  1.2389 -0.7649  0.7880
 2122SOL    HW218003   0.308   0.509   9.125  0.3956  0.8421  0.6432
 2123SOL     OW18004   4.224   1.648   2.440  0.9787 -0.4369  1.2623
 2123SOL    HW118005   4.146   1.668   2.491 -0.9464  0.2753 -1.9578
 2123SOL    HW218006   4.209   1.696   2.359 -0.1651 -0.6757  1.3433
 2124SOL     OW18007   3.090   1.897  13.803  0.4459  0.0888  0.6075
 2124SOL    HW118008   3.073   1.910  13.710 -1.2714 -0.3832  0.8678
 2124SOL    HW218009   3.120   1.985  13.828 -1.5801  0.8485  0.3548
 2125SOL     OW18010   4.602   1.465   9.324  0.0987  0.1055  0.2061
 2125SOL    HW118011   4.528   1.409   9.346 -0.9771  0.7846 -1.6400
 2125SOL    HW218012   4.606   1.523   9.400 -1.7831 -0.4707  0.7326
 2126SOL     OW18013   2.562   0.501   6.068 -0.0694 -0.2368  0.0324
 2126SOL    HW118014   2.556   0.582   6.119  0.7635 -0.9275  1.2334
 2126SOL    HW218015   2.472   0.482   6.044  0.0104 -0.2306 -0.2756
 2127SOL     OW18016   3.718   4.309  17.488 -0.5974 -0.0039 -0.1173
 2127SOL    HW118017   3.707   4.223  17.528  0.5300 -0.8253 -1.5601
 2127SOL    HW218018   3.646   4.317  17.426 -2.1335  1.6417  1.8763
 2128SOL     OW18019   0.363   4.268   1.508 -0.0330 -0.3448 -0.4001
 2128SOL    HW118020   0.348   4.350   1.554  1.1677 -0.7479  0.6857
 2128SOL    HW218021   0.333   4.200   1.568  0.8114 -0.2501  0.1299
 2129SOL     OW18022   2.977   3.279   1.405  0.1574  0.2793 -0.4872
 2129SOL    HW118023   3.030   3.201   1.421 -0.6151 -0.3762 -1.0730
 2129SOL    HW218024   3.049   3.341   1.413 -0.1863  1.0457 -3.2926
 2130SOL     OW18025   3.108   2.783   7.410 -0.2694  0.4697  0.0292
 2130SOL    HW118026   3.067   2.701   7.438  1.5815 -1.0033 -1.5022
 2130SOL    HW218027   3.193   2.754   7.375 -0.1488  2.7297 -1.5354
 2131SOL     OW18028   2.091   0.233   0.370  0.8074  0.9420  0.3609
 2131SOL    HW118029   2.125   0.237   0.281  3.9128 -0.7302  1.4696
 2131SOL    HW218030   1.998   0.229   0.349  1.3466 -2.8236 -1.2479
 2132SOL     OW18031   2.400   1.061   4.801  0.3856  0.1671  0.1996
 2132SOL    HW118032   2.365   1.062   4.712  0.8081 -1.3298  0.0116
 2132SOL    HW218033   2.414   0.968   4.818 -2.5289 -0.2613  0.1521
 2133SOL     OW18034   2.086   2.720   3.031 -0.2755 -0.4277  0.1303
 2133SOL    HW118035   2.100   2.788   3.097 -0.6084  0.5854 -0.8407
 2133SOL    HW218036   2.175   2.689   3.018 -0.1103  0.3769 -0.7248
 2134SOL     OW18037   3.542   4.163   4.349  0.0174  0.0589 -0.0133
 2134SOL    HW118038   3.528   4.170   4.443  1.1477  0.6363  0.1109
 2134SOL    HW218039   3.509   4.248   4.320 -0.8505  0.2566  1.6075
 2135SOL     OW18040   1.508   0.738   2.494  0.4195  0.1893 -0.7598
 2135SOL    HW118041   1.561   0.735   2.574  0.4980 -0.9561 -0.8651
 2135SOL    HW218042   1.568   0.674   2.457 -0.9384 -1.7244  0.3574
 2136SOL     OW18043   4.630   2.035   5.324  0.1331 -0.2106  0.4078
 2136SOL    HW118044   4.684   1.957   5.338  1.5582  0.4799 -1.1701
 2136SOL    HW218045   4.603   2.056   5.413  0.2293  0.0631  0.3726
 2137SOL     OW18046   2.471   1.019   9.507  0.1095 -0.4105  0.4366
 2137SOL    HW118047   2.541   0.975   9.459 -0.4635 -1.5945  0.7042
 2137SOL    HW218048   2.487   1.111   9.483 -0.1377 -0.6241 -0.5423
 2138SOL     OW18049   0.834   3.344   4.960  0.3673  0.2205  0.6423
 2138SOL    HW118050   0.802   3.260   4.993 -0.0825  0.0923 -0.1210
 2138SOL    HW218051   0.761   3.401   4.985 -0.3999 -0.4091 -0.1958
 2139SOL     OW18052   2.077   4.550  10.415  0.0019 -0.1405 -0.8410
 2139SOL    HW118053   2.036   4.625  10.373 -0.4398  0.3237  0.4040
 2139SOL    HW218054   2.028   4.473  10.385  1.8027 -1.2487 -0.9085
 2140SOL     OW18055   1.585   0.358   8.750  0.5825 -0.4019 -0.2822
 2140SOL    HW118056   1.619   0.278   8.710 -0.4451 -0.3676 -1.2292
 2140SOL    HW218057   1.649   0.420   8.714  0.2526  0.5201  0.7138
 2141SOL     OW18058   2.205   2.263   7.975 -0.7567  0.7244  0.2448
 2141SOL    HW118059   2.181   2.177   7.940  0.6572  0.9313 -1.2478
 2141SOL    HW218060   2.250   2.238   8.055  1.0035 -1.6609 -1.4621
 2142SOL     OW18061   0.743   1.773   1.378  0.2032  0.1215  0.1751
 2142SOL    HW118062   0.667   1.821   1.411  0.4730 -0.7102  2.0124
 2142SOL    HW218063   0.815   1.811   1.430 -1.1504  1.5623  1.0099
 2143SOL     OW18064   1.331   1.207   1.355 -0.2398  0.5470  0.5415
 2143SOL    HW118065   1.397   1.174   1.416  1.3766 -0.7784 -1.9098
 2143SOL    HW218066   1.379   1.189   1.274  1.0433  0.4327  1.3270
 2144SOL     OW18067   1.082   0.695   5.357  0.4624  0.0921  0.1622
 2144SOL    HW118068   1.067   0.781   5.396  3.1169  0.1856  1.0330
 2144SOL    HW218069   1.081   0.645   5.439  0.3373  1.6319  1.1048
 2145SOL     OW18070   2.953   2.495   6.858  0.8883  0.7468 -0.2848
 2145SOL    HW118071   2.925   2.480   6.949  2.6206  1.5033  0.3663
 2145SOL    HW218072   2.963   2.402   6.837  0.7892  1.2802 -2.6525
 2146SOL     OW18073   1.142   4.390   8.329  0.2004 -0.4670  0.1634
 2146SOL    HW118074   1.195   4.457   8.285 -2.1115  2.5135  1.8846
 2146SOL    HW218075   1.055   4.421   8.306  0.3197 -0.0716  0.2445
 2147SOL     OW18076   3.607   4.735   3.062 -0.2853 -0.2278  0.1020
 2147SOL    HW118077   3.524   0.045   3.063 -1.6092 -2.5298 -0.1193
 2147SOL    HW218078   3.650   0.018   2.979 -1.2222  0.1054 -0.3076
 2148SOL     OW18079   4.654   3.708   5.068 -0.1738 -0.0963  0.1270
 2148SOL    HW118080   4.699   3.644   5.123  0.5355 -1.7487 -2.3616
 2148SOL    HW218081   4.680   3.676   4.981  2.8680  1.0007  0.6407
 2149SOL     OW18082   3.683   0.811   3.061 -0.0375 -0.3040 -0.3398
 2149SOL    HW118083   3.671   0.757   2.983  1.8017  0.2496 -1.0113
 2149SOL    HW218084   3.642   0.893   3.033  1.6715  0.7752  0.3081
 2150SOL     OW18085   4.718   4.229   4.442  0.0732  0.0118  0.1337
 2150SOL    HW118086   4.685   4.260   4.527 -0.5469 -1.9467  0.6099
 2150SOL    HW218087   4.650   4.261   4.383  1.3868  2.1240 -0.2500
 2151SOL     OW18088   3.784   0.183   4.727 -0.2344 -0.5161  0.5719
 2151SOL    HW118089   3.698   0.162   4.763 -0.3449  0.5658  0.9434
 2151SOL    HW218090   3.769   0.156   4.636  1.9604  1.7815 -0.4643
 2152SOL     OW18091   0.257   3.708   6.571 -0.3134 -0.0799  0.0479
 2152SOL    HW118092   0.329   3.734   6.513 -0.2851 -0.4881 -0.1003
 2152SOL    HW218093   0.187   3.668   6.519 -1.5785 -0.4839  2.0879
 2153SOL     OW18094   3.622   2.884   6.939  0.5609  0.0149 -0.0082
 2153SOL    HW118095   3.696   2.914   6.886  2.1549  0.4687  2.4819
 2153SOL    HW218096   3.662   2.878   7.025  0.1786 -2.5743 -0.0094
 2154SOL     OW18097   3.104   0.405   1.267  0.5772 -0.7736 -0.2258
 2154SOL    HW118098   3.062   0.391   1.182 -0.2315 -0.0616  0.0567
 2154SOL    HW218099   3.094   0.317   1.301 -0.1866 -0.5039  0.2525
 2155SOL     OW18100   2.276   0.346   2.519 -0.7668  0.1351 -0.0369
 2155SOL    HW118101   2.350   0.362   2.460 -1.2853 -0.2037 -0.7763
 2155SOL    HW218102   2.213   0.411   2.487 -1.0035 -0.4432 -0.7471
 2156SOL     OW18103   4.376   0.129  12.982  0.1484  0.4108  0.1879
 2156SOL    HW118104   4.363   0.223  12.968  1.5004  0.4358 -0.9405
 2156SOL    HW218105   4.288   0.105  13.009  1.1109 -2.2420  0.9284
 2157SOL     OW18106   2.247   4.363   8.844 -0.2964 -0.3616 -0.3754
 2157SOL    HW118107   2.184   4.383   8.774  0.5932  0.5042 -0.9466
 2157SOL    HW218108   2.218   4.415   8.919 -1.9882  0.2896 -1.4787
 2158SOL     OW18109   0.495   2.407   1.665 -0.0902 -0.2578 -0.1877
 2158SOL    HW118110   0.409   2.444   1.649 -0.0868  0.1383  0.6802
 2158SOL    HW218111   0.545   2.487   1.682  2.6437 -1.9193 -0.3701
 2159SOL     OW18112   2.387   1.232   7.604  0.0657  0.5654  0.7290
 2159SOL    HW118113   2.482   1.227   7.609  0.0108  0.9032  2.1667
 2159SOL    HW218114   2.375   1.321   7.636 -0.8290  1.4162 -1.9606
 2160SOL     OW18115   2.090   1.651  10.186  0.3640 -0.0851  0.2235
 2160SOL    HW118116   2.048   1.575  10.226  0.4389 -0.4828 -0.4546
 2160SOL    HW218117   2.182   1.625  10.183 -0.1931 -2.1082  0.5568
 2161SOL     OW18118   2.418   1.761  14.694 -0.3103 -0.0722  0.8292
 2161SOL    HW118119   2.362   1.837  14.680 -0.3119  0.0248  1.3794
 2161SOL    HW218120   2.351   1.695  14.713 -0.2235 -0.6809 -0.9568
 2162SOL     OW18121   1.040   2.154   4.207 -0.2854 -0.3310  0.1948
 2162SOL    HW118122   1.006   2.233   4.249 -0.1249  0.1724 -0.6164
 2162SOL    HW218123   0.988   2.158   4.127  0.3318 -1.1568 -0.2532
 2163SOL     OW18124   4.300   4.501  14.672  0.3250  0.1636 -0.0025
 2163SOL    HW118125   4.357   4.574  14.648  0.0815  0.1773 -0.5557
 2163SOL    HW218126   4.330   4.480  14.760 -1.6524  0.8628  0.8577
 2164SOL     OW18127   2.049   0.073  10.887  0.0425 -0.1456 -0.3038
 2164SOL    HW118128   2.070   0.024  10.808  0.8467  1.0564 -0.8322
 2164SOL    HW218129   2.134   0.062  10.930  0.0454 -1.3379 -0.6243
 2165SOL     OW18130   2.810   0.456  11.890 -0.6985  0.5848  0.1150
 2165SOL    HW118131   2.859   0.533  11.861  0.7064 -0.5733 -0.5815
 2165SOL    HW218132   2.767   0.436  11.807 -1.7428 -0.1202  0.8276
 2166SOL     OW18133   0.531   1.483   8.986 -0.3812 -0.5227  0.2286
 2166SOL    HW118134   0.457   1.468   8.928  1.0001  1.4920 -2.0680
 2166SOL    HW218135   0.500   1.560   9.034 -0.6487  0.2356 -1.1537
 2167SOL     OW18136   4.126   3.460  13.290  0.2726  0.0385 -0.0440
 2167SOL    HW118137   4.196   3.467  13.225  0.4606 -0.9207  0.0477
 2167SOL    HW218138   4.130   3.544  13.334 -0.9924  0.2248 -0.3037
 2168SOL     OW18139   0.885   1.444   4.545 -0.7792  0.0299 -0.1480
 2168SOL    HW118140   0.874   1.437   4.640 -1.7650 -0.2500 -0.2804
 2168SOL    HW218141   0.815   1.390   4.508 -1.2181 -1.3986  2.7334
 2169SOL     OW18142   1.805   1.538   7.800  0.4110  0.4716  0.7131
 2169SOL    HW118143   1.767   1.574   7.720 -0.4301 -2.1040 -0.0757
 2169SOL    HW218144   1.855   1.462   7.768  0.4576 -0.2869  2.5737
 2170SOL     OW18145   0.086   4.487  16.318 -0.0965  0.0132 -0.4967
 2170SOL    HW118146   0.158   4.430  16.292  0.4381  1.4798 -2.2324
 2170SOL    HW218147   0.078   4.466  16.411 -1.6779 -1.3325 -0.9508
 2171SOL     OW18148   2.166   4.485   2.737 -0.4589 -0.5506  0.5552
 2171SOL    HW118149   2.115   4.496   2.657  1.6787  0.3226 -0.6970
 2171SOL    HW218150   2.121   4.408   2.772 -0.2824 -0.2437  1.4538
 2172SOL     OW18151   1.233   0.979   0.005  0.2838  0.0619  0.0465
 2172SOL    HW118152   1.304   0.965   0.068 -0.3907 -1.7204  0.3987
 2172SOL    HW218153   1.178   1.031   0.063 -2.0834 -0.4153 -1.7856
 2173SOL     OW18154   1.565   3.693   7.407 -0.5462  0.7883 -0.8005
 2173SOL    HW118155   1.629   3.683   7.336 -0.9595 -2.9375 -0.6517
 2173SOL    HW218156   1.494   3.632   7.386  1.4216 -1.4618 -1.0123
 2174SOL     OW18157   1.216   4.125   8.231 -0.0728 -0.1475 -0.2173
 2174SOL    HW118158   1.300   4.165   8.254  0.0752 -2.0272  2.5261
 2174SOL    HW218159   1.165   4.180   8.290 -0.7754 -2.4712  1.3498
 2175SOL     OW18160   2.297   2.208  17.596 -0.1806 -0.5421 -0.5116
 2175SOL    HW118161   2.240   2.285  17.604 -2.9730 -2.5263 -1.2316
 2175SOL    HW218162   2.245   2.136  17.632  0.6700 -1.1135 -0.4288
 2176SOL     OW18163   2.119   0.350   9.602  0.1386 -0.1695 -0.8119
 2176SOL    HW118164   2.106   0.422   9.540 -1.2462  0.5963  0.3838
 2176SOL    HW218165   2.109   0.275   9.542 -1.1487  0.1344 -0.9881
 2177SOL     OW18166   4.022   2.418   5.004 -0.5109  0.4241  0.0546
 2177SOL    HW118167   3.935   2.377   5.000 -0.5653  0.6699 -1.2807
 2177SOL    HW218168   4.085   2.346   5.010 -0.5870  0.4616  1.2232
 2178SOL     OW18169   2.063   1.718  15.485 -0.2529  0.1251  0.3030
 2178SOL    HW118170   2.085   1.628  15.508 -0.3037 -0.2830 -1.1945
 2178SOL    HW218171   1.990   1.704  15.424 -0.2894 -0.1335  0.4046
 2179SOL     OW18172   3.563   4.678  16.246  0.5284  0.0389  0.3219
 2179SOL    HW118173   3.525   0.007  16.189 -1.4458 -1.5540 -0.2242
 2179SOL    HW218174   3.642   4.731  16.258  0.5560 -0.4320  2.3022
 2180SOL     OW18175   0.948   3.946   4.546 -0.3082  0.4458  0.5006
 2180SOL    HW118176   1.039   3.916   4.546 -0.9080 -1.3477 -2.2511
 2180SOL    HW218177   0.909   3.872   4.593 -0.3808  0.9020  1.1620
 2181SOL     OW18178   4.430   2.797   5.063  0.1740 -0.3854  0.0405
 2181SOL    HW118179   4.351   2.760   5.023 -1.1835  1.4059  1.0958
 2181SOL    HW218180   4.393   2.871   5.111 -0.3126  0.6167 -1.8660
 2182SOL     OW18181   0.395   2.416   4.553 -0.4924  0.5439  0.0093
 2182SOL    HW118182   0.432   2.352   4.492 -0.1405  0.8727 -0.1188
 2182SOL    HW218183   0.343   2.368   4.618 -0.1509  1.1547  0.7303
 2183SOL     OW18184   4.420   0.793  11.925  0.0493 -0.2090  0.0112
 2183SOL    HW118185   4.378   0.803  11.840 -0.2242  1.7746  0.3850
 2183SOL    HW218186   4.368   0.851  11.981  0.1627  0.3943 -0.5120
 2184SOL     OW18187   3.092   0.833   4.716  0.4215 -0.0185 -0.6170
 2184SOL    HW118188   3.032   0.854   4.787 -0.1229 -0.5839 -0.9159
 2184SOL    HW218189   3.105   0.918   4.673  2.4357 -1.2518 -2.4661
 2185SOL     OW18190   1.829   3.869   5.163 -0.2623 -0.0784 -0.1486
 2185SOL    HW118191   1.839   3.931   5.090  2.0705  0.9574  1.0660
 2185SOL    HW218192   1.736   3.852   5.148 -0.1050  0.3245 -1.5769
 2186SOL     OW18193   4.271   2.995   5.211  0.1451  0.2668 -0.0806
 2186SOL    HW118194   4.277   3.071   5.269 -0.1887 -1.2881  1.9619
 2186SOL    HW218195   4.195   2.952   5.247 -0.9916  1.1538 -1.3874
 2187SOL     OW18196   0.834   4.284   6.546 -0.3457 -0.1169 -0.1140
 2187SOL    HW118197   0.922   4.298   6.582 -0.0787  0.0016 -0.8212
 2187SOL    HW218198   0.806   4.375   6.545 -0.3239 -0.1090  0.0302
 2188SOL     OW18199   4.543   4.283   2.003  0.1716 -0.4044 -0.6452
 2188SOL    HW118200   4.583   4.312   2.086  1.0872 -0.3377 -1.1093
 2188SOL    HW218201   4.539   4.188   2.014  0.8152 -0.4796 -1.0486
 2189SOL     OW18202   1.364   3.381   5.369  0.0610 -0.6505  0.4044
 2189SOL    HW118203   1.276   3.399   5.337 -0.1375 -1.4124  0.5213
 2189SOL    HW218204   1.395   3.308   5.314 -0.5073 -0.2170 -0.4878
 2190SOL     OW18205   2.169   0.666   6.963 -0.1901  0.2326 -0.3624
 2190SOL    HW118206   2.255   0.707   6.966 -0.1177  0.1594 -1.5992
 2190SOL    HW218207   2.159   0.648   7.057  1.3699  0.2867 -0.1797
 2191SOL     OW18208   0.425   1.868   8.582 -0.7604  0.0852 -0.8227
 2191SOL    HW118209   0.503   1.816   8.602  0.0685  1.5205 -0.3194
 2191SOL    HW218210   0.397   1.887   8.671  0.4321  1.5320 -0.7600
 2192SOL     OW18211   1.675   4.711   3.416 -0.8237 -0.0219  0.1320
 2192SOL    HW118212   1.692   0.040   3.350  0.2620 -0.1357  0.3020
 2192SOL    HW218213   1.636   0.025   3.487  1.4218 -1.2486  2.2608
 2193SOL     OW18214   2.087   4.586   7.531 -0.4090  0.2899  0.5206
 2193SOL    HW118215   2.153   4.586   7.600  0.6511 -2.1469 -0.4603
 2193SOL    HW218216   2.038   4.504   7.541 -0.8870  0.3566 -1.2187
 2194SOL     OW18217   2.385   1.672   2.552 -0.1783 -0.5340 -0.3842
 2194SOL    HW118218   2.396   1.676   2.647  0.6366  1.1273 -0.5496
 2194SOL    HW218219   2.302   1.625   2.549 -0.7077  0.3928  0.0387
 2195SOL     OW18220   4.462   1.186  15.483 -0.7814 -0.7257 -0.3561
 2195SOL    HW118221   4.512   1.257  15.444  0.3176 -2.5577 -2.3200
 2195SOL    HW218222   4.511   1.109  15.452  0.6453  1.0951 -2.5969
 2196SOL     OW18223   4.572   3.482   5.332 -0.9603 -0.2454  0.0996
 2196SOL    HW118224   4.564   3.468   5.238 -1.9699  0.1619  0.1267
 2196SOL    HW218225   4.528   3.406   5.372 -0.5898 -0.5506 -0.0692
 2197SOL     OW18226   3.534   1.148   2.638  0.1142  0.2044 -0.2054
 2197SOL    HW118227   3.626   1.157   2.663  0.1617 -0.7951 -0.0064
 2197SOL    HW218228   3.544   1.142   2.543  2.5054 -0.5473  0.0881
 2198SOL     OW18229   1.486   2.984   3.426 -0.5502  0.6032  0.4123
 2198SOL    HW118230   1.521   2.935   3.352  0.2612  1.7792  0.0144
 2198SOL    HW218231   1.563   2.983   3.484 -0.1662  0.6836 -0.0959
 2199SOL     OW18232   3.206   2.466   2.156 -0.2948 -0.1113  0.3497
 2199SOL    HW118233   3.115   2.496   2.158 -1.0171 -1.8816 -4.0570
 2199SOL    HW218234   3.231   2.495   2.243  1.7067  1.6315 -0.8139
 2200SOL     OW18235   1.741   3.544   3.110  0.2438  0.3941 -0.1217
 2200SOL    HW118236   1.751   3.630   3.068  0.7573 -1.0202 -2.9020
 2200SOL    HW218237   1.774   3.557   3.199 -1.1272 -0.8254  0.5574
 2201SOL     OW18238   0.987   3.026   4.188  0.4990  0.0116  0.2507
 2201SOL    HW118239   0.973   2.947   4.135  2.2912  0.8966 -1.5449
 2201SOL    HW218240   1.026   3.081   4.120 -1.0246  0.1528 -0.5059
 2202SOL     OW18241   1.088   1.663   4.116  0.5034  0.1013  0.1846
 2202SOL    HW118242   1.050   1.751   4.121 -0.2290 -0.3398  2.2469
 2202SOL    HW218243   1.023   1.602   4.152 -0.8609  1.0199 -0.6988
 2203SOL     OW18244   3.843   4.091  12.727 -0.4603 -0.0514  0.2982
 2203SOL    HW118245   3.773   4.065  12.667 -0.7306 -0.0057  0.5952
 2203SOL    HW218246   3.910   4.028  12.700  0.2901 -0.0200  2.0812
 2204SOL     OW18247   2.523   1.350   4.890 -0.0803 -0.1406  0.7335
 2204SOL    HW118248   2.609   1.390   4.876 -0.1987 -0.1903 -0.1834
 2204SOL    HW218249   2.474   1.398   4.824 -1.2187 -0.3167  1.4601
 2205SOL     OW18250   4.360   4.348   5.484 -0.1953  0.0709 -0.1104
 2205SOL    HW118251   4.331   4.437   5.464  1.0410  0.3532 -0.6415
 2205SOL    HW218252   4.393   4.317   5.399 -0.6110  0.4779 -0.4208
 2206SOL     OW18253   3.686   0.685   1.304  0.1731  0.2180  0.4071
 2206SOL    HW118254   3.775   0.677   1.270  0.0743  0.9010  0.0009
 2206SOL    HW218255   3.681   0.615   1.369  1.1742 -2.4326 -2.3498
 2207SOL     OW18256   2.860   2.647   7.658 -0.2493 -0.7031  0.1032
 2207SOL    HW118257   2.829   2.676   7.744 -1.1602  0.4877 -0.6194
 2207SOL    HW218258   2.881   2.554   7.667 -1.5990 -0.9370  0.8843
 2208SOL     OW18259   2.644   4.733   6.557 -1.1181 -0.1786  0.4435
 2208SOL    HW118260   2.623   4.646   6.522  2.3485 -1.1532  0.7871
 2208SOL    HW218261   2.721   4.711   6.609 -1.8961 -1.4575  1.0807
 2209SOL     OW18262   1.509   1.508   0.338 -0.0973 -0.1430 -0.1440
 2209SOL    HW118263   1.447   1.504   0.265 -1.6295  0.8456  1.1082
 2209SOL    HW218264   1.493   1.424   0.380 -0.8413  0.6615  1.1539
 2210SOL     OW18265   3.387   1.451   7.004  0.0605 -0.4330  0.0458
 2210SOL    HW118266   3.345   1.479   6.923 -3.6503 -1.8705  1.4946
 2210SOL    HW218267   3.479   1.435   6.980  0.6832  0.1390  2.0790
 2211SOL     OW18268   3.407   0.620  10.079  0.0551  0.1148 -0.2132
 2211SOL    HW118269   3.365   0.535  10.088 -2.3053  1.2774 -0.3481
 2211SOL    HW218270   3.333   0.681  10.077  0.6265  0.8459  0.8044
 2212SOL     OW18271   4.045   3.942   5.379 -0.5825 -0.6024 -0.0397
 2212SOL    HW118272   4.078   4.032   5.371 -0.1289 -0.8885 -1.3708
 2212SOL    HW218273   4.012   3.948   5.468 -1.2024 -2.0362 -0.1651
 2213SOL     OW18274   1.157   4.383   6.002 -0.3018  0.4278 -0.5796
 2213SOL    HW118275   1.108   4.368   5.921 -1.0032  0.5877 -0.1881
 2213SOL    HW218276   1.213   4.460   5.990 -0.3740  0.8248  1.6475
 2214SOL     OW18277   4.630   3.111   9.304 -0.1361 -0.3990  0.6932
 2214SOL    HW118278   4.563   3.179   9.296 -1.3925 -1.5316  1.5404
 2214SOL    HW218279   4.685   3.155   9.368  1.4597 -1.3800  0.0051
 2215SOL     OW18280   2.682   3.765   9.343 -0.1771  0.0158  0.3237
 2215SOL    HW118281   2.687   3.817   9.263 -0.9103 -2.1961 -1.1403
 2215SOL    HW218282   2.651   3.828   9.408  0.7679  0.6787  0.1329
 2216SOL     OW18283   0.551   3.122   5.437  0.1053 -0.2336  0.3003
 2216SOL    HW118284   0.462   3.129   5.472 -0.3237  0.1235 -0.8779
 2216SOL    HW218285   0.605   3.132   5.516  1.3752  0.6716 -0.6893
 2217SOL     OW18286   0.070   2.594   7.518  0.0385  0.2992  0.0388
 2217SOL    HW118287   0.163   2.603   7.541 -0.6805 -0.9526  3.4521
 2217SOL    HW218288   0.031   2.535   7.583 -1.9669  0.3914 -1.0779
 2218SOL     OW18289   0.402   1.444  10.374  0.4800 -0.0698 -0.2212
 2218SOL    HW118290   0.427   1.439  10.466 -1.7352 -3.5431  0.1744
 2218SOL    HW218291   0.380   1.353  10.356 -0.0786 -0.1224  0.7422
 2219SOL     OW18292   4.429   0.376   3.178  0.1800  0.2054  0.5629
 2219SOL    HW118293   4.425   0.292   3.224  1.0516  1.5512  3.1049
 2219SOL    HW218294   4.477   0.358   3.098 -1.1708  0.0203 -0.2086
 2220SOL     OW18295   0.310   2.821   8.647  0.0609 -0.3041  0.0659
 2220SOL    HW118296   0.232   2.820   8.593  1.1268 -0.6831 -1.4685
 2220SOL    HW218297   0.349   2.734   8.636  1.2379  0.3767 -1.1802
 2221SOL     OW18298   2.109   1.325   8.136 -0.4031 -0.4530 -0.0855
 2221SOL    HW118299   2.023   1.335   8.094 -2.5735 -2.8552  3.7563
 2221SOL    HW218300   2.103   1.390   8.205  1.0596  2.0532 -2.3426
 2222SOL     OW18301   4.051   3.864   4.267 -0.0577  0.7091  0.5254
 2222SOL    HW118302   4.034   3.868   4.361 -0.0954  1.2949  0.4954
 2222SOL    HW218303   4.143   3.889   4.276 -0.3825  2.3405 -0.7775
 2223SOL     OW18304   2.715   2.546   5.606 -0.4728  0.3570  0.3185
 2223SOL    HW118305   2.638   2.499   5.639 -0.0008 -1.0688 -0.6242
 2223SOL    HW218306   2.699   2.524   5.514 -0.1635  0.6491  0.1988
 2224SOL     OW18307   1.542   2.035   2.008 -0.5367  0.6677  0.0295
 2224SOL    HW118308   1.573   2.024   2.098 -1.6399 -3.0122 -0.0458
 2224SOL    HW218309   1.622   2.055   1.959 -0.4774 -2.2696 -1.0781
 2225SOL     OW18310   4.735   0.947   4.369 -0.3407 -0.5061 -0.1700
 2225SOL    HW118311   4.723   0.859   4.332  0.9114 -0.1222 -1.5088
 2225SOL    HW218312   0.081   0.967   4.326 -0.1938  0.9679  0.7966
 2226SOL     OW18313   3.413   4.611   7.606  0.0275 -0.0846  0.1859
 2226SOL    HW118314   3.373   4.546   7.548  2.6599 -2.4966  1.0085
 2226SOL    HW218315   3.484   4.627   7.544 -0.6390 -2.5525 -1.2026
 2227SOL     OW18316   2.520   1.968  14.381  0.4270  0.1530  0.1367
 2227SOL    HW118317   2.514   1.982  14.287 -0.2686  0.1320  0.1790
 2227SOL    HW218318   2.445   1.911  14.397  1.8346 -2.0509 -1.1062
 2228SOL     OW18319   2.952   3.907  12.881 -0.0438 -0.3795  0.1283
 2228SOL    HW118320   2.934   3.864  12.797  0.3499 -0.3424  0.0263
 2228SOL    HW218321   3.018   3.846  12.912  0.7062 -0.8604 -2.3949
 2229SOL     OW18322   1.230   3.307   2.066  0.7771 -0.5022  0.1463
 2229SOL    HW118323   1.192   3.351   1.991 -0.2220  0.1159  1.0114
 2229SOL    HW218324   1.215   3.367   2.139  0.8947 -0.6990  0.3323
 2230SOL     OW18325   3.952   4.338   2.152 -0.1255 -0.6269 -0.5861
 2230SOL    HW118326   3.946   4.342   2.056  0.3683  0.6791 -0.5618
 2230SOL    HW218327   3.894   4.264   2.172  1.0768 -1.3622  0.1548
 2231SOL     OW18328   1.989   2.660  15.364 -0.2841 -0.1810  1.0101
 2231SOL    HW118329   1.988   2.755  15.350 -1.0402 -0.5180 -1.2358
 2231SOL    HW218330   2.069   2.653  15.416  0.2779 -0.9405  0.0280
 2232SOL     OW18331   4.456   4.526   4.094 -0.0189  0.1327 -0.1248
 2232SOL    HW118332   4.433   4.566   4.010  1.6290  2.8122  0.6859
 2232SOL    HW218333   4.551   4.540   4.090  0.1695 -1.1091 -0.0294
 2233SOL     OW18334   3.675   4.575   6.196  0.4693  0.4638 -0.3615
 2233SOL    HW118335   3.670   4.486   6.231  1.9269  0.4442 -0.1944
 2233SOL    HW218336   3.625   4.564   6.115  0.1904 -1.9660  0.1330
 2234SOL     OW18337   1.577   4.443  15.030 -0.2689 -0.2095  0.0854
 2234SOL    HW118338   1.594   4.421  14.938  0.6274 -3.2983  0.9874
 2234SOL    HW218339   1.569   4.537  15.019  3.5784  0.3555  2.0662
 2235SOL     OW18340   2.767   4.665   8.810  0.2976  0.1218 -0.1679
 2235SOL    HW118341   2.754   4.734   8.745 -0.7449 -1.6986 -1.8984
 2235SOL    HW218342   2.675   4.649   8.830  0.7396 -0.4184  1.4288
 2236SOL     OW18343   0.199   0.257   8.669  0.7241  0.2004  0.0584
 2236SOL    HW118344   0.137   0.189   8.697  0.4931 -0.2900 -1.5992
 2236SOL    HW218345   0.166   0.289   8.585  0.9524  1.1374  0.3321
 2237SOL     OW18346   0.611   0.900   6.342  0.0678  0.0051  0.0480
 2237SOL    HW118347   0.641   0.837   6.407 -2.6072 -2.9664 -1.6340
 2237SOL    HW218348   0.650   0.876   6.259  1.9264  0.7596  0.7048
 2238SOL     OW18349   4.719   2.388   9.958 -0.0582  0.7996 -0.0745
 2238SOL    HW118350   4.729   2.315   9.898  2.2446  1.4701 -0.5044
 2238SOL    HW218351   4.683   2.334  10.029  1.8943  2.4552  2.1611
 2239SOL     OW18352   4.297   1.526   8.691 -0.0984  0.4387  0.0208
 2239SOL    HW118353   4.236   1.461   8.658  1.3019 -0.8793  0.0340
 2239SOL    HW218354   4.374   1.470   8.701 -0.3233 -0.0137 -0.7441
 2240SOL     OW18355   2.118   3.012  17.602  0.4336  0.5226  1.2130
 2240SOL    HW118356   2.204   3.054  17.605  0.3082  0.8413  0.4869
 2240SOL    HW218357   2.067   3.093  17.604 -2.1699 -0.9977 -2.3600
 2241SOL     OW18358   4.640   0.513  11.017 -0.2101  0.6221 -0.9230
 2241SOL    HW118359   4.714   0.470  10.974  0.8115  1.4590 -0.0156
 2241SOL    HW218360   4.598   0.569  10.952 -1.2915 -0.8587 -1.5149
 2242SOL     OW18361   2.998   0.317   7.181 -0.2093 -0.7595 -0.3086
 2242SOL    HW118362   2.977   0.240   7.234 -1.0437  0.0165  0.4881
 2242SOL    HW218363   2.976   0.374   7.255 -0.4293 -3.0038  1.3725
 2243SOL     OW18364   3.198   2.381  17.068  0.5630 -0.4818 -0.5249
 2243SOL    HW118365   3.196   2.438  16.992 -1.0212  0.9548  0.6028
 2243SOL    HW218366   3.105   2.358  17.068  0.1260  1.3205 -4.4045
 2244SOL     OW18367   1.321   0.937   8.583 -0.0137 -0.3615 -0.0596
 2244SOL    HW118368   1.344   0.850   8.550 -1.6267 -1.3119  1.3641
 2244SOL    HW218369   1.350   0.936   8.674 -0.4199  1.8187  0.1086
 2245SOL     OW18370   0.218   0.534  13.724 -0.3501  1.0902 -0.1832
 2245SOL    HW118371   0.160   0.462  13.748  1.9916 -0.3664  1.1509
 2245SOL    HW218372   0.254   0.570  13.806 -0.7790  0.0573  0.4525
 2246SOL     OW18373   4.705   2.049   1.623 -0.4880 -0.0285 -0.7248
 2246SOL    HW118374   0.047   2.040   1.571 -0.9764  1.5458 -1.7265
 2246SOL    HW218375   4.642   1.992   1.578 -1.4406  0.9626 -0.6460
 2247SOL     OW18376   3.518   3.765   0.747  0.1523 -0.2631  0.2913
 2247SOL    HW118377   3.561   3.701   0.805  2.9957 -0.5266 -2.1202
 2247SOL    HW218378   3.522   3.711   0.668  2.7594  1.1818 -0.5581
 2248SOL     OW18379   0.036   4.429   3.258  0.2083  0.1103  0.1496
 2248SOL    HW118380   4.704   4.373   3.227 -1.2041  1.0442  1.6629
 2248SOL    HW218381   4.731   4.514   3.251  2.7524  1.3656 -0.3484
 2249SOL     OW18382   1.611   0.396   7.735 -0.6454  0.9698 -0.2244
 2249SOL    HW118383   1.675   0.335   7.697  0.2308  2.2928 -0.8668
 2249SOL    HW218384   1.608   0.368   7.827 -0.4409  1.4442 -0.0683
 2250SOL     OW18385   3.842   0.559   1.505 -0.1501 -0.3129  0.0138
 2250SOL    HW118386   3.898   0.483   1.488 -0.9555 -1.0448  0.6663
 2250SOL    HW218387   3.773   0.516   1.554 -1.5825 -0.1098 -1.8151
 2251SOL     OW18388   0.882   2.038   8.916 -0.0159  0.2632  0.2189
 2251SOL    HW118389   0.912   2.088   8.992 -1.3985  1.8026 -0.2302
 2251SOL    HW218390   0.957   1.991   8.879 -0.8255 -0.7905 -0.0836
 2252SOL     OW18391   1.305   0.166   2.162 -0.7310 -0.0184  0.0191
 2252SOL    HW118392   1.348   0.202   2.240  0.7414 -0.3791 -0.6304
 2252SOL    HW218393   1.224   0.217   2.167  0.1888  1.4975 -0.7977
 2253SOL     OW18394   1.769   0.281  11.908  0.4227 -0.4156 -0.3523
 2253SOL    HW118395   1.727   0.199  11.881 -0.3087 -0.4153  0.7867
 2253SOL    HW218396   1.801   0.259  11.995  0.7216 -1.9383 -0.8478
 2254SOL     OW18397   4.003   4.052   4.481  0.1160 -0.1092 -0.0219
 2254SOL    HW118398   4.056   4.079   4.557  1.7521 -0.6270 -0.9730
 2254SOL    HW218399   4.012   4.120   4.414 -0.7932  0.7464  0.7354
 2255SOL     OW18400   2.926   4.698   4.601 -0.2956  0.0178  0.2010
 2255SOL    HW118401   2.913   0.052   4.624  1.2730  0.4982 -0.8036
 2255SOL    HW218402   3.016   4.699   4.568 -0.2191 -0.6401  0.3941
 2256SOL     OW18403   2.424   4.156   1.127  0.7835  0.4495 -0.0249
 2256SOL    HW118404   2.458   4.067   1.119  4.4573  2.0831 -2.3634
 2256SOL    HW218405   2.395   4.173   1.037 -1.3729  0.2891  0.6257
 2257SOL     OW18406   3.289   2.472   5.060 -0.4755 -0.5548 -0.3988
 2257SOL    HW118407   3.360   2.415   5.090  0.0578  1.6779  2.5376
 2257SOL    HW218408   3.331   2.536   5.002  1.0854 -0.9959  0.2426
 2258SOL     OW18409   4.123   0.564   5.694  0.1478  0.6019  0.0543
 2258SOL    HW118410   4.205   0.517   5.713 -0.9600 -1.4660 -0.2907
 2258SOL    HW218411   4.146   0.601   5.609 -0.8296  0.3535 -0.3108
 2259SOL     OW18412   0.565   4.726   6.968  0.2922 -0.2344  0.0278
 2259SOL    HW118413   0.555   4.661   6.898 -3.5684  0.6537 -0.2026
 2259SOL    HW218414   0.486   0.041   6.965  2.7559  3.4017 -0.3467
 2260SOL     OW18415   1.050   2.395  14.862  0.3091  0.1365 -1.1684
 2260SOL    HW118416   0.990   2.360  14.795 -0.7278 -0.1364 -0.1035
 2260SOL    HW218417   1.071   2.479  14.823 -1.4336  0.5478 -1.2180
 2261SOL     OW18418   3.508   0.803   4.070  0.0400 -0.3346 -0.7753
 2261SOL    HW118419   3.439   0.816   4.004 -0.0414 -3.2166 -1.2559
 2261SOL    HW218420   3.583   0.785   4.014 -0.8735  0.4508 -2.2548
 2262SOL     OW18421   2.970   3.972   2.109 -0.1845 -0.3631 -0.4616
 2262SOL    HW118422   3.029   4.043   2.081  0.7334 -1.9360 -2.4868
 2262SOL    HW218423   2.889   4.007   2.070  1.4093  3.5167 -0.3368
 2263SOL     OW18424   0.802   3.120  15.026  0.0515  0.3888  1.0114
 2263SOL    HW118425   0.770   3.170  15.101 -2.3605  0.4663 -0.0682
 2263SOL    HW218426   0.880   3.079  15.064  1.4151  0.8006 -1.3588
 2264SOL     OW18427   0.277   1.636   2.095  0.2561  0.4676  0.4164
 2264SOL    HW118428   0.238   1.561   2.051  1.4473 -0.0175  0.2009
 2264SOL    HW218429   0.324   1.585   2.161 -0.5636 -1.1421 -0.2603
 2265SOL     OW18430   2.616   0.215  15.899  0.4666 -0.9153 -0.2484
 2265SOL    HW118431   2.646   0.236  15.987 -1.0984 -0.0355  0.0803
 2265SOL    HW218432   2.574   0.295  15.869  3.3771  0.9194  0.6204
 2266SOL     OW18433   4.212   0.334   8.771 -0.6375 -0.2713  0.3112
 2266SOL    HW118434   4.127   0.357   8.806 -0.6166  2.5373 -1.5184
 2266SOL    HW218435   4.260   0.408   8.807 -0.7269  0.7178 -1.5848
 2267SOL     OW18436   1.063   3.934   3.530  0.0364 -0.4281  0.2142
 2267SOL    HW118437   1.142   3.987   3.545  0.6673 -1.0934 -0.8514
 2267SOL    HW218438   1.033   3.914   3.619 -1.5373  0.0775 -0.2108
 2268SOL     OW18439   2.856   4.731   1.553 -0.3636  0.1213  0.3193
 2268SOL    HW118440   2.763   0.007   1.568 -0.6227 -0.7786 -0.3906
 2268SOL    HW218441   2.853   4.652   1.499 -0.2606  2.1458 -2.6565
 2269SOL     OW18442   1.068   4.109   5.971  0.3061  0.0907 -0.9429
 2269SOL    HW118443   1.006   4.177   5.946 -0.7113 -1.5290 -2.8216
 2269SOL    HW218444   1.147   4.145   5.931  2.2306 -1.5130  1.3624
 2270SOL     OW18445   1.151   2.725   3.484  0.2340  0.1373  0.2762
 2270SOL    HW118446   1.205   2.733   3.406 -0.0432  1.5806  0.2243
 2270SOL    HW218447   1.210   2.670   3.535  1.2955  0.1211 -0.9990
 2271SOL     OW18448   4.181   4.059   9.630  1.0735  0.5490 -0.2530
 2271SOL    HW118449   4.201   4.025   9.543 -0.1316  0.1498 -0.3756
 2271SOL    HW218450   4.223   4.145   9.619 -0.7649  1.5979  0.9182
 2272SOL     OW18451   0.519   0.374   4.080 -0.1305 -0.1335 -0.1136
 2272SOL    HW118452   0.578   0.344   4.011 -0.6410  1.1542 -1.1231
 2272SOL    HW218453   0.583   0.416   4.137  0.5061 -0.9286 -0.2561
 2273SOL     OW18454   3.081   4.461   7.299 -0.1720 -0.1340 -0.0216
 2273SOL    HW118455   3.056   4.385   7.246  0.1565  0.2656 -0.7562
 2273SOL    HW218456   3.095   4.523   7.228 -0.2224 -0.0313  0.0588
 2274SOL     OW18457   2.413   2.338   8.343  0.3294  0.5919  0.7228
 2274SOL    HW118458   2.389   2.266   8.401 -2.2204 -1.0334 -2.3582
 2274SOL    HW218459   2.393   2.294   8.260  0.3308  0.1672  0.9456
 2275SOL     OW18460   3.205   1.428   2.567 -0.2395 -0.4927  0.0618
 2275SOL    HW118461   3.117   1.464   2.576  0.2070  0.9332 -1.1913
 2275SOL    HW218462   3.176   1.338   2.577 -0.8927 -0.2274  0.5759
 2276SOL     OW18463   2.106   3.009   8.549  0.6891  0.0089 -0.3365
 2276SOL    HW118464   2.132   2.993   8.459  1.9248  0.5450 -0.0773
 2276SOL    HW218465   2.022   3.052   8.533 -0.6862 -2.1002  1.2293
 2277SOL     OW18466   2.963   3.637   2.910 -0.5092  0.2444  0.4940
 2277SOL    HW118467   2.975   3.546   2.884  0.9734  0.5342  0.2020
 2277SOL    HW218468   3.033   3.649   2.973 -0.8679 -1.3028  1.1938
 2278SOL     OW18469   2.724   1.600   7.571 -0.3927  0.2893  0.3368
 2278SOL    HW118470   2.783   1.667   7.537  0.5809  0.4297  2.2952
 2278SOL    HW218471   2.694   1.648   7.648 -2.0108  0.3593 -0.3400
 2279SOL     OW18472   4.188   3.772   4.887  0.1578 -0.4617 -0.5582
 2279SOL    HW118473   4.235   3.710   4.943 -0.9240  0.1017  0.9754
 2279SOL    HW218474   4.228   3.856   4.909 -0.4551 -1.0464  2.7194
 2280SOL     OW18475   1.403   0.416  13.227 -0.1652  0.2865 -0.4664
 2280SOL    HW118476   1.464   0.358  13.272 -0.0609 -0.1646 -1.1956
 2280SOL    HW218477   1.392   0.363  13.148 -1.0637  1.4611 -1.1255
 2281SOL     OW18478   0.359   1.539   2.345 -0.3604  0.1285 -0.0953
 2281SOL    HW118479   0.397   1.500   2.425 -0.0606 -2.1982 -1.3629
 2281SOL    HW218480   0.277   1.574   2.378 -0.2177  1.3498 -1.0542
 2282SOL     OW18481   3.203   1.797   7.678  0.5381 -0.1969 -0.0815
 2282SOL    HW118482   3.140   1.738   7.718  2.3166 -0.8878  1.6945
 2282SOL    HW218483   3.190   1.869   7.739 -1.8259  0.2478 -1.1098
 2283SOL     OW18484   1.218   2.658   4.010 -0.2680 -0.2557 -0.2239
 2283SOL    HW118485   1.267   2.583   3.976  1.7479  0.5414  0.9181
 2283SOL    HW218486   1.285   2.713   4.051  0.3497 -2.4439  1.7352
 2284SOL     OW18487   1.698   2.027   7.717 -0.6959 -0.5344  0.1882
 2284SOL    HW118488   1.736   1.975   7.788  0.1426 -1.6299 -1.0673
 2284SOL    HW218489   1.736   2.110   7.744 -2.4456 -0.1717  1.5877
 2285SOL     OW18490   3.034   1.290   3.390 -0.1062 -0.5779 -0.4234
 2285SOL    HW118491   2.976   1.293   3.466 -3.6770  0.4997 -3.1812
 2285SOL    HW218492   3.083   1.372   3.397  1.2427 -1.3842 -0.5317
 2286SOL     OW18493   3.443   2.185   8.654  0.3408  0.5670  0.2216
 2286SOL    HW118494   3.462   2.223   8.740 -1.8216  0.3224  0.8091
 2286SOL    HW218495   3.499   2.241   8.599 -0.1414  2.3718  1.5712
 2287SOL     OW18496   2.498   1.046   8.183  0.4952 -0.4573  0.0231
 2287SOL    HW118497   2.497   1.042   8.088  0.2290  0.6103 -0.0096
 2287SOL    HW218498   2.404   1.056   8.193  0.6204  1.0173 -0.3547
 2288SOL     OW18499   3.271   2.160   3.980  0.4093 -0.4523 -1.0655
 2288SOL    HW118500   3.181   2.144   3.953 -0.0240  1.4524 -0.8049
 2288SOL    HW218501   3.253   2.150   4.073  0.9671 -2.9063 -1.2336
 2289SOL     OW18502   0.781   1.267   3.566 -0.0298 -0.3009  0.5912
 2289SOL    HW118503   0.851   1.287   3.504 -1.1318 -1.2611 -0.9433
 2289SOL    HW218504   0.772   1.353   3.608 -1.9794  0.0547 -0.5456
 2290SOL     OW18505   2.612   3.370  11.146  0.0036  0.0334 -0.4881
 2290SOL    HW118506   2.609   3.341  11.237  2.1284 -2.1988 -1.1324
 2290SOL    HW218507   2.677   3.306  11.117 -0.0130  0.0649 -0.5970
 2291SOL     OW18508   0.694   0.318   6.827  0.1461 -0.0381 -0.2271
 2291SOL    HW118509   0.619   0.313   6.886  2.0265 -2.1446  1.9644
 2291SOL    HW218510   0.755   0.264   6.877 -1.9081 -2.4812 -0.3480
 2292SOL     OW18511   1.407   4.159   2.160 -0.4759  0.2735  0.8996
 2292SOL    HW118512   1.443   4.075   2.133 -0.6996  0.2123  0.7993
 2292SOL    HW218513   1.317   4.158   2.128  0.1106 -2.2236 -0.6085
 2293SOL     OW18514   0.846   2.112   5.841 -0.0286 -0.2817  0.2708
 2293SOL    HW118515   0.815   2.025   5.864  0.4271 -1.1484 -2.3911
 2293SOL    HW218516   0.926   2.094   5.791  1.4250  0.6456  2.2567
 2294SOL     OW18517   2.345   0.844  14.150  0.3851 -0.6958 -0.0494
 2294SOL    HW118518   2.368   0.932  14.179 -2.8600  0.0400  0.2377
 2294SOL    HW218519   2.390   0.789  14.214  0.5136 -2.0388 -1.2899
 2295SOL     OW18520   3.581   0.895   2.435  0.0010 -0.4641  0.0869
 2295SOL    HW118521   3.593   0.985   2.406  1.7817 -0.8379 -0.3543
 2295SOL    HW218522   3.488   0.883   2.415 -0.7709 -0.5260  3.5997
 2296SOL     OW18523   4.061   4.425   7.838 -0.2666  0.1936  0.5715
 2296SOL    HW118524   4.136   4.365   7.837 -0.9758 -0.6399 -1.3479
 2296SOL    HW218525   4.099   4.489   7.898  2.1479 -0.3201 -0.4100
 2297SOL     OW18526   2.387   1.443   6.858  0.0348 -0.8452  0.6942
 2297SOL    HW118527   2.304   1.467   6.818  0.9165  0.8272 -0.1350
 2297SOL    HW218528   2.367   1.454   6.951  0.3274  2.3583  0.3816
 2298SOL     OW18529   4.198   1.404   3.487 -0.2765  0.0796 -0.0750
 2298SOL    HW118530   4.261   1.336   3.510  0.7692  1.3850  0.8357
 2298SOL    HW218531   4.152   1.406   3.571  2.2957  2.3202  1.2589
 2299SOL     OW18532   2.819   2.250   4.527  0.1886 -0.5918 -0.3979
 2299SOL    HW118533   2.880   2.322   4.510  1.3627 -0.7314  3.0423
 2299SOL    HW218534   2.872   2.197   4.587 -0.5376 -2.0912 -1.0633
 2300SOL     OW18535   3.115   2.116   6.264 -0.2361  0.2705 -0.2963
 2300SOL    HW118536   3.157   2.199   6.243  0.6812 -0.1773 -0.2522
 2300SOL    HW218537   3.032   2.122   6.218 -0.9930  1.1175  1.1839
 2301SOL     OW18538   3.148   1.033  16.105 -0.1026  0.3651  0.1895
 2301SOL    HW118539   3.151   0.984  16.187 -2.1887 -1.3086 -0.7118
 2301SOL    HW218540   3.067   0.994  16.072  0.9562 -0.8145 -1.0375
 2302SOL     OW18541   1.948   1.748   8.122 -0.0081  0.0832 -0.3552
 2302SOL    HW118542   1.992   1.746   8.207  1.0934  0.8627 -0.9088
 2302SOL    HW218543   1.877   1.685   8.133  0.6329 -0.5723  0.0239
 2303SOL     OW18544   3.507   4.354   0.455 -0.8681 -0.2388  0.7582
 2303SOL    HW118545   3.422   4.337   0.415 -0.3309  0.0751 -0.5331
 2303SOL    HW218546   3.502   4.339   0.549  1.3571  2.7596  1.3512
 2304SOL     OW18547   4.493   2.192   7.397  0.1575  0.2950 -0.2879
 2304SOL    HW118548   4.418   2.242   7.364  1.1121  2.1351  0.3243
 2304SOL    HW218549   4.462   2.113   7.355  1.1072 -0.7124  0.9059
 2305SOL     OW18550   0.824   3.244   7.953  0.1525  0.0084  0.0077
 2305SOL    HW118551   0.842   3.337   7.944 -1.4656  0.4185  0.9406
 2305SOL    HW218552   0.862   3.239   8.041  1.9514 -0.5574 -0.8068
 2306SOL     OW18553   3.128   4.065   4.377  0.4034 -0.6849  0.7018
 2306SOL    HW118554   3.130   3.983   4.428  0.8035 -1.8600 -1.2171
 2306SOL    HW218555   3.078   4.040   4.300 -0.1260  1.5493  0.3241
 2307SOL     OW18556   3.908   0.833  10.453 -0.1031  0.2855 -0.8926
 2307SOL    HW118557   3.945   0.846  10.366 -0.7067 -0.2109 -1.2294
 2307SOL    HW218558   3.974   0.779  10.496  0.4593  2.0214  0.4375
 2308SOL     OW18559   0.344   0.140   3.093 -0.0594 -0.0632  0.1805
 2308SOL    HW118560   0.413   0.190   3.138  0.0277  0.3533 -0.4265
 2308SOL    HW218561   0.361   0.131   2.999  0.5977  0.1020  0.2787
 2309SOL     OW18562   0.859   3.418   1.617 -0.3311 -0.5121 -0.2338
 2309SOL    HW118563   0.816   3.359   1.555 -1.2978  0.8511 -0.8570
 2309SOL    HW218564   0.875   3.492   1.559 -1.0404  2.2112  3.0010
 2310SOL     OW18565   3.699   4.426  11.633  0.1708  0.3985  0.0920
 2310SOL    HW118566   3.614   4.407  11.594 -0.0070  1.1161  0.1313
 2310SOL    HW218567   3.762   4.414  11.562  1.1818  2.0647  0.7072
 2311SOL     OW18568   4.304   1.625  10.647  0.7231 -0.3744  0.2723
 2311SOL    HW118569   4.212   1.613  10.671  0.7338 -2.2364 -0.6167
 2311SOL    HW218570   4.334   1.648  10.735  0.6146 -2.9082  0.9594
 2312SOL     OW18571   4.447   0.702  14.054  0.0648 -0.1405 -0.4770
 2312SOL    HW118572   4.375   0.725  13.995  0.9807 -0.6284 -1.7800
 2312SOL    HW218573   4.500   0.781  14.044 -1.5663  1.1345  1.0524
 2313SOL     OW18574   4.661   3.488  17.220 -0.1079  0.2413  0.0848
 2313SOL    HW118575   4.682   3.581  17.217  0.2803  0.1796  1.0476
 2313SOL    HW218576   4.576   3.502  17.262  0.3933 -0.1838  1.2453
 2314SOL     OW18577   0.405   2.124   6.084 -0.4438 -0.0323  0.1998
 2314SOL    HW118578   0.495   2.152   6.066 -0.2638 -1.0562 -0.4889
 2314SOL    HW218579   0.404   2.130   6.180  0.1961  2.2259  0.0698
 2315SOL     OW18580   3.370   1.018   3.384  0.1443 -0.7537 -0.0564
 2315SOL    HW118581   3.448   1.069   3.362 -0.3048 -0.1834 -0.3209
 2315SOL    HW218582   3.407   0.932   3.405  0.4252 -0.3795  1.0106
 2316SOL     OW18583   3.979   0.499  11.993 -0.3471  0.5339 -0.4483
 2316SOL    HW118584   4.029   0.417  11.998 -1.7797 -0.3713 -0.6214
 2316SOL    HW218585   3.895   0.469  12.030 -0.0354  1.0908  0.7303
 2317SOL     OW18586   0.917   1.285  12.895  0.0902  0.1845 -0.3065
 2317SOL    HW118587   0.929   1.192  12.916  1.0929  0.8788  2.2390
 2317SOL    HW218588   1.009   1.309  12.895 -0.3109  1.6906 -0.2318
 2318SOL     OW18589   2.369   0.256   9.644 -0.2914 -0.1449  0.2210
 2318SOL    HW118590   2.342   0.172   9.682 -0.1679  0.9515  2.7651
 2318SOL    HW218591   2.282   0.293   9.628  0.2223  0.9115 -0.1349
 2319SOL     OW18592   4.254   4.612  11.381  0.5307 -0.0074  0.0462
 2319SOL    HW118593   4.350   4.608  11.384  0.4582 -0.2086  2.1607
 2319SOL    HW218594   4.245   4.604  11.286 -0.3140  0.3384  0.0986
 2320SOL     OW18595   1.513   2.727   1.938 -0.1420  0.9498 -0.2433
 2320SOL    HW118596   1.450   2.791   1.905  0.9618  1.3114 -1.6554
 2320SOL    HW218597   1.509   2.730   2.033  2.5479 -0.3414 -0.0853
 2321SOL     OW18598   0.713   2.353   5.872  0.4268  0.0091  0.7460
 2321SOL    HW118599   0.754   2.271   5.844  1.5062  1.2332 -1.2237
 2321SOL    HW218600   0.744   2.418   5.810  1.4424 -0.9449  0.2616
 2322SOL     OW18601   2.622   1.185   3.500 -0.1984 -0.1716  0.4616
 2322SOL    HW118602   2.586   1.221   3.581 -1.0284 -0.3054  0.1586
 2322SOL    HW218603   2.561   1.119   3.467 -0.1971 -0.4029  0.9324
 2323SOL     OW18604   0.734   3.299   6.968 -0.0491  0.0608  0.0154
 2323SOL    HW118605   0.782   3.273   6.889 -0.9837  0.7593 -0.7759
 2323SOL    HW218606   0.801   3.321   7.033 -0.1669 -1.6558  0.7271
 2324SOL     OW18607   1.614   0.508   7.153  0.3262  0.3392 -0.1737
 2324SOL    HW118608   1.646   0.509   7.062 -1.6888  0.3426 -0.8819
 2324SOL    HW218609   1.589   0.417   7.166  1.1321  0.2726  0.9647
 2325SOL     OW18610   4.733   0.196   9.309  0.0065 -0.1793  0.1861
 2325SOL    HW118611   0.077   0.231   9.343 -0.4660  0.4205  0.6931
 2325SOL    HW218612   4.707   0.136   9.380 -2.1545 -1.2025 -1.4692
 2326SOL     OW18613   3.796   1.990  16.976 -0.1822 -0.1171  0.3224
 2326SOL    HW118614   3.738   1.966  16.904  0.1179 -0.1618  0.0931
 2326SOL    HW218615   3.808   1.906  17.020  2.4385 -1.0480 -2.0968
 2327SOL     OW18616   2.754   0.164   8.635 -0.4345 -0.3058  0.3159
 2327SOL    HW118617   2.775   0.255   8.613 -1.6507 -0.2335 -0.5113
 2327SOL    HW218618   2.798   0.115   8.565  0.1784 -2.0839  1.9648
 2328SOL     OW18619   2.341   2.347  12.889 -0.2548  0.4041  0.0869
 2328SOL    HW118620   2.339   2.337  12.793  0.5176  0.8996  0.0155
 2328SOL    HW218621   2.365   2.440  12.894  1.0498 -0.0618  2.1465
 2329SOL     OW18622   0.530   4.344  14.163  0.6773  0.2946 -0.2911
 2329SOL    HW118623   0.441   4.363  14.134  1.1365  4.5810  1.2217
 2329SOL    HW218624   0.519   4.361  14.256  2.9758  0.1144  0.0164
 2330SOL     OW18625   2.901   3.533   8.281  0.0945 -0.0093  0.3870
 2330SOL    HW118626   2.943   3.571   8.204 -0.6023 -0.5724 -0.2808
 2330SOL    HW218627   2.970   3.524   8.346  1.7448 -0.5407 -1.4277
 2331SOL     OW18628   0.308   3.705   3.461  0.2242  0.2517 -0.6218
 2331SOL    HW118629   0.227   3.727   3.415  0.6216  1.9855 -0.5229
 2331SOL    HW218630   0.367   3.702   3.385  0.7051 -0.5268 -0.2133
 2332SOL     OW18631   3.742   0.115  11.790  0.3675  1.1090 -0.0487
 2332SOL    HW118632   3.669   0.164  11.828 -0.5918 -0.0182 -0.4534
 2332SOL    HW218633   3.796   0.190  11.764  1.4399 -0.4537 -2.3506
 2333SOL     OW18634   3.555   1.420  15.072  0.0844 -0.9061  0.2868
 2333SOL    HW118635   3.611   1.497  15.064 -1.4517  0.0063 -1.8403
 2333SOL    HW218636   3.518   1.428  14.984 -1.7936 -0.8151  1.0743
 2334SOL     OW18637   1.023   3.404  11.801  0.2536 -0.4966 -0.2802
 2334SOL    HW118638   0.941   3.361  11.827  1.2513 -3.0100 -1.2137
 2334SOL    HW218639   0.987   3.492  11.794 -2.9648 -1.7090  0.8043
 2335SOL     OW18640   1.728   0.215   3.629 -0.5015  0.1425 -0.0336
 2335SOL    HW118641   1.822   0.219   3.614 -0.9652  2.3085 -2.3594
 2335SOL    HW218642   1.708   0.282   3.564 -1.5923 -0.6759 -0.5313
 2336SOL     OW18643   0.019   0.601   3.649 -0.2880 -0.2271  0.4934
 2336SOL    HW118644   0.083   0.551   3.598 -0.5577  0.3769 -0.4340
 2336SOL    HW218645   0.062   0.635   3.728  1.7331  0.5770 -0.9497
 2337SOL     OW18646   2.721   0.383   5.575  0.0913 -0.4942 -0.2237
 2337SOL    HW118647   2.660   0.435   5.626  1.6809  0.0450  1.1193
 2337SOL    HW218648   2.732   0.429   5.491 -1.5044 -1.9637 -1.2417
 2338SOL     OW18649   1.477   0.294   7.985  0.8957  0.3163 -0.2534
 2338SOL    HW118650   1.399   0.346   8.006  0.0603 -2.2439  3.0655
 2338SOL    HW218651   1.473   0.245   8.067 -0.3208  0.9219  0.0554
 2339SOL     OW18652   3.699   2.473   7.098  0.0126 -0.2432 -0.7329
 2339SOL    HW118653   3.767   2.536   7.074  1.2796 -1.0980  0.6094
 2339SOL    HW218654   3.712   2.473   7.193  1.5816  0.4151 -0.9341
 2340SOL     OW18655   2.620   4.004   2.289 -0.0599  0.3232 -0.1598
 2340SOL    HW118656   2.690   3.942   2.312  1.5374  2.6374  1.3053
 2340SOL    HW218657   2.680   4.064   2.245  0.6336  1.1044  1.8533
 2341SOL     OW18658   1.318   1.588  14.050  0.1273 -0.0661  0.3778
 2341SOL    HW118659   1.297   1.534  13.974  1.1237  2.3315 -1.6042
 2341SOL    HW218660   1.411   1.611  14.039  0.2529 -0.6214  0.2953
 2342SOL     OW18661   1.311   0.249   4.895 -0.4824 -0.2720 -0.1148
 2342SOL    HW118662   1.318   0.199   4.814  0.6107  0.4681 -0.4698
 2342SOL    HW218663   1.250   0.190   4.941  1.8896 -2.2665  0.4840
 2343SOL     OW18664   2.967   0.195  11.089  0.5466 -0.2103 -0.1525
 2343SOL    HW118665   2.905   0.267  11.097  0.8067  0.1059 -0.8929
 2343SOL    HW218666   2.961   0.177  10.995  0.1790 -1.1590  0.0532
 2344SOL     OW18667   0.666   0.715   2.181 -0.0899  0.1872 -0.7015
 2344SOL    HW118668   0.721   0.645   2.217  0.6872  0.9273 -0.4513
 2344SOL    HW218669   0.708   0.736   2.098 -0.2239 -0.2232 -0.8768
 2345SOL     OW18670   4.394   0.688   5.041  0.2920  0.0473  0.2038
 2345SOL    HW118671   4.375   0.780   5.062 -1.2739 -0.0134 -0.9582
 2345SOL    HW218672   4.312   0.652   5.010  0.2114  0.8454 -0.5149
 2346SOL     OW18673   0.926   4.268   9.796 -0.0214 -0.3684 -0.1754
 2346SOL    HW118674   0.897   4.193   9.848 -1.4517 -0.2386 -0.8060
 2346SOL    HW218675   1.016   4.276   9.828  0.6494 -0.1867 -2.1537
 2347SOL     OW18676   2.593   0.125   8.956  0.5318  0.2663 -0.0874
 2347SOL    HW118677   2.609   0.066   9.030 -0.2518  1.7964  1.3269
 2347SOL    HW218678   2.564   0.201   9.007  0.1540 -1.1686  1.8904
 2348SOL     OW18679   1.097   2.106   1.799 -0.1262 -0.0397 -0.1651
 2348SOL    HW118680   1.163   2.084   1.733  0.7279  0.8343  0.4025
 2348SOL    HW218681   1.053   2.182   1.759  0.6958  0.5256  0.0140
 2349SOL     OW18682   0.780   4.264   0.191  0.2633 -0.4936 -0.7430
 2349SOL    HW118683   0.831   4.318   0.251 -2.3931 -1.0415  2.0125
 2349SOL    HW218684   0.740   4.334   0.140 -1.5836 -1.1152 -0.1701
 2350SOL     OW18685   3.141   4.176   6.748 -0.3609 -0.2444  0.4114
 2350SOL    HW118686   3.192   4.107   6.707  0.6005  0.5079  0.3379
 2350SOL    HW218687   3.182   4.177   6.834 -1.6704  2.0006  1.0181
 2351SOL     OW18688   0.250   1.979   1.522  0.0341  0.4099  0.0722
 2351SOL    HW118689   0.265   1.901   1.575  0.1856  0.0018 -0.5649
 2351SOL    HW218690   0.336   2.001   1.487  0.0329  0.6223  0.2042
 2352SOL     OW18691   3.171   0.236   5.282 -0.4228 -0.4433  0.2536
 2352SOL    HW118692   3.204   0.266   5.367 -0.7082 -2.8821  1.2118
 2352SOL    HW218693   3.240   0.276   5.229  0.6491 -0.5284  1.5737
 2353SOL     OW18694   1.943   0.628   9.791  0.0333  0.7288 -0.5995
 2353SOL    HW118695   1.952   0.623   9.696  1.9970 -2.8090 -0.2242
 2353SOL    HW218696   1.920   0.536   9.807 -0.5265  0.8789 -0.5152
 2354SOL     OW18697   2.895   4.095   5.118  0.1901 -0.2967  0.0404
 2354SOL    HW118698   2.837   4.170   5.128  0.4948 -0.1719  0.8991
 2354SOL    HW218699   2.974   4.144   5.094 -1.7854  2.6862 -0.3034
 2355SOL     OW18700   2.931   1.917   6.795 -0.6219  0.4858 -0.5660
 2355SOL    HW118701   2.849   1.868   6.796  0.1193 -0.7024  0.8027
 2355SOL    HW218702   2.919   1.960   6.879  1.1295  0.5273 -0.3365
 2356SOL     OW18703   2.986   1.417   0.855  0.3710 -0.4078  0.6337
 2356SOL    HW118704   3.049   1.370   0.800 -1.2424 -1.8306  0.0177
 2356SOL    HW218705   2.953   1.348   0.912  1.2349 -0.2103  1.3778
 2357SOL     OW18706   2.401   4.715   4.452  0.1741 -0.3641 -0.3614
 2357SOL    HW118707   2.441   4.732   4.367 -0.9562 -0.4384 -0.9126
 2357SOL    HW218708   2.428   4.624   4.461 -1.2444 -0.7234  0.2429
 2358SOL     OW18709   4.209   0.516   1.617  0.5459  0.1431 -0.3669
 2358SOL    HW118710   4.283   0.464   1.586  0.7163  0.9802 -1.3370
 2358SOL    HW218711   4.226   0.521   1.711  0.8023  0.4987 -0.4309
 2359SOL     OW18712   3.225   3.311   1.637  0.2958 -0.2479  0.0642
 2359SOL    HW118713   3.304   3.267   1.667  0.0668  0.4040  1.5848
 2359SOL    HW218714   3.196   3.261   1.560 -0.7062 -0.2197  0.4219
 2360SOL     OW18715   3.901   2.286  16.185  0.2279  0.3581 -0.2607
 2360SOL    HW118716   3.916   2.249  16.273  0.5040 -0.9467 -0.8594
 2360SOL    HW218717   3.977   2.249  16.141  1.3409 -0.0131  1.9440
 2361SOL     OW18718   3.547   2.578   8.964  0.3559  0.2910 -0.6476
 2361SOL    HW118719   3.617   2.639   8.941  0.5180  0.8525  1.2988
 2361SOL    HW218720   3.491   2.641   9.010  0.7969 -0.5875  1.0964
 2362SOL     OW18721   2.328   1.449  14.862  0.1118  0.3486  0.2346
 2362SOL    HW118722   2.270   1.514  14.823  0.9850 -0.0415 -1.7123
 2362SOL    HW218723   2.369   1.494  14.936  0.8998 -0.3900  0.2519
 2363SOL     OW18724   3.194   3.681  16.400  0.1154 -0.0847 -0.8825
 2363SOL    HW118725   3.168   3.686  16.492  1.9621 -1.6525 -0.2874
 2363SOL    HW218726   3.191   3.587  16.387 -0.4913  0.2989 -3.5708
 2364SOL     OW18727   2.346   4.065   4.704 -0.4448 -0.0384  0.3794
 2364SOL    HW118728   2.400   4.041   4.629  0.3486 -1.9794  1.5735
 2364SOL    HW218729   2.279   4.119   4.661  0.5261  0.1085 -0.9394
 2365SOL     OW18730   3.193   1.812  17.257 -1.0338 -0.0698 -0.0085
 2365SOL    HW118731   3.145   1.746  17.207 -1.6645  0.1037  0.3688
 2365SOL    HW218732   3.150   1.888  17.217 -1.1488  1.0162  2.1752
 2366SOL     OW18733   0.813   2.294   7.618 -0.0743  0.3197 -0.3342
 2366SOL    HW118734   0.759   2.320   7.693 -1.3271 -0.9305 -0.7908
 2366SOL    HW218735   0.848   2.209   7.647  0.0475  0.2846 -0.5839
 2367SOL     OW18736   2.073   3.272   2.017 -0.3378  0.0429  0.0181
 2367SOL    HW118737   2.109   3.205   2.074 -0.5741 -0.4279 -0.3812
 2367SOL    HW218738   1.980   3.252   2.026 -0.2284  0.1705  1.3045
 2368SOL     OW18739   1.560   2.950   3.894 -0.3178 -0.1593 -0.4291
 2368SOL    HW118740   1.571   2.885   3.963  1.9999  2.2019  1.3850
 2368SOL    HW218741   1.602   3.028   3.928  0.4696 -1.7730  2.3262
 2369SOL     OW18742   0.291   4.157  17.030 -0.1077 -0.6018 -0.0932
 2369SOL    HW118743   0.358   4.196  16.974 -0.6964  0.8952  0.2491
 2369SOL    HW218744   0.332   4.154  17.116  1.7687  3.5997 -0.8468
 2370SOL     OW18745   2.441   3.338   6.849  0.2921 -0.0739 -0.2383
 2370SOL    HW118746   2.461   3.420   6.804  0.6834 -0.2515 -0.3842
 2370SOL    HW218747   2.409   3.370   6.934 -0.9624 -1.1213 -0.3108
 2371SOL     OW18748   2.430   4.538   2.006 -0.0267 -0.4591 -0.2274
 2371SOL    HW118749   2.341   4.555   1.977  0.1167  4.4568  2.1053
 2371SOL    HW218750   2.481   4.529   1.926  0.4394 -1.4448  0.1835
 2372SOL     OW18751   4.466   1.772   5.130 -0.1307 -0.2950 -0.1569
 2372SOL    HW118752   4.382   1.815   5.149  0.8804  2.4641 -1.8725
 2372SOL    HW218753   4.431   1.683   5.142  1.9889 -0.7622  2.5040
 2373SOL     OW18754   3.987   3.199   9.774 -0.2833  0.2306  0.0317
 2373SOL    HW118755   4.039   3.253   9.834  0.8808  1.2417 -1.8750
 2373SOL    HW218756   3.931   3.154   9.837  0.2487 -1.6347 -0.8218
 2374SOL     OW18757   1.019   1.101   0.127 -0.4978 -0.0453 -0.2413
 2374SOL    HW118758   0.987   1.151   0.202  0.2179  0.7940 -0.5031
 2374SOL    HW218759   0.964   1.022   0.129  0.0202 -0.3788  0.9245
 2375SOL     OW18760   3.395   1.345   6.570  0.6302 -0.5627  0.2010
 2375SOL    HW118761   3.376   1.418   6.511  0.4607 -1.9349 -1.4496
 2375SOL    HW218762   3.376   1.278   6.504  2.2173 -1.8412  1.0506
 2376SOL     OW18763   3.800   0.001   3.859 -0.2414 -0.9086 -0.1390
 2376SOL    HW118764   3.793   4.733   3.954 -1.4466 -2.0023 -0.2964
 2376SOL    HW218765   3.749   0.079   3.840 -3.3437 -2.6925  0.8846
 2377SOL     OW18766   1.691   1.206   0.048  0.4798  0.1707 -0.2510
 2377SOL    HW118767   1.656   1.187  17.711 -0.1910  1.0260 -0.1729
 2377SOL    HW218768   1.732   1.122   0.068 -3.5770 -2.0920 -1.3883
 2378SOL     OW18769   1.336   3.565   6.137  0.0914  0.5747 -0.0432
 2378SOL    HW118770   1.393   3.629   6.181  1.8853 -0.2786 -1.1487
 2378SOL    HW218771   1.287   3.620   6.075 -0.5515  2.4863  2.1185
 2379SOL     OW18772   3.815   0.379   8.683 -0.3945 -0.3139  0.5121
 2379SOL    HW118773   3.842   0.335   8.763  0.3758 -0.1149  0.3572
 2379SOL    HW218774   3.881   0.447   8.669 -0.4304 -0.6878 -1.4952
 2380SOL     OW18775   2.590   3.176   9.565 -0.3446 -0.1352 -0.4154
 2380SOL    HW118776   2.676   3.215   9.555  0.3379 -0.8387  2.8236
 2380SOL    HW218777   2.582   3.129   9.482  0.7943 -0.4524 -0.3434
 2381SOL     OW18778   3.707   4.701  12.029  0.1187  0.3030 -0.1948
 2381SOL    HW118779   3.745   0.021  11.962 -0.1395 -0.4655 -1.0087
 2381SOL    HW218780   3.730   4.736  12.115  0.3101 -0.8883  0.2383
 2382SOL     OW18781   4.638   0.577   1.573 -0.0867  0.4405 -0.5069
 2382SOL    HW118782   4.721   0.530   1.567 -0.5673 -0.3013 -1.3232
 2382SOL    HW218783   4.669   0.644   1.633  1.0810  0.2478 -0.8930
 2383SOL     OW18784   3.930   1.248   1.057  0.3434 -0.3299  0.1982
 2383SOL    HW118785   3.845   1.290   1.049  0.3971 -0.7524 -2.5523
 2383SOL    HW218786   3.913   1.158   1.086  2.7943 -1.4111 -1.8079
 2384SOL     OW18787   3.104   1.871  15.301 -0.1507 -0.3187 -0.0161
 2384SOL    HW118788   3.050   1.822  15.239 -1.2596 -0.0646  0.7578
 2384SOL    HW218789   3.148   1.797  15.343 -0.5897  0.2918  1.5410
 2385SOL     OW18790   3.949   2.889   3.676 -0.0347 -0.1513 -0.4351
 2385SOL    HW118791   3.973   2.805   3.716 -0.1857 -0.6304 -1.3457
 2385SOL    HW218792   3.887   2.858   3.610 -0.5199  0.2659 -0.1698
 2386SOL     OW18793   3.313   1.778   1.513  0.1401  0.4204  0.2440
 2386SOL    HW118794   3.306   1.858   1.565  2.6604  0.2469  0.8482
 2386SOL    HW218795   3.300   1.814   1.426 -1.5310  0.8163  0.6556
 2387SOL     OW18796   3.486   1.041   6.113  0.2857  0.1207 -0.3715
 2387SOL    HW118797   3.441   0.958   6.128  1.0643 -0.6370 -2.3566
 2387SOL    HW218798   3.543   1.020   6.039  0.6992  0.0143 -0.0210
 2388SOL     OW18799   3.664   2.230  16.790  0.0757 -0.2105 -0.1013
 2388SOL    HW118800   3.672   2.135  16.799  0.4430 -0.0864  0.8945
 2388SOL    HW218801   3.739   2.257  16.738 -1.4387 -0.4902 -2.4325
 2389SOL     OW18802   1.253   3.100   2.384  0.0518 -0.0520  0.2643
 2389SOL    HW118803   1.198   3.089   2.306  0.7251 -1.3882 -0.0335
 2389SOL    HW218804   1.260   3.012   2.422 -2.9860 -0.9126 -1.1566
 2390SOL     OW18805   2.709   0.731   4.343  0.0300 -0.7404 -0.5441
 2390SOL    HW118806   2.736   0.639   4.349 -0.3035 -0.6214  3.0488
 2390SOL    HW218807   2.614   0.730   4.327  0.0302  1.9305 -0.6699
 2391SOL     OW18808   2.665   3.210   9.150  0.4845 -0.0622  0.1498
 2391SOL    HW118809   2.679   3.289   9.202 -1.7078 -0.1093  0.7948
 2391SOL    HW218810   2.600   3.161   9.201  1.1147 -0.4124  0.6181
 2392SOL     OW18811   2.324   2.135   8.532 -0.3375 -0.0059 -0.2942
 2392SOL    HW118812   2.304   2.065   8.595  1.5020  0.7850  1.1332
 2392SOL    HW218813   2.234   2.141   8.498 -0.1912  0.6925 -0.5471
 2393SOL     OW18814   3.277   2.224   6.476 -0.0726 -0.3622  0.1365
 2393SOL    HW118815   3.299   2.165   6.548  0.7987  0.0337  0.1945
 2393SOL    HW218816   3.280   2.165   6.401  1.6367 -1.2666  0.9225
 2394SOL     OW18817   4.138   1.466   1.310 -0.2922 -0.1980  0.3517
 2394SOL    HW118818   4.112   1.381   1.273  1.3703  0.0499 -1.4313
 2394SOL    HW218819   4.049   1.495   1.330 -0.1725  0.9421 -0.7806
 2395SOL     OW18820   0.840   0.028   7.446 -0.1159 -0.2251  0.4471
 2395SOL    HW118821   0.909   0.087   7.416 -0.9188 -0.4576 -1.8510
 2395SOL    HW218822   0.888   4.683   7.447  1.3472  0.5719 -3.4401
 2396SOL     OW18823   2.990   4.619  10.406  0.2145  0.2913 -0.3877
 2396SOL    HW118824   3.000   4.713  10.397  1.6488  0.1764  0.0421
 2396SOL    HW218825   3.059   4.608  10.471 -0.2357 -0.7098 -0.0733
 2397SOL     OW18826   3.550   1.794  16.429  0.5126  0.3142  0.2333
 2397SOL    HW118827   3.631   1.845  16.420 -0.0125  1.0001 -0.7199
 2397SOL    HW218828   3.487   1.858  16.462  0.7700  0.2487  0.8497
 2398SOL     OW18829   4.022   3.524   2.014 -0.3781  0.4775  0.3967
 2398SOL    HW118830   3.966   3.482   2.079  1.0521 -1.2043  0.5445
 2398SOL    HW218831   4.077   3.578   2.070  1.4736  0.1774 -1.1310
 2399SOL     OW18832   4.308   3.019  16.044  0.2076 -0.4666 -0.5246
 2399SOL    HW118833   4.240   3.081  16.016 -0.0511  0.9167  3.2040
 2399SOL    HW218834   4.389   3.042  15.999  0.1366  0.8824  0.0182
 2400SOL     OW18835   3.469   1.732  12.541  0.3732 -0.0341  0.4111
 2400SOL    HW118836   3.470   1.689  12.456  2.2271  0.8768 -0.0228
 2400SOL    HW218837   3.392   1.789  12.538 -0.5352 -1.2403  0.7328
 2401SOL     OW18838   1.059   0.532   4.653 -0.4059 -0.1722  0.1907
 2401SOL    HW118839   1.133   0.527   4.713 -0.0468 -1.4246 -0.3656
 2401SOL    HW218840   1.107   0.577   4.583 -0.2273 -0.7848 -0.0776
 2402SOL     OW18841   0.564   2.424   2.730 -0.1861  0.1404 -0.2784
 2402SOL    HW118842   0.652   2.452   2.706  0.1764 -1.2758 -0.6477
 2402SOL    HW218843   0.515   2.463   2.658  0.4488  0.8826 -0.3093
 2403SOL     OW18844   0.893   4.238  17.016  0.1598  0.3197  0.0242
 2403SOL    HW118845   0.894   4.157  16.966  3.1484  0.8172 -0.7073
 2403SOL    HW218846   0.823   4.284  16.971 -0.2089  3.0419  3.3623
 2404SOL     OW18847   0.299   3.835   7.902 -0.6149  0.1584  0.2843
 2404SOL    HW118848   0.379   3.884   7.884 -0.0252 -1.2897 -1.0479
 2404SOL    HW218849   0.242   3.911   7.918 -0.5888 -0.1618  1.8348
 2405SOL     OW18850   3.968   3.861   3.690  0.4216  0.1477 -0.1567
 2405SOL    HW118851   3.989   3.795   3.624  0.1073 -0.5606  0.4493
 2405SOL    HW218852   4.050   3.907   3.707  0.0046  0.6928  0.3819
 2406SOL     OW18853   4.022   4.544  13.922 -0.1101  0.1487 -0.3891
 2406SOL    HW118854   3.943   4.568  13.970 -0.4154 -2.2997  0.3091
 2406SOL    HW218855   3.988   4.484  13.856 -0.0285  1.2220 -1.4150
 2407SOL     OW18856   0.345   0.271   0.635  0.7041 -0.2058  0.5180
 2407SOL    HW118857   0.348   0.367   0.636  0.3910 -0.2236  3.7074
 2407SOL    HW218858   0.254   0.273   0.603  1.1975  1.2008 -0.8137
 2408SOL     OW18859   4.179   1.202   0.975 -0.0902  0.1234  0.2313
 2408SOL    HW118860   4.181   1.111   1.006  1.7584 -0.0160 -0.2887
 2408SOL    HW218861   4.089   1.222   1.000 -0.3397  0.7042 -1.1384
 2409SOL     OW18862   0.801   2.867   6.609  0.2992 -0.1489  0.4626
 2409SOL    HW118863   0.875   2.828   6.655 -0.1728 -0.4996  0.9145
 2409SOL    HW218864   0.818   2.836   6.520 -0.1609 -0.0758  0.3517
 2410SOL     OW18865   1.562   1.166   2.206 -0.0217  0.5074 -1.0147
 2410SOL    HW118866   1.641   1.209   2.176 -0.1881  0.3424 -1.7076
 2410SOL    HW218867   1.500   1.223   2.161  0.2752  1.5303 -0.1146
 2411SOL     OW18868   4.242   1.118   8.501  0.0550 -0.5378  0.0988
 2411SOL    HW118869   4.255   1.087   8.591  1.0582 -1.2813 -0.3090
 2411SOL    HW218870   4.224   1.035   8.457 -0.1016 -0.3994 -0.1017
 2412SOL     OW18871   1.783   3.350  14.160 -0.2098 -0.2083  0.2537
 2412SOL    HW118872   1.752   3.282  14.100  1.0564 -2.1837  1.8232
 2412SOL    HW218873   1.774   3.427  14.104 -2.4056 -0.3643  0.3968
 2413SOL     OW18874   0.597   3.571   0.924  0.3438 -0.1661 -0.5713
 2413SOL    HW118875   0.524   3.630   0.909 -0.0172 -0.4306  0.1433
 2413SOL    HW218876   0.609   3.550   0.831  0.6881  2.6154 -1.1512
 2414SOL     OW18877   3.323   4.066   2.110  0.0557  0.1086  0.1633
 2414SOL    HW118878   3.301   3.973   2.104 -1.4647  0.5733 -1.2819
 2414SOL    HW218879   3.417   4.061   2.088  0.0907  2.6722 -0.2524
 2415SOL     OW18880   0.426   2.334   5.650 -0.4345 -0.1074 -0.3182
 2415SOL    HW118881   0.418   2.379   5.734  2.3802 -2.6957  1.3391
 2415SOL    HW218882   0.343   2.291   5.627 -2.4701  1.8408  3.2976
 2416SOL     OW18883   3.729   4.566   9.503 -0.5715  0.6278 -0.3438
 2416SOL    HW118884   3.812   4.612   9.511  0.5868 -1.6083  0.2653
 2416SOL    HW218885   3.688   4.615   9.432 -0.2643  1.1208 -0.1842
 2417SOL     OW18886   1.087   1.096  17.343  1.1155  0.2721  0.7133
 2417SOL    HW118887   1.004   1.052  17.326 -0.0092  1.6438  2.7008
 2417SOL    HW218888   1.101   1.132  17.256  0.0514 -0.8857  0.0756
 2418SOL     OW18889   3.430   4.487   3.279 -0.0973 -0.3145  0.0235
 2418SOL    HW118890   3.450   4.395   3.262 -2.4150 -0.6827 -0.6858
 2418SOL    HW218891   3.512   4.526   3.308  1.1189 -3.1988  0.4622
 2419SOL     OW18892   4.233   4.693   6.734  0.1403  0.4437  0.6685
 2419SOL    HW118893   4.176   4.721   6.663  0.4169  2.0597  1.0870
 2419SOL    HW218894   4.228   0.029   6.794  1.1367  1.2320 -0.2107
 2420SOL     OW18895   1.012   1.554   7.606  0.0307 -0.1858  0.6432
 2420SOL    HW118896   1.047   1.465   7.602  2.0595  0.8161 -4.9084
 2420SOL    HW218897   0.933   1.543   7.552  2.7228 -0.0700 -3.3597
 2421SOL     OW18898   2.149   3.414  15.245  0.7064 -0.0111 -0.1802
 2421SOL    HW118899   2.053   3.418  15.242  0.7746  0.5719 -1.5238
 2421SOL    HW218900   2.166   3.426  15.339 -2.1377 -1.2476  0.5045
 2422SOL     OW18901   0.927   1.597  13.594  0.3975  0.3468 -0.1106
 2422SOL    HW118902   0.936   1.503  13.575 -0.0300 -0.2838  2.8132
 2422SOL    HW218903   1.018   1.628  13.600  0.0456  1.0685  1.4026
 2423SOL     OW18904   3.290   1.579   7.902  0.1843  0.1266  0.2717
 2423SOL    HW118905   3.309   1.655   7.957 -2.0900 -0.3715  1.7811
 2423SOL    HW218906   3.376   1.550   7.871 -0.7571 -2.2420 -0.1356
 2424SOL     OW18907   2.579   4.213  13.713  0.0338  0.0343  0.1242
 2424SOL    HW118908   2.628   4.131  13.709 -0.2848 -0.1652  0.3472
 2424SOL    HW218909   2.561   4.209  13.807 -1.8031  1.0353 -0.1945
 2425SOL     OW18910   0.126   3.527   2.270  0.0976 -0.2581  0.3439
 2425SOL    HW118911   0.088   3.451   2.314  1.5760 -0.0981  1.8662
 2425SOL    HW218912   0.143   3.583   2.346 -2.9302  1.0533  0.0554
 2426SOL     OW18913   2.707   1.814   2.657 -0.3100 -0.0779  0.1247
 2426SOL    HW118914   2.702   1.738   2.716  1.0007 -0.7073 -0.5754
 2426SOL    HW218915   2.623   1.806   2.612 -0.9400  2.3093  0.9219
 2427SOL     OW18916   1.864   1.166   1.919 -0.4488 -0.5067 -0.7984
 2427SOL    HW118917   1.915   1.220   1.858  0.3659  0.2815  0.5799
 2427SOL    HW218918   1.917   1.184   1.997  1.1420 -1.6537 -1.6113
 2428SOL     OW18919   2.793   1.099   3.787 -0.5204 -0.5414  0.0724
 2428SOL    HW118920   2.728   1.153   3.832  2.0278  1.1499  1.7104
 2428SOL    HW218921   2.816   1.040   3.859  0.1323  1.5273  1.5532
 2429SOL     OW18922   4.288   0.603   2.367 -0.6174  0.4012 -0.2482
 2429SOL    HW118923   4.354   0.574   2.430  0.6005  0.1621 -1.6206
 2429SOL    HW218924   4.206   0.555   2.377  0.2125 -1.1721 -0.9581
 2430SOL     OW18925   4.106   3.336   7.999 -0.0258  0.0039 -0.4280
 2430SOL    HW118926   4.180   3.306   7.947 -0.3584 -2.1269  0.3216
 2430SOL    HW218927   4.150   3.411   8.040 -1.3823 -0.1247  1.2712
 2431SOL     OW18928   4.731   0.647  16.509 -0.4914  0.0254  0.1125
 2431SOL    HW118929   4.661   0.596  16.551  0.2469 -0.6221  0.5592
 2431SOL    HW218930   4.689   0.698  16.440 -0.4022  1.1345  0.8739
 2432SOL     OW18931   3.515   3.009   5.968 -0.1984  0.0304 -0.4356
 2432SOL    HW118932   3.500   2.979   5.879 -1.6137  0.0228 -0.1935
 2432SOL    HW218933   3.431   3.046   5.995  0.8461  0.1406  2.7373
 2433SOL     OW18934   1.063   4.125   3.297 -0.4468 -0.2375 -0.8237
 2433SOL    HW118935   0.993   4.156   3.240 -1.2929 -1.5354 -0.4908
 2433SOL    HW218936   1.039   4.036   3.320  0.1196 -0.1321  0.1823
 2434SOL     OW18937   4.526   2.275   7.671 -0.3276  0.2923 -0.3147
 2434SOL    HW118938   4.542   2.204   7.733  1.0560  1.4349  0.6516
 2434SOL    HW218939   4.541   2.234   7.586 -1.8362  0.1996 -0.5400
 2435SOL     OW18940   1.543   1.669   8.544  0.3528 -0.1671  0.2012
 2435SOL    HW118941   1.480   1.652   8.614  1.3738 -2.4848  0.5586
 2435SOL    HW218942   1.627   1.658   8.588  0.7203 -1.4967 -0.8299
 2436SOL     OW18943   3.620   3.342   5.865  0.1220  0.4687  0.2245
 2436SOL    HW118944   3.644   3.345   5.772  3.3303  0.8347  1.0475
 2436SOL    HW218945   3.529   3.368   5.872  0.5581  1.6640  1.5982
 2437SOL     OW18946   0.540   0.506  13.338 -0.4150  0.7147 -0.0371
 2437SOL    HW118947   0.461   0.490  13.390 -0.0154  1.2411  0.7277
 2437SOL    HW218948   0.507   0.580  13.287  0.3498 -1.0264 -3.0898
 2438SOL     OW18949   0.710   4.629   1.516 -0.3898  0.7311  0.1260
 2438SOL    HW118950   0.689   4.711   1.472  0.8083  0.8352 -0.2543
 2438SOL    HW218951   0.762   4.669   1.586  0.7525 -0.1767 -0.2108
 2439SOL     OW18952   1.946   1.829   7.294  0.0651  0.0412  0.2560
 2439SOL    HW118953   1.889   1.847   7.369  0.3496  2.9976 -0.2019
 2439SOL    HW218954   1.912   1.886   7.224 -0.8013  0.0478  0.6812
 2440SOL     OW18955   4.362   2.312   5.415  0.4083  0.3884  0.2557
 2440SOL    HW118956   4.274   2.347   5.427  0.5487  0.8063  0.0630
 2440SOL    HW218957   4.367   2.352   5.328 -1.0868 -1.4536 -0.6720
 2441SOL     OW18958   3.728   2.166   8.800 -0.1360  0.0646 -0.1591
 2441SOL    HW118959   3.798   2.199   8.855 -0.3830  2.1180 -1.1008
 2441SOL    HW218960   3.664   2.236   8.811 -0.7775 -0.4726 -0.4310
 2442SOL     OW18961   0.627   4.192   1.409 -0.0991  0.2289 -0.3510
 2442SOL    HW118962   0.620   4.283   1.379 -2.1865  1.1559  2.9390
 2442SOL    HW218963   0.547   4.194   1.462 -0.5824 -0.9425 -1.0312
 2443SOL     OW18964   0.245   3.359  12.638 -0.0580 -0.0847  0.2970
 2443SOL    HW118965   0.295   3.437  12.664 -2.0202  1.4247 -0.4920
 2443SOL    HW218966   0.317   3.303  12.610 -0.2543 -0.1455 -0.0817
 2444SOL     OW18967   1.048   0.624   7.718 -0.1739 -0.0331 -0.1217
 2444SOL    HW118968   1.082   0.611   7.807 -0.6014  0.0893  0.0583
 2444SOL    HW218969   0.957   0.605   7.743 -0.1688  0.5536  0.3631
 2445SOL     OW18970   3.088   1.665  12.053 -0.8162  0.6430 -0.2027
 2445SOL    HW118971   3.174   1.648  12.013 -0.5802  3.8496 -1.1042
 2445SOL    HW218972   3.050   1.579  12.068  1.9048 -0.6132 -0.4502
 2446SOL     OW18973   2.378   2.135  13.438 -0.3314 -0.3559 -0.1544
 2446SOL    HW118974   2.359   2.068  13.372  2.5226 -0.1687 -1.1834
 2446SOL    HW218975   2.288   2.133  13.470 -0.8063  2.8031 -1.2413
 2447SOL     OW18976   2.107   1.225   2.483 -0.4902 -0.3620  0.2963
 2447SOL    HW118977   2.025   1.224   2.434 -0.8693 -0.0010  0.9203
 2447SOL    HW218978   2.173   1.245   2.417  0.5452 -2.1619  0.7975
 2448SOL     OW18979   1.873   1.976   2.254  0.0677 -0.4301  0.1409
 2448SOL    HW118980   1.802   1.936   2.304 -1.4602  2.0632 -0.0347
 2448SOL    HW218981   1.843   1.971   2.163  0.9673  2.0337 -0.2985
 2449SOL     OW18982   3.658   4.561   5.102  0.3259 -0.6933  0.3988
 2449SOL    HW118983   3.654   4.584   5.195  1.6004  2.2922 -0.2945
 2449SOL    HW218984   3.568   4.584   5.080  0.7417  1.3333  0.8472
 2450SOL     OW18985   0.683   1.324  13.198 -0.2948 -0.1821 -0.8520
 2450SOL    HW118986   0.762   1.285  13.161  0.2267 -1.2989  1.4981
 2450SOL    HW218987   0.670   1.268  13.275  1.6920  1.2254  0.4861
 2451SOL     OW18988   1.646   2.836   2.844  0.4985 -0.3898 -0.3485
 2451SOL    HW118989   1.642   2.929   2.821  1.1680 -0.1842  0.4006
 2451SOL    HW218990   1.700   2.803   2.772  0.5897 -0.5922 -0.1867
 2452SOL     OW18991   0.717   3.131   5.065 -0.0660 -0.1590  0.0846
 2452SOL    HW118992   0.740   3.105   5.154 -0.8034 -4.2234 -0.9030
 2452SOL    HW218993   0.686   3.046   5.033  1.0744  0.0525 -1.5687
 2453SOL     OW18994   2.443   0.658   7.802  0.2069  0.2015  0.1218
 2453SOL    HW118995   2.380   0.657   7.875 -0.0996 -1.4305 -0.1638
 2453SOL    HW218996   2.487   0.742   7.812 -0.3778  0.4128  0.9596
 2454SOL     OW18997   1.922   1.446   8.329  0.3843  0.1288  0.3085
 2454SOL    HW118998   1.871   1.374   8.367  1.2209 -1.9916 -2.5694
 2454SOL    HW218999   1.855   1.499   8.285  1.0429  0.8488  0.1862
 2455SOL     OW19000   1.128   2.446   1.374  0.7668  0.2636  0.2001
 2455SOL    HW119001   1.143   2.539   1.361  0.2717  0.7676  3.2015
 2455SOL    HW219002   1.039   2.427   1.344  1.1125 -2.4828  0.9060
 2456SOL     OW19003   1.483   1.940   5.661  0.1475 -0.3075 -0.4521
 2456SOL    HW119004   1.466   2.033   5.676  2.9369  0.0671  0.3018
 2456SOL    HW219005   1.538   1.922   5.737  1.2757 -0.9226 -1.4210
 2457SOL     OW19006   3.658   4.559  12.668 -0.2952  0.2565  0.4355
 2457SOL    HW119007   3.712   4.482  12.649  0.4348  0.9464 -0.2536
 2457SOL    HW219008   3.710   4.603  12.736 -0.4853  0.7159  0.2833
 2458SOL     OW19009   4.344   4.039   8.218 -0.1179  0.9221 -0.0423
 2458SOL    HW119010   4.312   4.129   8.218 -4.0168 -0.4418 -0.5205
 2458SOL    HW219011   4.362   4.018   8.309  0.3307 -0.6108 -0.4746
 2459SOL     OW19012   0.805   0.034   5.339 -0.1082  0.1058 -0.5093
 2459SOL    HW119013   0.727   4.729   5.303  0.5748 -1.9906  0.5204
 2459SOL    HW219014   0.771   0.064   5.424  2.0088  1.5292 -0.1792
 2460SOL     OW19015   4.169   4.250  12.606  0.7090 -0.3623  0.3551
 2460SOL    HW119016   4.230   4.323  12.603  1.6619 -1.1989 -0.2165
 2460SOL    HW219017   4.139   4.256  12.516 -0.5345  0.9168  0.8487
 2461SOL     OW19018   2.936   3.069  12.786  0.1786 -0.2552  0.2337
 2461SOL    HW119019   3.005   3.049  12.722  0.7655  2.3311  0.0716
 2461SOL    HW219020   2.980   3.085  12.869  2.2753  0.3402 -0.9780
 2462SOL     OW19021   3.000   2.428   2.953 -0.4097 -0.0678 -0.3927
 2462SOL    HW119022   2.911   2.408   2.983 -0.2255 -0.3976 -0.0666
 2462SOL    HW219023   2.976   2.475   2.873  0.1038  0.0424 -0.4800
 2463SOL     OW19024   0.675   0.368   3.734  0.1764 -0.6944 -0.0824
 2463SOL    HW119025   0.631   0.340   3.653 -0.5379  2.4644 -0.7585
 2463SOL    HW219026   0.765   0.341   3.717  0.3285  0.7825 -1.7005
 2464SOL     OW19027   1.373   2.034   6.613 -0.2525  0.0429 -0.5328
 2464SOL    HW119028   1.426   1.967   6.569  1.4741  1.4785 -0.6323
 2464SOL    HW219029   1.385   2.001   6.703 -0.8812 -1.3478 -0.9696
 2465SOL     OW19030   4.525   2.740   2.134 -1.1050  0.5361 -0.0906
 2465SOL    HW119031   4.603   2.765   2.183 -0.7946 -0.1882 -0.2201
 2465SOL    HW219032   4.487   2.670   2.188 -2.0236  0.5105 -0.7636
 2466SOL     OW19033   1.272   0.679   1.814 -0.0566  0.1809 -0.1137
 2466SOL    HW119034   1.330   0.623   1.764  2.4195  1.9808  0.7126
 2466SOL    HW219035   1.329   0.731   1.872 -0.8155  0.2185  0.6101
 2467SOL     OW19036   2.462   3.340  17.744  0.1831 -0.2139  0.0034
 2467SOL    HW119037   2.449   3.434   0.006  1.8422  0.1171 -0.6737
 2467SOL    HW219038   2.373   3.314  17.720  0.4277 -0.4374 -0.6863
 2468SOL     OW19039   0.419   1.998   3.671 -0.0318 -0.2542  0.5861
 2468SOL    HW119040   0.454   2.086   3.653 -1.6669  0.7715  2.4690
 2468SOL    HW219041   0.492   1.940   3.650 -1.2537 -1.4963 -0.2883
 2469SOL     OW19042   2.181   3.156   7.769  0.4352  0.1384 -0.2036
 2469SOL    HW119043   2.255   3.192   7.721 -0.4131  1.0040 -0.8546
 2469SOL    HW219044   2.190   3.202   7.853 -0.2411  0.6389 -0.4036
 2470SOL     OW19045   1.369   3.729   4.010  0.4257 -0.4646 -0.0520
 2470SOL    HW119046   1.332   3.810   3.975  0.1125 -0.6564 -0.1667
 2470SOL    HW219047   1.458   3.754   3.987  0.2072 -0.3743 -0.7794
 2471SOL     OW19048   3.604   1.282   8.759  0.5687 -0.1332 -0.1990
 2471SOL    HW119049   3.681   1.335   8.738 -1.4063  3.5992  1.8873
 2471SOL    HW219050   3.621   1.252   8.848 -0.8749  0.2032  0.1939
 2472SOL     OW19051   3.916   3.694   4.894 -0.5831 -0.2664 -0.0115
 2472SOL    HW119052   4.004   3.687   4.857 -0.5332  0.8943 -0.1122
 2472SOL    HW219053   3.941   3.732   4.978  0.9476  1.0564 -1.0655
 2473SOL     OW19054   1.903   0.438  10.254  0.5967 -0.1731  0.4901
 2473SOL    HW119055   1.822   0.459  10.208 -0.4180 -0.0469  2.3409
 2473SOL    HW219056   1.944   0.367  10.204 -0.1538 -1.2866  1.4570
 2474SOL     OW19057   2.326   0.902   5.598  0.2917  0.0003 -0.1547
 2474SOL    HW119058   2.339   0.914   5.504 -0.4486  0.3155 -0.2119
 2474SOL    HW219059   2.243   0.856   5.611  0.1488  0.0519 -0.8776
 2475SOL     OW19060   3.288   2.365   2.470 -0.8014 -0.3484 -0.0874
 2475SOL    HW119061   3.227   2.292   2.480  1.0790 -1.5622  2.5067
 2475SOL    HW219062   3.370   2.334   2.509  0.5834 -2.2748 -4.4897
 2476SOL     OW19063   0.147   3.044   1.078 -0.1500  0.5837  0.7250
 2476SOL    HW119064   0.094   3.110   1.035 -2.1763 -1.6549 -0.2053
 2476SOL    HW219065   0.193   3.101   1.140  0.1194  3.0944 -1.7823
 2477SOL     OW19066   4.286   4.491   7.066  0.1747  0.1748 -0.2851
 2477SOL    HW119067   4.195   4.479   7.094  0.6884  0.0424  1.3088
 2477SOL    HW219068   4.339   4.476   7.144  0.1058  0.2068 -0.2317
 2478SOL     OW19069   3.233   2.525   6.797 -0.2812  0.6299  0.0559
 2478SOL    HW119070   3.227   2.546   6.703  0.2921 -1.0320 -0.3654
 2478SOL    HW219071   3.146   2.544   6.831  0.1112  0.0454  1.3648
 2479SOL     OW19072   1.868   2.423   3.424 -0.1656  0.1340  0.2201
 2479SOL    HW119073   1.824   2.369   3.358 -0.2188 -0.3151  0.6245
 2479SOL    HW219074   1.911   2.476   3.357 -1.5106  2.6384  1.3410
 2480SOL     OW19075   2.240   0.007   2.675 -0.0291 -0.1768 -0.3822
 2480SOL    HW119076   2.216   4.653   2.688  3.6041 -1.2060 -0.9901
 2480SOL    HW219077   2.152   0.030   2.704  0.6069  2.1933 -0.3668
 2481SOL     OW19078   4.091   1.411   6.746 -0.2923 -0.1693 -0.2177
 2481SOL    HW119079   4.007   1.419   6.791 -0.9225  1.9062 -1.7434
 2481SOL    HW219080   4.058   1.433   6.659  1.1693  3.5460  0.1536
 2482SOL     OW19081   0.054   3.679  15.849 -0.1889 -0.4623  0.4721
 2482SOL    HW119082   0.107   3.759  15.848  1.0248 -1.3340 -3.4428
 2482SOL    HW219083   4.709   3.727  15.843 -0.1731 -0.5338 -0.3847
 2483SOL     OW19084   3.067   2.903   8.957  0.1418  0.2340 -0.6070
 2483SOL    HW119085   3.068   2.959   8.880  1.7011  3.0438  1.4607
 2483SOL    HW219086   2.990   2.936   9.003  0.6571  0.4821  0.0716
 2484SOL     OW19087   1.744   1.653   2.365  0.1231 -0.4057  1.1238
 2484SOL    HW119088   1.667   1.603   2.392  0.2080  0.1695  2.4614
 2484SOL    HW219089   1.710   1.693   2.285  1.7288 -1.3616 -0.0416
 2485SOL     OW19090   2.181   2.468  17.612 -0.5167 -0.0307  0.2117
 2485SOL    HW119091   2.157   2.560  17.612 -0.4966 -0.0272  0.5101
 2485SOL    HW219092   2.273   2.488  17.630 -1.1298  2.4392  0.6065
 2486SOL     OW19093   1.866   2.974   3.393 -0.2418  0.3767  0.1579
 2486SOL    HW119094   1.789   3.029   3.403  1.1945  2.2728  0.7952
 2486SOL    HW219095   1.894   2.992   3.303  2.9251  0.5722  1.1756
 2487SOL     OW19096   3.666   0.959  10.820 -0.0469 -0.6053  0.2519
 2487SOL    HW119097   3.631   0.896  10.757 -2.6566  0.0834  1.0430
 2487SOL    HW219098   3.724   1.010  10.763 -2.0642 -0.2428 -1.4766
 2488SOL     OW19099   0.769   1.278  10.979 -0.0761  0.0034  0.5205
 2488SOL    HW119100   0.784   1.372  10.969  1.7988 -0.4282 -0.7204
 2488SOL    HW219101   0.786   1.232  10.897 -3.3467 -0.1297 -0.0878
 2489SOL     OW19102   4.677   4.650  16.171 -0.5036 -0.6277  0.0919
 2489SOL    HW119103   4.721   4.589  16.231  1.6841  2.4377  1.5604
 2489SOL    HW219104   4.638   4.719  16.225 -0.6995 -0.7104  0.0573
 2490SOL     OW19105   0.837   3.037  13.053  0.6103 -0.3847  0.0388
 2490SOL    HW119106   0.763   3.096  13.072 -1.0105 -2.9893  1.8561
 2490SOL    HW219107   0.844   2.993  13.137  1.8710 -0.5327 -0.1486
 2491SOL     OW19108   2.574   2.685   1.735  0.1669  0.5578 -0.1984
 2491SOL    HW119109   2.498   2.635   1.763 -1.4241  2.4394 -1.2332
 2491SOL    HW219110   2.551   2.707   1.645  0.8148 -0.2827 -0.5817
 2492SOL     OW19111   3.221   1.941   2.796  0.0930 -0.4595 -0.0334
 2492SOL    HW119112   3.286   1.902   2.737  0.4689 -1.3032  0.9333
 2492SOL    HW219113   3.192   2.014   2.741 -1.0360 -0.8308  0.0725
 2493SOL     OW19114   1.823   4.418   3.787  0.1739  0.3667 -0.2227
 2493SOL    HW119115   1.826   4.511   3.765 -0.1613  0.4929  0.2666
 2493SOL    HW219116   1.844   4.373   3.705  0.3164 -1.0724  0.6049
 2494SOL     OW19117   3.313   0.211   2.305  0.3011  0.0362  0.1414
 2494SOL    HW119118   3.308   0.124   2.266  0.1760  0.3159 -0.4716
 2494SOL    HW219119   3.407   0.224   2.304  0.3576 -0.3775  0.2746
 2495SOL     OW19120   3.020   0.192  16.054 -0.1268 -0.5743 -0.4122
 2495SOL    HW119121   2.992   0.270  16.007 -0.0327 -0.5142 -0.3687
 2495SOL    HW219122   3.065   0.151  15.980  1.7162 -1.5786  1.2585
 2496SOL     OW19123   0.173   0.865   3.312 -0.4636  0.5235 -0.4138
 2496SOL    HW119124   0.094   0.832   3.355  0.0924 -0.2473 -0.0003
 2496SOL    HW219125   0.128   0.904   3.236 -0.6079 -0.6400 -0.9216
 2497SOL     OW19126   4.027   2.607   0.045 -0.2677 -0.3742 -0.2769
 2497SOL    HW119127   3.951   2.613   0.102 -1.2093 -1.4944 -1.4379
 2497SOL    HW219128   4.063   2.529   0.088  0.0545 -0.6247 -1.0057
 2498SOL     OW19129   2.345   2.139   8.172 -0.0293  0.1020 -0.1223
 2498SOL    HW119130   2.269   2.092   8.207 -0.7763  0.0828 -1.7475
 2498SOL    HW219131   2.416   2.076   8.174 -1.0644 -1.0227  1.0670
 2499SOL     OW19132   2.135   3.914   3.594 -0.5025  0.1332 -0.6455
 2499SOL    HW119133   2.231   3.908   3.591 -0.4686  0.0792  0.3804
 2499SOL    HW219134   2.111   4.006   3.579  0.0762  0.3755 -0.1138
 2500SOL     OW19135   1.568   1.951  17.733 -0.3912 -0.1233 -0.3062
 2500SOL    HW119136   1.649   1.915   0.019  0.0810  1.2915  0.0642
 2500SOL    HW219137   1.497   1.911   0.034 -0.3961  0.0733 -0.1588
 2501SOL     OW19138   0.668   3.739  15.010 -0.0103  0.3982 -0.2331
 2501SOL    HW119139   0.723   3.756  14.934  1.1616 -0.7123  0.3648
 2501SOL    HW219140   0.704   3.660  15.050 -1.9523  0.5709  1.8806
 2502SOL     OW19141   2.549   2.974   7.828 -0.4578 -0.7467  0.3724
 2502SOL    HW119142   2.631   3.018   7.852 -0.4268 -1.8670  2.3570
 2502SOL    HW219143   2.525   3.039   7.762  1.7028 -0.3976 -0.0916
 2503SOL     OW19144   2.127   1.629   3.234  0.3272  0.2068  0.6434
 2503SOL    HW119145   2.111   1.702   3.294 -3.2807 -0.4314  0.4986
 2503SOL    HW219146   2.146   1.566   3.304 -1.2178  0.3675  1.2136
 2504SOL     OW19147   1.937   0.326   8.103  0.4520  0.2543 -0.1364
 2504SOL    HW119148   2.015   0.365   8.143  0.5513  1.3723 -1.4117
 2504SOL    HW219149   1.920   0.380   8.026 -1.9511 -0.4924 -0.1268
 2505SOL     OW19150   4.315   3.815   1.270 -0.0330  0.3643 -0.6759
 2505SOL    HW119151   4.242   3.873   1.289  1.8150  1.4528  3.0372
 2505SOL    HW219152   4.384   3.882   1.262 -0.2480  0.5260 -1.1874
 2506SOL     OW19153   1.005   3.958   8.282 -0.9366 -0.5231  0.0580
 2506SOL    HW119154   1.082   4.012   8.270 -1.5337  0.7054  1.7433
 2506SOL    HW219155   1.025   3.919   8.368  0.1540 -0.1197 -0.0161
 2507SOL     OW19156   4.522   0.666   4.109  0.4851  0.0786 -0.2049
 2507SOL    HW119157   4.486   0.753   4.124  1.5859 -0.0390  3.0684
 2507SOL    HW219158   4.566   0.681   4.025  2.1820 -0.4559  0.5893
 2508SOL     OW19159   1.327   3.003   4.096  0.2705 -0.1997  0.4210
 2508SOL    HW119160   1.368   3.080   4.057 -0.5196 -0.4789 -0.9802
 2508SOL    HW219161   1.405   2.951   4.114  0.3525 -0.1281  0.2703
 2509SOL     OW19162   4.149   2.111  11.298  0.0993  0.3342 -0.2105
 2509SOL    HW119163   4.156   2.110  11.203  1.3981  1.1142 -0.1168
 2509SOL    HW219164   4.075   2.172  11.301  2.2398  2.9288 -0.9161
 2510SOL     OW19165   2.411   0.004  17.699 -0.8279  0.1753 -0.3948
 2510SOL    HW119166   2.388   0.030  17.610 -0.8668 -1.8168 -0.9782
 2510SOL    HW219167   2.491   4.690  17.692  0.6278  2.3487  0.0096
 2511SOL     OW19168   0.692   2.369   7.856  0.4939  0.0760 -0.2262
 2511SOL    HW119169   0.612   2.415   7.882  0.2535  0.3118 -1.3869
 2511SOL    HW219170   0.754   2.396   7.923 -0.7043  0.3405  0.7737
 2512SOL     OW19171   0.703   2.837   4.718  0.0780  0.6264 -0.6143
 2512SOL    HW119172   0.653   2.757   4.701  1.6913 -0.6275  0.5589
 2512SOL    HW219173   0.742   2.826   4.632  2.2412 -0.6349  0.5168
 2513SOL     OW19174   2.398   3.956   9.220 -0.0805  0.6862 -0.0993
 2513SOL    HW119175   2.375   3.982   9.309  1.5240 -0.6310  0.6961
 2513SOL    HW219176   2.454   4.033   9.205 -1.6293  1.5846 -1.3074
 2514SOL     OW19177   2.415   0.917   2.890  0.0394  0.7035 -0.5867
 2514SOL    HW119178   2.387   0.977   2.959  0.5960  0.1326  0.1370
 2514SOL    HW219179   2.386   0.967   2.814  0.9477 -0.3645 -1.6431
 2515SOL     OW19180   4.540   1.908  15.845 -0.5075  0.1643 -0.1349
 2515SOL    HW119181   4.484   1.853  15.899  0.9609  0.2897  1.4999
 2515SOL    HW219182   4.517   1.996  15.875 -3.1854 -0.8542  0.7916
 2516SOL     OW19183   2.979   4.650   5.880  0.6929 -0.1374  0.7200
 2516SOL    HW119184   2.977   4.691   5.794  0.9721 -0.0511  0.7567
 2516SOL    HW219185   3.058   4.598   5.862  1.7686  1.6392  0.3894
 2517SOL     OW19186   2.720   1.575   2.823 -0.3124  0.2058 -0.1801
 2517SOL    HW119187   2.684   1.487   2.812  1.2127 -0.3089 -1.2037
 2517SOL    HW219188   2.720   1.592   2.917  0.6451 -1.2576  0.0860
 2518SOL     OW19189   3.474   3.023   2.526  0.1145 -0.0825  0.3746
 2518SOL    HW119190   3.543   2.973   2.570 -0.6619 -1.4995 -0.0445
 2518SOL    HW219191   3.420   3.046   2.601 -1.2319 -2.7613  0.1950
 2519SOL     OW19192   2.698   1.130   6.171  0.2864 -0.2569  0.1139
 2519SOL    HW119193   2.632   1.194   6.198  0.7938 -0.0484  0.8559
 2519SOL    HW219194   2.677   1.046   6.212 -0.3629 -0.3788 -0.4553
 2520SOL     OW19195   3.132   0.903   2.175  0.4971 -0.3934 -0.0871
 2520SOL    HW119196   3.072   0.916   2.248  1.0336 -1.2439  0.5021
 2520SOL    HW219197   3.101   0.969   2.113 -1.8720 -2.7777 -1.4714
 2521SOL     OW19198   4.329   4.124   5.658  0.5084 -0.6863 -0.0198
 2521SOL    HW119199   4.309   4.195   5.597 -0.0901  0.4657  1.5279
 2521SOL    HW219200   4.396   4.087   5.600 -0.0043 -0.2069 -0.9309
 2522SOL     OW19201   3.587   4.734  10.140 -0.1024  0.8444 -0.2810
 2522SOL    HW119202   3.582   0.082  10.180  0.0460  1.3620 -1.3694
 2522SOL    HW219203   3.580   0.019  10.047 -0.6589  3.4317  0.4020
 2523SOL     OW19204   2.014   1.336   9.078  0.2375  0.7176  0.1422
 2523SOL    HW119205   2.081   1.353   9.144 -1.2482  1.1253  1.5577
 2523SOL    HW219206   1.968   1.265   9.122  1.0501  1.5742  2.3537
 2524SOL     OW19207   3.871   3.720   6.685 -0.0734 -0.2899 -0.2376
 2524SOL    HW119208   3.787   3.745   6.647  0.0190 -0.5789 -0.6294
 2524SOL    HW219209   3.879   3.639   6.634  1.2218 -1.1090  1.2830
 2525SOL     OW19210   2.739   4.469   2.487 -0.0975  0.7021 -0.1282
 2525SOL    HW119211   2.694   4.483   2.570  0.7983 -1.5393  0.7496
 2525SOL    HW219212   2.756   4.559   2.459 -2.4235  1.7433  1.8305
 2526SOL     OW19213   1.585   3.597   7.036 -0.2345  0.4281 -0.1304
 2526SOL    HW119214   1.591   3.501   7.029  0.1984  0.5311 -1.2266
 2526SOL    HW219215   1.508   3.608   6.981 -0.0042  1.4195 -0.2481
 2527SOL     OW19216   2.954   0.139  14.876  0.3288 -0.0507 -0.0222
 2527SOL    HW119217   3.013   0.187  14.935 -1.1292  0.5351  0.9640
 2527SOL    HW219218   2.968   0.050  14.908 -0.2609 -0.3000 -0.4478
 2528SOL     OW19219   1.092   3.674  13.740 -0.4830 -0.3422  0.5832
 2528SOL    HW119220   1.178   3.710  13.760  0.4266 -2.5188  0.6416
 2528SOL    HW219221   1.033   3.749  13.748  1.8782  1.3542  2.0429
 2529SOL     OW19222   0.707   0.737  10.301 -0.3034  0.8625 -0.4968
 2529SOL    HW119223   0.666   0.652  10.315 -1.6728  1.7545  0.9951
 2529SOL    HW219224   0.781   0.718  10.360 -1.0304  0.8134  0.4029
 2530SOL     OW19225   2.849   3.515   1.767 -0.4119 -0.3672 -0.1433
 2530SOL    HW119226   2.874   3.585   1.827  0.2973 -0.9927  0.2916
 2530SOL    HW219227   2.764   3.547   1.736 -0.5252 -2.2180 -1.7401
 2531SOL     OW19228   3.341   3.203   3.718  0.1489 -0.2111  0.2799
 2531SOL    HW119229   3.293   3.239   3.644  1.3354  1.5713  0.3771
 2531SOL    HW219230   3.412   3.155   3.673  1.1412 -0.4306  2.0984
 2532SOL     OW19231   4.134   4.394   5.851 -0.0189 -0.6752  0.5604
 2532SOL    HW119232   4.210   4.346   5.885  2.2257  1.3844 -1.5784
 2532SOL    HW219233   4.168   4.473   5.810  1.6897 -1.2394  0.9050
 2533SOL     OW19234   0.691   2.946   5.628 -0.2452 -0.3144  0.5239
 2533SOL    HW119235   0.700   2.924   5.720 -1.0659  0.1149  0.7031
 2533SOL    HW219236   0.768   2.998   5.607  0.5404 -0.9867  1.8117
 2534SOL     OW19237   3.171   0.013   6.561  0.2750 -0.0313 -1.0884
 2534SOL    HW119238   3.230   4.677   6.549 -0.2733 -0.5603 -0.4986
 2534SOL    HW219239   3.153   0.034   6.470 -1.1094 -0.2670 -0.8656
 2535SOL     OW19240   0.276   2.712   4.651 -0.0736 -0.9000 -0.0690
 2535SOL    HW119241   0.226   2.657   4.711 -1.4627 -0.4776 -0.8434
 2535SOL    HW219242   0.293   2.787   4.708  0.6529 -1.6399  0.6982
 2536SOL     OW19243   2.271   0.512  15.453  0.3925 -0.7727  0.0435
 2536SOL    HW119244   2.222   0.511  15.371 -0.0144  0.4615  0.2604
 2536SOL    HW219245   2.224   0.567  15.516  1.5365 -0.2084  0.4103
 2537SOL     OW19246   3.417   0.079   6.742  0.6405 -0.2680  0.0028
 2537SOL    HW119247   3.444   4.731   6.773  3.6903  0.8452  0.4485
 2537SOL    HW219248   3.328   0.063   6.710  0.9797 -1.8640 -0.1125
 2538SOL     OW19249   3.271   1.450   0.010  0.0423 -0.4293  0.3135
 2538SOL    HW119250   3.334   1.456  17.688 -0.9192 -0.5222 -0.5318
 2538SOL    HW219251   3.193   1.421  17.713 -0.3134 -1.3236  1.4569
 2539SOL     OW19252   1.010   0.034  14.626 -0.3326  0.2887 -0.4310
 2539SOL    HW119253   1.087   4.716  14.626 -0.3882  0.1947  0.7654
 2539SOL    HW219254   0.949   4.699  14.640 -0.0936 -0.1654 -1.7827
 2540SOL     OW19255   3.622   3.437   8.130  0.1817  0.6443  0.0437
 2540SOL    HW119256   3.540   3.472   8.096  1.0928  2.2538 -0.5221
 2540SOL    HW219257   3.595   3.347   8.149  0.3611  0.4394 -0.7011
 2541SOL     OW19258   1.109   1.542  15.177  0.0541  0.0456  0.3179
 2541SOL    HW119259   1.082   1.633  15.164  0.2408  0.0359 -0.1320
 2541SOL    HW219260   1.160   1.526  15.257  2.0417  1.4816 -0.6691
 2542SOL     OW19261   3.745   1.818   7.023  0.1583  0.2989 -0.0086
 2542SOL    HW119262   3.833   1.834   7.055 -0.2360  1.0886  0.6873
 2542SOL    HW219263   3.705   1.760   7.089  2.4057  0.3748  1.4255
 2543SOL     OW19264   1.073   4.592   1.648  0.4635 -0.3099  0.1038
 2543SOL    HW119265   1.118   4.508   1.652  0.8532 -0.1036  0.0315
 2543SOL    HW219266   1.145   4.645   1.682 -0.3283 -0.7949  2.5471
 2544SOL     OW19267   0.678   4.161   2.129 -0.7461  0.2479 -0.1139
 2544SOL    HW119268   0.727   4.136   2.207 -0.3211  0.6489 -0.2525
 2544SOL    HW219269   0.613   4.223   2.160 -0.2339  0.5527  0.3554
 2545SOL     OW19270   2.938   1.293   6.060 -0.1173  0.2018 -0.4563
 2545SOL    HW119271   2.886   1.248   5.993  0.5256  0.2007 -0.9521
 2545SOL    HW219272   2.896   1.264   6.141 -1.0884  1.7416 -0.4115
 2546SOL     OW19273   3.582   0.884   5.575 -0.1398  0.1194  0.1948
 2546SOL    HW119274   3.540   0.903   5.491  1.0836 -1.8581 -0.8687
 2546SOL    HW219275   3.665   0.839   5.561 -0.2164 -0.3901  1.4203
 2547SOL     OW19276   1.402   3.083  12.944 -0.4217  0.4002 -0.1309
 2547SOL    HW119277   1.408   3.178  12.935  0.8350  0.2944 -0.3563
 2547SOL    HW219278   1.455   3.060  12.868 -2.4555 -0.8674 -1.1798
 2548SOL     OW19279   1.396   4.099   4.031 -0.2117 -0.2990  0.2613
 2548SOL    HW119280   1.310   4.064   4.054  0.2478 -0.8318  1.1579
 2548SOL    HW219281   1.463   4.035   4.057  0.9779  1.4834  1.5911
 2549SOL     OW19282   3.364   0.528   6.875  0.1984  0.0285  0.1325
 2549SOL    HW119283   3.410   0.451   6.841 -0.3028 -1.7547  3.5252
 2549SOL    HW219284   3.436   0.550   6.934  1.8507 -0.4697 -1.6763
 2550SOL     OW19285   2.641   3.041  16.248  0.1283 -0.7794  0.6356
 2550SOL    HW119286   2.573   2.977  16.271 -1.6010  0.0134 -2.3129
 2550SOL    HW219287   2.583   3.107  16.209 -2.0613 -2.2512  1.3876
 2551SOL     OW19288   2.810   2.726   2.279  0.1849 -0.1506  0.7629
 2551SOL    HW119289   2.901   2.743   2.305  0.1076  2.2974 -0.5776
 2551SOL    HW219290   2.767   2.788   2.337 -1.7296 -1.4835  0.7785
 2552SOL     OW19291   2.198   4.672   3.306 -0.0834  0.4419 -0.3804
 2552SOL    HW119292   2.280   4.651   3.262 -0.2550  0.6813 -0.8191
 2552SOL    HW219293   2.140   4.633   3.240 -1.0684 -0.8912  1.2748
 2553SOL     OW19294   0.319   1.970   7.936 -0.0822  0.5941  0.1460
 2553SOL    HW119295   0.320   2.046   7.994 -0.1491 -1.5569  2.9380
 2553SOL    HW219296   0.299   2.008   7.850 -2.0987  0.7317  0.6662
 2554SOL     OW19297   3.666   3.008   3.220 -0.0989  0.2067  0.4043
 2554SOL    HW119298   3.711   3.021   3.137  0.0801  0.1070  0.4848
 2554SOL    HW219299   3.736   2.994   3.284 -0.3963 -0.1008  0.6654
 2555SOL     OW19300   1.883   2.300   7.131 -0.4126 -0.4394  0.2274
 2555SOL    HW119301   1.907   2.248   7.208 -0.8796 -1.2913 -0.2005
 2555SOL    HW219302   1.913   2.381   7.171 -1.1832  0.3139 -0.7515
 2556SOL     OW19303   1.097   2.795   1.568  0.1885 -0.2479 -0.6198
 2556SOL    HW119304   1.005   2.790   1.541  0.7370 -3.0996 -2.0985
 2556SOL    HW219305   1.117   2.858   1.499 -0.6982  0.4917 -0.1885
 2557SOL     OW19306   3.179   1.878   6.692 -0.2360  0.4254 -0.1733
 2557SOL    HW119307   3.112   1.894   6.758 -0.2199  1.5207 -0.4323
 2557SOL    HW219308   3.147   1.801   6.644  2.5175 -1.1664  0.5128
 2558SOL     OW19309   2.536   4.031   7.467 -0.3650  0.1688 -0.1219
 2558SOL    HW119310   2.514   4.040   7.560  1.2462  0.6329  0.2016
 2558SOL    HW219311   2.629   4.052   7.472 -1.0432  2.8016  1.3388
 2559SOL     OW19312   2.166   0.760   9.372  0.3671 -0.5943 -1.0159
 2559SOL    HW119313   2.171   0.854   9.392  0.5159 -0.8693  0.2768
 2559SOL    HW219314   2.175   0.726   9.462  0.0671  1.1432 -0.3283
 2560SOL     OW19315   1.796   0.687  17.089 -0.0638  0.0417 -0.0358
 2560SOL    HW119316   1.811   0.606  17.137  2.1494  1.0404  0.9578
 2560SOL    HW219317   1.883   0.697  17.053 -0.4589  1.7739 -0.4919
 2561SOL     OW19318   4.649   0.435   0.752  0.2251  0.0253  0.6828
 2561SOL    HW119319   4.604   0.511   0.715  1.1436 -0.2747 -1.0658
 2561SOL    HW219320   4.710   0.486   0.806 -0.5492  0.5059  1.0923
 2562SOL     OW19321   2.518   3.827   2.066 -0.3404 -0.4549 -0.6419
 2562SOL    HW119322   2.455   3.899   2.069 -0.5608 -0.7390  2.6433
 2562SOL    HW219323   2.453   3.761   2.040  0.0716 -0.4885 -1.5807
 2563SOL     OW19324   4.361   1.961   8.870  0.1649 -0.2947  0.5228
 2563SOL    HW119325   4.350   1.901   8.797 -0.8508 -0.5230  0.8728
 2563SOL    HW219326   4.457   1.962   8.868  0.1680 -1.3829  0.5822
 2564SOL     OW19327   2.529   3.879   3.888  0.4636  0.2478 -0.4643
 2564SOL    HW119328   2.542   3.910   3.798  2.3429  0.4891 -0.1087
 2564SOL    HW219329   2.502   3.788   3.878 -0.2194  0.4920 -0.8666
 2565SOL     OW19330   2.759   4.139  13.268  0.1795  0.5992 -0.7237
 2565SOL    HW119331   2.780   4.081  13.194  2.0416  0.8131 -0.3556
 2565SOL    HW219332   2.681   4.186  13.236 -0.3477 -0.0366 -0.3772
 2566SOL     OW19333   0.287   1.153   9.269  0.4361 -0.3324 -0.0927
 2566SOL    HW119334   0.228   1.223   9.243  2.2581  1.4081  0.4320
 2566SOL    HW219335   0.245   1.085   9.216 -0.0863 -0.7574  0.8677
 2567SOL     OW19336   3.320   0.083   3.847 -0.3583  0.0603  0.3927
 2567SOL    HW119337   3.229   0.081   3.876 -0.9632 -1.6658 -1.5917
 2567SOL    HW219338   3.330   4.737   3.801 -0.2363 -0.3271  1.1234
 2568SOL     OW19339   3.215   2.739  16.348 -0.1181  0.8679 -0.2817
 2568SOL    HW119340   3.161   2.816  16.335 -1.4785  0.2058  1.5677
 2568SOL    HW219341   3.222   2.708  16.257  1.9180  1.3468 -0.2869
 2569SOL     OW19342   2.632   0.344  16.426 -0.7397 -0.1176 -0.1108
 2569SOL    HW119343   2.625   0.301  16.511  0.1772 -0.4669 -0.2035
 2569SOL    HW219344   2.673   0.427  16.452 -0.0467  0.5244 -3.2335
 2570SOL     OW19345   2.080   4.285   9.451 -0.1634  0.5239  0.3592
 2570SOL    HW119346   2.080   4.380   9.442 -1.0870  0.7078  2.2916
 2570SOL    HW219347   2.020   4.266   9.379 -1.9303  1.9668  1.4477
 2571SOL     OW19348   0.211   2.028   4.588  0.2057 -0.1198 -0.0042
 2571SOL    HW119349   0.119   2.003   4.588 -0.0758  0.9314 -1.1380
 2571SOL    HW219350   0.249   1.940   4.587  0.1265 -0.1029 -3.6157
 2572SOL     OW19351   4.654   4.347   3.604  0.5664 -0.3566  0.2024
 2572SOL    HW119352   4.570   4.385   3.629  1.5589  1.5325  0.6414
 2572SOL    HW219353   4.635   4.300   3.523 -0.3150  1.9377 -0.9304
 2573SOL     OW19354   4.209   3.622   5.694  0.0924  0.0957 -0.5466
 2573SOL    HW119355   4.171   3.544   5.734 -0.1493  1.0756  1.1430
 2573SOL    HW219356   4.138   3.683   5.715 -0.7920 -0.2463 -2.6092
 2574SOL     OW19357   1.700   0.629   8.095  0.4222  0.3703 -0.5324
 2574SOL    HW119358   1.615   0.617   8.053 -0.9945  2.0055  1.8757
 2574SOL    HW219359   1.694   0.571   8.171  0.7442  2.9348  1.4226
 2575SOL     OW19360   1.892   1.345   7.975 -0.6079 -0.2391  0.2821
 2575SOL    HW119361   1.838   1.421   7.952 -0.0744  0.3346  0.8789
 2575SOL    HW219362   1.822   1.280   7.975  0.0497 -0.9526  1.7484
 2576SOL     OW19363   3.030   4.175   2.525 -0.3074 -0.2753  0.1747
 2576SOL    HW119364   2.960   4.111   2.541  2.8452 -2.9043  3.2939
 2576SOL    HW219365   3.017   4.199   2.433 -0.3879 -0.9866 -0.0021
 2577SOL     OW19366   1.545   2.734   5.765  0.2660  0.6895  0.5214
 2577SOL    HW119367   1.538   2.725   5.670 -1.9249 -0.0503  0.7474
 2577SOL    HW219368   1.558   2.640   5.778 -0.0347  0.4784 -0.6984
 2578SOL     OW19369   0.319   2.887   9.461 -0.4362  0.7413 -0.0661
 2578SOL    HW119370   0.308   2.810   9.516 -0.3595  0.1676 -0.8600
 2578SOL    HW219371   0.391   2.930   9.509 -0.5278 -0.6077  1.2644
 2579SOL     OW19372   3.243   0.712   0.418 -0.3204  0.0711 -0.0598
 2579SOL    HW119373   3.254   0.718   0.323  0.2824 -0.8081 -0.0507
 2579SOL    HW219374   3.273   0.800   0.442  1.8574 -0.7819  0.3459
 2580SOL     OW19375   2.896   0.890  11.266 -0.0347  0.3140  0.0381
 2580SOL    HW119376   2.869   0.962  11.209 -0.5985  0.8373  0.9657
 2580SOL    HW219377   2.875   0.913  11.357  2.4697 -0.4079  0.7846
 2581SOL     OW19378   0.597   4.621   8.550 -0.5141  0.4218 -0.0678
 2581SOL    HW119379   0.570   4.612   8.459  1.5907  0.9104 -0.7507
 2581SOL    HW219380   0.617   4.534   8.585  0.9875 -0.4574 -3.1218
 2582SOL     OW19381   1.982   3.127   4.523 -0.5974  0.3531 -0.2447
 2582SOL    HW119382   2.071   3.093   4.528 -0.9492 -0.8580 -2.4033
 2582SOL    HW219383   1.984   3.207   4.575  1.1572 -0.6506  1.2223
 2583SOL     OW19384   2.071   4.587  16.766  0.2899  0.4288  0.2274
 2583SOL    HW119385   2.023   4.599  16.684  0.9765 -1.3022 -0.4383
 2583SOL    HW219386   2.049   4.500  16.799  0.4196  0.8163  1.3194
 2584SOL     OW19387   2.937   3.223   7.597  0.1740 -0.2721  0.1665
 2584SOL    HW119388   2.910   3.305   7.555  0.1243  0.3654  1.4451
 2584SOL    HW219389   2.977   3.173   7.526  0.5164  0.4596 -0.1533
 2585SOL     OW19390   2.420   0.379   7.821 -0.3199 -0.1450 -0.9748
 2585SOL    HW119391   2.465   0.343   7.897  0.6273  1.3745 -0.8216
 2585SOL    HW219392   2.455   0.467   7.811  2.9381 -1.1720  1.7531
 2586SOL     OW19393   2.929   4.160  13.461  0.5545 -0.4006 -0.2775
 2586SOL    HW119394   2.914   4.095  13.529 -1.1716  0.3422  0.0553
 2586SOL    HW219395   2.855   4.156  13.400  1.1296 -0.3312 -0.9917
 2587SOL     OW19396   0.210   0.282   2.658  0.9727  0.2994  0.4383
 2587SOL    HW119397   0.261   0.358   2.629  0.4785  0.6221  0.4084
 2587SOL    HW219398   0.168   0.252   2.578 -1.1409  1.4807  1.0937
 2588SOL     OW19399   0.808   2.627   6.126  0.8939 -0.4183 -0.3945
 2588SOL    HW119400   0.789   2.539   6.158 -0.3181 -0.0353 -0.0622
 2588SOL    HW219401   0.903   2.614   6.130  1.1772  1.9539  0.8375
 2589SOL     OW19402   3.139   0.727  10.673 -0.7076  0.1682  0.5126
 2589SOL    HW119403   3.075   0.748  10.741  0.5685  1.7276  1.2365
 2589SOL    HW219404   3.124   0.800  10.613  0.1682 -2.0983 -2.4677
 2590SOL     OW19405   3.633   0.519   8.378 -0.5256 -0.0245 -0.6122
 2590SOL    HW119406   3.726   0.526   8.396 -0.6754  1.4313 -0.4096
 2590SOL    HW219407   3.633   0.537   8.284  1.3157  0.4564 -0.5209
 2591SOL     OW19408   3.327   1.817  11.823  0.5560 -0.4884 -0.1721
 2591SOL    HW119409   3.279   1.769  11.755  0.1908 -0.5971  0.1639
 2591SOL    HW219410   3.398   1.756  11.842 -0.2753 -1.1380  0.8614
 2592SOL     OW19411   2.707   0.227   7.955 -0.0069  0.3737 -0.5694
 2592SOL    HW119412   2.636   0.260   8.010  0.0008 -1.5179  0.5456
 2592SOL    HW219413   2.710   0.303   7.896 -1.2598  0.5085 -0.4464
 2593SOL     OW19414   4.188   1.023   2.248 -0.2463  0.1460 -0.1710
 2593SOL    HW119415   4.233   0.943   2.219 -1.2064 -0.1576 -0.8394
 2593SOL    HW219416   4.186   0.985   2.335  0.8306  2.0307  0.6648
 2594SOL     OW19417   3.900   0.995   7.152  0.5944  0.4637 -0.4527
 2594SOL    HW119418   3.814   0.957   7.131  0.8375 -0.3970  0.1061
 2594SOL    HW219419   3.952   0.916   7.164 -1.2663 -0.8051 -0.6194
 2595SOL     OW19420   0.600   3.280   2.372  0.0662 -0.4139  0.2988
 2595SOL    HW119421   0.577   3.304   2.282 -0.9778 -2.5305 -0.0103
 2595SOL    HW219422   0.695   3.279   2.381  0.2168  0.5281 -1.0687
 2596SOL     OW19423   4.202   1.130   6.064 -0.3567  0.0920 -0.5728
 2596SOL    HW119424   4.222   1.097   6.152  0.2586  1.0694 -0.3448
 2596SOL    HW219425   4.147   1.205   6.086  2.0415  1.8859 -0.7427
 2597SOL     OW19426   2.337   1.048   8.571  0.8646 -0.2395 -0.9820
 2597SOL    HW119427   2.247   1.018   8.564  1.2284 -1.4501 -0.3723
 2597SOL    HW219428   2.375   1.019   8.488  0.6371  0.4700 -1.3326
 2598SOL     OW19429   4.329   1.818  14.114  0.2236  0.0241 -0.0276
 2598SOL    HW119430   4.388   1.757  14.069 -0.5894 -1.8076  1.3999
 2598SOL    HW219431   4.305   1.754  14.181 -2.5905  0.6056 -0.4714
 2599SOL     OW19432   0.984   2.593   8.482  0.2727  0.3033 -0.2441
 2599SOL    HW119433   1.055   2.531   8.466 -0.9641 -1.5153  1.4332
 2599SOL    HW219434   1.026   2.675   8.507 -0.4995 -0.0165  2.1384
 2600SOL     OW19435   2.705   2.128   8.391  0.2095 -0.1334  0.1730
 2600SOL    HW119436   2.665   2.186   8.327  2.0023  0.9500  0.0403
 2600SOL    HW219437   2.673   2.050   8.346  0.1370 -0.5443  0.9282
 2601SOL     OW19438   0.925   1.108  13.483 -0.2730  0.5337 -0.2794
 2601SOL    HW119439   0.899   1.017  13.468 -0.5311  0.1662  2.3999
 2601SOL    HW219440   0.957   1.130  13.395 -1.6097  0.4707 -0.7877
 2602SOL     OW19441   1.025   3.669   5.781 -0.3300  0.1741 -0.0211
 2602SOL    HW119442   0.961   3.700   5.845  0.7909  0.3742  1.0045
 2602SOL    HW219443   1.111   3.685   5.820 -0.1444  0.6942 -0.6437
 2603SOL     OW19444   2.693   3.718   5.528  0.1992  0.0825 -0.5096
 2603SOL    HW119445   2.758   3.756   5.470  0.3404 -2.3897 -1.9765
 2603SOL    HW219446   2.617   3.728   5.471  1.3842  2.0045 -1.7284
 2604SOL     OW19447   1.508   1.370   8.141  0.1424 -0.3582  0.5987
 2604SOL    HW119448   1.437   1.385   8.079  2.7027  1.2966 -1.8976
 2604SOL    HW219449   1.525   1.277   8.122  0.8335  0.5075 -2.9099
 2605SOL     OW19450   0.563   0.107  10.685  0.6811  0.7079 -0.1976
 2605SOL    HW119451   0.529   0.091  10.596 -1.8026  1.8033  0.5409
 2605SOL    HW219452   0.577   0.202  10.688 -0.1852  0.7349  2.2914
 2606SOL     OW19453   2.289   0.193   5.635 -0.0798  0.1287 -0.3259
 2606SOL    HW119454   2.341   0.149   5.567  3.8384  0.4679  2.4263
 2606SOL    HW219455   2.215   0.216   5.580 -0.8862  0.2193  0.7891
 2607SOL     OW19456   0.213   0.911   8.403  0.4889 -0.5109 -0.1919
 2607SOL    HW119457   0.197   0.914   8.497  0.2985 -1.1293 -0.2064
 2607SOL    HW219458   0.187   0.822   8.379 -0.9770  0.0513 -0.6789
 2608SOL     OW19459   4.022   2.193   5.791  0.2398 -0.4935  0.1654
 2608SOL    HW119460   4.030   2.256   5.862  0.9370  1.1447 -1.3896
 2608SOL    HW219461   3.994   2.113   5.837 -0.0810 -0.2590  0.3758
 2609SOL     OW19462   3.294   2.262   7.482 -0.7399  0.1965 -0.2792
 2609SOL    HW119463   3.341   2.181   7.504 -0.1082  0.2441 -1.4477
 2609SOL    HW219464   3.239   2.222   7.414 -1.2804 -3.1612  2.1249
 2610SOL     OW19465   0.118   3.757   2.128  0.1519  0.5828 -0.2868
 2610SOL    HW119466   0.137   3.676   2.175  0.2933  1.0411  0.4481
 2610SOL    HW219467   0.025   3.760   2.152  0.7842  0.7749  2.1478
 2611SOL     OW19468   1.856   2.600   4.102  0.2436  0.3736 -0.2761
 2611SOL    HW119469   1.788   2.547   4.145 -0.6836  1.0472 -0.9051
 2611SOL    HW219470   1.859   2.544   4.025 -0.1120  1.7677 -1.2817
 2612SOL     OW19471   2.737   1.433  10.563 -0.4802 -0.6290  0.4140
 2612SOL    HW119472   2.677   1.358  10.557  0.1678 -1.2311  1.5009
 2612SOL    HW219473   2.823   1.393  10.552 -0.8268 -1.4315  0.6470
 2613SOL     OW19474   0.561   0.808   9.058 -0.3496 -0.1544 -0.6373
 2613SOL    HW119475   0.532   0.802   9.149  0.9167 -2.3911 -0.3738
 2613SOL    HW219476   0.505   0.744   9.014  1.7216 -1.2036 -1.7415
 2614SOL     OW19477   0.811   2.927   8.348  0.7143 -0.1669 -0.4208
 2614SOL    HW119478   0.733   2.983   8.342  2.5160  2.3774 -0.1415
 2614SOL    HW219479   0.857   2.947   8.266  2.2671  1.8697  0.9231
 2615SOL     OW19480   3.178   0.776  15.795  0.3959  0.1620 -0.3261
 2615SOL    HW119481   3.083   0.761  15.796  0.5468 -0.8079 -0.2468
 2615SOL    HW219482   3.203   0.734  15.713  0.0293  0.3849 -0.5476
 2616SOL     OW19483   0.054   3.569   7.342 -0.5093 -0.4144  0.3604
 2616SOL    HW119484   0.129   3.516   7.316 -1.4209 -0.3296 -2.4803
 2616SOL    HW219485   0.082   3.660   7.346 -1.2716 -0.2386  1.7138
 2617SOL     OW19486   1.012   1.059   8.142  0.1292 -0.4878  0.4482
 2617SOL    HW119487   1.026   1.098   8.228  1.0403 -1.2516  0.6473
 2617SOL    HW219488   0.986   1.142   8.102 -0.3350 -1.3545 -1.0811
 2618SOL     OW19489   1.953   0.996   9.908 -0.1128  0.0206 -0.1057
 2618SOL    HW119490   2.006   1.005   9.987 -2.1865  0.2985  1.2522
 2618SOL    HW219491   2.005   0.936   9.855  1.0389  1.0165 -0.1119
 2619SOL     OW19492   0.292   2.520   8.184  0.4281 -0.3802  0.1534
 2619SOL    HW119493   0.374   2.541   8.229 -0.7836  2.8059  0.9169
 2619SOL    HW219494   0.253   2.457   8.244 -0.7406  1.8937  1.7827
 2620SOL     OW19495   4.200   0.261   6.496 -0.4173  0.6201 -0.5813
 2620SOL    HW119496   4.126   0.203   6.512  1.9791 -2.2952  0.0600
 2620SOL    HW219497   4.157   0.344   6.515 -1.1071  0.2265 -0.4188
 2621SOL     OW19498   2.475   3.557   8.003 -0.7730 -0.2672 -0.0674
 2621SOL    HW119499   2.525   3.490   8.050 -0.5780  0.3703  0.6325
 2621SOL    HW219500   2.546   3.617   7.978  0.3605 -2.7939 -3.0015
 2622SOL     OW19501   0.854   3.728  16.365  0.2946 -1.1076 -0.3879
 2622SOL    HW119502   0.838   3.810  16.411 -1.8104 -1.5023 -0.4230
 2622SOL    HW219503   0.780   3.676  16.395  0.8302 -0.2660  2.4359
 2623SOL     OW19504   3.325   0.341   2.548  0.2862  0.2115  0.4125
 2623SOL    HW119505   3.268   0.296   2.611 -2.1871 -0.5818 -2.3852
 2623SOL    HW219506   3.325   0.286   2.469  1.0132  0.7196  0.0659
 2624SOL     OW19507   3.254   4.221  15.000 -0.3342 -0.4302 -0.0287
 2624SOL    HW119508   3.171   4.226  14.953 -0.3159  3.2133  0.3273
 2624SOL    HW219509   3.273   4.128  14.988  2.2419  0.2292 -0.9842
 2625SOL     OW19510   4.044   1.132  13.641  0.2850  0.4470 -0.1979
 2625SOL    HW119511   4.048   1.038  13.625 -1.9716  0.2000  0.7452
 2625SOL    HW219512   4.134   1.151  13.670  0.2903  1.0053 -0.5777
 2626SOL     OW19513   3.057   1.008  16.892  0.5837  0.2620 -0.3835
 2626SOL    HW119514   3.071   1.099  16.867  1.9295  0.5507  1.4752
 2626SOL    HW219515   3.002   1.020  16.969  1.8108  0.0235  0.5178
 2627SOL     OW19516   2.549   2.491   4.518 -0.4443  0.3252  0.7154
 2627SOL    HW119517   2.500   2.443   4.451 -0.4724 -0.8333  1.5831
 2627SOL    HW219518   2.504   2.465   4.598 -0.4414  0.1566  0.6617
 2628SOL     OW19519   2.699   2.833   6.142 -0.1739 -0.7525 -0.0784
 2628SOL    HW119520   2.744   2.814   6.060 -0.9138 -0.9914 -0.4286
 2628SOL    HW219521   2.642   2.908   6.126  0.3378 -0.3160  0.1662
 2629SOL     OW19522   4.664   1.173   2.511  0.1570 -0.2617  0.6695
 2629SOL    HW119523   4.572   1.192   2.528  0.0493  0.3056 -0.5328
 2629SOL    HW219524   4.650   1.109   2.440 -2.7124  2.5784 -1.3123
 2630SOL     OW19525   4.649   1.551   3.539 -0.0270 -0.1148 -0.1847
 2630SOL    HW119526   4.715   1.495   3.498 -0.3835 -1.3791  0.9623
 2630SOL    HW219527   4.650   1.625   3.478  1.6993  0.9292  1.0976
 2631SOL     OW19528   0.252   0.178   4.419 -0.1997 -0.6874 -0.0763
 2631SOL    HW119529   0.190   0.222   4.362 -0.0427  0.1691  0.4201
 2631SOL    HW219530   0.296   0.110   4.368  1.0953 -1.0173  1.4485
 2632SOL     OW19531   1.914   0.350   7.000 -0.3784  0.0010  0.3064
 2632SOL    HW119532   1.953   0.420   7.053 -0.6197  0.3805 -0.0172
 2632SOL    HW219533   1.835   0.390   6.964  0.8544  0.2942 -2.0591
 2633SOL     OW19534   3.222   4.648   5.244  0.1438  0.1294  0.1459
 2633SOL    HW119535   3.204   4.723   5.299  1.6151  1.5736 -1.3071
 2633SOL    HW219536   3.172   4.583   5.291  2.2837  0.0247  2.2707
 2634SOL     OW19537   0.244   1.810   7.328  0.2162  0.0211  0.0001
 2634SOL    HW119538   0.280   1.896   7.353  1.5243 -0.4014 -0.4640
 2634SOL    HW219539   0.243   1.813   7.232 -2.3865  0.3949  0.0427
 2635SOL     OW19540   4.733   4.180   1.381 -0.2626  0.2755  0.2977
 2635SOL    HW119541   0.022   4.088   1.381  0.3969  0.4795 -1.8895
 2635SOL    HW219542   0.073   4.233   1.396  0.4607 -1.2601  2.0599
 2636SOL     OW19543   1.242   2.843   7.646  0.0189 -0.0848 -0.2654
 2636SOL    HW119544   1.289   2.910   7.597 -1.2000  0.6540 -0.4301
 2636SOL    HW219545   1.165   2.831   7.591  1.1090 -0.7879 -1.6347
 2637SOL     OW19546   1.755   4.380   3.152 -0.1829  0.5394 -0.4845
 2637SOL    HW119547   1.731   4.363   3.244 -0.8342  1.5677 -0.4612
 2637SOL    HW219548   1.805   4.301   3.131 -0.0866  0.4820 -0.0511
 2638SOL     OW19549   1.556   0.745   8.560 -0.2674 -0.2470 -0.0588
 2638SOL    HW119550   1.602   0.771   8.640  0.5336 -1.0053 -0.2762
 2638SOL    HW219551   1.624   0.692   8.518  0.2395  1.5603 -1.5201
 2639SOL     OW19552   1.811   3.628   1.415 -0.3655 -0.4158  0.0272
 2639SOL    HW119553   1.806   3.717   1.450 -1.4969  1.0053 -3.7135
 2639SOL    HW219554   1.881   3.641   1.351 -0.9904 -1.0997 -0.7933
 2640SOL     OW19555   3.897   4.578   7.368 -0.3602 -0.0171  0.5473
 2640SOL    HW119556   3.828   4.545   7.425 -0.0800  0.4521  1.1551
 2640SOL    HW219557   3.868   4.668   7.353 -0.1178  0.3385  2.2388
 2641SOL     OW19558   1.615   1.799   6.964 -0.0606 -0.4251  0.6733
 2641SOL    HW119559   1.572   1.779   7.047 -0.2080  0.5174  0.8248
 2641SOL    HW219560   1.707   1.811   6.989 -0.5655  0.2730  2.1896
 2642SOL     OW19561   3.828   1.253  13.486  0.4459 -0.4553 -0.6971
 2642SOL    HW119562   3.861   1.199  13.558 -1.2952 -1.0840 -0.3613
 2642SOL    HW219563   3.893   1.233  13.418  0.5627 -1.7876 -0.1962
 2643SOL     OW19564   0.717   3.842   7.156  0.5215 -0.3007  0.8884
 2643SOL    HW119565   0.682   3.853   7.068 -1.2776 -1.7037  1.4470
 2643SOL    HW219566   0.788   3.906   7.144  0.4741  0.1410  2.9602
 2644SOL     OW19567   1.543   2.002  11.114  0.4352 -0.0436 -0.2318
 2644SOL    HW119568   1.623   1.987  11.165  1.3573 -1.6797 -2.1730
 2644SOL    HW219569   1.473   1.960  11.165  1.5024 -0.8587  0.5652
 2645SOL     OW19570   2.714   0.043  12.417 -0.0174  0.3772  0.1035
 2645SOL    HW119571   2.671   0.111  12.469  0.0707 -0.1793  0.9050
 2645SOL    HW219572   2.794   0.075  12.376  0.1187  0.4119  0.3978
 2646SOL     OW19573   4.167   2.246   9.099 -0.4280  0.0122 -0.1038
 2646SOL    HW119574   4.152   2.162   9.141  0.9816  0.4995  1.3671
 2646SOL    HW219575   4.087   2.290   9.128 -1.2534 -0.5453 -1.5412
 2647SOL     OW19576   4.557   2.492   5.025 -0.3156  0.1351 -0.1661
 2647SOL    HW119577   4.626   2.439   5.065  0.0898  2.4432  2.1507
 2647SOL    HW219578   4.592   2.572   4.986  1.1719 -0.5838 -0.2796
 2648SOL     OW19579   3.301   2.792   6.655 -0.0377  0.5726  0.3280
 2648SOL    HW119580   3.285   2.881   6.623 -1.0320  0.7426  1.2773
 2648SOL    HW219581   3.220   2.756   6.619  0.3007  0.5065 -0.3531
 2649SOL     OW19582   3.597   4.211   5.508 -0.1132 -0.0161 -0.1585
 2649SOL    HW119583   3.560   4.168   5.431  1.8992 -0.2121 -0.9944
 2649SOL    HW219584   3.640   4.286   5.466 -1.1561 -0.5855 -2.2293
 2650SOL     OW19585   2.852   0.237  13.566 -0.4378  0.2706 -0.0485
 2650SOL    HW119586   2.878   0.162  13.621  1.3004  0.8473 -0.0740
 2650SOL    HW219587   2.923   0.244  13.502  1.2929  1.1829  1.9628
 2651SOL     OW19588   2.293   0.409   7.530  0.2333  0.1845 -0.2704
 2651SOL    HW119589   2.268   0.501   7.532 -1.8860 -0.3949  0.0935
 2651SOL    HW219590   2.208   0.372   7.505  0.4704  0.1410 -1.0052
 2652SOL     OW19591   2.105   1.323   6.579 -0.0804  0.2019  0.1766
 2652SOL    HW119592   2.082   1.366   6.662  1.3695  3.3716 -1.0849
 2652SOL    HW219593   2.098   1.230   6.603  2.5921  0.1344  0.7434
 2653SOL     OW19594   3.706   3.313   4.085 -0.1815  0.0738 -1.0622
 2653SOL    HW119595   3.620   3.342   4.116  0.6758  3.6364 -2.1239
 2653SOL    HW219596   3.683   3.231   4.042 -0.6734 -0.3390 -0.0164
 2654SOL     OW19597   0.061   4.456   7.083  0.0223 -0.5928  0.6666
 2654SOL    HW119598   0.130   4.436   7.020 -0.4157  1.6055 -0.5105
 2654SOL    HW219599   4.721   4.417   7.044  0.5042  0.2157 -1.0739
 2655SOL     OW19600   0.819   0.591   4.466  0.1317  0.2371  0.0753
 2655SOL    HW119601   0.911   0.589   4.492 -0.1172  1.7905  1.0820
 2655SOL    HW219602   0.769   0.613   4.544 -0.0430  0.2380 -0.0372
 2656SOL     OW19603   0.079   2.605   9.224 -0.0645  0.0865 -0.1967
 2656SOL    HW119604   0.055   2.570   9.138  0.6810  1.0242 -0.7795
 2656SOL    HW219605   0.053   2.696   9.211  1.3516  0.5622  0.3392
 2657SOL     OW19606   0.212   0.020   8.309 -0.4054  0.0069 -0.2385
 2657SOL    HW119607   0.205   0.109   8.344  0.6159 -0.6544  1.6487
 2657SOL    HW219608   0.157   4.715   8.375  0.7774 -0.4575  0.4600
 2658SOL     OW19609   4.274   2.439   0.352  0.0528 -0.6293  0.1305
 2658SOL    HW119610   4.206   2.429   0.286  0.5781  2.4248 -0.8653
 2658SOL    HW219611   4.299   2.530   0.335  1.6226 -1.0388  0.2926
 2659SOL     OW19612   3.882   1.553   4.751 -0.2896 -0.6977  0.2976
 2659SOL    HW119613   3.906   1.510   4.833  0.4579  2.4175  1.7288
 2659SOL    HW219614   3.839   1.485   4.700  2.4105 -0.6474 -2.0292
 2660SOL     OW19615   3.519   2.317   8.885 -0.5974  0.2721 -0.5695
 2660SOL    HW119616   3.458   2.296   8.956 -1.3551 -0.3629 -1.4058
 2660SOL    HW219617   3.542   2.406   8.911  0.8819 -0.0216 -0.8476
 2661SOL     OW19618   4.085   3.760   3.240 -0.0879 -0.4948 -0.5795
 2661SOL    HW119619   4.000   3.802   3.228 -0.2997 -1.2179 -1.5513
 2661SOL    HW219620   4.077   3.673   3.200  0.3166  0.2622 -2.3032
 2662SOL     OW19621   3.618   3.843   8.310 -0.5605  0.1517 -0.4464
 2662SOL    HW119622   3.613   3.911   8.242  1.7883  1.5022  0.7283
 2662SOL    HW219623   3.692   3.792   8.277 -2.1340 -3.0840  1.0747
 2663SOL     OW19624   4.514   2.936  10.840 -0.0875 -0.3536 -0.5450
 2663SOL    HW119625   4.564   2.921  10.920 -0.4020  0.8366 -0.1251
 2663SOL    HW219626   4.454   3.007  10.864 -0.7991 -1.6121  1.4111
 2664SOL     OW19627   2.430   1.439  11.103 -0.1972  0.7637  0.0507
 2664SOL    HW119628   2.368   1.412  11.036  0.4989  1.5959 -0.9186
 2664SOL    HW219629   2.396   1.527  11.121 -1.1454  0.5615 -0.8107
 2665SOL     OW19630   4.233   3.377  14.455 -0.0935  0.1806 -0.0098
 2665SOL    HW119631   4.270   3.458  14.421 -1.1843  0.5938 -0.2000
 2665SOL    HW219632   4.182   3.410  14.529  2.5181  2.0627  0.9514
 2666SOL     OW19633   1.312   0.227   2.556  0.0727 -0.2648  0.4311
 2666SOL    HW119634   1.225   0.217   2.518  1.2722 -1.2669 -2.0628
 2666SOL    HW219635   1.283   0.270   2.636 -1.1934  0.3894 -0.3968
 2667SOL     OW19636   1.957   1.304  17.211 -0.5019 -0.1643  0.3120
 2667SOL    HW119637   1.925   1.371  17.271 -1.0500  1.0507 -1.3445
 2667SOL    HW219638   1.950   1.221  17.258  1.1362  0.2930  1.3594
 2668SOL     OW19639   1.094   2.454  16.253  0.6962 -0.3331 -0.2491
 2668SOL    HW119640   1.156   2.416  16.316 -0.4014 -0.7026  0.6087
 2668SOL    HW219641   1.135   2.536  16.228 -0.5488  0.2636 -0.3324
 2669SOL     OW19642   4.120   0.145  11.418 -0.9834 -0.2253 -0.3703
 2669SOL    HW119643   4.166   0.061  11.413  1.0077  0.6853  2.3855
 2669SOL    HW219644   4.027   0.126  11.430 -0.8716 -0.1508  0.6160
 2670SOL     OW19645   0.173   1.412  16.036  0.2837  0.1150 -0.2381
 2670SOL    HW119646   0.170   1.343  15.970  4.3449 -0.0772 -0.2402
 2670SOL    HW219647   0.097   1.398  16.092  1.5528 -0.4226  1.3760
 2671SOL     OW19648   1.777   3.820   8.230  0.5496  0.7004 -0.5048
 2671SOL    HW119649   1.767   3.833   8.324  0.2167 -3.2257  0.0114
 2671SOL    HW219650   1.851   3.876   8.204  0.8161 -0.2633 -1.8163
 2672SOL     OW19651   3.960   0.074   8.645  0.1397 -0.2034 -0.6816
 2672SOL    HW119652   4.003   0.130   8.581 -2.8147 -0.2185 -2.7007
 2672SOL    HW219653   3.900   0.044   8.577 -0.2564  2.0525 -1.2946
 2673SOL     OW19654   1.181   3.591   4.556 -0.1014 -0.0817  0.1208
 2673SOL    HW119655   1.116   3.538   4.510 -1.6311  1.6510  0.3072
 2673SOL    HW219656   1.263   3.550   4.527  0.9537 -0.2141  3.3516
 2674SOL     OW19657   2.294   2.186   7.344 -0.5184 -0.1266  0.1226
 2674SOL    HW119658   2.363   2.252   7.339  1.9800 -2.8399 -0.7851
 2674SOL    HW219659   2.258   2.206   7.431 -0.7183  3.7375 -0.8549
 2675SOL     OW19660   1.084   3.196   3.981  0.6308  0.1986  0.0292
 2675SOL    HW119661   1.167   3.187   3.934  0.4385 -1.7082  0.0594
 2675SOL    HW219662   1.024   3.193   3.906 -0.0080 -0.7471  0.5815
 2676SOL     OW19663   3.819   0.108   5.944  0.5284 -0.1805  0.1890
 2676SOL    HW119664   3.865   0.028   5.969 -0.7597 -0.9411  0.1234
 2676SOL    HW219665   3.888   0.168   5.972 -0.0157  0.2927  0.5351
 2677SOL     OW19666   1.324   1.378   7.816 -0.3624  0.6691 -0.3683
 2677SOL    HW119667   1.249   1.323   7.794  0.7298 -1.6186  1.6137
 2677SOL    HW219668   1.401   1.333   7.780  0.2879  1.0615  0.5230
 2678SOL     OW19669   4.493   2.228   1.169  0.0237  0.2167 -0.6080
 2678SOL    HW119670   4.449   2.284   1.233 -1.2374  0.3412 -1.5834
 2678SOL    HW219671   4.578   2.215   1.212  0.8525 -2.4865 -3.0664
 2679SOL     OW19672   1.856   3.575   6.021 -0.3383  0.4361 -0.2150
 2679SOL    HW119673   1.813   3.504   6.069 -0.6807  1.9960  1.7862
 2679SOL    HW219674   1.816   3.642   6.077 -0.5786 -0.0011  0.1412
 2680SOL     OW19675   4.701   0.736   3.413  0.0404  0.1803  0.0058
 2680SOL    HW119676   4.617   0.764   3.450 -0.9902 -3.3581  0.3134
 2680SOL    HW219677   0.004   0.680   3.480 -0.0901 -0.0695 -0.1275
 2681SOL     OW19678   2.837   1.918  13.535 -0.3939  0.0022 -0.3044
 2681SOL    HW119679   2.782   1.939  13.460  0.7590 -0.0991 -1.1702
 2681SOL    HW219680   2.773   1.881  13.596  0.6803 -0.4602  0.5441
 2682SOL     OW19681   1.044   1.161   3.961 -0.2616  0.1211  0.1920
 2682SOL    HW119682   1.105   1.102   4.006  0.8329  1.1031 -0.0063
 2682SOL    HW219683   0.976   1.165   4.029 -0.3968 -5.8414  0.4174
 2683SOL     OW19684   2.497   2.577  12.923  0.6899 -0.0224 -0.0631
 2683SOL    HW119685   2.500   2.671  12.939  2.4366 -0.1902  0.5676
 2683SOL    HW219686   2.548   2.569  12.843  0.7928  1.6855 -0.1579
 2684SOL     OW19687   1.953   4.058  16.931 -0.6410 -0.2015 -0.1284
 2684SOL    HW119688   1.903   4.044  16.851  1.1407  2.8395 -1.7933
 2684SOL    HW219689   1.921   3.994  16.994 -0.6224 -1.6496 -1.6012
 2685SOL     OW19690   1.616   0.284   5.805  0.3669 -0.3527  0.0574
 2685SOL    HW119691   1.604   0.340   5.729  1.1360 -1.0303 -0.5637
 2685SOL    HW219692   1.553   0.213   5.791  0.6431 -0.7893  0.9788
 2686SOL     OW19693   3.623   2.782   4.799 -0.3438  0.3798 -0.4049
 2686SOL    HW119694   3.684   2.731   4.853 -1.8597 -3.6440 -2.4866
 2686SOL    HW219695   3.587   2.849   4.857 -1.4497 -0.7909  0.2585
 2687SOL     OW19696   4.534   0.571   5.821  0.3825  0.3450  0.0150
 2687SOL    HW119697   4.472   0.643   5.812  0.4796  0.4310  0.0373
 2687SOL    HW219698   4.600   0.601   5.759 -1.1620  0.9763 -1.3179
 2688SOL     OW19699   2.146   1.968   6.516 -0.1047  0.3269 -0.2974
 2688SOL    HW119700   2.094   2.046   6.536 -0.3807  0.2677 -0.7925
 2688SOL    HW219701   2.161   1.934   6.605  1.3425  0.1647 -0.5991
 2689SOL     OW19702   0.881   3.091  14.377 -0.2167 -0.0724  0.8016
 2689SOL    HW119703   0.910   3.004  14.405 -0.9067 -0.4398  0.3702
 2689SOL    HW219704   0.819   3.062  14.311 -0.4379  0.8073  0.6137
 2690SOL     OW19705   4.456   3.894   8.885  0.2675 -0.5728 -0.1070
 2690SOL    HW119706   4.542   3.900   8.925  0.4943  0.3057 -0.7343
 2690SOL    HW219707   4.458   3.968   8.825  0.7169 -2.5753 -2.5760
 2691SOL     OW19708   3.025   1.035   0.469 -0.0271 -0.0136  0.3321
 2691SOL    HW119709   3.112   1.003   0.493  0.2748  0.0410 -0.6742
 2691SOL    HW219710   2.979   0.959   0.434 -1.2146  1.1617 -0.6517
 2692SOL     OW19711   2.423   2.836   7.445  0.3005  0.6108 -0.4848
 2692SOL    HW119712   2.399   2.743   7.446  0.0046  0.6951  0.6875
 2692SOL    HW219713   2.518   2.830   7.449  0.5502  3.7702 -1.4108
 2693SOL     OW19714   3.224   3.123   1.410 -0.7165 -0.7676  0.3925
 2693SOL    HW119715   3.315   3.145   1.432 -0.3723 -0.9362 -0.8469
 2693SOL    HW219716   3.232   3.029   1.394 -0.6616 -0.6809 -0.0930
 2694SOL     OW19717   2.392   3.435  14.685 -0.2124  0.7521 -0.0303
 2694SOL    HW119718   2.385   3.368  14.753 -0.1555  0.4945 -0.2802
 2694SOL    HW219719   2.470   3.409  14.637 -1.2190 -0.4026 -1.0620
 2695SOL     OW19720   0.961   2.935   5.220  0.1746  0.5113 -0.3931
 2695SOL    HW119721   1.028   2.867   5.232 -0.9058 -0.4388  0.2896
 2695SOL    HW219722   0.883   2.910   5.270  0.5504 -1.4142 -0.7599
 2696SOL     OW19723   3.086   3.330   8.749  0.1628  0.3315 -0.5841
 2696SOL    HW119724   3.042   3.265   8.804  2.4217  0.1761  1.0743
 2696SOL    HW219725   3.166   3.342   8.801  0.5875 -2.3298 -0.5863
 2697SOL     OW19726   0.622   2.935  12.132 -0.0209  0.1409 -0.1518
 2697SOL    HW119727   0.546   2.993  12.139 -0.1933 -0.0299 -0.5761
 2697SOL    HW219728   0.633   2.931  12.037 -1.0353 -0.3352 -0.2577
 2698SOL     OW19729   0.526   4.087  16.901  0.1191  0.2315  0.3793
 2698SOL    HW119730   0.538   4.045  16.816  0.6871  1.1548  0.0051
 2698SOL    HW219731   0.575   4.168  16.886  0.5779 -0.1630 -0.2588
 2699SOL     OW19732   4.153   0.721   5.170  0.8338 -0.0316 -0.0965
 2699SOL    HW119733   4.072   0.675   5.148  1.3435  0.1403 -2.2863
 2699SOL    HW219734   4.126   0.800   5.216 -1.3240  0.4572 -2.1956
 2700SOL     OW19735   3.418   2.225  13.545  0.3960  0.0865 -0.1810
 2700SOL    HW119736   3.491   2.219  13.606 -1.6213 -1.5744  2.0949
 2700SOL    HW219737   3.373   2.300  13.583 -0.0184 -0.6097  0.7261
 2701SOL     OW19738   3.711   0.789   4.568  0.2931 -0.0528 -0.2347
 2701SOL    HW119739   3.647   0.717   4.566  0.8474 -0.5686  0.3880
 2701SOL    HW219740   3.769   0.760   4.498  0.3364  0.7418 -0.5242
 2702SOL     OW19741   2.084   2.736  17.592 -0.1855 -0.4419  0.3092
 2702SOL    HW119742   2.017   2.730  17.659 -1.7424 -0.1832 -1.2437
 2702SOL    HW219743   2.101   2.830  17.592  0.6125 -0.5877 -0.1793
 2703SOL     OW19744   2.848   0.577   2.320 -0.4556 -0.6169  0.3786
 2703SOL    HW119745   2.942   0.556   2.321 -0.2521  0.3335  0.5488
 2703SOL    HW219746   2.810   0.493   2.345 -2.4910  0.2709  0.2351
 2704SOL     OW19747   2.395   1.795  10.770  0.0940  0.1025  0.4945
 2704SOL    HW119748   2.465   1.736  10.740 -0.4243 -0.1897 -0.1462
 2704SOL    HW219749   2.332   1.735  10.810 -0.0958  0.1980  0.3391
 2705SOL     OW19750   2.690   0.922   6.316 -0.3506 -0.1126 -0.0600
 2705SOL    HW119751   2.702   0.969   6.398  0.2631 -3.9225  1.9839
 2705SOL    HW219752   2.597   0.897   6.318 -1.5033  4.2125  1.7624
 2706SOL     OW19753   0.218   1.250   7.001  0.3050  0.4647  0.7225
 2706SOL    HW119754   0.206   1.192   7.077 -0.0602  1.1956  1.2231
 2706SOL    HW219755   0.286   1.310   7.032  0.8158  0.1107  0.2809
 2707SOL     OW19756   2.574   0.169  13.091  0.0690 -0.0516 -0.2267
 2707SOL    HW119757   2.631   0.126  13.028 -0.3716 -0.5557 -0.2877
 2707SOL    HW219758   2.582   0.261  13.065 -2.5332  0.2941  0.1409
 2708SOL     OW19759   3.949   3.836  17.033  0.1225  0.3365  0.1943
 2708SOL    HW119760   4.024   3.878  17.075  0.2867 -0.1177  0.3609
 2708SOL    HW219761   3.900   3.799  17.106  0.4442  2.9044  1.6816
 2709SOL     OW19762   1.581   3.893   4.074 -0.0939 -0.7236  0.3192
 2709SOL    HW119763   1.616   3.866   3.989 -2.4690 -1.1381 -0.5332
 2709SOL    HW219764   1.664   3.919   4.115 -0.7682  1.1373  0.4943
 2710SOL     OW19765   0.360   1.268  12.369 -0.1239 -0.7135 -0.1235
 2710SOL    HW119766   0.440   1.251  12.319 -1.1772 -2.1705 -1.3073
 2710SOL    HW219767   0.303   1.246  12.296 -0.5390 -1.0528  0.3004
 2711SOL     OW19768   3.985   0.186   2.526  0.1488 -0.2305 -0.3668
 2711SOL    HW119769   3.983   0.090   2.523  0.8502 -0.2724  0.4723
 2711SOL    HW219770   3.891   0.202   2.519  0.6302  2.2554 -0.9317
 2712SOL     OW19771   0.137   1.991   6.407 -0.6007  0.2176  0.2175
 2712SOL    HW119772   0.123   1.953   6.320 -1.7969 -1.1906  1.0265
 2712SOL    HW219773   0.068   1.945   6.456  1.2252 -0.3727  2.2200
 2713SOL     OW19774   3.666   4.026   5.172 -0.0311 -0.3524 -0.0681
 2713SOL    HW119775   3.593   4.011   5.231 -0.3168 -1.2429 -0.6405
 2713SOL    HW219776   3.614   4.071   5.105 -0.7159 -0.1973  0.5807
 2714SOL     OW19777   2.336   2.134   6.951 -0.0809 -0.1569 -0.1596
 2714SOL    HW119778   2.417   2.129   7.001  0.2185  1.6385 -0.4664
 2714SOL    HW219779   2.361   2.078   6.877  3.3748  0.9976  0.1508
 2715SOL     OW19780   1.467   0.823   7.095 -0.4826 -0.5353 -0.0676
 2715SOL    HW119781   1.510   0.873   7.026  1.1799 -1.4860  0.2740
 2715SOL    HW219782   1.396   0.883   7.117  0.7102  1.1049 -0.7469
 2716SOL     OW19783   0.926   1.538   1.721 -0.3299  0.2434  0.4524
 2716SOL    HW119784   0.862   1.606   1.702 -0.8058 -0.7971 -1.6515
 2716SOL    HW219785   0.979   1.586   1.785  1.4229  0.3612 -1.0859
 2717SOL     OW19786   1.001   1.921   4.581  0.1748 -0.1964  0.0556
 2717SOL    HW119787   1.071   1.917   4.647  3.6999  0.9481 -3.5664
 2717SOL    HW219788   1.036   1.869   4.509 -0.6059  0.2335 -0.6312
 2718SOL     OW19789   3.928   1.845   4.736 -0.2179  0.2493  0.1806
 2718SOL    HW119790   3.891   1.758   4.745 -1.8758  0.6071 -3.2671
 2718SOL    HW219791   3.945   1.864   4.643  2.1427  0.5342  0.6573
 2719SOL     OW19792   0.750   2.072   6.627 -0.1758 -0.3979  0.1210
 2719SOL    HW119793   0.752   2.127   6.706  0.3484  0.2037 -0.3132
 2719SOL    HW219794   0.836   2.031   6.634  0.6026  1.1397 -0.3193
 2720SOL     OW19795   3.659   2.595   1.886 -0.1619  0.1094  0.0079
 2720SOL    HW119796   3.677   2.688   1.899  0.3025  0.2133 -1.4316
 2720SOL    HW219797   3.600   2.582   1.960  0.2311  0.0146  0.3039
 2721SOL     OW19798   1.882   2.795   9.289  0.4205 -0.2665  0.2963
 2721SOL    HW119799   1.856   2.706   9.265  2.8887 -0.7059 -0.7629
 2721SOL    HW219800   1.977   2.794   9.304  0.4864 -1.1769 -0.1695
 2722SOL     OW19801   0.170   4.265   9.023  0.2620 -0.1341 -0.2298
 2722SOL    HW119802   0.118   4.270   9.103  0.5525  1.1164 -0.1262
 2722SOL    HW219803   0.177   4.358   9.002  1.1627  0.2651  1.8796
 2723SOL     OW19804   0.505   3.076   9.514  0.2120 -0.3153  0.5222
 2723SOL    HW119805   0.497   3.166   9.547  1.1994 -1.2663  3.3468
 2723SOL    HW219806   0.596   3.072   9.485 -0.6329 -0.2215 -2.1266
 2724SOL     OW19807   0.462   3.314   8.332 -0.5618 -0.6009  0.3879
 2724SOL    HW119808   0.495   3.352   8.251  0.2225  0.5889  1.2586
 2724SOL    HW219809   0.375   3.348   8.351 -1.6864 -3.2315 -0.0796
 2725SOL     OW19810   3.531   1.749   3.528  0.3989 -0.3514  0.0279
 2725SOL    HW119811   3.527   1.816   3.596 -0.6563  1.3008 -1.6737
 2725SOL    HW219812   3.449   1.765   3.481  0.0658 -1.1433  0.3328
 2726SOL     OW19813   4.036   4.440  12.087  0.6140 -0.1331 -0.3993
 2726SOL    HW119814   3.983   4.443  12.007 -0.0888 -1.6195  0.0052
 2726SOL    HW219815   3.999   4.357  12.118  0.3925  0.5221  1.0674
 2727SOL     OW19816   0.679   1.252   4.446 -0.1696 -0.2554 -0.6920
 2727SOL    HW119817   0.637   1.315   4.387 -0.3079 -0.2320 -0.5655
 2727SOL    HW219818   0.605   1.214   4.493 -1.8572 -1.2911 -4.1625
 2728SOL     OW19819   2.449   2.225   4.048  0.4511 -0.0837 -0.2292
 2728SOL    HW119820   2.467   2.138   4.012  1.1521 -0.1580  0.2969
 2728SOL    HW219821   2.455   2.279   3.970  1.3267 -0.1972 -0.2405
 2729SOL     OW19822   0.939   1.351   5.000 -0.3635  0.2657  0.2751
 2729SOL    HW119823   0.977   1.420   5.055  1.4432 -0.3257 -0.2279
 2729SOL    HW219824   0.899   1.404   4.930 -0.7180 -1.5657 -0.9196
 2730SOL     OW19825   3.131   3.345  13.937 -0.3773 -0.0303  0.0416
 2730SOL    HW119826   3.140   3.288  14.014  2.4595 -0.1362 -0.3822
 2730SOL    HW219827   3.222   3.365  13.916  0.4526 -1.1710  2.4496
 2731SOL     OW19828   3.539   3.032   9.284  0.4747  0.2037  0.7554
 2731SOL    HW119829   3.581   3.112   9.315  1.9471 -0.6644  1.0251
 2731SOL    HW219830   3.621   2.984   9.269  0.1498 -0.0454 -0.2860
 2732SOL     OW19831   2.430   0.520   2.058 -0.4466  0.5756 -0.0563
 2732SOL    HW119832   2.489   0.507   1.985 -0.4553  0.7058 -0.0859
 2732SOL    HW219833   2.484   0.584   2.105 -0.9177  0.4959  0.6018
 2733SOL     OW19834   3.471   2.044   9.159 -0.7353  0.4103 -0.0503
 2733SOL    HW119835   3.484   2.017   9.068 -2.8956 -0.2027 -0.1960
 2733SOL    HW219836   3.437   2.132   9.147 -0.4609  0.5039 -0.1252
 2734SOL     OW19837   0.096   0.311   7.747  0.1112 -0.0267 -0.1955
 2734SOL    HW119838   0.138   0.335   7.829 -0.5490 -0.3686  0.2412
 2734SOL    HW219839   0.174   0.299   7.693 -0.3304  1.7858 -1.2599
 2735SOL     OW19840   0.312   4.069   9.130 -0.4440 -0.3285  0.4293
 2735SOL    HW119841   0.253   4.138   9.099 -0.5884 -0.3441  0.6701
 2735SOL    HW219842   0.391   4.120   9.149 -0.9570  0.3378  0.7713
 2736SOL     OW19843   4.490   3.276   5.493  0.1122  0.3045 -0.0888
 2736SOL    HW119844   4.449   3.252   5.576 -0.2137 -0.5522 -0.4916
 2736SOL    HW219845   4.544   3.197   5.488  0.5322  0.7334 -2.7159
 2737SOL     OW19846   3.241   2.238   6.899 -0.5960  0.2733  0.6596
 2737SOL    HW119847   3.333   2.218   6.920 -1.0345  0.5198  2.8032
 2737SOL    HW219848   3.250   2.325   6.860 -1.1469 -0.3021 -0.7805
 2738SOL     OW19849   1.306   4.578   7.923 -0.3876 -0.4306 -0.0004
 2738SOL    HW119850   1.345   4.630   7.852 -0.6934  2.3694  1.8872
 2738SOL    HW219851   1.384   4.539   7.962 -0.9190 -0.5739  0.9061
 2739SOL     OW19852   0.206   2.214  10.247 -0.6565 -0.4203  0.3226
 2739SOL    HW119853   0.134   2.211  10.310  0.7772  2.4264  2.1013
 2739SOL    HW219854   0.175   2.148  10.185  1.1000  0.0702 -1.0896
 2740SOL     OW19855   0.505   1.502   3.576 -0.1627 -0.3648  0.2177
 2740SOL    HW119856   0.593   1.539   3.582 -0.6814  0.9001  0.0666
 2740SOL    HW219857   0.452   1.576   3.544  2.6370  1.4372 -0.2570
 2741SOL     OW19858   4.358   1.909   4.825  0.6473  0.2964  0.6877
 2741SOL    HW119859   4.412   1.876   4.897 -0.2526  0.5714  1.4907
 2741SOL    HW219860   4.352   1.827   4.777 -2.0390  0.6859  0.3656
 2742SOL     OW19861   3.105   2.379   3.755 -1.0086 -0.1490  0.5469
 2742SOL    HW119862   3.040   2.367   3.823 -1.5509 -1.0278 -0.1329
 2742SOL    HW219863   3.184   2.394   3.807 -0.5178 -0.3125 -0.1321
 2743SOL     OW19864   3.360   1.516  12.051  0.4121 -0.1764  0.1986
 2743SOL    HW119865   3.427   1.519  11.982 -0.5203  1.3823 -0.6473
 2743SOL    HW219866   3.329   1.427  12.037  0.5822 -0.3927  1.2482
 2744SOL     OW19867   2.806   0.104  11.483 -0.6706 -0.7930 -0.3437
 2744SOL    HW119868   2.820   0.036  11.417  1.0597  0.9593 -1.7649
 2744SOL    HW219869   2.711   0.099  11.497 -0.7776  0.1527 -0.7171
 2745SOL     OW19870   2.016   1.153   9.624  0.4109  0.5296  0.3769
 2745SOL    HW119871   2.046   1.163   9.715 -0.8357  1.7235  0.6652
 2745SOL    HW219872   1.924   1.177   9.635  0.6113  1.2063  0.5825
 2746SOL     OW19873   1.983   2.998   2.913  0.1877 -0.4882  0.6592
 2746SOL    HW119874   1.907   2.968   2.962  0.7237 -1.9926  0.5758
 2746SOL    HW219875   2.037   3.030   2.985  0.1089  0.2008  0.4065
 2747SOL     OW19876   1.817   2.031   6.788 -0.2278  0.0980 -0.1160
 2747SOL    HW119877   1.868   2.039   6.707 -0.5100 -0.4703 -0.3464
 2747SOL    HW219878   1.748   1.977   6.751  0.1747 -2.1986  2.4219
 2748SOL     OW19879   0.450   3.548   9.344  0.1006  0.3389  0.4201
 2748SOL    HW119880   0.442   3.643   9.336  3.6453  0.5108 -0.9037
 2748SOL    HW219881   0.410   3.525   9.428 -0.0998 -1.5783 -0.2000
 2749SOL     OW19882   2.894   4.411   2.940 -0.1164 -0.0834  0.6319
 2749SOL    HW119883   2.813   4.360   2.941  1.2990 -2.3576 -1.4751
 2749SOL    HW219884   2.856   4.498   2.928  2.3807  1.0736  0.8928
 2750SOL     OW19885   2.039   3.975   3.909 -0.0249  0.7280  0.2250
 2750SOL    HW119886   2.129   3.955   3.934 -0.8109 -0.3309  2.1559
 2750SOL    HW219887   2.035   4.071   3.906 -0.9770  0.6245 -1.5403
 2751SOL     OW19888   4.347   0.189  13.578 -0.4600 -0.0515  0.2368
 2751SOL    HW119889   4.294   0.252  13.626 -0.0715  1.1134 -0.8581
 2751SOL    HW219890   4.323   0.107  13.621 -1.3626 -0.9969 -2.0788
 2752SOL     OW19891   0.535   0.324   3.174  0.5653  0.8538 -0.1934
 2752SOL    HW119892   0.626   0.297   3.181 -0.0618 -1.2890 -0.2452
 2752SOL    HW219893   0.555   0.416   3.187  1.8593  0.1062  3.0415
 2753SOL     OW19894   4.259   1.136  16.243 -0.3250  0.0623 -0.5760
 2753SOL    HW119895   4.194   1.087  16.193  0.3025 -0.8813 -0.4579
 2753SOL    HW219896   4.314   1.062  16.269  1.0602  0.9389 -0.9766
 2754SOL     OW19897   2.099   2.944   2.674  0.0380  0.0488  0.2690
 2754SOL    HW119898   2.039   2.957   2.748  1.1365 -0.5586  1.2490
 2754SOL    HW219899   2.165   2.903   2.729  1.7719  1.0502 -1.0815
 2755SOL     OW19900   0.432   0.089   2.241  0.0571 -0.1947  0.1541
 2755SOL    HW119901   0.501   0.090   2.175  0.1068 -1.8920  0.1833
 2755SOL    HW219902   0.430   0.181   2.267  1.9319  0.6867 -2.8468
 2756SOL     OW19903   3.996   2.910   5.658  0.1577 -0.5655 -0.1735
 2756SOL    HW119904   4.001   2.837   5.719 -0.0235 -1.1552 -0.8608
 2756SOL    HW219905   3.902   2.927   5.656  0.7025  2.2496 -1.8900
 2757SOL     OW19906   3.532   0.189   4.079 -0.3485 -0.3822 -0.0927
 2757SOL    HW119907   3.510   0.243   4.003  2.1304 -1.1242 -1.3453
 2757SOL    HW219908   3.508   0.243   4.154  1.0907  1.8749 -1.2673
 2758SOL     OW19909   1.152   2.994   1.016 -0.0641  0.1536  0.7054
 2758SOL    HW119910   1.148   2.915   0.963  1.2322 -0.9457  2.2227
 2758SOL    HW219911   1.209   3.045   0.959  0.5602 -3.5602 -1.9268
 2759SOL     OW19912   0.032   4.665  10.410  0.1121 -0.3373 -0.0536
 2759SOL    HW119913   0.125   4.652  10.428 -0.1026 -0.1812  1.1599
 2759SOL    HW219914   0.002   4.574  10.408  3.3575 -1.3601 -1.7155
 2760SOL     OW19915   4.188   2.791   4.621 -0.2488  0.3437 -0.2395
 2760SOL    HW119916   4.131   2.727   4.579  1.9318 -2.0524  0.4445
 2760SOL    HW219917   4.120   2.815   4.684  0.0705 -0.8596  0.5516
 2761SOL     OW19918   2.993   0.864   3.562 -0.3761 -0.2952  0.3673
 2761SOL    HW119919   2.928   0.896   3.499 -0.6146 -0.4311  0.5438
 2761SOL    HW219920   3.020   0.947   3.603  2.5085 -0.8140 -0.5142
 2762SOL     OW19921   2.575   1.402  12.045 -0.2980 -0.5538  0.2837
 2762SOL    HW119922   2.498   1.394  11.989  0.5622 -0.6934 -0.8858
 2762SOL    HW219923   2.643   1.411  11.978  2.3417  2.3916  3.3653
 2763SOL     OW19924   2.004   1.163  17.470  0.7367  0.3078  0.3381
 2763SOL    HW119925   1.926   1.111  17.489 -0.7078  1.5130 -2.3415
 2763SOL    HW219926   2.034   1.104  17.401 -0.4287 -0.9358  0.9029
 2764SOL     OW19927   0.471   2.880   7.458 -0.6780  0.2122 -0.3868
 2764SOL    HW119928   0.528   2.939   7.507 -0.1388  0.2529 -1.0540
 2764SOL    HW219929   0.411   2.950   7.431  1.2096  2.3129  0.8599
 2765SOL     OW19930   3.122   3.228  14.399 -0.2805  0.2094  0.3136
 2765SOL    HW119931   3.030   3.201  14.394 -0.3425  0.6811 -1.2051
 2765SOL    HW219932   3.165   3.149  14.366  2.6678  1.9667 -0.0027
 2766SOL     OW19933   1.518   4.337   8.868  0.1444  0.0810  0.1681
 2766SOL    HW119934   1.515   4.356   8.961 -1.3149 -1.8734  0.5193
 2766SOL    HW219935   1.562   4.252   8.871  2.0388  1.0278 -0.6469
 2767SOL     OW19936   3.482   2.465   1.719  0.5336  0.0589  0.0723
 2767SOL    HW119937   3.417   2.522   1.760 -0.3725 -1.4240  0.7086
 2767SOL    HW219938   3.562   2.517   1.730  0.5142 -0.0683  0.8427
 2768SOL     OW19939   3.756   4.363   5.825 -0.0625 -0.2509  0.0744
 2768SOL    HW119940   3.816   4.349   5.898 -0.4573 -1.0920  0.2318
 2768SOL    HW219941   3.678   4.318   5.858  0.8107 -1.1484  0.9266
 2769SOL     OW19942   0.019   3.706   1.316 -0.5335 -0.2382  0.2360
 2769SOL    HW119943   0.091   3.678   1.260  1.7878  1.1547  2.5370
 2769SOL    HW219944   0.066   3.760   1.380  0.4735  1.6805 -2.1561
 2770SOL     OW19945   0.747   1.576   7.411 -0.1361 -0.1206  0.1719
 2770SOL    HW119946   0.730   1.651   7.353 -0.2537  0.0590  0.4367
 2770SOL    HW219947   0.691   1.509   7.371 -0.3320  0.9936 -1.4513
 2771SOL     OW19948   0.988   3.899   4.040 -0.3063 -0.0392 -0.1585
 2771SOL    HW119949   0.958   3.838   4.107 -0.1677 -0.6983 -0.6958
 2771SOL    HW219950   0.939   3.866   3.965 -0.2468  1.3259 -0.7895
 2772SOL     OW19951   4.103   3.940   1.959  0.5449 -0.3388  0.1382
 2772SOL    HW119952   4.076   4.002   1.892 -0.7447 -1.5697 -0.5003
 2772SOL    HW219953   4.181   3.895   1.926  0.7216 -0.8359  1.1934
 2773SOL     OW19954   1.031   4.348   5.188  0.1605  0.1365 -0.5941
 2773SOL    HW119955   0.955   4.308   5.230  0.8639  0.6089  1.1036
 2773SOL    HW219956   1.034   4.434   5.230 -0.4182 -0.1596  0.0483
 2774SOL     OW19957   0.358   3.647   0.765 -0.4400 -0.8628 -0.6394
 2774SOL    HW119958   0.288   3.590   0.734 -3.1000  0.5876  2.7585
 2774SOL    HW219959   0.342   3.721   0.707  0.5597  0.4086  0.7101
 2775SOL     OW19960   4.646   2.827  11.943 -0.4785 -0.4450 -0.3458
 2775SOL    HW119961   4.690   2.882  11.878  1.9268 -1.4939  0.3924
 2775SOL    HW219962   4.701   2.749  11.949 -0.2556 -0.1885  0.8335
 2776SOL     OW19963   3.329   0.959  11.942 -0.3494 -0.1386  0.2040
 2776SOL    HW119964   3.287   0.928  12.022  0.3721 -0.7700  0.3392
 2776SOL    HW219965   3.263   1.022  11.913 -0.3467 -0.4343 -0.4551
 2777SOL     OW19966   3.396   2.578   4.810  0.0450 -0.4285 -0.2050
 2777SOL    HW119967   3.311   2.609   4.777  0.0141  0.4959  0.7434
 2777SOL    HW219968   3.450   2.657   4.802  0.1363 -0.5690 -0.9972
 2778SOL     OW19969   3.464   1.493  14.809  0.0659  0.0715 -0.2775
 2778SOL    HW119970   3.411   1.420  14.777 -3.0000  1.9106  0.5316
 2778SOL    HW219971   3.400   1.564  14.819 -0.5293 -0.1230 -2.6779
 2779SOL     OW19972   1.630   0.121   6.912  0.4802  0.5510  0.4773
 2779SOL    HW119973   1.612   0.090   7.000 -0.5894 -0.0780  0.0440
 2779SOL    HW219974   1.553   0.105   6.856  2.5795  0.5737 -2.3965
 2780SOL     OW19975   1.355   0.723   9.920 -0.1221  0.7041 -0.4473
 2780SOL    HW119976   1.303   0.760   9.848 -2.6645  1.3502  1.7139
 2780SOL    HW219977   1.301   0.772   9.982  0.4078 -0.6576  1.0738
 2781SOL     OW19978   0.580   1.884  15.151 -0.2076  0.1926  0.1194
 2781SOL    HW119979   0.535   1.839  15.223 -0.6849  0.9386  0.2802
 2781SOL    HW219980   0.537   1.969  15.140  0.2217  0.8828  3.7512
 2782SOL     OW19981   0.093   1.775   4.993  0.2950  0.3969  0.6226
 2782SOL    HW119982   0.014   1.752   4.945  0.9127  0.9501 -0.6526
 2782SOL    HW219983   0.059   1.748   5.079 -1.3732 -0.5167 -0.3288
 2783SOL     OW19984   3.763   2.502   6.205  0.2056 -0.2081  0.1483
 2783SOL    HW119985   3.789   2.521   6.296  2.8483 -1.5484 -0.3315
 2783SOL    HW219986   3.668   2.498   6.213  0.0548  3.5573  0.4268
 2784SOL     OW19987   3.296   4.409   0.720 -0.6105  0.3610  0.5465
 2784SOL    HW119988   3.328   4.480   0.665  0.2103 -0.0738  0.4612
 2784SOL    HW219989   3.386   4.387   0.743 -0.6502 -0.9736 -0.5380
 2785SOL     OW19990   4.165   4.695  13.685 -0.5624 -0.4005  0.5235
 2785SOL    HW119991   4.103   4.664  13.751 -1.7476 -0.1826 -0.5022
 2785SOL    HW219992   4.109   0.002  13.622  1.8945  0.3796 -1.0851
 2786SOL     OW19993   0.022   1.800   8.255 -0.5916 -0.1620  0.2213
 2786SOL    HW119994   0.055   1.797   8.166 -0.9668 -0.5579  0.0931
 2786SOL    HW219995   0.099   1.775   8.306 -0.5814  1.0991  0.8224
 2787SOL     OW19996   3.009   2.104   3.847 -0.2554 -0.4377  0.2039
 2787SOL    HW119997   2.920   2.106   3.883 -0.7694  0.4169 -1.1441
 2787SOL    HW219998   2.998   2.126   3.755 -0.8931  2.6088  1.0114
 2788SOL     OW19999   3.856   2.744   5.199 -1.0291  0.3088 -0.1227
 2788SOL    HW120000   3.951   2.746   5.216 -0.4868  2.8087 -3.3668
 2788SOL    HW220001   3.850   2.836   5.172  1.1013  0.3675 -0.4308
 2789SOL     OW20002   2.254   1.670   4.319 -0.5996  0.0542  0.4013
 2789SOL    HW120003   2.310   1.624   4.381  1.0634 -0.9336 -1.8278
 2789SOL    HW220004   2.240   1.747   4.374 -0.3447  2.0051 -2.2642
 2790SOL     OW20005   3.376   2.398   1.356 -0.6194  0.2781 -0.6864
 2790SOL    HW120006   3.392   2.366   1.267 -0.7322  0.6648 -0.8441
 2790SOL    HW220007   3.432   2.340   1.407 -0.3708 -0.3910 -1.7302
 2791SOL     OW20008   0.979   0.249   1.999 -0.0047  0.2652  0.0565
 2791SOL    HW120009   1.028   0.253   2.081 -0.8414 -1.6255  0.6479
 2791SOL    HW220010   0.966   0.154   1.991 -3.4289  0.7462 -0.2019
 2792SOL     OW20011   3.982   1.007   4.607 -0.4224 -0.7240  0.1533
 2792SOL    HW120012   4.044   0.934   4.597 -1.5485 -1.1349 -3.8095
 2792SOL    HW220013   3.995   1.057   4.527 -2.5644 -0.5468 -0.0818
 2793SOL     OW20014   1.197   2.142   6.009  0.0616  0.4314 -0.4287
 2793SOL    HW120015   1.225   2.192   5.932 -2.0097  2.3102  0.0454
 2793SOL    HW220016   1.271   2.159   6.067 -1.0555  0.4642  0.9817
 2794SOL     OW20017   1.184   1.868   8.064  0.1445 -0.6836 -0.4149
 2794SOL    HW120018   1.129   1.856   7.987 -1.5495 -2.5254  1.0818
 2794SOL    HW220019   1.224   1.952   8.043  0.3119 -0.8838 -0.9022
 2795SOL     OW20020   3.655   3.937   7.504  0.4249 -0.2670 -0.5397
 2795SOL    HW120021   3.751   3.937   7.506  0.4224  0.8016 -0.1525
 2795SOL    HW220022   3.644   3.847   7.473 -1.0216 -0.1170 -0.4838
 2796SOL     OW20023   0.994   1.834   8.780 -0.1565  0.5578  0.3965
 2796SOL    HW120024   1.011   1.743   8.804 -0.4662  0.7679  1.4354
 2796SOL    HW220025   1.051   1.832   8.703  2.5004 -0.2938  2.3537
 2797SOL     OW20026   1.639   0.766   2.747  0.0354  0.3557  0.3144
 2797SOL    HW120027   1.592   0.792   2.827 -1.8170 -1.4347 -0.2151
 2797SOL    HW220028   1.720   0.728   2.782  1.2985  2.7653  0.0261
 2798SOL     OW20029   1.282   0.272   8.499 -0.0168 -1.0594  0.1737
 2798SOL    HW120030   1.324   0.213   8.561  1.9830  0.8959  0.6520
 2798SOL    HW220031   1.230   0.326   8.558  0.1121 -1.2327  0.4421
 2799SOL     OW20032   4.674   0.092   7.876  0.3078  0.0073  0.3108
 2799SOL    HW120033   4.722   0.161   7.830  2.0107 -2.2668 -1.3488
 2799SOL    HW220034   4.680   0.113   7.969 -0.6864  2.5182 -0.2027
 2800SOL     OW20035   1.143   1.862   7.002 -0.1954 -0.2726  0.1147
 2800SOL    HW120036   1.115   1.824   6.918  0.8657 -0.9495  0.0629
 2800SOL    HW220037   1.202   1.933   6.976  0.1904 -0.7194 -0.2248
 2801SOL     OW20038   4.594   3.272   4.868 -0.7633 -0.2661 -0.1980
 2801SOL    HW120039   4.501   3.286   4.848 -0.5072  2.5063  0.5478
 2801SOL    HW220040   4.580   3.205   4.934 -0.2064 -3.3463 -3.2038
 2802SOL     OW20041   2.212   4.065   0.805 -0.2419  0.2062  0.5903
 2802SOL    HW120042   2.117   4.059   0.810 -0.3918  2.1687  0.1285
 2802SOL    HW220043   2.222   4.157   0.831  1.4749  0.0236  0.6274
 2803SOL     OW20044   1.516   2.152   5.108 -0.1713  0.1398 -0.4846
 2803SOL    HW120045   1.523   2.201   5.189  0.1908  1.4550 -1.3186
 2803SOL    HW220046   1.510   2.059   5.132  0.0346  0.0322 -0.8469
 2804SOL     OW20047   3.270   2.621   7.050 -0.0735 -0.0940  0.3202
 2804SOL    HW120048   3.288   2.597   6.959 -1.8036  1.8267 -0.5180
 2804SOL    HW220049   3.258   2.716   7.047 -0.5767 -0.2298 -1.6956
 2805SOL     OW20050   3.547   4.144  14.973 -0.3985  0.0022 -0.1549
 2805SOL    HW120051   3.484   4.213  14.955  0.4436  1.4065  2.3403
 2805SOL    HW220052   3.507   4.070  14.927 -1.4877  0.5773 -0.1235
 2806SOL     OW20053   3.555   1.545   7.760  0.4733 -0.5118 -0.4124
 2806SOL    HW120054   3.640   1.512   7.731  0.3608 -0.4846 -0.7702
 2806SOL    HW220055   3.559   1.620   7.701  2.9526  0.1218  0.5443
 2807SOL     OW20056   2.835   4.398   6.456 -0.2573 -0.4812  0.3905
 2807SOL    HW120057   2.907   4.335   6.468  0.4892 -0.0060 -1.6960
 2807SOL    HW220058   2.879   4.475   6.420 -0.8404 -0.3142  0.0513
 2808SOL     OW20059   1.783   1.612   5.745  0.3156 -0.0533 -0.2582
 2808SOL    HW120060   1.858   1.589   5.800  1.2634  0.0717 -1.4891
 2808SOL    HW220061   1.799   1.706   5.735  1.9843 -0.4730 -1.6314
 2809SOL     OW20062   0.012   1.759  15.736  0.3079 -0.4865 -0.2112
 2809SOL    HW120063   4.664   1.801  15.737  0.9990  0.9332 -0.0591
 2809SOL    HW220064   4.737   1.669  15.766 -0.6676  0.3290  1.7823
 2810SOL     OW20065   4.611   1.599   4.970  0.0497  0.5245  0.7490
 2810SOL    HW120066   4.622   1.511   5.007  1.4964  0.5076  0.2572
 2810SOL    HW220067   4.544   1.641   5.025 -1.9367 -1.1572 -0.4088
 2811SOL     OW20068   0.974   4.237   1.344  0.0533  0.1600  0.3184
 2811SOL    HW120069   1.045   4.216   1.283  0.6786 -0.9171  1.4209
 2811SOL    HW220070   0.907   4.182   1.303 -0.3619  1.1345 -0.3216
 2812SOL     OW20071   2.307   1.110   3.106  0.1350  0.4175  1.3348
 2812SOL    HW120072   2.243   1.163   3.154  0.4958  3.4707 -1.6099
 2812SOL    HW220073   2.390   1.151   3.131  1.0037  0.8724 -2.3706
 2813SOL     OW20074   2.280   1.213   1.381 -0.0685  0.2388 -0.3718
 2813SOL    HW120075   2.264   1.127   1.344  0.0480 -0.0177  0.1815
 2813SOL    HW220076   2.338   1.256   1.318  0.1784 -1.3295 -1.1941
 2814SOL     OW20077   1.777   3.839   8.912  0.4390 -0.3302  0.0763
 2814SOL    HW120078   1.772   3.746   8.889  0.3922  0.1563 -1.8480
 2814SOL    HW220079   1.737   3.879   8.835 -1.5247  0.4412  1.5093
 2815SOL     OW20080   2.942   2.243   5.812  0.1281 -0.4897 -0.0986
 2815SOL    HW120081   2.930   2.173   5.877 -0.9328 -0.4921 -0.2940
 2815SOL    HW220082   2.981   2.315   5.862  0.8107  0.8698 -2.5730
 2816SOL     OW20083   0.570   4.025  16.647  0.5164 -0.0721 -0.1820
 2816SOL    HW120084   0.522   3.942  16.651 -0.2300  0.3932  0.3211
 2816SOL    HW220085   0.555   4.047  16.555  4.1759  1.8949 -0.3171
 2817SOL     OW20086   0.208   3.366  15.837 -0.3687 -0.3617  0.3385
 2817SOL    HW120087   0.187   3.456  15.809  1.2894  0.5472  1.9666
 2817SOL    HW220088   0.300   3.357  15.811 -0.7136  2.6880 -2.0537
 2818SOL     OW20089   0.186   2.774   5.709 -0.1269  0.1686  0.0043
 2818SOL    HW120090   0.279   2.771   5.732  0.2112 -0.6740 -1.4858
 2818SOL    HW220091   0.187   2.780   5.614 -0.7438 -1.3396 -0.0907
 2819SOL     OW20092   4.197   1.772   4.523  0.2752  0.2020 -0.1957
 2819SOL    HW120093   4.220   1.733   4.608  0.9608 -1.5990 -1.2006
 2819SOL    HW220094   4.189   1.697   4.464  4.8024 -1.7465  1.6590
 2820SOL     OW20095   3.489   2.219   8.029  0.0692 -0.2148 -0.3555
 2820SOL    HW120096   3.576   2.258   8.023 -0.8871  2.0828  0.5850
 2820SOL    HW220097   3.440   2.300   8.020  0.6693  0.0560 -1.1985
 2821SOL     OW20098   1.724   3.979   9.936  0.4822 -0.2114  0.2865
 2821SOL    HW120099   1.739   3.914   9.867 -0.7347  1.5860 -1.6628
 2821SOL    HW220100   1.795   4.038   9.912  0.3385 -0.0245  0.3224
 2822SOL     OW20101   3.594   0.444   7.440  0.1325  0.4715 -0.5458
 2822SOL    HW120102   3.636   0.430   7.524 -0.3668  2.9335  0.1083
 2822SOL    HW220103   3.500   0.427   7.449  0.5281 -0.6838  1.3412
 2823SOL     OW20104   3.597   3.983   6.015  0.1032  0.2673 -0.3938
 2823SOL    HW120105   3.594   3.894   5.981 -0.3861  0.8976 -2.0072
 2823SOL    HW220106   3.690   4.006   6.015  0.3814 -0.8790 -0.5777
 2824SOL     OW20107   3.815   2.772   1.527 -0.5036 -0.2909 -0.0159
 2824SOL    HW120108   3.862   2.854   1.539  0.5180 -1.0514  1.2120
 2824SOL    HW220109   3.725   2.801   1.534  0.4913  2.6208  0.5410
 2825SOL     OW20110   4.378   0.766   1.822  0.0811 -0.4977 -0.0204
 2825SOL    HW120111   4.322   0.691   1.804 -3.1042  2.3302 -1.9077
 2825SOL    HW220112   4.454   0.727   1.866  0.0379 -0.7242 -0.1513
 2826SOL     OW20113   3.079   3.580   5.336  0.4916 -0.5118  0.3301
 2826SOL    HW120114   3.082   3.504   5.279 -0.5460 -0.3010 -0.0163
 2826SOL    HW220115   3.053   3.550   5.423 -0.7146 -0.2424  0.0587
 2827SOL     OW20116   3.470   4.091   6.254  0.4497 -0.6724  0.3132
 2827SOL    HW120117   3.554   4.111   6.295 -1.4071  0.8844  3.3263
 2827SOL    HW220118   3.508   4.033   6.188  0.2644 -1.1704  0.6504
 2828SOL     OW20119   3.042   0.352   4.640 -0.1816  0.0036  0.0733
 2828SOL    HW120120   3.003   0.439   4.653  0.1338 -0.3289  3.2589
 2828SOL    HW220121   2.966   0.301   4.613  0.5948  0.0317 -2.2182
 2829SOL     OW20122   0.658   0.455  13.017  0.3214  0.2423 -0.3076
 2829SOL    HW120123   0.571   0.484  13.046  1.2077  3.1760 -0.6388
 2829SOL    HW220124   0.636   0.385  12.955  2.7552 -5.2981  5.0444
 2830SOL     OW20125   1.153   2.983   6.532 -0.6351 -0.1401 -0.5252
 2830SOL    HW120126   1.090   3.005   6.464 -0.0700 -0.5425 -1.1711
 2830SOL    HW220127   1.166   2.890   6.513  0.0464  0.3702 -2.5937
 2831SOL     OW20128   3.577   0.186   7.006 -0.5485 -0.1816 -0.0302
 2831SOL    HW120129   3.658   0.222   6.972 -0.6246 -1.7457 -1.9045
 2831SOL    HW220130   3.547   0.171   6.916  1.5245  2.0781 -1.0802
 2832SOL     OW20131   3.469   2.328   6.003 -0.0788  0.6958  0.5915
 2832SOL    HW120132   3.461   2.412   6.048  2.2730  2.0980 -1.5855
 2832SOL    HW220133   3.515   2.271   6.064 -0.9865 -0.6448  0.0350
 2833SOL     OW20134   0.428   3.309   5.753 -0.1768 -0.2211  0.9198
 2833SOL    HW120135   0.390   3.397   5.744  2.0320  0.7467  0.9571
 2833SOL    HW220136   0.392   3.269   5.673 -0.0201  1.4748 -0.0104
 2834SOL     OW20137   0.925   4.460   6.181  0.6994  0.0439  0.5119
 2834SOL    HW120138   0.909   4.365   6.186 -0.8062  0.3858  2.2538
 2834SOL    HW220139   1.011   4.459   6.139  0.7168  0.2077  0.5459
 2835SOL     OW20140   2.584   4.007  11.072  0.4908  0.2297  0.4085
 2835SOL    HW120141   2.673   3.996  11.038  0.1276 -0.0614 -0.4305
 2835SOL    HW220142   2.541   3.942  11.018 -1.0612  0.0450  1.8728
 2836SOL     OW20143   3.369   3.613   7.288  0.3570  0.3622  0.0484
 2836SOL    HW120144   3.390   3.597   7.196 -2.1324  0.4832 -0.5406
 2836SOL    HW220145   3.337   3.703   7.287  0.2611  0.3340  0.6044
 2837SOL     OW20146   1.928   0.457  10.524  0.0086 -0.3231  0.3889
 2837SOL    HW120147   1.904   0.439  10.433 -0.7863 -0.7776  0.6863
 2837SOL    HW220148   1.996   0.393  10.542 -0.9608 -1.3371  0.4613
 2838SOL     OW20149   1.756   0.243   8.431 -0.4808 -0.2748 -0.0452
 2838SOL    HW120150   1.674   0.203   8.462 -0.0787 -0.6774  0.5101
 2838SOL    HW220151   1.794   0.169   8.383 -1.0080  0.0514 -0.9713
 2839SOL     OW20152   1.550   1.667   5.575 -0.3989  0.3044 -0.0848
 2839SOL    HW120153   1.640   1.684   5.601 -1.1445  4.2607 -0.0895
 2839SOL    HW220154   1.502   1.747   5.594 -0.1661  0.5658 -0.5820
 2840SOL     OW20155   1.975   4.224   9.183 -0.2550 -0.0113  0.3021
 2840SOL    HW120156   1.997   4.148   9.130  2.1000  0.7454  0.2007
 2840SOL    HW220157   1.929   4.278   9.118  0.2218 -2.2123 -1.8506
 2841SOL     OW20158   2.816   0.899   9.112  0.4157 -0.2741  0.3322
 2841SOL    HW120159   2.742   0.944   9.073 -0.6049  0.3104  2.9142
 2841SOL    HW220160   2.840   0.858   9.029 -0.1343  1.4356 -0.6684
 2842SOL     OW20161   4.546   3.502   4.527  0.7190  0.6859 -0.2872
 2842SOL    HW120162   4.613   3.537   4.468  0.0326  0.3800 -1.2610
 2842SOL    HW220163   4.545   3.408   4.506 -1.9694  0.6808 -0.1285
 2843SOL     OW20164   1.486   2.675   5.004 -0.3877  0.0876  0.3604
 2843SOL    HW120165   1.414   2.704   4.948  0.2647  1.4029  0.2142
 2843SOL    HW220166   1.543   2.647   4.932 -1.3621 -1.3728  0.1607
 2844SOL     OW20167   1.869   4.701   5.530 -0.3908 -0.2925  0.3394
 2844SOL    HW120168   1.892   0.034   5.470 -2.3404  0.7089  0.7731
 2844SOL    HW220169   1.889   0.010   5.612  1.2650  1.4234 -1.0235
 2845SOL     OW20170   0.281   4.538   0.827  0.2986  0.7188 -0.2601
 2845SOL    HW120171   0.185   4.533   0.825  0.3965 -1.8681  0.8590
 2845SOL    HW220172   0.290   4.629   0.799  0.8009  0.6698 -0.2494
 2846SOL     OW20173   1.659   4.233   1.994 -0.0764  0.1016 -0.2338
 2846SOL    HW120174   1.731   4.277   1.948 -1.0607  1.0265 -0.8648
 2846SOL    HW220175   1.655   4.145   1.956  2.1390 -0.3957  0.6542
 2847SOL     OW20176   1.658   2.091   3.573 -0.0802 -0.0861 -0.1458
 2847SOL    HW120177   1.577   2.056   3.536  1.2989 -0.1426 -3.0510
 2847SOL    HW220178   1.709   2.011   3.583 -0.2240 -0.4002 -1.9476
 2848SOL     OW20179   4.492   2.559   1.777 -0.7944 -0.6424  0.5821
 2848SOL    HW120180   4.510   2.485   1.836  0.4248 -0.2948  0.6294
 2848SOL    HW220181   4.544   2.515   1.710  0.0712  2.5290 -0.7797
 2849SOL     OW20182   4.509   4.117  15.785 -0.8660  0.4300 -0.4656
 2849SOL    HW120183   4.539   4.140  15.697 -2.0995 -0.4333 -1.1002
 2849SOL    HW220184   4.419   4.150  15.785 -1.8574 -2.2839 -0.0469
 2850SOL     OW20185   1.724   4.517   7.303  0.4343 -0.2248 -0.1619
 2850SOL    HW120186   1.782   4.587   7.335  0.2358 -0.3057  0.3653
 2850SOL    HW220187   1.731   4.450   7.370 -1.7115  0.8836  1.1722
 2851SOL     OW20188   1.496   0.888   5.705 -0.6502  0.2517 -0.5296
 2851SOL    HW120189   1.524   0.977   5.723 -0.0793 -0.1495  0.5591
 2851SOL    HW220190   1.406   0.901   5.673 -0.3873 -0.7596 -1.7136
 2852SOL     OW20191   2.538   1.759   5.928 -0.1338  0.0915  0.3839
 2852SOL    HW120192   2.531   1.675   5.884  0.9048 -0.4830  1.3349
 2852SOL    HW220193   2.456   1.764   5.977 -1.0894 -2.2901 -1.0145
 2853SOL     OW20194   2.532   4.091  12.190 -0.2693  0.3702 -0.4207
 2853SOL    HW120195   2.557   4.184  12.188 -0.1904  0.3172 -2.2317
 2853SOL    HW220196   2.456   4.085  12.248  1.1074  0.3536  1.3781
 2854SOL     OW20197   0.477   3.857  13.073 -0.1308  0.1712 -0.0267
 2854SOL    HW120198   0.394   3.835  13.114 -1.7924  3.7162 -1.5201
 2854SOL    HW220199   0.531   3.819  13.143 -0.4783 -2.5055 -1.2072
 2855SOL     OW20200   3.480   3.829   7.949 -0.2199 -0.2126 -0.4438
 2855SOL    HW120201   3.397   3.872   7.972 -0.0710  1.3537 -2.7723
 2855SOL    HW220202   3.536   3.887   8.001  0.9234 -2.8888  1.2794
 2856SOL     OW20203   1.693   2.012   5.392  0.3975 -0.2325 -0.8090
 2856SOL    HW120204   1.667   1.976   5.307 -2.2418 -2.0722  0.7744
 2856SOL    HW220205   1.707   1.934   5.447 -0.1781 -2.5508 -3.9732
 2857SOL     OW20206   3.216   0.669  11.594 -0.0879 -0.0195 -0.2882
 2857SOL    HW120207   3.181   0.724  11.664 -0.8842  0.6884 -1.2404
 2857SOL    HW220208   3.269   0.730  11.543  1.1903 -1.2011 -0.3538
 2858SOL     OW20209   4.009   1.713  15.868 -0.3651 -0.1460  0.2493
 2858SOL    HW120210   3.950   1.754  15.804  0.6034  1.1683  0.1973
 2858SOL    HW220211   3.973   1.742  15.952  0.0643  2.2933 -0.3890
 2859SOL     OW20212   3.960   4.293   9.006 -0.6113  0.2561  0.0148
 2859SOL    HW120213   3.956   4.281   9.101  1.7174  1.7560  0.3223
 2859SOL    HW220214   3.909   4.215   8.985  0.1207 -0.2679  0.1898
 2860SOL     OW20215   1.809   2.894   1.730 -0.4997 -1.1160  0.3229
 2860SOL    HW120216   1.857   2.914   1.650  1.3697  3.2893  2.5828
 2860SOL    HW220217   1.767   2.977   1.751  0.5563 -1.1877  2.7048
 2861SOL     OW20218   1.644   1.177   8.997 -0.0467 -0.1269  0.0170
 2861SOL    HW120219   1.720   1.232   9.017 -0.9457 -0.0893  3.3515
 2861SOL    HW220220   1.605   1.211   8.917  1.8065  1.6146 -0.1481
 2862SOL     OW20221   2.936   4.626   9.916 -0.3167 -0.0863 -0.0615
 2862SOL    HW120222   2.891   4.554   9.873  1.2863  1.2223 -3.9637
 2862SOL    HW220223   2.909   4.609  10.006 -0.4557  0.6638  0.0376
 2863SOL     OW20224   0.818   2.329   5.382 -0.1787 -0.6661 -0.0309
 2863SOL    HW120225   0.820   2.237   5.357 -0.9736 -0.4838 -0.7537
 2863SOL    HW220226   0.726   2.331   5.410  0.8013 -0.4431  3.2171
 2864SOL     OW20227   4.423   0.935   6.222 -0.2087 -0.0678 -0.5268
 2864SOL    HW120228   4.504   0.921   6.272 -1.8583 -1.9202  1.6549
 2864SOL    HW220229   4.427   1.031   6.224  0.9762 -0.1783  2.0754
 2865SOL     OW20230   4.725   0.784  15.864 -0.0286  0.1734  0.2353
 2865SOL    HW120231   4.693   0.762  15.951  0.9108  1.7362  0.9805
 2865SOL    HW220232   4.675   0.737  15.798  2.0409  0.6688 -1.7071
 2866SOL     OW20233   4.396   0.765   7.718 -0.0259  0.1138 -0.1095
 2866SOL    HW120234   4.436   0.851   7.734 -0.1899  0.2828 -0.6248
 2866SOL    HW220235   4.467   0.712   7.754  0.2405 -0.8423 -2.0447
 2867SOL     OW20236   2.532   1.511   5.513 -0.1332  0.1074  0.1366
 2867SOL    HW120237   2.551   1.541   5.424 -0.0691 -0.0700  0.0896
 2867SOL    HW220238   2.441   1.535   5.531 -0.0935 -1.7384  2.8718
 2868SOL     OW20239   3.476   3.016   7.968  0.5011 -0.2374  0.3914
 2868SOL    HW120240   3.411   3.059   7.912  0.5583 -0.2524  0.3122
 2868SOL    HW220241   3.549   3.078   7.974  0.8879 -0.4283 -2.0149
 2869SOL     OW20242   2.909   2.759   6.365  0.0895  0.2610 -0.1903
 2869SOL    HW120243   2.833   2.796   6.319  0.7232  2.0917  0.2334
 2869SOL    HW220244   2.886   2.669   6.341 -1.7141  0.8330 -0.6475
 2870SOL     OW20245   3.975   0.568   2.036  0.2636 -0.3971  0.0376
 2870SOL    HW120246   3.933   0.649   2.065  0.7237 -0.5607  1.1213
 2870SOL    HW220247   3.908   0.523   1.984 -1.0119 -0.0873  1.4115
 2871SOL     OW20248   4.227   2.632   7.940  0.2162 -0.1627 -0.0679
 2871SOL    HW120249   4.196   2.707   7.991  3.4336  0.1044  1.5102
 2871SOL    HW220250   4.213   2.665   7.852  0.6793 -2.4399 -0.9929
 2872SOL     OW20251   0.775   0.259   7.676  0.6033  0.7761 -0.0150
 2872SOL    HW120252   0.754   0.315   7.602 -1.7774  0.0466  0.1264
 2872SOL    HW220253   0.763   0.173   7.635  0.4958  1.8608 -2.2435
 2873SOL     OW20254   4.349   4.579   8.838 -0.1351 -0.3147  0.1155
 2873SOL    HW120255   4.310   4.665   8.854  1.5226  0.5984 -0.7377
 2873SOL    HW220256   4.358   4.543   8.926  0.8503  0.4328  0.3221
 2874SOL     OW20257   1.565   0.264   7.280 -0.4377 -0.0917 -0.0219
 2874SOL    HW120258   1.579   0.227   7.367  0.2138 -0.7544 -0.4077
 2874SOL    HW220259   1.570   0.188   7.221  0.2758 -0.1064  0.0595
 2875SOL     OW20260   1.819   1.640   3.596  0.1751 -0.1604  0.5686
 2875SOL    HW120261   1.746   1.654   3.536 -0.7283 -3.2067  0.9508
 2875SOL    HW220262   1.805   1.715   3.654 -1.4729 -0.9599  1.2149
 2876SOL     OW20263   2.950   2.674   4.755  0.1340 -0.3115 -0.2320
 2876SOL    HW120264   2.885   2.745   4.756  0.8552  0.3500 -0.2488
 2876SOL    HW220265   2.945   2.656   4.662 -1.0388 -1.3336  0.0328
 2877SOL     OW20266   0.368   3.121   4.104 -0.8973  0.1999 -0.0774
 2877SOL    HW120267   0.332   3.203   4.070  0.1755  0.1312 -1.3419
 2877SOL    HW220268   0.374   3.069   4.024  0.0668 -1.3482  0.9881
 2878SOL     OW20269   1.058   1.181   5.394  0.4559 -0.7162  0.5416
 2878SOL    HW120270   1.114   1.259   5.397  1.2251 -1.1892 -1.5388
 2878SOL    HW220271   0.972   1.222   5.384  0.1121 -1.3266  1.0193
 2879SOL     OW20272   4.413   3.235   1.400 -0.3008 -0.0016  0.3700
 2879SOL    HW120273   4.375   3.226   1.488 -0.1507 -0.1480  0.4197
 2879SOL    HW220274   4.383   3.323   1.379 -2.7620 -0.5405  1.5781
 2880SOL     OW20275   1.787   1.847  12.901  0.3422  0.0944  0.4081
 2880SOL    HW120276   1.859   1.799  12.943  0.5963  0.0981 -0.0209
 2880SOL    HW220277   1.751   1.886  12.981  0.2726  0.7258  0.0674
 2881SOL     OW20278   1.981   0.132   9.839  0.2796 -0.4850  0.1896
 2881SOL    HW120279   1.984   0.156   9.932 -0.6982 -0.6775  0.2761
 2881SOL    HW220280   1.985   0.216   9.795 -2.4667 -0.8569 -0.7506
 2882SOL     OW20281   3.672   0.841   7.577  0.4031  0.4587  0.1340
 2882SOL    HW120282   3.709   0.921   7.614 -0.9675  0.9188  0.5232
 2882SOL    HW220283   3.625   0.881   7.504 -0.8817  0.9551  1.2204
 2883SOL     OW20284   3.952   1.201   7.488  0.0289 -1.3772  0.1947
 2883SOL    HW120285   3.957   1.107   7.506  1.0277 -1.4137 -0.2724
 2883SOL    HW220286   3.985   1.202   7.398  0.7034 -0.3263  0.4507
 2884SOL     OW20287   4.490   2.101   3.902 -0.4817  0.5458 -0.2462
 2884SOL    HW120288   4.424   2.123   3.968 -0.9320  0.1509 -0.5678
 2884SOL    HW220289   4.564   2.079   3.958 -0.7383 -0.2037 -0.2113
 2885SOL     OW20290   0.012   2.384   4.038  0.5345 -0.1498  0.1106
 2885SOL    HW120291   4.674   2.356   4.089 -0.5816  2.7895  0.0350
 2885SOL    HW220292   4.713   2.459   3.992  0.2426  0.8563  2.0053
 2886SOL     OW20293   2.323   2.214   6.606  0.5962 -0.3733 -0.0184
 2886SOL    HW120294   2.303   2.121   6.592  0.0365 -0.1549 -0.6579
 2886SOL    HW220295   2.288   2.246   6.523  0.1054 -1.4834 -0.2353
 2887SOL     OW20296   3.318   4.166   6.996  0.1666  0.1310 -0.1324
 2887SOL    HW120297   3.356   4.080   7.015 -0.9335 -0.0532  1.2101
 2887SOL    HW220298   3.363   4.221   7.060 -0.9612  2.1004 -1.0442
 2888SOL     OW20299   4.571   2.322   2.462 -0.0464  0.6884 -0.0382
 2888SOL    HW120300   4.626   2.249   2.488 -1.6743 -0.4039  0.3262
 2888SOL    HW220301   4.594   2.322   2.369 -1.8672  1.3457 -0.4948
 2889SOL     OW20302   2.015   2.899  15.638  0.7256  0.1799  0.0682
 2889SOL    HW120303   2.012   2.927  15.547 -0.1642  0.4493  0.1841
 2889SOL    HW220304   2.072   2.968  15.672 -1.0540  1.9478 -0.5138
 2890SOL     OW20305   3.799   3.438   3.813 -0.6743  0.0553 -0.3754
 2890SOL    HW120306   3.759   3.395   3.889  1.7072 -4.0239 -1.4119
 2890SOL    HW220307   3.788   3.531   3.833 -3.1274 -0.3374 -0.0000
 2891SOL     OW20308   0.843   3.959   3.797 -0.0842  0.1429 -0.9743
 2891SOL    HW120309   0.885   4.044   3.806 -2.7244  1.1719  1.8261
 2891SOL    HW220310   0.757   3.965   3.839 -1.0143  0.1192 -2.8676
 2892SOL     OW20311   1.263   0.119   8.240 -0.2966 -0.0125 -0.2429
 2892SOL    HW120312   1.199   0.174   8.196  0.8417 -0.8225 -2.9274
 2892SOL    HW220313   1.270   0.163   8.325  0.1931 -0.2660 -0.1511
 2893SOL     OW20314   4.223   2.469   3.333 -0.3553  0.0604  0.3189
 2893SOL    HW120315   4.306   2.518   3.329  0.6658 -1.5921  1.4232
 2893SOL    HW220316   4.205   2.461   3.427 -0.7654  1.9943  0.4138
 2894SOL     OW20317   0.988   4.570   7.532  0.4088  0.3394  0.0866
 2894SOL    HW120318   0.949   4.604   7.612 -2.5771 -1.4177 -0.6340
 2894SOL    HW220319   1.071   4.532   7.560  0.4843  0.0394 -0.5566
 2895SOL     OW20320   4.080   1.780   2.219  0.0948 -0.1502 -0.0572
 2895SOL    HW120321   4.048   1.870   2.213 -1.3538 -0.7166 -0.8040
 2895SOL    HW220322   4.087   1.756   2.127  0.5540 -2.9077  0.6961
 2896SOL     OW20323   2.065   3.648  14.084 -0.2759 -0.0526 -0.1406
 2896SOL    HW120324   2.100   3.574  14.034  0.7418  1.5259 -1.7835
 2896SOL    HW220325   1.986   3.674  14.037 -1.6777 -3.3224  0.4399
 2897SOL     OW20326   2.976   4.242   4.825  0.2998 -0.2390 -0.3395
 2897SOL    HW120327   2.948   4.286   4.745 -1.7136 -1.3407 -0.2230
 2897SOL    HW220328   2.976   4.313   4.890 -1.0340 -0.5636  0.0089
 2898SOL     OW20329   2.100   2.593   4.192  0.3800  0.0533 -0.5340
 2898SOL    HW120330   2.099   2.519   4.131  1.1863 -0.5505  0.1899
 2898SOL    HW220331   2.010   2.622   4.183 -0.1745 -0.9576  1.7876
 2899SOL     OW20332   1.090   4.196   0.414 -0.4649 -0.2813 -0.1247
 2899SOL    HW120333   1.009   4.171   0.458 -1.1873  0.2400 -1.1884
 2899SOL    HW220334   1.066   4.185   0.323 -2.7273 -1.7340  0.6596
 2900SOL     OW20335   4.077   1.162   5.778 -0.0568  0.2292  0.7851
 2900SOL    HW120336   4.017   1.127   5.845  1.1847  1.6295  2.6343
 2900SOL    HW220337   4.164   1.160   5.818  0.3850 -2.3173 -0.3351
 2901SOL     OW20338   0.341   2.689  11.436 -0.0106  0.3669  0.1094
 2901SOL    HW120339   0.319   2.649  11.352 -0.6189  0.9827 -0.0127
 2901SOL    HW220340   0.433   2.714  11.425 -0.1012 -0.6926 -3.0584
 2902SOL     OW20341   0.652   2.922   2.756 -0.0170 -0.1692 -0.1065
 2902SOL    HW120342   0.715   2.931   2.828 -2.2743  1.8930  1.6465
 2902SOL    HW220343   0.687   2.840   2.722  2.1866 -0.7993  3.6437
 2903SOL     OW20344   3.301   1.993   3.605 -0.5879  0.0114 -0.2940
 2903SOL    HW120345   3.289   1.931   3.677 -0.3924  0.4106  0.0841
 2903SOL    HW220346   3.243   1.960   3.536  0.3303 -1.8404 -0.1833
 2904SOL     OW20347   3.370   1.801   8.033  0.1339  0.5082  0.5730
 2904SOL    HW120348   3.396   1.865   7.967  1.4978  0.5661  1.1562
 2904SOL    HW220349   3.303   1.852   8.079  0.3568  1.7699 -0.5198
 2905SOL     OW20350   1.275   4.457   8.557  0.0096 -0.0353 -0.0098
 2905SOL    HW120351   1.211   4.426   8.492  1.9827 -0.0966 -1.9011
 2905SOL    HW220352   1.263   4.390   8.625 -0.5286  0.8472  0.7760
 2906SOL     OW20353   3.357   0.167   4.963 -0.2729  0.2627  0.0870
 2906SOL    HW120354   3.283   0.222   4.940 -0.4536  0.0914  0.2597
 2906SOL    HW220355   3.403   0.232   5.016 -0.5762  1.7448 -1.4869
 2907SOL     OW20356   3.147   0.829   2.809  0.3149  0.2677  0.5258
 2907SOL    HW120357   3.161   0.882   2.731 -0.5737  0.2756  0.3730
 2907SOL    HW220358   3.221   0.854   2.864  0.1201 -0.0528  0.9291
 2908SOL     OW20359   1.286   2.303   3.391  0.0839 -0.2280 -0.2445
 2908SOL    HW120360   1.348   2.375   3.377 -1.8115  1.2516 -1.0169
 2908SOL    HW220361   1.255   2.287   3.302 -1.0723 -0.8677  0.2750
 2909SOL     OW20362   3.962   2.438   8.805  0.2894  0.3663  0.0843
 2909SOL    HW120363   3.935   2.529   8.794  0.6940  0.4886  0.0956
 2909SOL    HW220364   3.918   2.417   8.888 -0.6257  3.1576  0.3081
 2910SOL     OW20365   1.133   3.328   1.681 -0.4771 -0.0460 -0.0043
 2910SOL    HW120366   1.103   3.332   1.590  1.6229  1.2415 -0.6190
 2910SOL    HW220367   1.052   3.360   1.722 -0.2919 -1.4907  1.5279
 2911SOL     OW20368   3.107   0.117   7.945  0.1253  0.3486  0.1172
 2911SOL    HW120369   3.064   0.127   7.860 -0.3566  0.1346  0.3371
 2911SOL    HW220370   3.124   0.023   7.943 -0.4246  0.2263  1.4063
 2912SOL     OW20371   4.254   1.014   7.163 -0.6090 -0.4457 -0.3383
 2912SOL    HW120372   4.252   1.106   7.187  2.3278  0.1297 -2.3775
 2912SOL    HW220373   4.350   1.011   7.158 -0.4948  0.3985  1.3673
 2913SOL     OW20374   3.372   2.512  13.637  0.2251  0.2449 -0.2559
 2913SOL    HW120375   3.291   2.472  13.668 -0.0892  0.2733 -1.0207
 2913SOL    HW220376   3.363   2.605  13.657  0.8551  0.1051  0.6563
 2914SOL     OW20377   1.374   1.650   8.767 -0.3949 -0.2524 -0.0625
 2914SOL    HW120378   1.350   1.564   8.801  1.5693 -0.8181 -0.1008
 2914SOL    HW220379   1.394   1.695   8.850  0.9439 -1.4189  0.2535
 2915SOL     OW20380   1.148   3.703   1.018  0.0379 -0.2583 -0.3675
 2915SOL    HW120381   1.159   3.798   1.024 -0.1194 -0.1387 -2.0158
 2915SOL    HW220382   1.200   3.673   1.093  0.8990  1.3335 -0.3114
 2916SOL     OW20383   3.656   2.450  13.458  0.2994 -0.1421 -0.4778
 2916SOL    HW120384   3.640   2.398  13.537  1.2454 -0.6478 -0.6108
 2916SOL    HW220385   3.567   2.471  13.431 -0.0033  0.5151  1.0492
 2917SOL     OW20386   2.273   4.034  14.663 -0.1065 -0.0901  0.1153
 2917SOL    HW120387   2.277   3.980  14.741  0.1408  0.7439  0.6830
 2917SOL    HW220388   2.356   4.018  14.619  0.5981  0.1578  1.3811
 2918SOL     OW20389   1.303   3.704  16.943 -0.0509 -0.0536  0.0135
 2918SOL    HW120390   1.368   3.694  16.874 -1.9053 -0.4496 -1.6969
 2918SOL    HW220391   1.326   3.638  17.008 -1.8325  1.2364  1.9738
 2919SOL     OW20392   2.266   1.237  13.206  0.4498  0.0186 -0.2329
 2919SOL    HW120393   2.207   1.162  13.197  1.7742 -0.8187 -1.8251
 2919SOL    HW220394   2.336   1.191  13.253  0.7370  2.5240  1.8154
 2920SOL     OW20395   4.663   1.590   8.759 -0.3610  0.5545 -0.2290
 2920SOL    HW120396   4.636   1.585   8.851 -0.1078  1.0497 -0.1227
 2920SOL    HW220397   4.630   1.506   8.730  0.9588 -0.0164 -0.0982
 2921SOL     OW20398   0.965   2.457   7.227  0.4470 -0.2406  0.0155
 2921SOL    HW120399   0.884   2.413   7.202 -1.0163  0.1819  3.9777
 2921SOL    HW220400   0.945   2.550   7.212  1.4337  0.0437  0.4640
 2922SOL     OW20401   2.462   0.917   1.406 -0.2056 -0.0512 -0.1012
 2922SOL    HW120402   2.388   0.873   1.364 -0.7724 -0.5900  1.4659
 2922SOL    HW220403   2.517   0.934   1.329  0.0975  1.3586  0.4252
 2923SOL     OW20404   4.303   3.525   4.618 -0.0137 -0.0087  0.2669
 2923SOL    HW120405   4.395   3.504   4.604  0.0710  1.0264 -0.7836
 2923SOL    HW220406   4.265   3.511   4.531 -0.1091  1.1472  0.1233
 2924SOL     OW20407   1.182   1.146  14.434  0.4086 -0.0296  0.7531
 2924SOL    HW120408   1.225   1.203  14.497 -1.4901  0.2583  1.7737
 2924SOL    HW220409   1.090   1.150  14.459  0.2818 -0.4795  0.3688
 2925SOL     OW20410   1.814   4.434   5.423  0.7434 -0.5982  0.2658
 2925SOL    HW120411   1.747   4.398   5.481  0.4576  0.5583  0.6400
 2925SOL    HW220412   1.827   4.516   5.470 -0.0131  0.2858 -1.0759
 2926SOL     OW20413   0.763   0.112   4.947 -0.1492 -0.3257  0.5375
 2926SOL    HW120414   0.687   0.101   4.890  0.9631  1.7368 -1.3994
 2926SOL    HW220415   0.821   0.067   4.885 -0.4368 -1.7106  1.2855
 2927SOL     OW20416   1.435   4.324   5.901  0.0767  0.3640  0.5913
 2927SOL    HW120417   1.392   4.409   5.905  0.2960  0.6850 -3.6087
 2927SOL    HW220418   1.463   4.318   5.992  1.3788 -1.7511  0.0671
 2928SOL     OW20419   2.077   3.396   7.542  0.5176 -0.3023 -0.4044
 2928SOL    HW120420   2.062   3.343   7.464 -0.2335 -1.5502  0.5855
 2928SOL    HW220421   2.005   3.363   7.596  2.1283 -0.7617  1.4687
 2929SOL     OW20422   1.132   3.790   1.693  0.0366  0.2150 -0.2679
 2929SOL    HW120423   1.126   3.772   1.786  1.7336 -1.3216 -0.4592
 2929SOL    HW220424   1.097   3.706   1.667 -2.5150  1.2968 -0.2793
 2930SOL     OW20425   3.386   3.463   2.798  0.0567 -0.0323  0.6062
 2930SOL    HW120426   3.383   3.372   2.828  1.7014 -0.3826 -0.2700
 2930SOL    HW220427   3.451   3.454   2.728 -0.6641  2.0862 -0.3225
 2931SOL     OW20428   1.993   2.661  17.356 -0.2231  0.3432 -0.0400
 2931SOL    HW120429   1.904   2.696  17.352 -1.1342 -2.2867 -3.0638
 2931SOL    HW220430   2.026   2.678  17.444 -0.8261  0.0017  0.2529
 2932SOL     OW20431   2.670   0.797   1.515 -0.2588  0.4371 -0.6604
 2932SOL    HW120432   2.712   0.850   1.584 -1.1998  0.3871 -0.0340
 2932SOL    HW220433   2.591   0.845   1.492  1.6729  2.7544 -2.4287
 2933SOL     OW20434   0.270   2.593  11.213  0.6055 -0.3373  0.0593
 2933SOL    HW120435   0.216   2.523  11.177  0.0538  0.5503 -0.8221
 2933SOL    HW220436   0.332   2.595  11.140 -1.2355  0.4510 -1.4699
 2934SOL     OW20437   0.324   0.959   2.260 -0.5659  0.0496  0.7099
 2934SOL    HW120438   0.235   0.937   2.289  0.3554 -1.5448  2.3496
 2934SOL    HW220439   0.366   0.874   2.249  2.8006  1.7490  0.6818
 2935SOL     OW20440   0.627   0.250  11.526  0.1853  0.1571 -0.0177
 2935SOL    HW120441   0.701   0.196  11.500 -0.9281 -0.1918 -2.4195
 2935SOL    HW220442   0.664   0.276  11.611 -1.3296 -1.0237  0.9955
 2936SOL     OW20443   1.851   2.150   7.908 -0.1329 -0.2915 -0.4433
 2936SOL    HW120444   1.812   2.115   7.988 -1.2783  1.2932 -0.3204
 2936SOL    HW220445   1.942   2.131   7.932 -0.2375 -0.0168  0.1612
 2937SOL     OW20446   1.694   0.364  14.987  0.6963  0.1329 -0.3652
 2937SOL    HW120447   1.700   0.419  14.909  2.3232  1.4248  0.6587
 2937SOL    HW220448   1.774   0.311  14.985  1.0231  0.5885  0.4218
 2938SOL     OW20449   4.111   4.146   8.768 -0.1289 -0.0717 -0.0450
 2938SOL    HW120450   4.136   4.231   8.734 -0.3354  0.3249  0.7971
 2938SOL    HW220451   4.178   4.130   8.835 -1.1965 -2.5984  0.4378
 2939SOL     OW20452   2.106   0.961   1.660 -0.2447 -0.6057 -0.1404
 2939SOL    HW120453   2.093   1.036   1.718  1.7575 -0.8617  0.6590
 2939SOL    HW220454   2.201   0.951   1.660 -0.5313 -3.2666 -0.6176
 2940SOL     OW20455   4.403   0.488   2.121 -0.2442 -0.4157 -0.1686
 2940SOL    HW120456   4.362   0.513   2.204  2.2355  0.4554  0.7904
 2940SOL    HW220457   4.471   0.425   2.146  0.4525  0.2892 -0.2986
 2941SOL     OW20458   1.634   2.776  13.869  0.6157  0.2179  0.7346
 2941SOL    HW120459   1.658   2.854  13.820 -0.6717  1.1161  1.5468
 2941SOL    HW220460   1.623   2.717  13.794  1.8601  1.0182 -0.0839
 2942SOL     OW20461   4.101   0.416   7.568 -0.3090  0.5500  0.1635
 2942SOL    HW120462   4.050   0.489   7.604 -0.4488  0.4547  0.1606
 2942SOL    HW220463   4.049   0.338   7.585 -1.3800  0.3287 -3.9522
 2943SOL     OW20464   3.388   4.601   9.109 -0.1121  0.1141  0.4067
 2943SOL    HW120465   3.347   4.566   9.188 -2.2712 -1.1396 -1.2653
 2943SOL    HW220466   3.360   4.532   9.048  2.2595 -2.0834  1.7568
 2944SOL     OW20467   0.780   3.837   0.706  0.3825  0.4643 -0.8620
 2944SOL    HW120468   0.736   3.758   0.673 -0.1468 -0.4359  2.0278
 2944SOL    HW220469   0.820   3.794   0.782 -1.3604 -1.3971 -0.9849
 2945SOL     OW20470   3.570   0.939  12.065 -0.0866 -0.3721 -0.4208
 2945SOL    HW120471   3.544   0.945  12.157  0.0710 -0.7244 -0.3512
 2945SOL    HW220472   3.493   0.957  12.011 -0.3545  1.2298  0.4864
 2946SOL     OW20473   4.138   3.122   1.860  0.5882  0.0500 -0.0644
 2946SOL    HW120474   4.070   3.072   1.904 -0.6642  2.1577  0.4181
 2946SOL    HW220475   4.211   3.124   1.922  1.3763 -2.1163 -0.9348
 2947SOL     OW20476   3.561   0.032   4.763  0.2800 -0.2253 -0.3976
 2947SOL    HW120477   3.495   0.071   4.820 -1.3209 -1.2765 -1.5118
 2947SOL    HW220478   3.501   4.737   4.696  0.8083 -0.6530 -0.6589
 2948SOL     OW20479   2.430   4.049   1.439 -0.1125 -0.3608 -0.1098
 2948SOL    HW120480   2.392   3.980   1.384 -3.2640  1.0943  0.2424
 2948SOL    HW220481   2.480   3.995   1.500 -3.2719 -2.8677  0.3026
 2949SOL     OW20482   1.697   3.864  14.357  0.0866 -0.6108  0.3958
 2949SOL    HW120483   1.633   3.793  14.348  0.4548 -1.1950  2.2476
 2949SOL    HW220484   1.777   3.812  14.362 -0.4132 -1.4450 -0.3068
 2950SOL     OW20485   1.565   2.430   0.619 -0.0712 -0.5869 -0.1003
 2950SOL    HW120486   1.597   2.520   0.628 -1.1676 -0.1936 -0.1619
 2950SOL    HW220487   1.602   2.388   0.696  1.3826 -1.8379 -1.4909
 2951SOL     OW20488   1.625   1.090   7.204  0.0788 -0.1200 -0.0683
 2951SOL    HW120489   1.682   1.146   7.151 -0.9873  0.6788 -0.3727
 2951SOL    HW220490   1.687   1.066   7.272 -1.0684  1.4358  1.5089
 2952SOL     OW20491   1.255   3.804   7.785  0.8847 -0.1161  0.7338
 2952SOL    HW120492   1.176   3.818   7.734  0.6402 -0.7422  0.9359
 2952SOL    HW220493   1.272   3.896   7.804 -1.4589  0.7887 -1.6814
 2953SOL     OW20494   1.529   4.123   2.598  0.3144 -0.1455 -0.1720
 2953SOL    HW120495   1.535   4.159   2.510  1.3323 -0.5633 -0.2710
 2953SOL    HW220496   1.623   4.118   2.617  0.5441 -0.0726 -1.2774
 2954SOL     OW20497   2.576   1.039   8.717 -0.2137  0.2280  0.7339
 2954SOL    HW120498   2.506   1.074   8.663  0.6834 -0.3071 -0.7987
 2954SOL    HW220499   2.638   1.007   8.652 -1.0766 -0.2798  0.1604
 2955SOL     OW20500   3.763   0.301  12.090  0.4225  0.8018 -0.3816
 2955SOL    HW120501   3.680   0.257  12.071  1.3060 -0.9298 -0.2656
 2955SOL    HW220502   3.808   0.236  12.144 -0.6293  0.2783 -0.1304
 2956SOL     OW20503   4.671   2.887  15.131 -0.4055  0.1912 -0.1009
 2956SOL    HW120504   4.665   2.815  15.194 -1.3173  0.0327 -0.3786
 2956SOL    HW220505   4.632   2.961  15.178 -0.3491  0.5930 -0.6938
 2957SOL     OW20506   3.459   2.231  13.926  0.2572  0.1381  0.5796
 2957SOL    HW120507   3.514   2.218  14.003  0.7049  1.6722  0.5058
 2957SOL    HW220508   3.521   2.221  13.853 -1.1306 -0.4240 -0.5300
 2958SOL     OW20509   1.564   3.724   8.431 -0.3427  0.5265  0.0059
 2958SOL    HW120510   1.566   3.693   8.522 -1.1661 -1.4063 -0.6177
 2958SOL    HW220511   1.475   3.716   8.397 -0.5424  2.1693  0.1487
 2959SOL     OW20512   3.293   1.283   6.043  0.4341 -0.0828 -0.1110
 2959SOL    HW120513   3.217   1.230   6.021 -1.2670  2.4050 -0.2421
 2959SOL    HW220514   3.358   1.214   6.026  1.0840  0.4160  0.3273
 2960SOL     OW20515   0.974   1.094   1.687  0.0009 -0.1813 -0.2945
 2960SOL    HW120516   1.048   1.044   1.722 -0.4408  0.6905  1.8894
 2960SOL    HW220517   1.031   1.164   1.656  1.1714 -0.7628  0.5376
 2961SOL     OW20518   1.553   3.464   2.050 -0.2703  0.0822 -0.0343
 2961SOL    HW120519   1.509   3.510   2.122 -2.6196 -1.0361 -0.7534
 2961SOL    HW220520   1.566   3.541   1.994  2.1604  0.1988  0.6582
 2962SOL     OW20521   4.641   0.576  11.785 -0.5681 -0.2196 -0.1403
 2962SOL    HW120522   4.664   0.639  11.717 -0.8226 -0.1385 -0.1507
 2962SOL    HW220523   4.688   0.611  11.861  0.8567  2.2423 -2.1519
 2963SOL     OW20524   4.373   0.326   9.651  0.1100 -0.3378 -0.1018
 2963SOL    HW120525   4.452   0.356   9.696 -0.7558  0.1257  1.1160
 2963SOL    HW220526   4.357   0.272   9.728 -0.7485 -2.1067 -1.5012
 2964SOL     OW20527   1.338   1.645   7.104  0.2115  0.0185  0.3452
 2964SOL    HW120528   1.358   1.692   7.185 -1.2813 -1.2429  1.4554
 2964SOL    HW220529   1.311   1.709   7.038  0.7601 -0.3447 -0.2293
 2965SOL     OW20530   2.022   3.242   8.887 -0.4481  0.0314 -0.6199
 2965SOL    HW120531   2.057   3.154   8.901  1.2513  0.8589  0.2080
 2965SOL    HW220532   2.064   3.291   8.957 -1.9358  0.5487 -0.0803
 2966SOL     OW20533   0.294   4.048   7.554  0.1178  0.2214  0.3755
 2966SOL    HW120534   0.389   4.033   7.547  0.2458  0.2379  1.9015
 2966SOL    HW220535   0.270   3.993   7.480  1.5571 -1.0226  0.8075
 2967SOL     OW20536   0.002   3.965   8.680 -0.1545 -0.2935  0.1158
 2967SOL    HW120537   0.020   3.938   8.770 -1.8009 -1.4569  0.0873
 2967SOL    HW220538   0.091   3.971   8.644  1.3474  2.1236  4.2128
 2968SOL     OW20539   4.670   4.378   6.786  0.4288  0.1098 -0.6414
 2968SOL    HW120540   4.580   4.402   6.767 -0.2129 -0.9979  1.0014
 2968SOL    HW220541   4.652   4.284   6.794 -0.2169  0.0534 -2.7293
 2969SOL     OW20542   2.336   3.960   7.311  0.0050 -0.2522  0.3567
 2969SOL    HW120543   2.408   3.997   7.362  0.2677 -2.3979  1.5333
 2969SOL    HW220544   2.265   3.991   7.368 -0.9554 -3.6199  1.0222
 2970SOL     OW20545   3.621   1.656  15.906 -0.3940 -0.3985 -0.6136
 2970SOL    HW120546   3.663   1.696  15.830  1.9762 -1.7409 -0.0048
 2970SOL    HW220547   3.545   1.715  15.901  0.0526 -0.0217 -2.8280
 2971SOL     OW20548   0.049   0.701   1.102 -0.0009  0.1528  0.3329
 2971SOL    HW120549   0.129   0.752   1.110  1.3245 -1.6956 -0.9286
 2971SOL    HW220550   0.056   0.646   1.023  1.9570 -0.4421  0.9070
 2972SOL     OW20551   3.509   3.515   0.604  0.4740 -0.1853 -0.3561
 2972SOL    HW120552   3.577   3.462   0.646  0.0883  0.6989  1.3863
 2972SOL    HW220553   3.431   3.460   0.607 -0.8697  1.6757 -1.1216
 2973SOL     OW20554   1.216   4.141   6.813 -0.2746 -0.1178  0.5804
 2973SOL    HW120555   1.226   4.226   6.855 -0.2718 -0.0613  0.4649
 2973SOL    HW220556   1.308   4.121   6.798 -0.2664 -0.8013  1.5147
 2974SOL     OW20557   2.374   2.788  15.308  0.4148 -0.0856 -0.4494
 2974SOL    HW120558   2.319   2.742  15.372 -0.1455 -1.3716 -1.8591
 2974SOL    HW220559   2.311   2.850  15.272  0.7313  0.1421 -0.6149
 2975SOL     OW20560   4.568   0.894   2.448  0.2357  0.1711 -0.4265
 2975SOL    HW120561   4.558   0.840   2.527  0.6479  0.2789 -0.2977
 2975SOL    HW220562   4.477   0.903   2.419 -0.0169 -0.1876  0.2402
 2976SOL     OW20563   0.803   3.258   9.282 -0.3335  0.9741  0.6876
 2976SOL    HW120564   0.834   3.312   9.356  0.9187 -0.6819  1.3746
 2976SOL    HW220565   0.767   3.183   9.329 -2.1539  2.2367  1.2904
 2977SOL     OW20566   1.603   4.605  13.916  0.0824 -0.5459  0.1499
 2977SOL    HW120567   1.682   4.595  13.970  0.5104 -0.3174 -0.4321
 2977SOL    HW220568   1.593   4.699  13.899 -0.0743 -0.9700 -2.0930
 2978SOL     OW20569   2.835   2.024   1.822 -0.3746  0.2473  0.6159
 2978SOL    HW120570   2.903   2.063   1.768  0.4768 -2.5838 -0.3458
 2978SOL    HW220571   2.868   2.049   1.908 -1.7262  0.3448  1.1180
 2979SOL     OW20572   1.812   1.465   6.728  0.1975 -0.6110  0.2236
 2979SOL    HW120573   1.802   1.414   6.648 -2.3107  2.4598 -1.3949
 2979SOL    HW220574   1.730   1.514   6.729  0.1876 -0.6281  0.2416
 2980SOL     OW20575   4.611   3.387   7.935 -0.1145 -0.3222  0.4663
 2980SOL    HW120576   4.670   3.313   7.919 -0.1337  0.2406 -2.2246
 2980SOL    HW220577   4.556   3.349   8.003  1.2687 -1.2972  1.0475
 2981SOL     OW20578   2.771   4.707  17.243 -0.0863 -0.0620  0.4869
 2981SOL    HW120579   2.699   0.029  17.263  1.6798  2.5118 -0.9366
 2981SOL    HW220580   2.724   4.644  17.187  0.1495 -0.4877  0.7685
 2982SOL     OW20581   0.886   4.200  11.851  0.3557  0.0163  0.1649
 2982SOL    HW120582   0.902   4.128  11.912  1.0966 -0.2688 -0.3604
 2982SOL    HW220583   0.851   4.262  11.915  2.0389  2.9601 -1.7868
 2983SOL     OW20584   2.357   3.391   6.136  0.4320  0.4002 -0.1581
 2983SOL    HW120585   2.324   3.480   6.123 -0.7894  0.0903  0.7939
 2983SOL    HW220586   2.420   3.410   6.206 -0.8453 -0.2241  1.1627
 2984SOL     OW20587   2.131   1.649  16.703 -0.4735 -0.3332  0.3159
 2984SOL    HW120588   2.153   1.591  16.631 -1.4396 -0.1809 -0.0937
 2984SOL    HW220589   2.224   1.659  16.727 -0.4564  0.5762 -0.1488
 2985SOL     OW20590   3.954   0.411  16.752 -0.0865 -0.0539  0.2138
 2985SOL    HW120591   3.878   0.430  16.807  0.3572  0.9255  0.4955
 2985SOL    HW220592   3.935   0.442  16.664 -1.1511 -1.0076  0.1019
 2986SOL     OW20593   2.905   3.975   7.293  0.2229 -0.1791 -0.1730
 2986SOL    HW120594   2.926   3.995   7.384  0.9517 -0.5286 -0.2646
 2986SOL    HW220595   2.813   3.999   7.282  0.4343  0.4125 -0.6691
 2987SOL     OW20596   0.405   1.712   3.397 -0.1188  1.2373 -0.3569
 2987SOL    HW120597   0.312   1.691   3.383  0.2963  0.5687 -2.1200
 2987SOL    HW220598   0.425   1.758   3.316 -2.1275  0.7369 -1.1366
 2988SOL     OW20599   1.765   4.634   1.691 -0.3697  0.0385 -0.1845
 2988SOL    HW120600   1.722   4.717   1.711 -1.6692 -0.3429 -1.4427
 2988SOL    HW220601   1.684   4.587   1.674 -1.0162  2.0593 -2.7546
 2989SOL     OW20602   4.209   3.202   5.375 -0.8536  0.0780 -0.0395
 2989SOL    HW120603   4.246   3.289   5.386  0.4231 -0.5914  0.9772
 2989SOL    HW220604   4.184   3.190   5.467 -0.3876 -0.3875  0.0281
 2990SOL     OW20605   0.241   4.502  15.189  0.6331  0.0699  0.6831
 2990SOL    HW120606   0.316   4.529  15.135  0.6491  0.8671  1.1165
 2990SOL    HW220607   0.232   4.413  15.153  3.1078  0.3047 -0.5517
 2991SOL     OW20608   1.249   0.657   7.497  0.2735 -0.5244  0.2028
 2991SOL    HW120609   1.289   0.593   7.556  1.8327  0.3672  0.1120
 2991SOL    HW220610   1.169   0.666   7.549 -0.4781 -1.4953 -0.7731
 2992SOL     OW20611   3.506   0.643  17.354  0.0938 -0.2157  0.0782
 2992SOL    HW120612   3.535   0.559  17.390  0.9293  1.2809  2.9491
 2992SOL    HW220613   3.433   0.664  17.413  2.2032  0.6582  2.4007
 2993SOL     OW20614   1.297   3.619   8.587  0.0875 -0.7797  0.3008
 2993SOL    HW120615   1.334   3.564   8.519 -1.2468 -0.8872 -0.3421
 2993SOL    HW220616   1.203   3.602   8.595  0.1900 -0.7442  1.6931
 2994SOL     OW20617   3.237   3.900   3.167 -0.0028 -0.3467  0.3895
 2994SOL    HW120618   3.240   3.963   3.094 -0.3213 -1.3279 -0.4709
 2994SOL    HW220619   3.326   3.900   3.203 -0.3171  0.1763  1.1559
 2995SOL     OW20620   1.832   3.075   7.919  0.2508  0.4047 -0.4717
 2995SOL    HW120621   1.912   3.051   7.872  0.1143  0.4855 -0.7452
 2995SOL    HW220622   1.873   3.118   7.994 -2.1434 -0.9079  1.5884
 2996SOL     OW20623   3.197   4.152   6.308  0.0386 -0.6153 -0.1029
 2996SOL    HW120624   3.292   4.147   6.313 -0.1947 -2.3977  2.6760
 2996SOL    HW220625   3.187   4.146   6.213  0.6270 -0.6194 -0.1644
 2997SOL     OW20626   2.770   4.345   3.183 -0.2056 -0.7523  0.2179
 2997SOL    HW120627   2.738   4.401   3.254  0.2020 -0.0139 -0.1740
 2997SOL    HW220628   2.828   4.408   3.138 -0.9696 -0.7104 -0.7198
 2998SOL     OW20629   3.593   1.228  10.663 -0.1253  0.4786  0.1147
 2998SOL    HW120630   3.658   1.159  10.650  0.8702  0.8965  2.7935
 2998SOL    HW220631   3.645   1.297  10.704 -0.5767  1.5125 -1.0183
 2999SOL     OW20632   3.915   1.990   6.497  0.3276 -0.0864 -0.0876
 2999SOL    HW120633   3.851   2.058   6.476  0.0991 -0.2146  0.1998
 2999SOL    HW220634   3.961   2.026   6.573  0.5082 -0.2819 -0.1041
 3000SOL     OW20635   3.499   3.184   1.476  0.3386 -0.3399  0.6859
 3000SOL    HW120636   3.548   3.180   1.558  0.6111  1.1567  0.5928
 3000SOL    HW220637   3.558   3.228   1.415 -1.1241 -0.5642 -0.9032
 3001SOL     OW20638   1.930   2.700   8.922 -0.2652  0.0525  0.4955
 3001SOL    HW120639   1.836   2.709   8.934 -0.4060 -3.4262  1.9758
 3001SOL    HW220640   1.944   2.753   8.844 -1.8048 -0.4525 -0.1016
 3002SOL     OW20641   1.689   4.428   9.396  0.0364 -0.5323 -0.1863
 3002SOL    HW120642   1.712   4.402   9.485  2.6203  1.4460 -0.2754
 3002SOL    HW220643   1.595   4.423   9.416 -0.0572 -2.7428 -1.1883
 3003SOL     OW20644   2.438   1.649  12.021 -0.1935 -0.2087 -0.5725
 3003SOL    HW120645   2.509   1.585  12.028  0.1334  0.2757  0.6236
 3003SOL    HW220646   2.370   1.583  12.014  0.1930 -0.6996  0.3069
 3004SOL     OW20647   1.626   3.519   2.773  0.3616  0.5477 -0.0577
 3004SOL    HW120648   1.684   3.559   2.707  0.0277  0.2577 -0.5264
 3004SOL    HW220649   1.611   3.427   2.752  1.4736  0.1656  0.7878
 3005SOL     OW20650   1.165   3.263   6.575 -0.4941 -1.2173 -0.4047
 3005SOL    HW120651   1.070   3.270   6.586 -0.3917 -0.3062 -0.1391
 3005SOL    HW220652   1.175   3.168   6.565  1.1372 -0.9111 -1.5044
 3006SOL     OW20653   2.344   2.523   1.398  0.6303  0.1114  0.0372
 3006SOL    HW120654   2.380   2.602   1.438  0.9753  0.4374 -0.9163
 3006SOL    HW220655   2.429   2.497   1.361 -1.0403 -2.2315 -2.1783
 3007SOL     OW20656   3.098   3.694  12.998  0.3545  0.1902 -0.4804
 3007SOL    HW120657   3.185   3.724  13.023 -0.0668  0.1710  1.0186
 3007SOL    HW220658   3.053   3.726  13.076  0.0370  0.0076 -0.5885
 3008SOL     OW20659   3.490   3.444   7.470  0.8490 -0.2745 -0.2524
 3008SOL    HW120660   3.445   3.506   7.412  2.6373  1.9024  0.6916
 3008SOL    HW220661   3.550   3.506   7.512  0.4181  0.3019 -0.5007
 3009SOL     OW20662   4.725   3.067  13.275 -0.0617  0.7535  0.0322
 3009SOL    HW120663   4.669   2.995  13.245 -3.2963  2.3858  2.1799
 3009SOL    HW220664   4.712   3.068  13.370  2.7557  1.5309  0.3933
 3010SOL     OW20665   2.107   3.465   3.082 -0.1114 -0.7457  0.0866
 3010SOL    HW120666   2.184   3.500   3.127 -1.6540  0.9250  1.4178
 3010SOL    HW220667   2.042   3.534   3.092  0.3816 -0.2819  0.0935
 3011SOL     OW20668   0.191   1.391   4.917  0.2120 -0.1759 -0.3729
 3011SOL    HW120669   0.139   1.314   4.896 -1.4442  1.1230 -1.0300
 3011SOL    HW220670   0.248   1.362   4.989 -1.2578  0.9369  1.2401
 3012SOL     OW20671   3.820   1.176   3.150  0.4744  0.3255  0.0832
 3012SOL    HW120672   3.894   1.226   3.186  0.4961  0.2979  0.0767
 3012SOL    HW220673   3.766   1.250   3.122 -0.1909  0.8899  2.7820
 3013SOL     OW20674   2.114   4.224   7.926 -0.6311  0.8194 -0.0892
 3013SOL    HW120675   2.196   4.180   7.950 -0.7200  0.8354  0.2461
 3013SOL    HW220676   2.060   4.154   7.887 -2.3693  1.4149  1.2295
 3014SOL     OW20677   0.900   4.685   3.200 -0.2536 -0.0369 -0.0904
 3014SOL    HW120678   0.979   0.001   3.208 -1.3700  1.6545 -0.4866
 3014SOL    HW220679   0.877   4.677   3.293 -0.1112 -0.3790 -0.0854
 3015SOL     OW20680   2.970   0.361   1.049  0.1459 -0.1216  0.0200
 3015SOL    HW120681   3.020   0.412   0.985  1.1970 -1.1477  0.0132
 3015SOL    HW220682   2.891   0.347   0.998  0.0237 -0.2454  0.2445
 3016SOL     OW20683   1.854   3.109  12.824  0.5390  0.0868  0.0505
 3016SOL    HW120684   1.811   3.037  12.777 -0.1353  0.2858  0.3601
 3016SOL    HW220685   1.820   3.180  12.771 -0.3889  0.5460  1.2526
 3017SOL     OW20686   3.906   3.384   7.824  0.0146  0.1384 -0.3298
 3017SOL    HW120687   3.957   3.342   7.893 -0.0600 -0.3347 -0.5619
 3017SOL    HW220688   3.875   3.466   7.863 -0.5626  0.0571 -0.6126
 3018SOL     OW20689   2.137   1.438   1.517 -0.0511 -0.2627  0.0117
 3018SOL    HW120690   2.085   1.482   1.584  1.6247  1.7364 -0.0035
 3018SOL    HW220691   2.208   1.398   1.567 -0.0817 -0.3371 -0.0042
 3019SOL     OW20692   3.267   3.408   2.245 -0.4288  0.4327 -0.4229
 3019SOL    HW120693   3.295   3.376   2.160  0.0729 -0.9339  0.2533
 3019SOL    HW220694   3.340   3.367   2.291 -0.3092  2.1973  0.9840
 3020SOL     OW20695   1.124   3.968   7.013  0.1693 -0.2333  0.1118
 3020SOL    HW120696   1.149   4.013   6.932 -0.9854 -0.9942 -0.6624
 3020SOL    HW220697   1.171   3.885   7.004  2.3182  1.1119 -1.2083
 3021SOL     OW20698   1.495   4.166   5.183 -0.1554  0.2009  0.6071
 3021SOL    HW120699   1.502   4.189   5.091 -2.1800 -0.2631  0.3443
 3021SOL    HW220700   1.582   4.188   5.217 -0.5435  3.1746 -0.3211
 3022SOL     OW20701   2.376   4.299   5.538 -0.9774  0.0175 -0.0816
 3022SOL    HW120702   2.421   4.215   5.525  1.3036  1.5335 -1.8945
 3022SOL    HW220703   2.293   4.279   5.494 -1.6817  2.2250  0.2659
 3023SOL     OW20704   3.187   0.349   7.413  0.3144 -0.2126 -0.2301
 3023SOL    HW120705   3.239   0.292   7.355  0.5565 -0.1929 -0.0328
 3023SOL    HW220706   3.227   0.338   7.499 -0.3710 -2.7752 -0.2374
 3024SOL     OW20707   0.991   2.994  15.171 -0.0311  0.4889 -0.2859
 3024SOL    HW120708   1.067   2.936  15.163  0.0932  0.4374  1.2789
 3024SOL    HW220709   0.970   2.988  15.264 -0.2062  0.7751 -0.3076
 3025SOL     OW20710   4.570   1.601   3.042 -0.0654  0.2639 -0.3763
 3025SOL    HW120711   4.613   1.641   2.967  0.2154  0.9969  0.1828
 3025SOL    HW220712   4.486   1.647   3.050 -1.0835 -1.6079 -0.0782
 3026SOL     OW20713   3.255   1.543   3.721  0.7958 -0.4277  0.4683
 3026SOL    HW120714   3.223   1.633   3.723  0.2919 -0.6013 -0.1324
 3026SOL    HW220715   3.231   1.520   3.811 -0.1568 -1.0193  0.0575
 3027SOL     OW20716   0.674   0.340   4.629  0.1754 -0.4188  0.2147
 3027SOL    HW120717   0.587   0.348   4.589  1.3497  3.6104 -1.4784
 3027SOL    HW220718   0.688   0.434   4.635  0.9843 -0.4766 -0.7805
 3028SOL     OW20719   2.646   2.760   4.658 -0.0918 -0.3720 -0.4874
 3028SOL    HW120720   2.655   2.750   4.753  2.4441 -0.8321 -0.7738
 3028SOL    HW220721   2.640   2.667   4.635  2.0400 -0.8745  0.9788
 3029SOL     OW20722   4.697   2.558   7.127 -0.2638 -0.4067  0.1702
 3029SOL    HW120723   4.631   2.543   7.194  1.3692 -2.1500  1.3967
 3029SOL    HW220724   0.036   2.541   7.182 -0.4935  2.0619  1.2209
 3030SOL     OW20725   2.554   0.052   5.882 -0.1082  0.1099  0.2291
 3030SOL    HW120726   2.621   0.107   5.921 -0.7403 -0.1515  1.7186
 3030SOL    HW220727   2.591   0.065   5.795  2.9388 -2.7043  1.1185
 3031SOL     OW20728   2.854   1.559  17.580 -0.4668 -0.6313  0.1559
 3031SOL    HW120729   2.849   1.468  17.608  1.3580 -1.4685 -2.2377
 3031SOL    HW220730   2.947   1.562  17.560 -0.3424  0.8758  0.9414
 3032SOL     OW20731   3.538   4.265   2.314 -0.0656  0.2465  0.0596
 3032SOL    HW120732   3.551   4.173   2.339  1.2260  0.8322  1.5342
 3032SOL    HW220733   3.508   4.306   2.396  0.1600  2.5898 -1.0448
 3033SOL     OW20734   3.650   0.335   5.751 -0.4745 -0.3404  0.3042
 3033SOL    HW120735   3.712   0.406   5.765  1.0166 -1.4839 -0.5472
 3033SOL    HW220736   3.699   0.272   5.805 -0.0759  2.1076  2.8373
 3034SOL     OW20737   4.370   3.534   5.946 -0.3025 -0.0411  0.6812
 3034SOL    HW120738   4.383   3.629   5.944 -1.3147  0.0896  0.6249
 3034SOL    HW220739   4.463   3.512   5.957  0.0350  0.9128 -0.1753
 3035SOL     OW20740   2.259   3.754   9.674  0.2990 -0.9701 -0.1752
 3035SOL    HW120741   2.278   3.666   9.705  1.7850 -0.1080  1.3654
 3035SOL    HW220742   2.242   3.749   9.580  0.0047  0.3303 -0.1931
 3036SOL     OW20743   4.637   1.618   9.612 -0.0605 -0.2604 -1.0517
 3036SOL    HW120744   4.650   1.562   9.689 -0.4740 -0.1234 -0.8836
 3036SOL    HW220745   4.623   1.696   9.665 -2.5924 -0.3037 -1.6691
 3037SOL     OW20746   2.333   2.962  11.655  0.2916  0.6158  0.0759
 3037SOL    HW120747   2.420   2.969  11.615  0.5125 -0.9121  0.2876
 3037SOL    HW220748   2.358   2.942  11.745  1.1529 -3.6185 -1.1058
 3038SOL     OW20749   2.389   4.234   0.496  0.3835 -0.0845 -0.2945
 3038SOL    HW120750   2.480   4.265   0.496  0.5351 -0.5391  1.3653
 3038SOL    HW220751   2.346   4.286   0.564  4.0765  2.7313 -0.1006
 3039SOL     OW20752   2.283   4.624   8.023  0.3910 -0.0896 -0.4517
 3039SOL    HW120753   2.345   4.682   8.067 -0.3555 -0.5549  1.2544
 3039SOL    HW220754   2.345   4.553   8.008  1.7945  1.1225 -0.2862
 3040SOL     OW20755   1.680   4.131   4.605 -0.4039 -0.0663  0.2168
 3040SOL    HW120756   1.730   4.102   4.529  2.6677  0.7292  1.9393
 3040SOL    HW220757   1.615   4.061   4.617 -0.6763  0.3106  0.9680
 3041SOL     OW20758   2.298   3.624  15.102  0.0421 -0.6577  0.0195
 3041SOL    HW120759   2.268   3.696  15.158  0.6995 -1.7348  1.7707
 3041SOL    HW220760   2.243   3.558  15.144 -0.7220 -0.7460 -1.1176
 3042SOL     OW20761   1.737   4.546  14.646  0.3301  0.5599  0.1520
 3042SOL    HW120762   1.697   4.489  14.712  0.7640 -0.1799 -0.2321
 3042SOL    HW220763   1.757   4.476  14.584 -0.4385  0.8143 -0.3778
 3043SOL     OW20764   2.430   2.415   9.701 -0.1286  0.2031 -0.3854
 3043SOL    HW120765   2.504   2.372   9.659 -1.3060 -0.7355 -1.5037
 3043SOL    HW220766   2.476   2.454   9.776  1.0061 -1.6123 -0.1336
 3044SOL     OW20767   3.891   0.607  10.766 -0.2684  0.0127 -0.1896
 3044SOL    HW120768   3.916   0.557  10.687 -1.3592  1.1892 -1.2809
 3044SOL    HW220769   3.970   0.659  10.780 -0.2567  0.2293 -1.0167
 3045SOL     OW20770   0.180   1.929   7.042  0.2563  0.0301 -0.3143
 3045SOL    HW120771   0.254   1.981   7.010 -0.6390  1.0222 -0.7673
 3045SOL    HW220772   0.104   1.971   7.002 -1.1566 -1.0104  1.3214
 3046SOL     OW20773   4.073   1.767   5.531 -0.3033 -0.0604 -0.1810
 3046SOL    HW120774   4.019   1.833   5.488 -1.0397 -0.5770 -0.0445
 3046SOL    HW220775   4.074   1.798   5.622  0.9307 -1.0030  0.1381
 3047SOL     OW20776   2.624   2.119   4.379 -0.0245 -0.3315  1.0159
 3047SOL    HW120777   2.701   2.154   4.423 -0.7871  1.9224  0.5588
 3047SOL    HW220778   2.666   2.076   4.305 -2.9052 -4.6119  1.8729
 3048SOL     OW20779   3.312   2.963   8.265 -0.3179  0.6389 -0.1028
 3048SOL    HW120780   3.243   3.017   8.303  0.5980  0.3513  2.0091
 3048SOL    HW220781   3.277   2.935   8.181 -0.4838  1.6780 -0.3750
 3049SOL     OW20782   0.440   3.722   6.782  0.0703  0.2878  0.3104
 3049SOL    HW120783   0.376   3.715   6.853 -0.4797  2.5767  0.0336
 3049SOL    HW220784   0.388   3.694   6.708  0.8382 -0.1802 -0.0484
 3050SOL     OW20785   0.262   0.880   4.243  0.1506 -0.2120  0.2943
 3050SOL    HW120786   0.315   0.877   4.323 -0.4992  1.2719  0.7887
 3050SOL    HW220787   0.298   0.807   4.193  1.3682  0.6020 -0.0298
 3051SOL     OW20788   3.582   1.997  17.529 -0.3501 -0.0125  0.5515
 3051SOL    HW120789   3.503   2.009  17.582  1.1926  4.0267  1.9952
 3051SOL    HW220790   3.556   1.924  17.474  0.2936  0.4485 -0.3778
 3052SOL     OW20791   1.495   2.792  10.014  0.1429 -0.0146  0.3895
 3052SOL    HW120792   1.577   2.744  10.001  0.7909  0.8659  1.1811
 3052SOL    HW220793   1.527   2.882  10.008  0.2217 -0.1686 -1.6392
 3053SOL     OW20794   0.596   3.527   6.624  0.0734 -0.3108 -0.4651
 3053SOL    HW120795   0.579   3.589   6.694  0.8419 -2.2135  1.4219
 3053SOL    HW220796   0.562   3.448   6.666 -1.3351  0.0532 -0.9242
 3054SOL     OW20797   3.151   3.649   3.159  0.2800  0.3638  0.4046
 3054SOL    HW120798   3.156   3.745   3.152 -0.0545  0.6343  3.9286
 3054SOL    HW220799   3.245   3.633   3.153 -0.0699 -1.2101 -0.6729
 3055SOL     OW20800   0.840   4.261   9.536 -0.0854  0.4937  0.0933
 3055SOL    HW120801   0.750   4.292   9.538  0.7955  3.0396  0.2205
 3055SOL    HW220802   0.860   4.258   9.630 -1.2834 -1.5555  0.2806
 3056SOL     OW20803   1.613   2.169   3.012  0.4932  0.4837 -0.2464
 3056SOL    HW120804   1.563   2.104   3.062 -0.9335 -0.1246 -2.4785
 3056SOL    HW220805   1.556   2.182   2.936 -3.7900 -1.3816  2.6941
 3057SOL     OW20806   2.716   2.196  13.646  0.3566  0.1373  0.1160
 3057SOL    HW120807   2.771   2.213  13.723  3.1636 -3.2593 -1.1112
 3057SOL    HW220808   2.669   2.118  13.676 -0.8879  0.1103 -1.9259
 3058SOL     OW20809   3.750   3.366  16.062 -0.3486  0.1334  1.0905
 3058SOL    HW120810   3.661   3.399  16.057 -0.2580  0.0309 -1.1948
 3058SOL    HW220811   3.751   3.282  16.016  1.7286  0.8428 -0.1627
 3059SOL     OW20812   3.934   3.491  12.777  0.2203  0.1011 -0.1244
 3059SOL    HW120813   3.895   3.521  12.859  0.3587 -1.7888  0.6336
 3059SOL    HW220814   3.876   3.416  12.759 -1.5651  0.5803  3.6477
 3060SOL     OW20815   4.033   2.125  15.983  0.9816 -0.4163 -0.2696
 3060SOL    HW120816   3.955   2.160  15.941  1.8952  1.8151 -0.0863
 3060SOL    HW220817   4.063   2.070  15.910  0.9974 -0.9926  0.1704
 3061SOL     OW20818   0.122   4.252   8.758 -0.2535 -0.0177  0.0773
 3061SOL    HW120819   0.157   4.341   8.767 -0.7037 -0.1291  2.7991
 3061SOL    HW220820   0.143   4.214   8.843 -0.5205  0.3259  0.3000
 3062SOL     OW20821   3.624   3.327   3.466 -0.1049  0.5020 -0.3272
 3062SOL    HW120822   3.619   3.334   3.371 -1.8849 -0.0324 -0.2629
 3062SOL    HW220823   3.599   3.237   3.490  1.7355 -0.2662 -1.2283
 3063SOL     OW20824   2.030   0.907   6.373  0.2239 -0.0032 -0.0251
 3063SOL    HW120825   2.106   0.922   6.317  1.1563  1.0721  1.5103
 3063SOL    HW220826   1.977   0.855   6.314 -0.1613 -0.8636  1.0683
 3064SOL     OW20827   2.986   3.893   6.843 -0.0492 -0.2139  0.7395
 3064SOL    HW120828   2.978   3.802   6.815 -0.9716 -0.2685  1.1601
 3064SOL    HW220829   3.002   3.863   6.933  0.5971  2.4372  1.4980
 3065SOL     OW20830   2.533   2.141   4.669 -0.0262  0.0147 -0.0534
 3065SOL    HW120831   2.506   2.232   4.681  0.4204  0.2478 -0.7978
 3065SOL    HW220832   2.559   2.150   4.577  1.6265  2.1478  0.6127
 3066SOL     OW20833   0.335   1.380   5.154 -0.2806  0.5322 -0.1155
 3066SOL    HW120834   0.369   1.314   5.214 -2.4656 -0.4598  0.0024
 3066SOL    HW220835   0.268   1.415   5.213 -2.3569 -0.0737 -2.1433
 3067SOL     OW20836   1.315   0.823   5.165  0.5029 -0.3141  0.4883
 3067SOL    HW120837   1.248   0.800   5.229 -0.4748 -0.3050 -0.5308
 3067SOL    HW220838   1.362   0.881   5.225 -0.1032  2.0251 -1.2828
 3068SOL     OW20839   0.234   3.657   1.151 -0.2754  0.9129  0.4663
 3068SOL    HW120840   0.218   3.590   1.084  0.3084  1.2839 -0.0477
 3068SOL    HW220841   0.322   3.643   1.184 -0.1536 -0.4188 -0.4189
 3069SOL     OW20842   0.113   4.049   0.059  0.3360 -0.3639 -0.1418
 3069SOL    HW120843   0.144   4.043   0.149  0.7946 -2.3098 -0.4219
 3069SOL    HW220844   0.193   4.033   0.008  0.8384  2.7781 -0.3460
 3070SOL     OW20845   4.152   4.219   5.351  0.0908  0.5806  0.0475
 3070SOL    HW120846   4.154   4.284   5.422 -2.1893 -0.3217  0.9376
 3070SOL    HW220847   4.125   4.263   5.271 -1.7033  1.4080  1.1019
 3071SOL     OW20848   1.614   0.118   1.814  0.7978 -0.1301 -0.7127
 3071SOL    HW120849   1.527   0.144   1.846  0.4122 -2.5468  0.2191
 3071SOL    HW220850   1.657   0.200   1.837  0.1953  0.6336 -2.2777
 3072SOL     OW20851   4.713   2.549   8.990 -0.0077 -0.4897 -0.1824
 3072SOL    HW120852   4.623   2.583   8.992 -0.8581 -2.7109 -1.4832
 3072SOL    HW220853   0.007   2.590   8.910  1.9942  0.3540  1.0352
 3073SOL     OW20854   4.345   2.875   2.440  0.1189 -0.0473  0.1959
 3073SOL    HW120855   4.366   2.782   2.448 -3.2010 -1.0432 -2.5363
 3073SOL    HW220856   4.438   2.900   2.442  0.1955 -0.5477  2.3003
 3074SOL     OW20857   0.646   3.330   4.452 -0.1989 -0.2755 -0.4768
 3074SOL    HW120858   0.595   3.301   4.377 -1.0145 -1.2009  0.4275
 3074SOL    HW220859   0.593   3.288   4.519  1.3016  1.4124  1.7934
 3075SOL     OW20860   2.845   3.230   5.573 -0.0449 -0.6118  0.1706
 3075SOL    HW120861   2.872   3.142   5.548 -1.1436 -0.9353  0.1201
 3075SOL    HW220862   2.782   3.221   5.645 -0.5380 -0.1042 -0.1949
 3076SOL     OW20863   2.514   1.518  12.408 -0.1842  0.6651 -0.2220
 3076SOL    HW120864   2.461   1.459  12.354  0.4567  0.7861 -0.9929
 3076SOL    HW220865   2.468   1.602  12.397  0.3267  1.0990  0.9176
 3077SOL     OW20866   1.606   0.533  10.203  0.2580  1.1339 -0.0684
 3077SOL    HW120867   1.553   0.605  10.237 -0.9299  0.7785 -1.1896
 3077SOL    HW220868   1.570   0.518  10.115  2.0150  0.8992 -0.7408
 3078SOL     OW20869   3.866   0.990   3.550 -0.0626  0.0904  0.1719
 3078SOL    HW120870   3.798   0.952   3.495 -0.6431  1.0953  0.1997
 3078SOL    HW220871   3.819   1.074   3.554  1.5882  0.9997  0.3780
 3079SOL     OW20872   3.605   0.182   4.452 -0.0995 -0.2562  0.2382
 3079SOL    HW120873   3.606   0.088   4.467 -0.3268 -0.2530  0.2661
 3079SOL    HW220874   3.681   0.189   4.394 -2.3612  1.0121 -2.5213
 3080SOL     OW20875   1.475   0.004  13.014 -0.1404 -0.2843 -0.4448
 3080SOL    HW120876   1.526   4.668  13.044 -0.4234  0.0039  0.7437
 3080SOL    HW220877   1.459   4.707  12.926  0.3255  1.2535 -1.1492
 3081SOL     OW20878   1.825   3.310   2.936 -0.0901 -0.1708  0.3161
 3081SOL    HW120879   1.838   3.326   2.842  1.0462 -0.7154  0.3824
 3081SOL    HW220880   1.792   3.392   2.973 -3.1286 -1.2108 -0.0929
 3082SOL     OW20881   1.290   1.578   5.177  0.0493  0.4381  0.2489
 3082SOL    HW120882   1.373   1.574   5.225  0.1204  1.2369  0.1772
 3082SOL    HW220883   1.226   1.528   5.228 -0.0086  2.1218  1.8430
 3083SOL     OW20884   1.856   4.090   1.673  0.0141 -0.0485 -0.0447
 3083SOL    HW120885   1.889   4.001   1.675  0.0742  0.0208  2.1890
 3083SOL    HW220886   1.898   4.115   1.755 -0.5657 -1.0109  0.5383
 3084SOL     OW20887   0.388   4.299   1.866 -0.0847  0.0925 -0.7551
 3084SOL    HW120888   0.452   4.245   1.820 -0.3510  0.2823 -1.3537
 3084SOL    HW220889   0.432   4.333   1.943 -0.2398 -0.4946 -0.4095
 3085SOL     OW20890   3.201   2.218   2.022 -0.5380  0.4102 -0.3024
 3085SOL    HW120891   3.116   2.217   1.978 -2.1662  0.3207  2.8341
 3085SOL    HW220892   3.180   2.279   2.093  1.2710 -0.0368  0.6343
 3086SOL     OW20893   0.286   2.285   9.583 -0.0751  0.2596 -0.4533
 3086SOL    HW120894   0.342   2.348   9.538  0.6735 -1.2844 -1.6945
 3086SOL    HW220895   0.207   2.338   9.586 -0.4314 -0.3410  0.7281
 3087SOL     OW20896   4.707   3.328  15.218 -0.8042 -0.8945 -0.0738
 3087SOL    HW120897   4.720   3.287  15.133  3.7070  1.9997 -0.7851
 3087SOL    HW220898   4.640   3.270  15.255 -1.7924 -0.3428 -1.0250
 3088SOL     OW20899   4.619   2.744   3.282 -0.8535  0.5213 -0.1544
 3088SOL    HW120900   4.666   2.770   3.202 -0.6720  0.3572 -0.1027
 3088SOL    HW220901   4.554   2.813   3.289  0.0184  1.4178 -0.8640
 3089SOL     OW20902   1.342   3.445  15.579 -0.2670 -0.3869 -0.0130
 3089SOL    HW120903   1.366   3.460  15.487  0.6726  1.4008  0.5292
 3089SOL    HW220904   1.255   3.410  15.561 -1.0280  2.3468 -1.7083
 3090SOL     OW20905   2.671   1.070   6.532  0.5516 -0.2368  0.2491
 3090SOL    HW120906   2.710   1.059   6.619  0.1981  2.4548  0.7650
 3090SOL    HW220907   2.577   1.081   6.545  0.3195  0.5639 -2.1252
 3091SOL     OW20908   0.841   1.266   4.104  0.0704 -0.4397  0.1633
 3091SOL    HW120909   0.746   1.257   4.100  0.0394  0.0093 -0.1362
 3091SOL    HW220910   0.847   1.350   4.151 -1.5762 -0.2005 -0.0491
 3092SOL     OW20911   0.062   2.813   8.512 -0.0892  0.1776  0.1282
 3092SOL    HW120912   0.033   2.820   8.421 -0.9931 -2.5701  0.1930
 3092SOL    HW220913   0.029   2.893   8.553 -3.4918 -0.5179 -1.2811
 3093SOL     OW20914   3.753   0.395   2.198 -0.3788  0.3943  0.3758
 3093SOL    HW120915   3.759   0.390   2.102 -0.6927 -0.7554  0.4112
 3093SOL    HW220916   3.749   0.488   2.221 -1.3454  0.6685 -0.8628
 3094SOL     OW20917   4.196   1.952   7.617  0.5634  0.3523 -0.0848
 3094SOL    HW120918   4.123   1.967   7.677  0.0452 -0.0892 -0.6115
 3094SOL    HW220919   4.269   1.945   7.679  0.2454  0.2150  0.2708
 3095SOL     OW20920   4.046   2.391  12.383  0.2428 -0.4691 -0.2468
 3095SOL    HW120921   3.954   2.393  12.410  0.9570 -1.1592  2.2520
 3095SOL    HW220922   4.069   2.300  12.396 -3.2837 -1.5265 -1.4193
 3096SOL     OW20923   2.347   3.951   0.038  0.0561  0.1407 -0.3850
 3096SOL    HW120924   2.434   3.978   0.008  0.2861 -1.5431 -1.2310
 3096SOL    HW220925   2.309   4.038   0.056 -0.4306 -0.0314 -0.5841
 3097SOL     OW20926   1.692   1.657   9.236 -0.1135 -0.5589  0.4816
 3097SOL    HW120927   1.654   1.583   9.283  2.8338 -2.3270  0.0454
 3097SOL    HW220928   1.777   1.666   9.278 -0.2986  0.9506  0.5386
 3098SOL     OW20929   4.242   2.971  11.907  0.3635 -0.3221  0.1682
 3098SOL    HW120930   4.308   2.916  11.864  0.1917 -0.2517 -0.1834
 3098SOL    HW220931   4.287   3.027  11.970  1.3995  1.2103 -1.9614
 3099SOL     OW20932   0.216   3.223   3.413  0.1365  0.0700  0.2127
 3099SOL    HW120933   0.151   3.288   3.439 -0.8450 -1.0970  0.6468
 3099SOL    HW220934   0.256   3.273   3.341  1.6216 -0.6548  0.5311
 3100SOL     OW20935   4.334   0.883   6.557 -0.3126 -0.4193  0.0594
 3100SOL    HW120936   4.364   0.956   6.503  2.2422 -3.0308 -2.0788
 3100SOL    HW220937   4.415   0.842   6.588 -0.7956  0.0231  1.8685
 3101SOL     OW20938   2.752   0.809  11.971 -0.0177 -0.6562  0.6079
 3101SOL    HW120939   2.784   0.752  11.901  0.9418  0.6016  0.0165
 3101SOL    HW220940   2.826   0.871  11.969 -0.3470 -0.1492  3.6481
 3102SOL     OW20941   1.854   0.050   5.130 -0.2119 -0.6790 -0.5947
 3102SOL    HW120942   1.902   0.081   5.054  1.3277  2.0636  1.4859
 3102SOL    HW220943   1.767   0.023   5.099 -1.5294  3.8400 -0.9462
 3103SOL     OW20944   0.140   0.617   2.033 -0.2047  0.0077  0.1508
 3103SOL    HW120945   0.226   0.640   2.069  0.3937 -1.1235 -0.5331
 3103SOL    HW220946   0.166   0.542   1.979  0.9133 -0.7974  1.7926
 3104SOL     OW20947   2.868   2.319   8.862  0.5631  0.1742  0.1225
 3104SOL    HW120948   2.814   2.302   8.939  1.5447  0.9856  0.9827
 3104SOL    HW220949   2.929   2.246   8.858 -0.6762 -0.8431 -0.2666
 3105SOL     OW20950   2.091   2.487   6.944  0.2828 -0.0116  0.4998
 3105SOL    HW120951   2.014   2.514   6.994 -0.9507  1.5469 -2.2422
 3105SOL    HW220952   2.050   2.433   6.877 -1.1789 -1.1513  2.3373
 3106SOL     OW20953   2.186   3.914  14.941  0.2516  0.1362 -0.2970
 3106SOL    HW120954   2.164   3.977  15.010 -0.8831 -0.8731  0.2660
 3106SOL    HW220955   2.253   3.863  14.986  0.7237 -0.1429 -1.3098
 3107SOL     OW20956   3.720   1.293   5.796 -0.2402  0.0703 -0.2254
 3107SOL    HW120957   3.749   1.231   5.863  2.4531  0.0077 -1.4329
 3107SOL    HW220958   3.674   1.231   5.741 -0.7346 -1.8738  2.3935
 3108SOL     OW20959   3.595   4.338   9.297  0.4354  0.0471 -0.1914
 3108SOL    HW120960   3.520   4.391   9.322  1.3957  1.2888  0.0237
 3108SOL    HW220961   3.627   4.299   9.378  1.8814  2.0433  0.1865
 3109SOL     OW20962   0.442   4.612  13.813 -0.5555  0.0711 -0.3090
 3109SOL    HW120963   0.478   4.649  13.893 -0.0701 -0.1440 -0.4294
 3109SOL    HW220964   0.367   4.666  13.791 -0.3684  0.3251 -0.3156
 3110SOL     OW20965   1.852   2.031   8.972  0.3231  0.3377 -0.3656
 3110SOL    HW120966   1.760   2.052   8.962 -0.1073 -0.5952  1.6215
 3110SOL    HW220967   1.846   1.941   9.005 -1.0597 -0.2710 -2.3216
 3111SOL     OW20968   0.454   2.044  14.421  0.3289  0.3627  0.0422
 3111SOL    HW120969   0.542   2.036  14.458  0.6570  0.7687 -0.6598
 3111SOL    HW220970   0.409   2.120  14.458 -2.4235 -1.0197 -0.4408
 3112SOL     OW20971   1.151   4.337   7.921  0.0609  0.0259 -0.0175
 3112SOL    HW120972   1.197   4.419   7.936 -0.6886  0.0463  2.2150
 3112SOL    HW220973   1.155   4.322   7.827 -0.1453 -0.4502  0.0442
 3113SOL     OW20974   3.875   2.954   3.047  0.0067 -0.1769 -0.3655
 3113SOL    HW120975   3.825   2.991   2.973 -1.0179 -0.5730  0.1233
 3113SOL    HW220976   3.819   2.882   3.075 -0.3736 -0.5460 -2.0408
 3114SOL     OW20977   2.293   1.079   1.017  0.0743 -0.3735 -0.2684
 3114SOL    HW120978   2.297   1.078   0.921 -1.5323 -0.7787 -0.3346
 3114SOL    HW220979   2.203   1.046   1.024  0.3701 -1.1669 -0.1713
 3115SOL     OW20980   2.431   1.779   2.819 -0.6549  0.0890 -0.0244
 3115SOL    HW120981   2.370   1.813   2.885  0.5733  0.4932  0.8980
 3115SOL    HW220982   2.507   1.761   2.875  0.5714 -0.1362 -1.7654
 3116SOL     OW20983   0.752   0.528   3.180 -0.7326 -0.0400 -0.8281
 3116SOL    HW120984   0.770   0.505   3.089 -1.7294 -1.2150 -0.7303
 3116SOL    HW220985   0.741   0.623   3.178  0.8863  0.1273 -1.4204
 3117SOL     OW20986   1.801   2.866   6.062 -0.2385 -0.2791  0.2168
 3117SOL    HW120987   1.853   2.944   6.084  1.6204 -1.3557 -0.3369
 3117SOL    HW220988   1.764   2.893   5.979  1.9165 -0.0265 -0.6739
 3118SOL     OW20989   0.794   0.221   6.357 -0.5263  0.0375  0.5012
 3118SOL    HW120990   0.819   0.130   6.346 -0.1313  0.0406  1.3759
 3118SOL    HW220991   0.741   0.237   6.279  1.7040 -0.1850 -1.0573
 3119SOL     OW20992   1.874   1.051  14.313 -0.0997 -0.1536 -0.2496
 3119SOL    HW120993   1.801   0.989  14.317  0.6580 -0.9140  1.9742
 3119SOL    HW220994   1.945   0.996  14.280 -0.2070 -0.9718  0.8538
 3120SOL     OW20995   2.893   4.138   6.819 -0.4463 -0.0245  0.3616
 3120SOL    HW120996   2.974   4.181   6.794 -0.6165  0.4763  0.6815
 3120SOL    HW220997   2.916   4.045   6.823 -1.7879 -0.3656  0.1402
 3121SOL     OW20998   0.031   3.588  12.740  0.1145 -0.0737 -0.3031
 3121SOL    HW120999   0.067   3.636  12.815  0.0635 -0.6821  0.1084
 3121SOL    HW221000   0.001   3.514  12.793 -0.0786  0.3363  0.1579
 3122SOL     OW21001   1.463   4.467  17.319  0.1776  0.0991  0.1724
 3122SOL    HW121002   1.538   4.422  17.357  1.2459  1.4378 -0.3450
 3122SOL    HW221003   1.380   4.445  17.363  0.7572  0.0079  1.2158
 3123SOL     OW21004   4.326   3.179   3.102 -0.4334  0.1712 -0.3799
 3123SOL    HW121005   4.234   3.196   3.119 -1.2738 -1.7655 -2.9798
 3123SOL    HW221006   4.326   3.095   3.056  1.5647 -0.2879  0.4354
 3124SOL     OW21007   3.385   2.233  17.188 -0.1934 -0.4345  0.3570
 3124SOL    HW121008   3.468   2.277  17.168 -0.2111 -1.2945 -1.6897
 3124SOL    HW221009   3.331   2.282  17.126 -0.1096 -0.7758  0.0117
 3125SOL     OW21010   2.819   4.122   4.391  0.5756 -0.0896  0.2587
 3125SOL    HW121011   2.894   4.116   4.332 -0.3437  3.0550 -1.2697
 3125SOL    HW221012   2.768   4.048   4.358 -0.2325 -0.7288  2.9148
 3126SOL     OW21013   3.232   2.923   9.295 -0.2410  0.2973  0.1831
 3126SOL    HW121014   3.294   2.950   9.363  0.4495  1.1472 -0.7847
 3126SOL    HW221015   3.162   2.989   9.291  0.6817  1.2538 -0.3197
 3127SOL     OW21016   2.727   1.150   0.191  0.3805  0.0168  0.1248
 3127SOL    HW121017   2.822   1.145   0.199  0.5399  2.4238 -0.4587
 3127SOL    HW221018   2.712   1.107   0.107  3.4566 -2.5891  0.9166
 3128SOL     OW21019   4.053   4.715   3.347 -0.3552  0.4259  0.0705
 3128SOL    HW121020   4.141   0.008   3.365  0.2461 -0.8461 -0.7280
 3128SOL    HW221021   4.016   4.716   3.435  1.2865  0.3728  0.7474
 3129SOL     OW21022   2.683   3.666   9.705 -0.1491  0.1022  0.4610
 3129SOL    HW121023   2.656   3.746   9.661  0.8607 -0.0446 -0.4226
 3129SOL    HW221024   2.600   3.643   9.748  1.1909 -0.0767  2.9341
 3130SOL     OW21025   2.364   1.601   4.087  0.9545  0.6038 -0.0946
 3130SOL    HW121026   2.369   1.505   4.094 -3.1580  0.4504  1.0265
 3130SOL    HW221027   2.320   1.624   4.169  0.2804  0.4585 -0.4155
 3131SOL     OW21028   3.567   3.486   2.585 -0.0095  0.4899  0.6244
 3131SOL    HW121029   3.646   3.511   2.536  0.2391  0.4856  1.0225
 3131SOL    HW221030   3.525   3.430   2.520  0.2369 -2.5158  3.0446
 3132SOL     OW21031   3.050   3.761   5.878 -0.0068 -0.1245 -0.9957
 3132SOL    HW121032   2.975   3.788   5.824 -0.5700  1.5583  0.6424
 3132SOL    HW221033   3.021   3.709   5.953  0.6534  0.6179 -0.2298
 3133SOL     OW21034   1.361   1.220   3.344 -0.1596 -0.4864 -0.4647
 3133SOL    HW121035   1.297   1.259   3.285 -0.1806 -1.3879 -1.0346
 3133SOL    HW221036   1.348   1.277   3.420  1.9593  2.5629 -2.4269
 3134SOL     OW21037   1.170   3.444  12.977 -0.2335 -0.2808  0.0519
 3134SOL    HW121038   1.150   3.376  13.041  2.0251  1.3327  2.4729
 3134SOL    HW221039   1.124   3.409  12.901  0.2866  0.1590 -0.4600
 3135SOL     OW21040   0.803   1.100   7.750  0.1353  0.6240 -0.0461
 3135SOL    HW121041   0.716   1.103   7.789  0.4545  1.2600  0.6151
 3135SOL    HW221042   0.845   1.079   7.834 -1.5965 -0.5533  0.5214
 3136SOL     OW21043   2.532   3.587   4.711  0.3948 -0.3912  0.1087
 3136SOL    HW121044   2.550   3.622   4.624 -3.5720  1.2168 -0.0721
 3136SOL    HW221045   2.439   3.561   4.706  0.2372  0.2489 -0.2718
 3137SOL     OW21046   1.407   4.332   7.800 -0.5167 -0.0066  0.2518
 3137SOL    HW121047   1.397   4.325   7.895  1.7565  2.5265  0.6886
 3137SOL    HW221048   1.442   4.244   7.785 -0.4820 -0.3655  2.3916
 3138SOL     OW21049   4.316   0.188   4.796 -0.6770 -0.0071  0.1522
 3138SOL    HW121050   4.221   0.192   4.784 -0.7318  1.3711  1.0348
 3138SOL    HW221051   4.318   0.104   4.842  2.4816  0.5097  0.9230
 3139SOL     OW21052   3.850   1.949   5.443  0.1089 -0.6696  0.3993
 3139SOL    HW121053   3.815   1.962   5.531  1.0043 -1.1853  0.8326
 3139SOL    HW221054   3.881   2.033   5.410  0.1624 -0.0907  1.9208
 3140SOL     OW21055   1.576   1.907   9.146 -0.6443  0.0210  0.4779
 3140SOL    HW121056   1.625   1.827   9.164  0.1651  0.9706  2.5015
 3140SOL    HW221057   1.521   1.867   9.078  0.0909 -1.8562  0.9921
 3141SOL     OW21058   2.433   4.266  13.485 -0.4086  0.1700  0.0144
 3141SOL    HW121059   2.499   4.248  13.551 -0.1793 -2.3171 -0.9019
 3141SOL    HW221060   2.364   4.320  13.524  0.5803  1.6557 -0.2719
 3142SOL     OW21061   4.185   1.033  12.445  0.1125  0.6860 -0.2554
 3142SOL    HW121062   4.238   1.033  12.525  2.3072 -0.0032 -1.7324
 3142SOL    HW221063   4.237   1.074  12.376 -1.3961  2.2161 -0.4832
 3143SOL     OW21064   0.869   0.895   2.790  0.3397  0.0770  0.1665
 3143SOL    HW121065   0.862   0.948   2.711 -0.9915 -2.0556 -1.1445
 3143SOL    HW221066   0.791   0.839   2.784 -0.2623  1.1424 -2.0513
 3144SOL     OW21067   2.941   3.804   8.916 -0.5012  0.3836  0.4599
 3144SOL    HW121068   2.959   3.835   9.005 -0.5560  0.0149  0.5983
 3144SOL    HW221069   3.030   3.804   8.880 -0.9054  1.0946 -0.5180
 3145SOL     OW21070   1.620   3.812   3.009 -0.5693 -0.8604  0.5340
 3145SOL    HW121071   1.537   3.766   3.020 -0.0099 -1.7425  1.0215
 3145SOL    HW221072   1.597   3.893   3.055 -2.2181 -0.9681 -0.0981
 3146SOL     OW21073   0.498   2.587   8.344 -0.1634 -1.0352  0.0280
 3146SOL    HW121074   0.554   2.588   8.422  0.2161 -1.8785 -0.2301
 3146SOL    HW221075   0.540   2.660   8.300 -0.6261  1.1509  3.1977
 3147SOL     OW21076   2.746   4.479   7.782  0.5501 -0.0545 -0.4870
 3147SOL    HW121077   2.715   4.558   7.827 -0.8667 -0.7940 -0.1613
 3147SOL    HW221078   2.669   4.462   7.728  0.8143  0.6822 -1.0932
 3148SOL     OW21079   4.121   1.037   6.938 -0.0042  0.4274 -0.1034
 3148SOL    HW121080   4.125   0.950   6.899  0.8595 -0.0866  1.1217
 3148SOL    HW221081   4.191   1.038   7.004 -1.6327  0.2992  1.6221
 3149SOL     OW21082   1.949   0.067  10.393 -0.0955  0.7703 -1.0650
 3149SOL    HW121083   1.888   0.040  10.461 -1.0489 -1.4965 -2.7802
 3149SOL    HW221084   1.894   0.082  10.316 -0.2611 -0.0442 -1.1103
 3150SOL     OW21085   1.632   4.351  14.793 -0.1306  0.3433  0.1860
 3150SOL    HW121086   1.680   4.269  14.803 -1.0952 -0.3544 -0.8290
 3150SOL    HW221087   1.600   4.321  14.708 -0.7486 -1.2952  0.9904
 3151SOL     OW21088   1.563   2.278   7.693 -0.0420  0.0646  0.5476
 3151SOL    HW121089   1.500   2.336   7.650  1.4754  0.6001 -0.9296
 3151SOL    HW221090   1.618   2.250   7.620  1.0373 -0.4058  1.5324
 3152SOL     OW21091   2.311   0.343   6.529 -0.0838  0.3623  0.0631
 3152SOL    HW121092   2.279   0.260   6.564 -2.3193  0.5607 -1.5297
 3152SOL    HW221093   2.361   0.301   6.459 -1.0943  1.1504 -1.1279
 3153SOL     OW21094   2.717   0.289   6.532  0.1046 -0.0405 -0.3425
 3153SOL    HW121095   2.638   0.318   6.486  1.6590 -0.0385 -3.0273
 3153SOL    HW221096   2.693   0.198   6.550  2.4382 -0.2396  1.7627
 3154SOL     OW21097   1.016   0.184   5.464  0.0700  0.2604  0.4972
 3154SOL    HW121098   0.998   0.272   5.432 -0.1176  0.5976  1.5244
 3154SOL    HW221099   0.930   0.165   5.501 -0.7488  1.6305 -0.7393
 3155SOL     OW21100   3.249   0.213  13.693 -0.2817  0.1479  0.3778
 3155SOL    HW121101   3.335   0.249  13.718 -0.7299  0.9665  0.7582
 3155SOL    HW221102   3.245   0.231  13.599 -0.8264  2.4590  0.8354
 3156SOL     OW21103   1.995   2.974  15.353 -0.0174  0.7155  0.1811
 3156SOL    HW121104   1.966   2.995  15.264 -0.0723 -0.8366 -0.1558
 3156SOL    HW221105   2.090   2.982  15.347  0.1894 -2.6119 -0.4361
 3157SOL     OW21106   1.332   4.727   1.708  0.2186 -0.2419  0.3339
 3157SOL    HW121107   1.346   0.014   1.616 -1.0531 -1.5069 -0.2057
 3157SOL    HW221108   1.358   0.075   1.741 -0.6962 -0.0962  0.6668
 3158SOL     OW21109   4.194   2.679   7.678  0.2523  0.3989 -0.2804
 3158SOL    HW121110   4.226   2.596   7.643  1.3270  1.2015 -1.2090
 3158SOL    HW221111   4.252   2.731   7.622  0.0050  1.0574  0.0755
 3159SOL     OW21112   3.629   0.789   0.394  0.4020 -0.1742 -0.5476
 3159SOL    HW121113   3.697   0.762   0.333  0.4238 -1.2226 -0.0527
 3159SOL    HW221114   3.684   0.830   0.461 -0.5110 -0.2136  0.2237
 3160SOL     OW21115   2.951   1.967  16.808  0.5300  0.4445 -0.7628
 3160SOL    HW121116   3.025   2.025  16.828  0.0300  0.4732  1.0043
 3160SOL    HW221117   2.923   1.937  16.894  1.9802 -1.7625 -1.0512
 3161SOL     OW21118   4.519   2.352   3.743  0.4621  0.2325 -0.1739
 3161SOL    HW121119   4.482   2.280   3.794 -2.9068  1.8930 -0.2633
 3161SOL    HW221120   4.560   2.399   3.816 -0.8147 -0.0805  0.7478
 3162SOL     OW21121   2.498   2.402   4.782  0.4150  0.0593  0.6014
 3162SOL    HW121122   2.579   2.413   4.833  0.8749  1.0645 -0.3413
 3162SOL    HW221123   2.437   2.451   4.837  0.2754  3.6186 -2.6948
 3163SOL     OW21124   2.948   3.959   9.270 -0.0106 -0.2740  0.1860
 3163SOL    HW121125   2.867   3.914   9.295 -0.7810  0.6592 -0.6130
 3163SOL    HW221126   2.983   3.896   9.207 -1.3051  1.5272 -2.3309
 3164SOL     OW21127   0.828   4.690   1.250 -0.3775  0.2939 -0.1255
 3164SOL    HW121128   0.883   4.630   1.300 -0.6576 -0.3629 -0.6235
 3164SOL    HW221129   0.753   4.632   1.240 -1.3032  1.7164 -1.4907
 3165SOL     OW21130   2.576   3.853   7.045  0.1011  0.9273  1.0473
 3165SOL    HW121131   2.516   3.823   7.113 -3.8731  1.4002 -2.2456
 3165SOL    HW221132   2.650   3.801   7.073  0.7365  0.3685 -1.6647
 3166SOL     OW21133   1.929   0.319   6.170  0.2827 -0.1808 -0.5931
 3166SOL    HW121134   1.957   0.228   6.168  0.0476 -0.2739  0.3540
 3166SOL    HW221135   1.941   0.339   6.077  0.6283 -1.3596 -0.8030
 3167SOL     OW21136   3.405   2.146  16.524 -0.0141  0.5677 -0.0541
 3167SOL    HW121137   3.404   2.051  16.534  0.8574  0.4049 -1.5618
 3167SOL    HW221138   3.393   2.176  16.614 -1.2923  0.3632 -0.1637
 3168SOL     OW21139   4.191   1.864  10.842 -0.0997 -0.1224  0.3587
 3168SOL    HW121140   4.155   1.877  10.755 -2.0037  1.4723  1.3772
 3168SOL    HW221141   4.278   1.885  10.811 -0.6167  3.6505  1.4369
 3169SOL     OW21142   3.720   2.188  14.219  0.5739  0.2519 -0.0073
 3169SOL    HW121143   3.796   2.240  14.193  2.9003 -3.0573  0.1218
 3169SOL    HW221144   3.751   2.099  14.198 -0.2686  0.3570 -1.7005
 3170SOL     OW21145   3.016   1.059  17.532 -0.4920 -0.4011  0.5656
 3170SOL    HW121146   3.035   1.042  17.624 -0.0135  1.1089  0.7367
 3170SOL    HW221147   3.001   0.969  17.503  0.7613 -0.8171  1.1968
 3171SOL     OW21148   3.549   1.916   5.771 -0.1226  0.0211  0.1593
 3171SOL    HW121149   3.550   1.873   5.857 -0.7053  1.0170  0.6589
 3171SOL    HW221150   3.456   1.937   5.757 -0.2724 -0.1165  0.9283
 3172SOL     OW21151   2.711   0.178  14.782  0.7312 -0.0904  0.4980
 3172SOL    HW121152   2.798   0.167  14.821  0.6453 -1.1937  0.3741
 3172SOL    HW221153   2.654   0.151  14.854  0.3628  0.7537  0.5292
 3173SOL     OW21154   4.254   4.334   2.156 -0.2715 -0.1771 -0.3792
 3173SOL    HW121155   4.162   4.360   2.154 -1.1270 -3.2084 -0.2680
 3173SOL    HW221156   4.268   4.308   2.065  2.0234  0.3806 -0.1980
 3174SOL     OW21157   4.423   3.775  13.861 -0.3843 -0.2324 -0.2780
 3174SOL    HW121158   4.353   3.745  13.804 -1.6801  0.2032  1.0818
 3174SOL    HW221159   4.502   3.744  13.815 -1.0397 -2.7048  0.2911
 3175SOL     OW21160   4.558   1.805   5.716  0.9122  0.1326  1.3110
 3175SOL    HW121161   4.489   1.855   5.759  2.1331  2.4344  0.5704
 3175SOL    HW221162   4.629   1.828   5.777 -0.1040  0.9526  2.1894
 3176SOL     OW21163   4.264   1.502   8.102 -0.1006 -0.1427  0.3939
 3176SOL    HW121164   4.348   1.534   8.136 -0.6754  1.6203  0.1127
 3176SOL    HW221165   4.207   1.575   8.124 -0.7524 -0.4650 -0.2468
 3177SOL     OW21166   0.103   2.628   2.826  0.0703  0.7391 -0.4109
 3177SOL    HW121167   0.123   2.535   2.814 -1.5920  0.4440 -0.8562
 3177SOL    HW221168   0.192   2.657   2.846 -0.5170  1.8382  0.5785
 3178SOL     OW21169   4.663   0.677   5.628  0.0070  0.0895 -0.3808
 3178SOL    HW121170   4.647   0.748   5.566 -1.5108 -0.4289 -0.5722
 3178SOL    HW221171   4.732   0.716   5.681  0.3215  0.4624 -1.0586
 3179SOL     OW21172   2.399   3.606   0.096 -0.1793  0.4984 -0.3636
 3179SOL    HW121173   2.457   3.584   0.169 -2.1379 -0.8009  0.7901
 3179SOL    HW221174   2.320   3.567   0.133  0.5209  1.0264  1.7059
 3180SOL     OW21175   1.653   0.174   9.647 -0.2300  0.2860  0.3718
 3180SOL    HW121176   1.561   0.170   9.672 -0.5455  2.2355 -0.5215
 3180SOL    HW221177   1.637   0.183   9.553  0.1488  0.7246  0.3485
 3181SOL     OW21178   0.908   3.332  12.502 -0.2302 -0.1706 -0.2450
 3181SOL    HW121179   0.952   3.346  12.418 -2.0211  0.6419 -1.0509
 3181SOL    HW221180   0.825   3.362  12.467 -0.8012  1.4194  2.4561
 3182SOL     OW21181   0.381   0.072   0.467 -0.2074 -0.0701  0.2244
 3182SOL    HW121182   0.358   0.133   0.537  0.7500  0.1354  0.3587
 3182SOL    HW221183   0.366   0.122   0.387 -1.4979 -0.2728  0.3485
 3183SOL     OW21184   3.278   2.216   7.771 -0.1104 -0.4411 -0.1277
 3183SOL    HW121185   3.249   2.261   7.692 -0.7104 -1.5593 -0.5331
 3183SOL    HW221186   3.255   2.282   7.837  0.0453 -0.7618  0.2486
 3184SOL     OW21187   0.444   0.806   3.902 -0.0721 -0.1331 -0.5918
 3184SOL    HW121188   0.514   0.870   3.890 -0.9105  1.1156  1.0321
 3184SOL    HW221189   0.495   0.725   3.903 -0.5772 -0.4461 -0.1173
 3185SOL     OW21190   4.361   0.121   9.851  0.1890  0.1422 -0.0442
 3185SOL    HW121191   4.405   0.151   9.930 -0.3224  0.0447  0.2840
 3185SOL    HW221192   4.428   0.066   9.810  1.1641  1.4081 -0.1232
 3186SOL     OW21193   0.187   0.768   6.121  0.6390 -0.2251  0.3132
 3186SOL    HW121194   0.205   0.802   6.209  1.0338  1.7593 -0.5331
 3186SOL    HW221195   0.104   0.724   6.137  1.6221 -1.3107  2.4271
 3187SOL     OW21196   4.324   2.584  14.627 -0.1094 -0.1572  0.0235
 3187SOL    HW121197   4.407   2.589  14.674  1.4687  2.1115 -2.9929
 3187SOL    HW221198   4.345   2.644  14.555  2.7986  0.0660  1.0801
 3188SOL     OW21199   3.319   1.288  10.401  0.3197  0.1104  0.4141
 3188SOL    HW121200   3.290   1.235  10.326  1.6589 -0.8013  0.5406
 3188SOL    HW221201   3.296   1.226  10.470 -1.4946  0.2245 -0.0857
 3189SOL     OW21202   0.397   2.914   5.229  0.0598  0.1737  0.6780
 3189SOL    HW121203   0.434   2.956   5.307  1.9635  0.8308 -0.5729
 3189SOL    HW221204   0.479   2.884   5.191  0.4155  0.0957  1.5170
 3190SOL     OW21205   2.893   4.589   0.392  0.2046 -0.5517  0.2663
 3190SOL    HW121206   2.830   4.655   0.423 -1.9401 -1.7301 -1.5647
 3190SOL    HW221207   2.865   4.518   0.449 -1.3520 -1.2025 -1.2843
 3191SOL     OW21208   0.538   2.770   6.825  0.5802  0.1631  0.1505
 3191SOL    HW121209   0.453   2.763   6.869  2.0155 -0.5523  2.7941
 3191SOL    HW221210   0.514   2.795   6.736 -0.0446 -2.8939 -0.5367
 3192SOL     OW21211   3.571   3.720   5.943 -0.3434  0.3811  0.1156
 3192SOL    HW121212   3.619   3.693   5.865  0.9304  0.3369  0.9189
 3192SOL    HW221213   3.493   3.746   5.894  0.8531 -1.1783 -2.6173
 3193SOL     OW21214   2.662   0.021   1.799  0.6312  0.0412 -0.6346
 3193SOL    HW121215   2.736   0.081   1.784  0.4924  0.2291 -0.5728
 3193SOL    HW221216   2.585   0.068   1.768 -0.7053 -2.5743 -1.2584
 3194SOL     OW21217   2.875   1.611   8.491 -0.2350  0.1065  0.4199
 3194SOL    HW121218   2.886   1.581   8.401  2.2492 -2.4179  1.5691
 3194SOL    HW221219   2.962   1.598   8.530 -0.4387 -1.8936  0.2246
 3195SOL     OW21220   2.576   4.594   8.123 -0.2662  0.2566  0.3161
 3195SOL    HW121221   2.607   4.505   8.109 -0.3640  0.7352 -2.8294
 3195SOL    HW221222   2.611   4.615   8.210  4.3608 -1.9045 -1.0831
 3196SOL     OW21223   3.045   3.437  12.993 -0.7292  0.6135 -0.1540
 3196SOL    HW121224   3.049   3.532  13.003  0.5903  0.7805 -2.3862
 3196SOL    HW221225   3.113   3.422  12.927 -1.9189  1.0295 -1.4554
 3197SOL     OW21226   1.051   4.499  14.640  0.3453  0.1552 -0.2230
 3197SOL    HW121227   0.965   4.486  14.601  0.4934 -1.4484 -0.0193
 3197SOL    HW221228   1.112   4.485  14.568 -1.4299 -0.3414 -1.6363
 3198SOL     OW21229   3.302   1.020  15.773 -0.1111 -0.6645 -0.3453
 3198SOL    HW121230   3.358   1.035  15.849 -0.7153  0.1147 -0.0580
 3198SOL    HW221231   3.266   0.937  15.804 -1.4184 -0.7142 -1.9926
 3199SOL     OW21232   0.693   3.370  10.331 -0.6287  0.0398 -0.3175
 3199SOL    HW121233   0.746   3.300  10.370 -0.1126  0.4246 -0.3247
 3199SOL    HW221234   0.616   3.321  10.304  0.0603 -0.8509 -0.6493
 3200SOL     OW21235   4.095   1.349   8.579  0.0924  0.5940  0.0465
 3200SOL    HW121236   4.125   1.270   8.534 -1.7265  0.4074 -0.8594
 3200SOL    HW221237   4.007   1.366   8.544 -0.0871 -0.4035  0.0101
 3201SOL     OW21238   1.136   3.876  11.852 -0.4959 -0.4515 -0.2149
 3201SOL    HW121239   1.123   3.969  11.831  1.0314  0.1827  1.7304
 3201SOL    HW221240   1.090   3.852  11.771 -0.7509  0.0554 -0.2248
 3202SOL     OW21241   2.768   3.102   6.340 -0.2879  0.3956  0.0967
 3202SOL    HW121242   2.853   3.058   6.347 -0.1743  0.5685 -0.1734
 3202SOL    HW221243   2.759   3.117   6.246 -0.6136 -0.2714  0.0227
 3203SOL     OW21244   0.820   2.373   6.244 -0.6785 -0.4074 -0.4145
 3203SOL    HW121245   0.906   2.366   6.284 -1.8756 -0.9983  2.0648
 3203SOL    HW221246   0.751   2.343   6.303  1.0358 -1.3349  1.0883
 3204SOL     OW21247   4.382   1.895   2.825  0.3033  0.1217 -0.0855
 3204SOL    HW121248   4.373   1.899   2.730  3.2255 -1.8638 -0.4530
 3204SOL    HW221249   4.477   1.887   2.833  0.2324 -1.5066 -1.0039
 3205SOL     OW21250   1.858   0.647   8.433  0.4839 -0.3054  0.1514
 3205SOL    HW121251   1.928   0.643   8.369  0.3636 -0.1423  0.0100
 3205SOL    HW221252   1.896   0.724   8.475 -0.9001 -1.0858  2.8417
 3206SOL     OW21253   1.629   3.052  17.089 -0.1709 -0.1353  0.7248
 3206SOL    HW121254   1.563   3.048  17.158  1.7508 -0.1951  2.5612
 3206SOL    HW221255   1.634   2.959  17.068 -1.0825 -0.1408  0.5362
 3207SOL     OW21256   2.037   0.508  16.529  0.2251 -0.4460 -0.7030
 3207SOL    HW121257   2.101   0.537  16.464 -0.7451 -0.0990 -1.5084
 3207SOL    HW221258   1.958   0.525  16.478 -0.2846 -3.1757 -0.7857
 3208SOL     OW21259   0.572   0.977   7.426  0.7306  0.0263 -0.1692
 3208SOL    HW121260   0.625   0.911   7.471 -0.8524 -0.1767  1.3628
 3208SOL    HW221261   0.496   0.982   7.483  0.4757 -0.0521 -0.5027
 3209SOL     OW21262   0.580   4.113   4.933 -0.5338 -0.3170  0.1819
 3209SOL    HW121263   0.648   4.046   4.931 -0.3523 -0.1714  1.6779
 3209SOL    HW221264   0.524   4.063   4.875  0.4036  2.1708 -2.8809
 3210SOL     OW21265   1.710   2.940  12.677 -0.4955  0.3789 -0.1763
 3210SOL    HW121266   1.628   2.962  12.632 -0.6543 -0.0599 -0.0961
 3210SOL    HW221267   1.681   2.856  12.713  2.7411 -1.2267 -1.3483
 3211SOL     OW21268   0.131   0.990   9.091  0.2375 -0.5775 -0.0343
 3211SOL    HW121269   0.049   0.955   9.057  0.7238  0.3134 -2.1412
 3211SOL    HW221270   0.138   1.070   9.039 -2.8977 -0.5658 -0.4064
 3212SOL     OW21271   2.418   2.364   2.319  0.2816 -0.2993  0.1031
 3212SOL    HW121272   2.385   2.276   2.302 -2.1159  0.8832 -1.3973
 3212SOL    HW221273   2.491   2.347   2.261  0.1099 -0.8632  0.0505
 3213SOL     OW21274   1.535   2.835   4.174  0.2661  0.2793 -0.4905
 3213SOL    HW121275   1.528   2.741   4.157  2.9429 -0.3282  1.6975
 3213SOL    HW221276   1.579   2.842   4.259 -0.3487  1.8911 -0.3145
 3214SOL     OW21277   3.308   3.049   5.199 -0.6348 -0.3182 -0.5335
 3214SOL    HW121278   3.356   3.077   5.277 -1.0033 -0.4827 -0.2441
 3214SOL    HW221279   3.292   3.129   5.149  1.2654 -0.4176 -1.2764
 3215SOL     OW21280   0.828   2.450   2.691  0.1679  0.2380  0.2041
 3215SOL    HW121281   0.875   2.382   2.739  0.7888  0.5292  0.0158
 3215SOL    HW221282   0.882   2.467   2.613  0.8301 -2.4117  0.1054
 3216SOL     OW21283   1.674   3.219   6.537  0.2484  0.3914  0.3271
 3216SOL    HW121284   1.747   3.162   6.562  1.8539  1.7712 -1.2073
 3216SOL    HW221285   1.594   3.167   6.549  0.7427 -0.6755 -1.0093
 3217SOL     OW21286   1.343   3.094  16.015  0.3229 -0.1824  0.3406
 3217SOL    HW121287   1.380   3.130  15.934 -0.5010 -0.4440 -0.1541
 3217SOL    HW221288   1.382   3.007  16.019 -0.7949 -0.6134  1.7446
 3218SOL     OW21289   3.502   0.332   0.549  0.0795 -0.3542  0.5024
 3218SOL    HW121290   3.508   0.423   0.577 -0.1833  0.2687 -1.4596
 3218SOL    HW221291   3.438   0.311   0.617  0.4558  0.5934  1.1473
 3219SOL     OW21292   3.559   4.648   5.776  0.4995 -0.2769  0.5780
 3219SOL    HW121293   3.654   4.652   5.767  0.5606  0.4885  1.5430
 3219SOL    HW221294   3.547   4.589   5.850  1.3124 -0.2898  0.6961
 3220SOL     OW21295   2.651   4.721  15.208 -0.2591  0.3065  0.0645
 3220SOL    HW121296   2.637   4.732  15.302 -0.7134 -1.2212  0.1809
 3220SOL    HW221297   2.665   4.626  15.203 -0.2751  0.2769  0.5068
 3221SOL     OW21298   1.336   3.587   1.219  0.2602  0.3982 -0.4576
 3221SOL    HW121299   1.366   3.496   1.214 -1.4074 -0.1305 -0.8531
 3221SOL    HW221300   1.417   3.633   1.244 -0.5686  0.9341  1.2269
 3222SOL     OW21301   1.272   0.559   1.057  0.0307 -0.2342  0.0299
 3222SOL    HW121302   1.334   0.599   1.116 -0.8072 -0.0092  0.7596
 3222SOL    HW221303   1.195   0.581   1.110  2.2182  2.8267  1.8956
 3223SOL     OW21304   1.976   3.902  14.751  0.1616  0.2728 -0.0034
 3223SOL    HW121305   2.057   3.927  14.795  0.7839 -1.3532 -0.2292
 3223SOL    HW221306   1.969   3.823  14.804 -1.2953 -0.5376 -1.3785
 3224SOL     OW21307   1.079   3.207   5.857  0.2068  0.0499  0.1903
 3224SOL    HW121308   1.092   3.226   5.950  0.8847 -1.2984  0.3768
 3224SOL    HW221309   1.036   3.288   5.828 -0.1720 -0.2787 -0.1751
 3225SOL     OW21310   1.068   0.059   6.143 -0.1348 -0.0492  0.3992
 3225SOL    HW121311   1.010   0.056   6.066 -0.1957 -0.9620  0.4844
 3225SOL    HW221312   1.154   0.076   6.105  0.0112  0.3730  0.9208
 3226SOL     OW21313   3.283   0.999   2.652 -0.3561 -0.2097  0.2781
 3226SOL    HW121314   3.290   0.987   2.558 -1.5273 -2.2279  0.4566
 3226SOL    HW221315   3.369   1.036   2.674 -0.8642  2.2446 -1.7806
 3227SOL     OW21316   4.589   2.000   5.035 -0.3286  0.5211 -0.3869
 3227SOL    HW121317   4.547   1.914   5.043 -1.3633  1.1078  0.4138
 3227SOL    HW221318   4.621   2.016   5.123 -0.2010  0.3533 -0.4031
 3228SOL     OW21319   0.523   0.312   7.032 -0.6101 -0.0423  0.1986
 3228SOL    HW121320   0.466   0.237   7.052 -0.3189 -0.5609 -0.9462
 3228SOL    HW221321   0.599   0.283   7.082  1.2063 -0.1183 -2.6655
 3229SOL     OW21322   3.204   2.492  16.169 -0.0024  0.5671  0.3374
 3229SOL    HW121323   3.237   2.413  16.211  1.0431  0.5455 -0.5344
 3229SOL    HW221324   3.269   2.500  16.099  0.7395  0.8569  1.0601
 3230SOL     OW21325   4.171   4.422   8.587  0.2218 -0.1363  0.4925
 3230SOL    HW121326   4.255   4.385   8.562 -1.8863 -4.0385 -0.8631
 3230SOL    HW221327   4.207   4.493   8.640  1.7721  0.3324 -1.2022
 3231SOL     OW21328   0.876   1.331   1.888  0.5154  0.0492 -0.3379
 3231SOL    HW121329   0.879   1.413   1.839  1.7569 -0.0238 -0.3821
 3231SOL    HW221330   0.963   1.294   1.874  0.0194 -0.5240 -1.9307
 3232SOL     OW21331   0.706   2.864   4.974  0.6999 -0.0146 -0.4204
 3232SOL    HW121332   0.697   2.849   4.880 -0.1670 -2.1316  0.0091
 3232SOL    HW221333   0.694   2.773   5.000  0.3469  0.0431 -0.3798
 3233SOL     OW21334   4.328   4.466  12.474  0.2497  0.2133  0.0491
 3233SOL    HW121335   4.323   4.410  12.397 -1.5458  1.7840 -0.9880
 3233SOL    HW221336   4.379   4.539  12.439  0.7493 -1.0134 -1.7770
 3234SOL     OW21337   0.170   4.011   3.201 -0.3976 -0.5942 -1.0065
 3234SOL    HW121338   0.114   4.021   3.124  0.4116 -0.5214 -1.5946
 3234SOL    HW221339   0.147   3.925   3.237 -0.1831 -0.5989 -0.8764
 3235SOL     OW21340   2.375   0.810   0.469  0.1659  0.2249 -0.2932
 3235SOL    HW121341   2.453   0.845   0.426  2.6085  0.8237  4.5400
 3235SOL    HW221342   2.372   0.732   0.415 -0.8542  0.6681 -0.8765
 3236SOL     OW21343   4.466   3.635   8.206 -0.2929 -0.2393  0.0072
 3236SOL    HW121344   4.443   3.706   8.146  0.5852  2.2155  2.5781
 3236SOL    HW221345   4.560   3.617   8.201 -0.4623 -0.9470 -0.4772
 3237SOL     OW21346   1.800   0.372   9.759  0.1507 -0.6568 -0.6651
 3237SOL    HW121347   1.776   0.285   9.729 -0.3942 -0.8347  0.2890
 3237SOL    HW221348   1.738   0.420   9.704 -1.0670  0.5539  1.7669
 3238SOL     OW21349   3.565   2.221   6.923  0.1232 -0.2500 -0.1351
 3238SOL    HW121350   3.602   2.192   7.007 -0.8379 -2.1524 -0.3713
 3238SOL    HW221351   3.560   2.313   6.946  0.8110  0.1913 -1.8130
 3239SOL     OW21352   1.923   1.055   7.364 -0.6597 -0.0121 -0.4741
 3239SOL    HW121353   1.930   1.070   7.458  2.6978 -0.1348 -0.7033
 3239SOL    HW221354   1.924   1.143   7.328 -2.2002  1.4947  3.2278
 3240SOL     OW21355   3.436   1.831  17.372 -0.0857  0.1355 -0.1890
 3240SOL    HW121356   3.352   1.844  17.329 -0.5242 -0.1206  0.5773
 3240SOL    HW221357   3.456   1.743  17.342 -0.9040 -0.7099  1.7077
 3241SOL     OW21358   4.519   1.015   8.597 -0.4355  0.0750 -0.1805
 3241SOL    HW121359   4.475   1.031   8.514  0.7992 -2.1466 -1.2543
 3241SOL    HW221360   4.457   0.959   8.644  0.3686  1.1322  2.1727
 3242SOL     OW21361   4.393   2.250  11.082 -0.1350  0.2781 -0.7471
 3242SOL    HW121362   4.342   2.320  11.122 -0.2523  0.8523 -1.8823
 3242SOL    HW221363   4.355   2.248  10.994 -0.8289 -1.5403 -0.4080
 3243SOL     OW21364   1.047   2.875  11.244  0.3491 -0.6137  0.3076
 3243SOL    HW121365   0.974   2.906  11.191 -0.3179  0.2751  1.7464
 3243SOL    HW221366   1.121   2.915  11.197 -1.8810 -0.5014 -3.1249
 3244SOL     OW21367   1.737   0.785   7.222 -0.3158 -0.0917 -0.5395
 3244SOL    HW121368   1.690   0.702   7.218 -0.8879  0.1344  1.5103
 3244SOL    HW221369   1.667   0.851   7.222 -0.3863 -0.1801  0.9875
 3245SOL     OW21370   0.029   1.611   7.796 -0.5047  0.9044  0.2128
 3245SOL    HW121371   0.083   1.627   7.719 -0.5401 -0.9850 -0.2005
 3245SOL    HW221372   0.076   1.654   7.867 -0.4342  2.0167 -0.5223
 3246SOL     OW21373   1.918   3.471   1.593  0.0814 -0.4825 -0.3987
 3246SOL    HW121374   1.995   3.433   1.550 -1.0451 -0.1870 -2.6325
 3246SOL    HW221375   1.874   3.521   1.524 -2.4153 -1.4329  0.5014
 3247SOL     OW21376   3.348   1.852   5.034 -0.0427 -0.1759 -0.3285
 3247SOL    HW121377   3.298   1.847   5.115  2.2303 -0.8590  1.0357
 3247SOL    HW221378   3.402   1.774   5.025  0.1930 -0.2401  1.6925
 3248SOL     OW21379   1.985   0.840  10.834  0.1073  0.3621  0.2913
 3248SOL    HW121380   2.076   0.861  10.852 -0.3233  0.1300  2.6978
 3248SOL    HW221381   1.965   0.751  10.864  1.5349  0.5605  1.7750
 3249SOL     OW21382   0.757   1.053  17.583 -0.1884 -0.2175  0.1313
 3249SOL    HW121383   0.799   1.007  17.656  2.2122  2.0189  0.1748
 3249SOL    HW221384   0.695   0.986  17.554 -2.2593  0.6110  2.6493
 3250SOL     OW21385   0.660   2.898  11.872  0.1611  0.0752  0.3621
 3250SOL    HW121386   0.695   2.819  11.831 -0.8970 -0.9196  1.3897
 3250SOL    HW221387   0.705   2.965  11.820 -0.5633 -0.7112 -1.2902
 3251SOL     OW21388   0.773   2.351  14.381 -0.0998  0.8451  0.3232
 3251SOL    HW121389   0.681   2.362  14.407 -1.4553 -1.4484 -3.5501
 3251SOL    HW221390   0.812   2.332  14.467  1.4342  1.1055 -0.3245
 3252SOL     OW21391   1.402   1.887  15.387 -0.9587  0.4914 -0.2871
 3252SOL    HW121392   1.376   1.979  15.379  2.2589  1.6238  2.5727
 3252SOL    HW221393   1.446   1.874  15.303  0.8739  2.1044  0.4145
 3253SOL     OW21394   3.934   1.284   6.277 -0.7666  0.6263  0.3094
 3253SOL    HW121395   3.926   1.316   6.367 -0.9533  0.4369  0.3600
 3253SOL    HW221396   3.874   1.210   6.274 -2.4740  2.0348  0.1888
 3254SOL     OW21397   4.521   3.147   3.533  0.2824  0.2848  0.7443
 3254SOL    HW121398   4.455   3.205   3.571 -0.4999 -0.8654  1.1282
 3254SOL    HW221399   4.475   3.063   3.543 -0.5450  0.6706  0.1599
 3255SOL     OW21400   0.841   2.961   2.065 -0.1413 -0.1744 -0.8034
 3255SOL    HW121401   0.747   2.958   2.078 -0.0011 -0.4425  0.1121
 3255SOL    HW221402   0.843   3.038   2.008 -0.4538  1.1583  0.9935
 3256SOL     OW21403   2.232   0.202   6.147  0.2524 -0.1115 -0.1392
 3256SOL    HW121404   2.252   0.285   6.103  0.8814 -0.1169  0.1335
 3256SOL    HW221405   2.223   0.131   6.083 -2.8078  0.4227 -0.3277
 3257SOL     OW21406   2.676   2.818   4.929  0.0064 -0.0847  0.5973
 3257SOL    HW121407   2.753   2.872   4.946 -0.9805  1.1737  1.0705
 3257SOL    HW221408   2.611   2.881   4.958  0.3297  0.5618 -0.0871
 3258SOL     OW21409   1.293   1.407  14.322  0.2714 -0.1411 -0.2803
 3258SOL    HW121410   1.218   1.442  14.370  0.9648  1.8677 -0.6204
 3258SOL    HW221411   1.289   1.443  14.234 -2.9294 -1.9174 -0.8340
 3259SOL     OW21412   0.003   3.119   8.899  0.4584  0.4374 -0.1194
 3259SOL    HW121413   0.088   3.137   8.939  1.8970 -0.5322 -2.7105
 3259SOL    HW221414   4.713   3.050   8.960 -0.0405 -0.2826 -1.1427
 3260SOL     OW21415   0.359   1.002   5.534  0.2828 -0.2676  0.1465
 3260SOL    HW121416   0.430   0.955   5.578 -0.0215 -0.1866  0.7200
 3260SOL    HW221417   0.337   0.925   5.482  1.3885  0.3392 -1.2374
 3261SOL     OW21418   0.690   0.791   3.151 -0.0123  0.2696  0.0536
 3261SOL    HW121419   0.627   0.821   3.216 -0.4783  1.3976 -0.9157
 3261SOL    HW221420   0.681   0.858   3.083 -0.1004 -0.3606 -0.5528
 3262SOL     OW21421   1.900   3.638   3.345 -0.0073  1.0443  0.1184
 3262SOL    HW121422   1.856   3.558   3.375 -1.4045  2.3795  1.6230
 3262SOL    HW221423   1.847   3.692   3.404 -2.5317 -2.1911  0.7856
 3263SOL     OW21424   2.503   2.029   2.730  0.2268  0.0712  0.1711
 3263SOL    HW121425   2.473   1.939   2.744  0.4746 -0.3977 -2.2312
 3263SOL    HW221426   2.596   2.028   2.752  0.0432  1.7798  1.0499
 3264SOL     OW21427   1.531   4.532   1.643  0.1328  0.2885  0.0973
 3264SOL    HW121428   1.443   4.566   1.657  0.2078  0.2986  0.5491
 3264SOL    HW221429   1.511   4.492   1.558 -0.2716 -0.9230  0.7692
 3265SOL     OW21430   0.276   3.763   8.292  0.6610 -0.7505  0.0567
 3265SOL    HW121431   0.307   3.674   8.307  3.7126 -0.1520 -2.7557
 3265SOL    HW221432   0.352   3.784   8.239  0.7317  3.8500  1.9296
 3266SOL     OW21433   1.054   2.724   4.879 -0.5178 -0.5873  0.0025
 3266SOL    HW121434   1.040   2.652   4.818 -0.5419 -0.0515 -0.6252
 3266SOL    HW221435   0.970   2.767   4.862 -1.0812 -1.0634  1.5205
 3267SOL     OW21436   0.831   4.428  12.041 -0.5643 -0.7667  0.6293
 3267SOL    HW121437   0.925   4.411  12.035 -0.5326 -0.4863  0.2958
 3267SOL    HW221438   0.825   4.524  12.035  1.1812 -0.5658  2.1068
 3268SOL     OW21439   2.861   2.580   1.718  0.1572 -0.1540 -0.2640
 3268SOL    HW121440   2.882   2.514   1.785 -0.4699 -0.3892 -0.3013
 3268SOL    HW221441   2.771   2.605   1.739 -0.4852 -1.4464 -1.4527
 3269SOL     OW21442   4.129   3.854   8.511  0.2346  0.0581  0.0567
 3269SOL    HW121443   4.087   3.826   8.593  1.0373 -0.8445  0.1498
 3269SOL    HW221444   4.158   3.766   8.489 -1.1832 -0.2306 -0.6362
 3270SOL     OW21445   4.678   2.955   5.450 -0.1066 -0.1029 -0.0078
 3270SOL    HW121446   4.674   2.905   5.368 -0.7464 -1.2065  0.6906
 3270SOL    HW221447   4.586   2.955   5.478 -0.4227  4.1019 -1.0410
 3271SOL     OW21448   3.417   0.318   5.610 -0.0917  0.0103 -0.0726
 3271SOL    HW121449   3.337   0.370   5.620  0.0700  0.1314  0.5851
 3271SOL    HW221450   3.481   0.353   5.672  0.7852 -0.6832 -0.5835
 3272SOL     OW21451   1.832   1.828   7.849  0.1423 -0.2003  0.3844
 3272SOL    HW121452   1.791   1.750   7.813 -4.0244  0.6378  3.2990
 3272SOL    HW221453   1.846   1.789   7.936 -0.0546 -0.2698  0.3838
 3273SOL     OW21454   3.603   0.232   2.331  0.5722 -0.0639 -0.8829
 3273SOL    HW121455   3.683   0.270   2.294  1.5092 -0.0625  1.1425
 3273SOL    HW221456   3.632   0.208   2.419 -2.8309  1.7015  0.7048
 3274SOL     OW21457   2.457   3.963   4.478 -0.0640 -0.1757  0.1410
 3274SOL    HW121458   2.476   4.040   4.424  0.2623 -0.3814 -0.0385
 3274SOL    HW221459   2.532   3.914   4.443  0.8240  2.2067 -1.3252
 3275SOL     OW21460   4.045   3.135  16.023 -0.1493  0.6139  0.0836
 3275SOL    HW121461   4.071   3.226  16.035 -1.7267  0.9060  1.2962
 3275SOL    HW221462   3.961   3.137  15.977 -1.1992 -1.8083  1.8611
 3276SOL     OW21463   2.864   0.749   8.275 -0.2645 -0.2607  0.6212
 3276SOL    HW121464   2.898   0.664   8.305 -2.7392 -1.2089  0.7031
 3276SOL    HW221465   2.936   0.791   8.227 -0.9123  0.2701  0.1202
 3277SOL     OW21466   3.213   0.886   9.149 -0.2014 -0.5157  0.6224
 3277SOL    HW121467   3.219   0.963   9.206 -0.3703  0.2173 -0.3422
 3277SOL    HW221468   3.301   0.849   9.157 -0.2633 -1.0497 -1.0868
 3278SOL     OW21469   0.983   1.943   3.212 -0.1160 -0.4301 -0.7025
 3278SOL    HW121470   0.961   1.944   3.119 -0.4661 -1.7250 -0.6272
 3278SOL    HW221471   1.006   2.036   3.216 -0.8626 -0.3284  1.1700
 3279SOL     OW21472   3.278   4.496   9.337  0.5326 -0.1578  0.6473
 3279SOL    HW121473   3.185   4.477   9.326  0.1909  2.5356 -1.0461
 3279SOL    HW221474   3.304   4.452   9.418  2.0402 -0.2024  0.1508
 3280SOL     OW21475   0.019   0.132  14.764 -0.0300 -0.1110 -0.2155
 3280SOL    HW121476   4.715   0.198  14.819  1.8936 -0.5661  1.7694
 3280SOL    HW221477   4.723   0.056  14.811  0.5109  0.9403  1.8499
 3281SOL     OW21478   1.645   4.039  11.413  0.0958 -0.1018 -0.0084
 3281SOL    HW121479   1.663   4.123  11.455 -2.7544 -0.2426  1.4944
 3281SOL    HW221480   1.571   4.015  11.469 -0.3127  3.0136  0.7995
 3282SOL     OW21481   3.961   2.784   1.831  0.2956  0.4076 -0.2031
 3282SOL    HW121482   4.056   2.779   1.817  0.5550  0.8611  1.4005
 3282SOL    HW221483   3.934   2.705   1.785 -1.2341  0.5214  0.5190
 3283SOL     OW21484   2.603   3.899   9.579 -0.1791 -0.4235  0.2630
 3283SOL    HW121485   2.540   3.916   9.649 -0.9413 -1.0418 -0.2680
 3283SOL    HW221486   2.657   3.974   9.603  0.4052 -1.4098  2.0182
 3284SOL     OW21487   3.805   1.006   6.305  0.0437  0.6255  0.3160
 3284SOL    HW121488   3.798   0.977   6.396  0.8895 -1.2752 -0.2275
 3284SOL    HW221489   3.717   1.039   6.283 -0.9874 -2.1394  0.2809
 3285SOL     OW21490   0.934   1.496  11.356  0.7838  0.3152  0.1218
 3285SOL    HW121491   0.839   1.488  11.360  0.8967 -0.9428  0.3954
 3285SOL    HW221492   0.964   1.468  11.443  0.3121 -0.4651  0.0322
 3286SOL     OW21493   1.401   4.661   6.337 -0.0082 -0.3621 -0.6061
 3286SOL    HW121494   1.467   4.619   6.281 -2.2594 -1.5467 -2.3855
 3286SOL    HW221495   1.390   0.009   6.298 -1.4292  0.9147  2.6654
 3287SOL     OW21496   0.309   1.565  13.679  0.4908 -0.2628  0.1429
 3287SOL    HW121497   0.324   1.511  13.756 -0.0476  0.3013  0.6354
 3287SOL    HW221498   0.338   1.649  13.715 -0.8304 -0.0173  0.6343
 3288SOL     OW21499   1.784   1.727   3.975 -0.4863  0.0982 -0.4685
 3288SOL    HW121500   1.751   1.752   4.061 -1.6607  1.1966 -1.2422
 3288SOL    HW221501   1.868   1.684   3.991 -0.2792 -0.0650 -1.9423
 3289SOL     OW21502   0.856   4.443   7.771  0.2988  0.2388 -0.2137
 3289SOL    HW121503   0.774   4.394   7.767  1.5556 -1.9947  1.4703
 3289SOL    HW221504   0.921   4.380   7.741 -0.1272 -0.4566  0.3154
 3290SOL     OW21505   3.010   4.545   8.888 -0.3632  0.4427  0.2401
 3290SOL    HW121506   2.933   4.598   8.866 -0.0050  0.5691 -0.7100
 3290SOL    HW221507   3.032   4.598   8.965 -2.2665 -0.6837  1.5594
 3291SOL     OW21508   0.003   1.424   5.696  0.1883  0.2880 -0.2555
 3291SOL    HW121509   4.734   1.377   5.780  1.5427  0.2658 -0.1544
 3291SOL    HW221510   0.081   1.478   5.711  0.8951 -1.6047  3.2013
 3292SOL     OW21511   3.494   3.212   8.169 -0.5359  0.2882 -0.0779
 3292SOL    HW121512   3.492   3.117   8.179  2.1628  0.1946 -0.4505
 3292SOL    HW221513   3.404   3.236   8.192  0.4019  1.4935  2.4037
 3293SOL     OW21514   1.672   2.206  11.595  0.1253  0.2352  0.1428
 3293SOL    HW121515   1.596   2.263  11.610 -0.5330 -0.3779 -0.8157
 3293SOL    HW221516   1.646   2.132  11.650  0.1468  1.5718  1.9438
 3294SOL     OW21517   3.595   1.563  12.754  0.0776  0.8673 -0.1413
 3294SOL    HW121518   3.553   1.618  12.689 -0.3306 -1.9993 -2.3147
 3294SOL    HW221519   3.635   1.624  12.817  0.9455 -0.6408  0.7844
 3295SOL     OW21520   0.678   4.246   3.972 -0.6226  0.0943  0.2794
 3295SOL    HW121521   0.611   4.314   3.981 -0.8329 -0.1962  0.8902
 3295SOL    HW221522   0.653   4.188   4.044  0.4968 -0.8595 -0.1008
 3296SOL     OW21523   4.605   2.101  13.668 -0.5862 -0.1529  0.3078
 3296SOL    HW121524   4.526   2.145  13.636 -0.1987 -0.6357 -1.3013
 3296SOL    HW221525   4.559   2.024  13.702 -3.4788  1.7239  0.7050
 3297SOL     OW21526   2.434   0.903   9.080  0.3439 -0.3460 -0.0411
 3297SOL    HW121527   2.437   0.989   9.038 -0.4819  0.0034  0.6261
 3297SOL    HW221528   2.418   0.860   8.996  0.3719 -0.0045 -0.2193
 3298SOL     OW21529   3.713   3.023   1.209 -0.1395  0.1706  0.0506
 3298SOL    HW121530   3.747   2.934   1.211 -0.4204  0.0735  0.7230
 3298SOL    HW221531   3.624   3.010   1.177  0.8099 -0.2299 -2.3769
 3299SOL     OW21532   2.734   1.217   2.776 -0.2167 -0.2588 -0.1701
 3299SOL    HW121533   2.734   1.285   2.843  0.9098 -1.4591  1.0283
 3299SOL    HW221534   2.643   1.230   2.749 -0.1478  1.7152  0.5338
 3300SOL     OW21535   1.590   3.456   5.718 -0.3409 -0.0793 -0.8444
 3300SOL    HW121536   1.608   3.535   5.769  0.7241 -1.9982  1.7265
 3300SOL    HW221537   1.535   3.415   5.784  2.7540 -0.5934  1.4139
 3301SOL     OW21538   4.669   0.635   2.577 -0.5392  0.6743 -0.2498
 3301SOL    HW121539   4.592   0.663   2.625 -1.1465 -1.3984 -0.0573
 3301SOL    HW221540   4.689   0.559   2.632 -4.5161  0.6064  1.0792
 3302SOL     OW21541   4.287   2.089  16.133  0.0470  0.7299 -0.2242
 3302SOL    HW121542   4.311   2.151  16.202  1.8662 -1.2885  0.9427
 3302SOL    HW221543   4.201   2.121  16.105  0.2642 -1.2885 -3.2208
 3303SOL     OW21544   3.334   3.392   4.818 -0.2336 -0.8927  0.0464
 3303SOL    HW121545   3.414   3.365   4.774  1.3837  1.4469  1.5498
 3303SOL    HW221546   3.370   3.463   4.872 -0.4178  0.3386 -1.4444
 3304SOL     OW21547   3.147   0.621   2.088  0.7722 -0.8628  0.6920
 3304SOL    HW121548   3.132   0.715   2.096  1.5522 -0.7286  0.5606
 3304SOL    HW221549   3.079   0.608   2.022 -0.1767  0.2365  1.4445
 3305SOL     OW21550   1.227   2.852  16.631  0.0834 -0.5403 -0.2346
 3305SOL    HW121551   1.303   2.794  16.641  0.5456  0.3530  1.5017
 3305SOL    HW221552   1.261   2.925  16.581  1.3881 -0.3562  0.9023
 3306SOL     OW21553   4.023   0.337  14.875 -0.2786 -0.2261  0.0398
 3306SOL    HW121554   3.951   0.332  14.812 -0.3263 -3.7448  0.4197
 3306SOL    HW221555   3.977   0.301  14.951  1.8770 -1.3967  0.7643
 3307SOL     OW21556   2.053   2.464   7.407 -0.1136  0.7013  0.2237
 3307SOL    HW121557   2.041   2.394   7.471  0.4128 -0.4819 -0.9738
 3307SOL    HW221558   1.970   2.510   7.421  0.0456  1.8565 -2.7163
 3308SOL     OW21559   0.182   1.548   7.252  0.3467  0.3354 -0.1741
 3308SOL    HW121560   0.187   1.634   7.294 -0.9485 -1.0657  2.8079
 3308SOL    HW221561   0.149   1.567   7.164  1.2122  1.0093 -0.3538
 3309SOL     OW21562   0.971   1.146   4.432  0.1307  0.0819 -0.0935
 3309SOL    HW121563   0.980   1.135   4.527  1.6365 -1.4050 -0.4198
 3309SOL    HW221564   0.875   1.149   4.423  0.1297  0.6677  0.0713
 3310SOL     OW21565   1.072   3.274   3.029  0.1099 -0.4001 -0.8138
 3310SOL    HW121566   0.976   3.278   3.030  0.1385 -0.1513  0.2209
 3310SOL    HW221567   1.078   3.328   3.108 -1.5101  0.8561 -1.5575
 3311SOL     OW21568   1.345   3.856   7.420 -0.8016 -0.3791  0.3248
 3311SOL    HW121569   1.337   3.829   7.328  0.2094  0.5237 -0.0274
 3311SOL    HW221570   1.434   3.821   7.424 -1.5312 -2.0932  1.3663
 3312SOL     OW21571   4.255   2.370   8.500  0.2479  0.0735  0.0206
 3312SOL    HW121572   4.287   2.459   8.483 -0.8034  0.2701 -0.9024
 3312SOL    HW221573   4.333   2.323   8.531 -0.4585 -0.3601  1.1479
 3313SOL     OW21574   4.696   1.174  10.728  0.8764  0.0313 -0.1702
 3313SOL    HW121575   4.717   1.214  10.812  0.2387  0.8216 -0.3809
 3313SOL    HW221576   4.649   1.242  10.678  0.2841 -0.0942  0.2156
 3314SOL     OW21577   1.871   1.124   4.668  0.3221 -0.1498  0.1049
 3314SOL    HW121578   1.848   1.140   4.577  0.5572  0.7832  0.2130
 3314SOL    HW221579   1.964   1.146   4.671  0.1191  0.5263  1.4477
 3315SOL     OW21580   4.082   0.753   8.774  0.1569  0.2091 -0.0229
 3315SOL    HW121581   4.102   0.719   8.862 -1.0114 -0.1348  0.1062
 3315SOL    HW221582   3.988   0.740   8.771  0.2365 -0.1966 -0.8254
 3316SOL     OW21583   1.461   0.657   7.942 -0.0986 -0.2463  0.0952
 3316SOL    HW121584   1.486   0.638   7.852 -2.2252 -1.1916 -0.3092
 3316SOL    HW221585   1.390   0.593   7.942 -1.1701  0.9517  1.8435
 3317SOL     OW21586   4.445   0.286   5.480  0.6618  0.2673 -0.0044
 3317SOL    HW121587   4.404   0.354   5.427  2.0159  0.4709 -0.8133
 3317SOL    HW221588   4.417   0.210   5.428  1.4994  0.9754 -1.5021
 3318SOL     OW21589   3.645   0.180   6.573  0.6522 -0.7316  0.2450
 3318SOL    HW121590   3.633   0.102   6.627 -2.3081  0.8006  1.8068
 3318SOL    HW221591   3.633   0.142   6.486  2.5947 -0.7951  0.0080
 3319SOL     OW21592   0.775   0.857   7.600 -0.1527 -0.1425  0.5809
 3319SOL    HW121593   0.736   0.788   7.653 -3.9266  0.4414 -1.5008
 3319SOL    HW221594   0.809   0.910   7.671 -0.4089 -2.3008  2.3262
 3320SOL     OW21595   0.090   3.728   9.213 -0.2508 -0.0784  0.1640
 3320SOL    HW121596   0.085   3.662   9.283  0.3780 -0.6453 -0.3334
 3320SOL    HW221597   0.044   3.686   9.140 -1.7615  0.0981  1.0098
 3321SOL     OW21598   2.122   0.992   3.578 -0.5409 -0.1017  0.9126
 3321SOL    HW121599   2.095   0.907   3.612 -0.3577 -0.0615  1.1666
 3321SOL    HW221600   2.064   1.001   3.503  1.4801  2.2528 -0.3912
 3322SOL     OW21601   3.661   0.264   3.335 -0.3088  0.3070 -0.2772
 3322SOL    HW121602   3.630   0.196   3.395  0.2676  0.5298  0.2701
 3322SOL    HW221603   3.720   0.217   3.276 -0.9495  1.6105 -1.9765
 3323SOL     OW21604   1.968   4.108   9.864 -0.3926 -0.2419 -0.0603
 3323SOL    HW121605   2.029   4.167   9.908  1.1054 -1.4598 -0.5050
 3323SOL    HW221606   2.031   4.059   9.811  0.2345  1.0769 -0.5305
 3324SOL     OW21607   4.689   3.650   4.309  0.2504 -0.1397 -0.2308
 3324SOL    HW121608   4.641   3.731   4.329 -3.0800 -2.2881  0.5625
 3324SOL    HW221609   0.000   3.681   4.234 -0.7000 -0.2206 -0.8888
 3325SOL     OW21610   1.685   0.389   2.923 -0.3403 -0.6092 -0.1900
 3325SOL    HW121611   1.706   0.481   2.905 -0.9628 -0.4077  0.1280
 3325SOL    HW221612   1.672   0.360   2.833  0.8598  0.5214 -0.7262
 3326SOL     OW21613   0.348   3.840   9.279 -0.7155  0.2266  0.3321
 3326SOL    HW121614   0.268   3.794   9.255  0.5646 -1.7162 -0.1420
 3326SOL    HW221615   0.347   3.906   9.209 -0.1138  1.5495  1.5543
 3327SOL     OW21616   0.752   0.941   6.788  0.6003 -0.4516  0.0781
 3327SOL    HW121617   0.815   0.886   6.835  0.6249 -0.5003 -0.0126
 3327SOL    HW221618   0.682   0.965   6.849  0.8662 -2.7162  1.2898
 3328SOL     OW21619   3.265   0.828  12.168 -0.4031  0.5730 -0.3194
 3328SOL    HW121620   3.195   0.796  12.225  0.8764 -1.5315  0.0805
 3328SOL    HW221621   3.307   0.743  12.152  2.7072  1.5598  2.7161
 3329SOL     OW21622   4.162   2.051  16.645  0.0025  0.4432  0.2683
 3329SOL    HW121623   4.137   1.996  16.719  2.8827  1.0648  1.6931
 3329SOL    HW221624   4.219   2.000  16.588 -0.1170  1.1178 -0.4550
 3330SOL     OW21625   3.483   0.021   8.917  0.4581 -0.6365 -0.2197
 3330SOL    HW121626   3.438   4.696   8.973 -3.1807  1.0156 -1.3365
 3330SOL    HW221627   3.469   4.728   8.828  2.7797  0.8212 -1.1018
 3331SOL     OW21628   0.296   0.014   6.826  0.0971 -0.2431 -0.3407
 3331SOL    HW121629   0.257   4.666   6.808  1.0803 -1.2152  2.1274
 3331SOL    HW221630   0.306   0.052   6.739  2.1408 -2.3105 -0.9982
 3332SOL     OW21631   4.698   0.936   5.523  0.3468  0.5673  0.0504
 3332SOL    HW121632   0.045   0.929   5.480  1.8473  3.8104  2.5100
 3332SOL    HW221633   4.699   1.029   5.542  2.8839  0.2789  1.2639
 3333SOL     OW21634   0.901   0.577   1.956 -0.3441 -0.3676 -0.2791
 3333SOL    HW121635   0.840   0.646   1.931 -0.9680 -1.0332 -0.5922
 3333SOL    HW221636   0.946   0.626   2.025 -4.4894  1.8979  0.8047
 3334SOL     OW21637   0.640   2.083   1.943  0.3931  0.1659  0.4354
 3334SOL    HW121638   0.603   2.006   1.900  2.0219 -0.6355  0.4638
 3334SOL    HW221639   0.571   2.149   1.938 -0.3153 -0.6237 -0.1710
 3335SOL     OW21640   3.642   1.627   7.200 -0.0517 -0.5937 -0.2270
 3335SOL    HW121641   3.659   1.596   7.289  1.1960 -1.3572 -0.7324
 3335SOL    HW221642   3.664   1.545   7.155 -0.3307 -0.4130 -0.6906
 3336SOL     OW21643   0.470   4.238   8.708  0.3369 -0.1374  0.1380
 3336SOL    HW121644   0.451   4.240   8.614 -0.9607 -0.0361  0.3977
 3336SOL    HW221645   0.392   4.188   8.733  2.0472 -2.0268  1.6961
 3337SOL     OW21646   1.179   1.568   3.396  0.4328 -0.3147  0.1573
 3337SOL    HW121647   1.246   1.514   3.437  0.3100 -1.2659 -0.8718
 3337SOL    HW221648   1.110   1.502   3.394 -0.7031  0.9346 -2.9676
 3338SOL     OW21649   2.645   3.624   8.660  0.0675  0.5790  1.1476
 3338SOL    HW121650   2.639   3.618   8.755 -0.2707  0.9426  1.1498
 3338SOL    HW221651   2.570   3.568   8.638  1.5513 -1.2196  0.7021
 3339SOL     OW21652   1.321   4.340  14.725  0.2966  0.0439 -0.6700
 3339SOL    HW121653   1.408   4.356  14.688  0.9944 -1.9594  0.1174
 3339SOL    HW221654   1.261   4.352  14.652  0.2734 -0.6521 -0.7624
 3340SOL     OW21655   1.642   2.149   0.506 -0.3978  0.2379  0.4897
 3340SOL    HW121656   1.722   2.197   0.485  0.2316 -0.3242  1.5831
 3340SOL    HW221657   1.592   2.214   0.556 -1.1432  0.0065  0.0470
 3341SOL     OW21658   2.063   0.989  11.735  0.3394  0.2589  0.3868
 3341SOL    HW121659   1.980   1.023  11.700 -0.3682 -0.4384  1.3682
 3341SOL    HW221660   2.056   0.894  11.729  1.6376  0.2495 -0.8558
 3342SOL     OW21661   1.269   1.355   3.124 -0.2980  0.1186  0.2381
 3342SOL    HW121662   1.183   1.333   3.089  0.4940  2.4646 -3.1760
 3342SOL    HW221663   1.330   1.305   3.069 -1.3320  1.8910 -2.4823
 3343SOL     OW21664   1.033   3.749   7.290  0.3681 -0.1924 -0.3122
 3343SOL    HW121665   1.129   3.751   7.280  0.3181 -0.2308 -0.7756
 3343SOL    HW221666   1.010   3.669   7.243 -2.2660  0.5062 -0.1746
 3344SOL     OW21667   4.343   0.399   6.101 -0.0476 -0.0175  0.0877
 3344SOL    HW121668   4.406   0.390   6.030  0.8464 -0.3717  0.9278
 3344SOL    HW221669   4.354   0.493   6.114  2.1957 -0.1031 -1.2204
 3345SOL     OW21670   3.613   2.306   8.470  0.2102 -0.3952  0.2238
 3345SOL    HW121671   3.662   2.388   8.457  3.2996 -1.9894  1.6918
 3345SOL    HW221672   3.663   2.254   8.407  0.4325  1.4198 -1.0976
 3346SOL     OW21673   0.122   0.696   4.625  0.4087  0.3363  0.2597
 3346SOL    HW121674   0.098   0.627   4.564 -0.3321  1.8988 -1.2237
 3346SOL    HW221675   0.037   0.728   4.654  0.2245  0.2856 -0.2430
 3347SOL     OW21676   1.770   0.840  11.667 -0.1286  0.7291  0.1104
 3347SOL    HW121677   1.675   0.837  11.670 -0.1119  0.5661  0.4346
 3347SOL    HW221678   1.795   0.931  11.648  2.0698 -0.1018 -1.0399
 3348SOL     OW21679   2.598   0.878  14.492 -0.0407  0.3253  0.3141
 3348SOL    HW121680   2.650   0.952  14.527  1.6839 -0.8140  0.1714
 3348SOL    HW221681   2.506   0.900  14.508  0.0753  0.7175  0.4672
 3349SOL     OW21682   1.934   2.659   5.941 -0.0837  0.1358 -0.8718
 3349SOL    HW121683   1.844   2.627   5.947  0.4563 -1.0124  1.0612
 3349SOL    HW221684   1.916   2.747   5.975  0.2310 -0.3471  0.5646
 3350SOL     OW21685   1.545   4.276   2.370 -0.0294 -0.2165  0.8093
 3350SOL    HW121686   1.504   4.206   2.319  0.2744  0.6755 -0.6571
 3350SOL    HW221687   1.476   4.339   2.350  0.5466 -0.0210 -0.6000
 3351SOL     OW21688   3.826   3.474   4.271  0.3658 -0.2105  0.8396
 3351SOL    HW121689   3.783   3.420   4.204 -0.6630  0.9222  0.5934
 3351SOL    HW221690   3.917   3.468   4.245 -0.1723 -1.0910 -0.8610
 3352SOL     OW21691   1.261   1.678   1.799 -0.1790 -0.2449 -0.2022
 3352SOL    HW121692   1.281   1.625   1.722  1.5658  0.6321 -0.3404
 3352SOL    HW221693   1.301   1.763   1.781  0.6667 -0.3627  1.1098
 3353SOL     OW21694   4.644   0.539   9.489 -0.3619 -0.2293 -0.3667
 3353SOL    HW121695   4.657   0.628   9.458 -3.0650  0.9067  1.7498
 3353SOL    HW221696   4.720   0.535   9.548  0.2981  0.8659 -1.1518
 3354SOL     OW21697   2.479   2.596  15.016  0.3970 -0.1213 -0.5195
 3354SOL    HW121698   2.446   2.641  14.939 -1.9706  1.7013  1.5417
 3354SOL    HW221699   2.502   2.511  14.978  0.4126  1.3906 -3.8294
 3355SOL     OW21700   1.986   3.820  15.675  0.1506 -0.4156  0.4110
 3355SOL    HW121701   1.986   3.785  15.586  1.0152  0.5400  0.0377
 3355SOL    HW221702   1.891   3.821  15.687  0.1652  3.3010  0.1596
 3356SOL     OW21703   1.652   2.157  10.777 -0.1010  0.3623 -0.2602
 3356SOL    HW121704   1.745   2.136  10.771 -0.0777 -0.3448  2.5392
 3356SOL    HW221705   1.644   2.237  10.725  1.0856  0.5491 -0.1662
 3357SOL     OW21706   1.443   4.397   3.616 -0.1292 -0.2318  0.0167
 3357SOL    HW121707   1.444   4.456   3.691 -1.4698  0.3554 -0.4247
 3357SOL    HW221708   1.435   4.317   3.668  0.9334  0.6033  1.4808
 3358SOL     OW21709   4.456   1.328  15.723 -0.3233  0.4258  0.0014
 3358SOL    HW121710   4.495   1.280  15.796 -0.7601  2.2652  1.4521
 3358SOL    HW221711   4.479   1.273  15.647  0.4166 -2.9064  2.6345
 3359SOL     OW21712   1.348   3.318  16.884  0.4318 -0.1012  0.1619
 3359SOL    HW121713   1.437   3.293  16.861 -0.1737 -2.8969  0.8528
 3359SOL    HW221714   1.365   3.309  16.977 -0.4458  1.2959  0.4516
 3360SOL     OW21715   0.145   2.451  13.744 -0.2059 -0.1093  0.2276
 3360SOL    HW121716   0.085   2.449  13.818 -0.3043 -2.2476  0.0876
 3360SOL    HW221717   0.081   2.491  13.685 -0.1909  0.5500  0.6538
 3361SOL     OW21718   3.933   0.970   3.003 -0.2030  0.0401 -0.2193
 3361SOL    HW121719   3.913   1.055   3.043 -1.0124 -0.4406  0.3806
 3361SOL    HW221720   3.897   0.913   3.071  0.9907 -0.6097 -0.1526
 3362SOL     OW21721   3.247   1.865   6.276  0.5547  0.0718 -0.3779
 3362SOL    HW121722   3.180   1.827   6.219 -0.9901  0.2892  1.2928
 3362SOL    HW221723   3.218   1.956   6.277  1.4779  0.3512  0.5604
 3363SOL     OW21724   4.112   0.160  15.638 -0.0576  0.4656  0.2702
 3363SOL    HW121725   4.065   0.135  15.559  0.7004 -2.8086  0.8410
 3363SOL    HW221726   4.135   0.248  15.610  0.0583  0.4088  0.1873
 3364SOL     OW21727   0.987   3.518   6.322  0.2081 -0.1289 -0.2599
 3364SOL    HW121728   0.937   3.475   6.392 -0.1628  0.2094 -0.3175
 3364SOL    HW221729   0.919   3.565   6.274 -1.3918 -0.5898  1.5443
 3365SOL     OW21730   3.204   1.265  12.067 -0.3690  0.1916  0.0515
 3365SOL    HW121731   3.124   1.309  12.096  1.0490  1.7025  1.7201
 3365SOL    HW221732   3.170   1.205  12.002  0.0512 -0.4980  0.4658
 3366SOL     OW21733   4.141   2.870  12.784 -0.2175 -0.0285 -0.3970
 3366SOL    HW121734   4.106   2.805  12.845  0.0499  0.7088  0.5285
 3366SOL    HW221735   4.222   2.837  12.745 -0.3401  1.8869 -2.2941
 3367SOL     OW21736   1.340   0.832   8.107 -0.1933  0.4481 -0.7598
 3367SOL    HW121737   1.394   0.768   8.061  1.2782  1.1793 -0.0443
 3367SOL    HW221738   1.347   0.800   8.197  1.4397  0.2558 -0.9494
 3368SOL     OW21739   1.684   3.534  12.943  0.1293 -0.1601 -0.6223
 3368SOL    HW121740   1.604   3.483  12.928  0.1812 -0.7770  1.1650
 3368SOL    HW221741   1.650   3.623  12.949 -0.2569 -0.3268 -0.3230
 3369SOL     OW21742   4.366   2.463   4.798 -0.2723 -0.1003 -0.4803
 3369SOL    HW121743   4.418   2.453   4.878 -0.3586 -1.1519 -0.5622
 3369SOL    HW221744   4.301   2.522   4.837  0.0142 -0.1639  0.0968
 3370SOL     OW21745   3.383   3.205   5.506 -0.2657  0.7717 -0.5382
 3370SOL    HW121746   3.335   3.248   5.435 -0.4404 -0.1396 -0.9810
 3370SOL    HW221747   3.329   3.207   5.584  0.6266 -0.3416  0.1097
 3371SOL     OW21748   4.174   3.711  11.395 -0.1214  0.2803 -0.1399
 3371SOL    HW121749   4.169   3.651  11.321  0.1997  2.7485 -2.1521
 3371SOL    HW221750   4.212   3.781  11.343  0.7840  0.8280  1.2476
 3372SOL     OW21751   2.425   3.356   5.623 -0.6204 -0.3881  0.1710
 3372SOL    HW121752   2.372   3.365   5.702 -0.9687 -1.1217  0.0280
 3372SOL    HW221753   2.370   3.297   5.571 -0.8133 -1.1174  1.2064
 3373SOL     OW21754   0.674   0.737  16.232 -0.0969  0.0175 -0.8113
 3373SOL    HW121755   0.671   0.732  16.136  0.6729 -2.8015 -0.6759
 3373SOL    HW221756   0.578   0.741  16.239 -0.0511  3.3350 -1.6542
 3374SOL     OW21757   2.931   0.747   8.881  0.4047 -0.5861 -0.2301
 3374SOL    HW121758   2.968   0.661   8.898 -2.3977 -1.7630 -0.1733
 3374SOL    HW221759   3.014   0.788   8.857  0.1159  0.2585  0.2075
 3375SOL     OW21760   2.743   0.812  10.711  0.5983  0.4024 -0.3919
 3375SOL    HW121761   2.830   0.824  10.748  0.9070  1.4902 -1.4643
 3375SOL    HW221762   2.755   0.717  10.702 -0.1257  0.3993 -1.4160
 3376SOL     OW21763   3.874   2.860   4.023  0.0306  0.7379  0.7278
 3376SOL    HW121764   3.827   2.833   3.945  1.3299 -0.2653  0.3074
 3376SOL    HW221765   3.899   2.772   4.050 -0.7005 -0.1455 -1.5544
 3377SOL     OW21766   1.042   3.949   2.407 -0.1132 -0.1431  0.7528
 3377SOL    HW121767   1.124   3.908   2.379 -0.1305  0.7165 -0.5370
 3377SOL    HW221768   1.065   3.999   2.485  0.6157  0.9124 -0.1483
 3378SOL     OW21769   0.642   2.629   5.384 -0.4324  0.3473  0.0460
 3378SOL    HW121770   0.633   2.534   5.391 -0.6880  0.4582  1.2107
 3378SOL    HW221771   0.590   2.639   5.304 -0.6130  2.9634  0.5022
 3379SOL     OW21772   3.386   2.821   6.358 -0.1242 -0.2617 -0.1289
 3379SOL    HW121773   3.380   2.777   6.443 -2.3967  1.0596  0.4007
 3379SOL    HW221774   3.298   2.857   6.349 -0.6477 -1.3898  0.4578
 3380SOL     OW21775   0.387   0.747   7.997  0.6499  0.2798 -0.4538
 3380SOL    HW121776   0.314   0.808   7.991  1.1084  0.7803 -0.9141
 3380SOL    HW221777   0.410   0.760   8.089 -2.6056  1.1572  0.2118
 3381SOL     OW21778   4.106   1.381   4.164  0.2912 -0.4180 -0.6240
 3381SOL    HW121779   4.064   1.414   4.244 -2.1303  1.1141 -2.5260
 3381SOL    HW221780   4.141   1.306   4.213  2.2396  0.2796 -0.9551
 3382SOL     OW21781   2.048   1.512   3.490  0.3179 -0.2479  1.0119
 3382SOL    HW121782   2.002   1.430   3.470  2.7155 -1.6875  1.4192
 3382SOL    HW221783   1.972   1.570   3.498  1.5865  1.7115 -1.5375
 3383SOL     OW21784   2.591   4.549   2.741  0.0657  0.5111 -0.5554
 3383SOL    HW121785   2.516   4.555   2.801 -0.3043  0.8993 -1.0512
 3383SOL    HW221786   2.656   4.575   2.806 -2.4450  2.6742  1.1286
 3384SOL     OW21787   2.504   0.139   8.505 -0.1511  0.7151 -0.6198
 3384SOL    HW121788   2.452   0.213   8.537  0.1260  1.0583 -0.9661
 3384SOL    HW221789   2.586   0.142   8.556 -0.4531  1.5190 -0.1867
 3385SOL     OW21790   4.359   2.799  13.451  0.3616 -0.2730 -0.4357
 3385SOL    HW121791   4.294   2.831  13.390  1.6164 -0.1487 -1.7220
 3385SOL    HW221792   4.318   2.819  13.535  0.7367 -0.4746 -0.2032
 3386SOL     OW21793   2.901   0.063   3.393  0.3726 -0.1756 -0.8669
 3386SOL    HW121794   2.856   0.143   3.422  1.7691  0.6857 -1.0685
 3386SOL    HW221795   2.981   0.081   3.441 -0.2793 -0.2879  0.2471
 3387SOL     OW21796   0.311   1.608   8.210 -0.2743  0.1727 -0.0754
 3387SOL    HW121797   0.267   1.527   8.234  1.1352  0.0487  2.0599
 3387SOL    HW221798   0.293   1.665   8.286 -0.9716 -2.3634  1.6500
 3388SOL     OW21799   2.067   2.785   1.810  0.4646 -0.9994  0.1170
 3388SOL    HW121800   1.976   2.799   1.836  0.4688 -0.8520  0.0541
 3388SOL    HW221801   2.110   2.806   1.893 -2.5322  3.1382  0.6318
 3389SOL     OW21802   0.644   3.173  10.043  0.4378  0.3607  0.3126
 3389SOL    HW121803   0.607   3.126  10.118 -3.5959 -0.3304 -2.0895
 3389SOL    HW221804   0.567   3.213  10.002  0.5429 -0.7504 -0.9831
 3390SOL     OW21805   4.269   1.562  14.607  0.4099  0.1102 -0.3668
 3390SOL    HW121806   4.359   1.529  14.606  0.3414 -0.0804 -0.1716
 3390SOL    HW221807   4.266   1.578  14.701 -1.0691  0.2875 -0.4346
 3391SOL     OW21808   3.211   4.721   4.591  0.2055  0.7213 -0.1356
 3391SOL    HW121809   3.249   4.689   4.510 -0.3137  1.9052 -0.8459
 3391SOL    HW221810   3.259   0.065   4.596  1.7737 -0.2039  0.0669
 3392SOL     OW21811   3.373   1.280   1.842  0.1420  0.4191  0.1819
 3392SOL    HW121812   3.384   1.202   1.787  1.4521  0.7815 -0.0765
 3392SOL    HW221813   3.459   1.289   1.882 -0.2118 -0.5893  1.1863
 3393SOL     OW21814   3.042   4.718   2.223  0.3851 -0.5973  0.4430
 3393SOL    HW121815   2.982   4.733   2.296 -1.0111 -0.8087 -0.6588
 3393SOL    HW221816   3.008   4.636   2.188  0.3777 -1.5746  2.7157
 3394SOL     OW21817   2.912   4.444  17.382  0.0528  0.1540  0.2189
 3394SOL    HW121818   2.817   4.433  17.380  0.2419 -1.3806 -0.7649
 3394SOL    HW221819   2.916   4.538  17.365 -1.1183  0.3368  0.9323
 3395SOL     OW21820   4.321   2.976   2.929 -0.6827  0.3045 -0.0243
 3395SOL    HW121821   4.229   2.956   2.911 -0.8320 -0.0225  1.1215
 3395SOL    HW221822   4.362   2.892   2.905 -0.4516  0.0864  1.1691
 3396SOL     OW21823   2.421   4.505   8.609 -0.3948  0.6826 -0.0332
 3396SOL    HW121824   2.338   4.457   8.610 -0.8029  1.4476  1.7708
 3396SOL    HW221825   2.418   4.547   8.694 -2.1505  1.1501 -0.3222
 3397SOL     OW21826   1.331   3.018   3.766  0.4671 -0.0613 -0.5469
 3397SOL    HW121827   1.341   3.107   3.798  0.7674 -0.2183 -0.2043
 3397SOL    HW221828   1.413   2.984   3.802 -0.2467  0.9536  1.9832
 3398SOL     OW21829   1.495   3.547   1.579 -0.5635 -0.1429  0.0392
 3398SOL    HW121830   1.441   3.483   1.625 -2.1672  1.8758  1.0201
 3398SOL    HW221831   1.523   3.491   1.507 -2.4804  0.3129 -1.0359
 3399SOL     OW21832   2.089   2.474   5.826  0.8417 -0.4367  0.3103
 3399SOL    HW121833   2.014   2.448   5.771 -0.2081  1.1560  0.9770
 3399SOL    HW221834   2.046   2.541   5.880  1.5533 -0.3987  0.8152
 3400SOL     OW21835   2.774   3.937   3.743 -0.0484 -0.2281 -0.0706
 3400SOL    HW121836   2.821   3.867   3.787 -0.1224 -0.1166  0.1882
 3400SOL    HW221837   2.786   3.925   3.648 -1.2258 -2.0214 -0.0012
 3401SOL     OW21838   2.121   1.988   3.125 -0.3089 -0.1697 -0.0865
 3401SOL    HW121839   2.071   1.914   3.091  0.3042 -0.3043 -0.7088
 3401SOL    HW221840   2.102   2.057   3.062 -2.2446 -2.8267 -2.4286
 3402SOL     OW21841   0.880   0.406   1.040  0.8959  0.2512 -0.6403
 3402SOL    HW121842   0.908   0.332   0.986 -0.0193 -1.2151  0.9151
 3402SOL    HW221843   0.929   0.483   1.012  0.8469 -0.3991 -2.5141
 3403SOL     OW21844   1.888   0.742  11.426 -0.2142  0.1936  0.4136
 3403SOL    HW121845   1.817   0.706  11.372  1.1484  0.3940 -1.5001
 3403SOL    HW221846   1.850   0.785  11.502 -0.2041 -0.6928  0.9247
 3404SOL     OW21847   1.932   2.258   1.592 -0.2910  0.1885 -0.0067
 3404SOL    HW121848   1.998   2.327   1.595  0.3898 -0.4806  0.2920
 3404SOL    HW221849   1.942   2.230   1.502 -1.5738  2.4710 -0.8774
 3405SOL     OW21850   4.317   0.519   9.471  0.0942 -0.1003 -0.2380
 3405SOL    HW121851   4.316   0.438   9.522 -2.6462 -0.4776 -0.8420
 3405SOL    HW221852   4.358   0.579   9.533 -0.6882  2.9705 -2.6587
 3406SOL     OW21853   4.335   1.147   1.750 -0.7768  0.1092 -0.4838
 3406SOL    HW121854   4.420   1.166   1.791 -1.2300  3.5314 -1.1894
 3406SOL    HW221855   4.291   1.150   1.835  0.4648 -0.5033  0.1829
 3407SOL     OW21856   3.200   3.207   4.994  0.1686  0.0032 -0.9415
 3407SOL    HW121857   3.246   3.278   4.950  1.5532  0.2606  0.9330
 3407SOL    HW221858   3.227   3.130   4.944  0.3229 -0.8331  0.4444
 3408SOL     OW21859   0.205   2.652   9.516 -0.5483  0.6090 -0.0915
 3408SOL    HW121860   0.148   2.579   9.542  1.6370 -1.1714 -0.2702
 3408SOL    HW221861   0.251   2.606   9.446 -1.2606  1.8517 -1.3770
 3409SOL     OW21862   0.368   0.217  12.657 -0.1472  0.9863  0.4460
 3409SOL    HW121863   0.399   0.296  12.612  1.8769 -1.5838 -2.5885
 3409SOL    HW221864   0.279   0.205  12.624 -0.2048 -0.1948  1.0453
 3410SOL     OW21865   0.832   3.652  11.282  0.2470 -0.4900 -0.3474
 3410SOL    HW121866   0.905   3.670  11.224 -0.4074  0.3104 -0.9146
 3410SOL    HW221867   0.849   3.703  11.361  0.7122 -1.0088 -0.1064
 3411SOL     OW21868   1.600   1.147   5.771 -0.0270 -0.1253 -0.2734
 3411SOL    HW121869   1.505   1.153   5.784 -0.4049 -2.7238 -1.8410
 3411SOL    HW221870   1.624   1.238   5.756 -0.9641  0.1896  0.1320
 3412SOL     OW21871   0.390   0.658   4.142 -0.0085 -0.5237  0.1974
 3412SOL    HW121872   0.397   0.694   4.054 -0.5565  3.6161  1.8273
 3412SOL    HW221873   0.480   0.683   4.164 -0.0952  0.4804 -0.6085
 3413SOL     OW21874   0.042   2.067   8.347  0.1553  0.1085 -0.2801
 3413SOL    HW121875   0.044   2.077   8.442  0.0839 -1.5603 -0.1013
 3413SOL    HW221876   0.031   1.973   8.335 -2.0104  0.3660 -0.1582
 3414SOL     OW21877   4.589   0.661   4.387  0.1354  0.0375 -0.7679
 3414SOL    HW121878   4.671   0.612   4.392  0.0411  0.2473  2.8572
 3414SOL    HW221879   4.567   0.657   4.294  0.0807 -0.6307 -0.7218
 3415SOL     OW21880   4.008   4.232   8.192  0.1059 -0.7985  0.3057
 3415SOL    HW121881   4.043   4.157   8.239  1.4544  0.3752  1.1813
 3415SOL    HW221882   3.942   4.265   8.253 -1.0565 -2.9255  0.1949
 3416SOL     OW21883   3.436   2.722   8.320  0.4762  0.1186 -0.0281
 3416SOL    HW121884   3.371   2.656   8.347  4.0366 -2.9993  0.8473
 3416SOL    HW221885   3.375   2.795   8.330 -0.8008 -0.8128 -0.9559
 3417SOL     OW21886   2.135   3.592   8.790  0.1868  0.0544  0.3269
 3417SOL    HW121887   2.067   3.553   8.735  1.3804 -0.3535 -0.8648
 3417SOL    HW221888   2.203   3.624   8.731 -1.4162  2.7498 -0.0903
 3418SOL     OW21889   2.478   2.878   0.490 -0.0485  0.0202  0.0967
 3418SOL    HW121890   2.428   2.883   0.571  2.9874  0.1074  1.9585
 3418SOL    HW221891   2.437   2.944   0.434 -1.3055  0.4681  1.5322
 3419SOL     OW21892   0.063   1.867   5.861  0.1701  0.3735 -0.9193
 3419SOL    HW121893   0.113   1.807   5.915  0.0653  0.4155 -0.7740
 3419SOL    HW221894   0.117   1.946   5.862 -1.0684  1.2324  0.0908
 3420SOL     OW21895   4.117   2.000   4.916 -0.3798  0.3503 -0.2329
 3420SOL    HW121896   4.058   1.946   4.863 -0.7269  1.8494 -1.3775
 3420SOL    HW221897   4.198   1.996   4.865 -0.5128  0.3436 -0.4451
 3421SOL     OW21898   1.887   3.600   3.967 -0.4539 -0.0740 -0.3864
 3421SOL    HW121899   1.803   3.597   4.013  0.4044  1.2678  1.2773
 3421SOL    HW221900   1.944   3.634   4.036  0.3837 -1.4006 -0.4377
 3422SOL     OW21901   0.137   0.816   0.102  0.3789 -0.1539  0.6691
 3422SOL    HW121902   0.095   0.785   0.182 -0.3962 -1.0681 -0.0975
 3422SOL    HW221903   0.077   0.888   0.081 -0.8764 -1.3971 -0.0113
 3423SOL     OW21904   1.171   2.559   9.944 -0.2585 -0.1384 -0.3455
 3423SOL    HW121905   1.086   2.589   9.912 -0.1530  2.7900  2.1947
 3423SOL    HW221906   1.193   2.486   9.886  2.2698  1.5135 -1.4745
 3424SOL     OW21907   3.567   2.298   6.671 -0.3647  0.2795  0.3602
 3424SOL    HW121908   3.582   2.290   6.765 -1.0103  0.6437  0.4947
 3424SOL    HW221909   3.482   2.255   6.665  0.2127 -0.8388  0.1398
 3425SOL     OW21910   0.464   4.405   1.027  0.5378 -0.0045 -0.4978
 3425SOL    HW121911   0.508   4.485   1.055  1.4540 -0.1362 -1.5765
 3425SOL    HW221912   0.400   4.445   0.967  1.1459  0.8875 -0.5561
 3426SOL     OW21913   4.297   0.783   9.324  0.1241 -0.6074 -0.2613
 3426SOL    HW121914   4.299   0.696   9.365 -0.5093 -0.7633 -0.5631
 3426SOL    HW221915   4.208   0.791   9.289 -0.7311 -3.3132  1.2209
 3427SOL     OW21916   3.168   2.957   0.120  0.5152 -0.5328 -0.8370
 3427SOL    HW121917   3.111   2.897   0.169  2.0874 -0.0426  1.5728
 3427SOL    HW221918   3.243   2.901   0.100  1.0265 -0.2685  0.3550
 3428SOL     OW21919   3.719   2.047   2.764 -0.2720 -0.0416 -0.7778
 3428SOL    HW121920   3.633   2.069   2.800 -0.3688 -1.4344 -0.1630
 3428SOL    HW221921   3.691   1.961   2.734 -2.8890  1.2742 -2.0836
 3429SOL     OW21922   4.462   2.600   4.581  0.3550 -0.1736 -0.0591
 3429SOL    HW121923   4.481   2.682   4.627 -0.6580 -1.1464  2.0715
 3429SOL    HW221924   4.426   2.545   4.651 -0.8226  1.8986  0.9612
 3430SOL     OW21925   4.060   0.117   4.778  0.4724 -0.5629 -0.4166
 3430SOL    HW121926   4.054   0.029   4.816  1.3472 -0.8983 -1.0654
 3430SOL    HW221927   3.974   0.157   4.791  0.5386 -0.1822 -1.2053
 3431SOL     OW21928   1.814   2.549   1.508  0.4576 -0.1641  0.4429
 3431SOL    HW121929   1.812   2.508   1.594 -1.3175 -0.8711  0.0540
 3431SOL    HW221930   1.909   2.559   1.505  0.6392 -1.3556  2.5505
 3432SOL     OW21931   1.023   4.135   5.402 -0.3522  0.5739 -0.2067
 3432SOL    HW121932   1.113   4.134   5.371  0.7446  1.4447  2.9408
 3432SOL    HW221933   1.033   4.127   5.497  0.4620  0.0374 -0.3385
 3433SOL     OW21934   3.154   0.372   1.703  0.4560  0.3819  0.6333
 3433SOL    HW121935   3.146   0.282   1.736 -3.3834  1.2023  1.9388
 3433SOL    HW221936   3.248   0.389   1.707  0.7371 -0.7008 -1.1814
 3434SOL     OW21937   4.163   3.125  10.773  0.1408 -0.3298 -0.4146
 3434SOL    HW121938   4.076   3.098  10.744  0.7868 -1.9197 -0.8628
 3434SOL    HW221939   4.210   3.065  10.715 -1.8577 -2.0254 -0.3064
 3435SOL     OW21940   1.665   0.877   8.818 -0.0255  0.3853  0.6266
 3435SOL    HW121941   1.699   0.959   8.855  1.4943 -1.0225  2.3559
 3435SOL    HW221942   1.714   0.816   8.873  2.4274  0.6440 -1.3023
 3436SOL     OW21943   3.095   0.050  15.820  0.6720  0.1538 -0.0828
 3436SOL    HW121944   3.147   0.129  15.805  0.9617 -0.3393 -1.6877
 3436SOL    HW221945   3.069   0.032  15.729 -1.7993 -0.7979  0.8086
 3437SOL     OW21946   4.183   2.552   4.255 -0.2345 -0.2571  0.4847
 3437SOL    HW121947   4.266   2.599   4.262 -2.2444  3.1086  1.9147
 3437SOL    HW221948   4.170   2.532   4.348 -0.1325 -1.1664  0.3033
 3438SOL     OW21949   3.714   0.102   2.575  0.5335 -0.1045  0.7543
 3438SOL    HW121950   3.644   0.039   2.557  0.9489 -0.1950 -0.5108
 3438SOL    HW221951   3.705   0.113   2.670 -1.6342  1.2291  0.4225
 3439SOL     OW21952   2.782   3.926  13.106  0.0820  0.1612 -0.1174
 3439SOL    HW121953   2.825   3.911  13.022 -2.9592 -1.3888 -1.3685
 3439SOL    HW221954   2.706   3.871  13.087 -0.9004  1.8262 -1.0056
 3440SOL     OW21955   4.162   2.711  11.416 -0.3490  0.6130 -0.1634
 3440SOL    HW121956   4.106   2.706  11.339  0.2639  1.6046 -0.6702
 3440SOL    HW221957   4.128   2.775  11.478 -0.2787 -2.3969  2.9401
 3441SOL     OW21958   1.251   1.677  12.558 -0.6374 -0.1441  0.3021
 3441SOL    HW121959   1.231   1.613  12.627 -1.2920 -0.5689 -0.2841
 3441SOL    HW221960   1.163   1.714  12.558 -1.1382 -1.3320  3.1495
 3442SOL     OW21961   3.603   2.110  12.485  0.2555  0.0936  0.3483
 3442SOL    HW121962   3.597   2.140  12.576 -0.5333  0.2461  0.2456
 3442SOL    HW221963   3.661   2.035  12.495  0.1026 -0.0428  0.2227
 3443SOL     OW21964   0.035   3.168   4.236  0.3982 -0.0732 -0.6167
 3443SOL    HW121965   0.078   3.127   4.311 -0.4611 -0.8344 -0.5444
 3443SOL    HW221966   0.068   3.258   4.237  3.6898 -1.3362  2.3794
 3444SOL     OW21967   1.939   1.020   0.339 -0.4852 -0.1285  0.7534
 3444SOL    HW121968   1.949   1.115   0.344  0.7978 -0.2392  0.1145
 3444SOL    HW221969   2.006   0.995   0.402  1.5436 -1.9591 -2.1548
 3445SOL     OW21970   3.981   3.173   4.387 -0.0177  0.1850  0.0185
 3445SOL    HW121971   3.974   3.156   4.293  0.3837  2.0873 -0.3581
 3445SOL    HW221972   4.073   3.197   4.383 -0.3432  0.7736 -3.3159
 3446SOL     OW21973   0.354   0.969   8.184 -0.3156  0.0424 -0.0029
 3446SOL    HW121974   0.350   0.945   8.276  1.1868  0.3831  0.1470
 3446SOL    HW221975   0.312   1.054   8.190 -1.4230 -0.3872 -1.6817
 3447SOL     OW21976   1.367   3.703   2.216  0.0784  0.7106  0.1908
 3447SOL    HW121977   1.412   3.753   2.148 -0.6362  1.1823  0.0751
 3447SOL    HW221978   1.363   3.762   2.291 -0.4229  0.5516  0.2879
 3448SOL     OW21979   2.730   1.200   7.200  0.3827 -0.3315  0.2705
 3448SOL    HW121980   2.780   1.147   7.263 -3.3505 -0.5025  3.0909
 3448SOL    HW221981   2.644   1.197   7.243  1.1424  3.1297  2.0093
 3449SOL     OW21982   1.198   1.218   9.471  0.0208 -0.0972  0.0140
 3449SOL    HW121983   1.194   1.184   9.381 -0.0285  1.0612 -0.4142
 3449SOL    HW221984   1.148   1.298   9.458  1.5979  0.8603 -0.1800
 3450SOL     OW21985   0.093   0.035   3.940 -0.1203  0.0441 -0.0158
 3450SOL    HW121986   0.133   0.009   4.023  0.4308  2.2641  0.3968
 3450SOL    HW221987   0.112   4.696   3.887  0.3661 -1.1806  1.9260
 3451SOL     OW21988   1.392   0.220   1.900  0.5112  0.4953  0.0222
 3451SOL    HW121989   1.311   0.270   1.898  1.1651  1.5457  0.0914
 3451SOL    HW221990   1.391   0.190   1.991  1.7025 -0.4199 -0.2633
 3452SOL     OW21991   1.504   0.130   5.482 -0.8147 -0.2493  0.1971
 3452SOL    HW121992   1.456   0.152   5.402 -3.1075 -1.8232  1.1555
 3452SOL    HW221993   1.520   0.217   5.518 -0.2199  0.7028 -2.3057
 3453SOL     OW21994   3.059   0.643   5.377 -0.2825  0.4101 -0.3674
 3453SOL    HW121995   3.018   0.567   5.337 -3.0537  1.4054  0.6067
 3453SOL    HW221996   2.977   0.689   5.395 -1.3216 -0.7976 -2.1156
 3454SOL     OW21997   4.446   1.097   6.859  0.0514 -0.1455  0.1281
 3454SOL    HW121998   4.421   1.005   6.868  2.6220 -0.7331  1.2117
 3454SOL    HW221999   4.408   1.135   6.780  1.2692 -0.0141 -0.3944
 3455SOL     OW22000   2.390   4.653   7.151 -0.2126 -0.0151 -0.2998
 3455SOL    HW122001   2.311   4.612   7.188  0.1579  0.0598  0.5571
 3455SOL    HW222002   2.437   4.576   7.118 -0.7536 -0.3632 -0.2713
 3456SOL     OW22003   0.172   2.021   4.174  0.0738 -0.2191  0.7130
 3456SOL    HW122004   0.197   1.935   4.208  0.9571  0.8120  2.6636
 3456SOL    HW222005   0.232   2.012   4.100 -2.2689  1.5400 -1.3860
 3457SOL     OW22006   2.616   3.266  11.391  0.0997  0.2481 -0.5197
 3457SOL    HW122007   2.569   3.309  11.462 -2.1529  0.1989 -1.9872
 3457SOL    HW222008   2.643   3.187  11.437 -1.5887  0.2876  0.5499
 3458SOL     OW22009   3.015   0.502   6.334 -0.2221  0.0723 -0.0274
 3458SOL    HW122010   3.071   0.579   6.345  1.6689 -1.8137  3.4174
 3458SOL    HW222011   2.987   0.473   6.420 -0.5592 -0.1747 -0.2187
 3459SOL     OW22012   0.996   1.110  12.225 -0.4544  0.3340 -0.2662
 3459SOL    HW122013   0.996   1.199  12.260  1.6782  1.3908 -2.9657
 3459SOL    HW222014   1.085   1.083  12.247 -1.5305 -2.5974  0.5624
 3460SOL     OW22015   3.052   1.855   8.931  0.1277  0.0457 -0.1535
 3460SOL    HW122016   3.091   1.768   8.926 -1.1341 -0.4996 -0.4217
 3460SOL    HW222017   2.987   1.846   8.861 -0.4708 -1.9918  0.6564
 3461SOL     OW22018   1.696   0.365   3.202 -0.1579 -0.5616  0.1193
 3461SOL    HW122019   1.675   0.355   3.109  0.4878 -0.0797 -0.0802
 3461SOL    HW222020   1.757   0.293   3.219  0.3707 -0.3842 -0.9689
 3462SOL     OW22021   3.557   1.730   8.538 -0.3018 -0.5720 -0.2835
 3462SOL    HW122022   3.604   1.791   8.595 -0.4744 -1.0082  0.3150
 3462SOL    HW222023   3.510   1.779   8.470  0.6844  2.2130  1.0286
 3463SOL     OW22024   4.126   4.533   2.589 -0.2078 -0.0002 -0.1320
 3463SOL    HW122025   4.092   4.607   2.539 -1.5219 -0.3975  0.1599
 3463SOL    HW222026   4.068   4.465   2.554 -1.2898  1.0825 -0.4570
 3464SOL     OW22027   0.182   3.027   2.280 -0.4248 -0.6145 -0.0176
 3464SOL    HW122028   0.102   3.079   2.293  0.2243  0.3487  0.1350
 3464SOL    HW222029   0.242   3.056   2.349  0.2811  1.1567 -1.3671
 3465SOL     OW22030   3.647   1.283  12.674 -0.0528  0.2073 -0.1828
 3465SOL    HW122031   3.609   1.279  12.587 -0.5159 -0.7847  0.0673
 3465SOL    HW222032   3.632   1.376  12.693  0.8283 -0.2714  2.8943
 3466SOL     OW22033   2.387   2.195   3.072 -0.2064 -0.5233  0.1425
 3466SOL    HW122034   2.343   2.276   3.044  0.7730  0.1704  0.5998
 3466SOL    HW222035   2.341   2.132   3.017 -0.4456  1.0566 -1.4823
 3467SOL     OW22036   0.742   3.827   5.183 -0.3512  0.0231  0.1542
 3467SOL    HW122037   0.700   3.858   5.103  0.5980  0.7449 -0.0667
 3467SOL    HW222038   0.815   3.775   5.149 -0.5534  0.4698 -0.9579
 3468SOL     OW22039   4.477   4.078   7.283 -0.3163 -0.4885 -0.1089
 3468SOL    HW122040   4.563   4.049   7.314  0.0509  1.7666  1.0397
 3468SOL    HW222041   4.512   4.139   7.218  0.1150 -0.9901 -0.3515
 3469SOL     OW22042   0.375   4.049  14.385  0.2209 -0.1180 -0.6080
 3469SOL    HW122043   0.322   4.047  14.305 -0.6042  2.1119 -0.1109
 3469SOL    HW222044   0.458   4.020  14.348  0.6632  0.3525  0.0214
 3470SOL     OW22045   3.892   3.840  12.373  0.1878 -0.3213  0.4572
 3470SOL    HW122046   3.870   3.869  12.462 -1.5967  1.0543 -0.4203
 3470SOL    HW222047   3.871   3.918  12.321  1.1493 -0.8600 -0.7293
 3471SOL     OW22048   2.319   0.145   2.988 -0.4032  0.2673 -0.4230
 3471SOL    HW122049   2.329   0.171   2.897  0.6309  0.0876 -0.3598
 3471SOL    HW222050   2.403   0.101   3.000 -0.4832  0.4445  0.7945
 3472SOL     OW22051   0.035   3.385   3.544  0.0337 -0.0474 -0.0588
 3472SOL    HW122052   4.688   3.364   3.506 -0.2721 -0.3831  0.8153
 3472SOL    HW222053   0.010   3.472   3.576  0.1986 -0.4948  1.3095
 3473SOL     OW22054   4.514   4.276   9.473  0.4014  0.2202  1.1066
 3473SOL    HW122055   4.426   4.306   9.495  1.4847  2.6622  2.0591
 3473SOL    HW222056   4.490   4.188   9.444  0.1411  0.7699 -0.3695
 3474SOL     OW22057   2.289   0.749   7.992 -0.1888 -0.6854  0.3308
 3474SOL    HW122058   2.254   0.827   7.949  3.5487  1.5097  1.2564
 3474SOL    HW222059   2.227   0.742   8.064 -0.8434  0.2418 -0.1498
 3475SOL     OW22060   0.250   0.796   2.565 -0.0290  0.1250 -0.0808
 3475SOL    HW122061   0.311   0.816   2.636  1.5732  0.4962 -1.5513
 3475SOL    HW222062   0.251   0.700   2.567 -1.3453  0.1332  0.3733
 3476SOL     OW22063   3.488   1.666   5.551 -0.7805  0.4265  0.5728
 3476SOL    HW122064   3.576   1.636   5.576 -1.0448  0.2630  1.3060
 3476SOL    HW222065   3.448   1.686   5.635  1.9646 -1.0343  2.2346
 3477SOL     OW22066   4.507   1.603   3.960 -0.3897 -0.2465  0.3330
 3477SOL    HW122067   4.418   1.609   3.996 -0.3504 -2.4370  0.8120
 3477SOL    HW222068   4.543   1.547   4.028 -0.1111 -2.8003 -1.9048
 3478SOL     OW22069   4.544   0.406   4.202 -0.8630 -0.3000 -0.2504
 3478SOL    HW122070   4.449   0.405   4.210 -1.0284  3.0498 -2.1082
 3478SOL    HW222071   4.548   0.497   4.173  1.3159 -0.1176  0.6004
 3479SOL     OW22072   3.493   1.902   2.339  0.8217 -0.3287  0.2741
 3479SOL    HW122073   3.450   1.943   2.264  1.0091 -1.2928 -0.3553
 3479SOL    HW222074   3.585   1.927   2.329 -0.0271  3.0910  0.7728
 3480SOL     OW22075   1.248   4.237   7.172  0.4569 -0.7315 -0.2319
 3480SOL    HW122076   1.260   4.297   7.099  3.5500  1.1203  1.7879
 3480SOL    HW222077   1.183   4.175   7.136 -0.7824  0.1088  0.5697
 3481SOL     OW22078   4.505   1.666  10.422  0.2686 -0.3393 -0.5962
 3481SOL    HW122079   4.498   1.588  10.367 -3.2814  0.6412 -1.4852
 3481SOL    HW222080   4.451   1.640  10.496 -0.6487  2.3359 -0.3376
 3482SOL     OW22081   0.785   2.085   8.691  0.2710 -0.4790  0.4559
 3482SOL    HW122082   0.797   2.092   8.785 -0.1002  1.1025  0.3892
 3482SOL    HW222083   0.757   1.994   8.688  0.1472 -0.4773  1.7161
 3483SOL     OW22084   2.218   0.916   4.269  0.3939  0.6459  0.4232
 3483SOL    HW122085   2.224   1.008   4.297  1.7994  0.4225  0.8364
 3483SOL    HW222086   2.149   0.887   4.329  0.4271 -0.7702 -0.2451
 3484SOL     OW22087   0.064   3.866   5.381 -0.3827 -0.4869 -0.1970
 3484SOL    HW122088   0.030   3.784   5.417  3.1410 -1.3918  1.0789
 3484SOL    HW222089   0.101   3.896   5.465 -0.3007  0.0005 -0.4073
 3485SOL     OW22090   1.951   2.519  15.922  0.1423  0.0584  0.4674
 3485SOL    HW122091   1.948   2.590  15.857 -1.0484  0.6981  1.2215
 3485SOL    HW222092   1.942   2.565  16.006  0.5369 -0.1420  0.6211
 3486SOL     OW22093   0.780   0.631   7.078  0.1129  0.0619 -0.4667
 3486SOL    HW122094   0.793   0.603   6.987 -1.5020 -4.5340  0.7240
 3486SOL    HW222095   0.793   0.726   7.077 -0.3972  0.1594  2.1355
 3487SOL     OW22096   3.180   3.646   4.073 -0.7134 -0.2063  0.6770
 3487SOL    HW122097   3.207   3.628   4.164  0.2311 -1.4273  0.1576
 3487SOL    HW222098   3.176   3.560   4.032  3.4007 -0.5314  0.9792
 3488SOL     OW22099   3.874   3.263   7.298 -0.2640 -0.5119  0.1187
 3488SOL    HW122100   3.817   3.203   7.345  0.8561 -1.1630  0.6495
 3488SOL    HW222101   3.910   3.212   7.226 -0.1622 -3.1847  2.0753
 3489SOL     OW22102   1.177   0.768   9.724 -0.2270 -0.2809 -0.2307
 3489SOL    HW122103   1.124   0.688   9.725 -1.2061  0.3707  0.6223
 3489SOL    HW222104   1.136   0.805   9.646  1.8168 -1.4850 -1.8532
 3490SOL     OW22105   4.474   0.966   8.307  0.5456 -0.0690 -0.1726
 3490SOL    HW122106   4.556   1.014   8.315 -0.0507  1.0057 -0.5548
 3490SOL    HW222107   4.493   0.902   8.238 -1.2526 -1.7776  0.9275
 3491SOL     OW22108   0.050   3.474  10.140  0.2365  0.2932  0.0593
 3491SOL    HW122109   0.143   3.460  10.161  0.5576  1.0594 -0.8509
 3491SOL    HW222110   0.051   3.555  10.089 -1.5418  0.2760  0.0084
 3492SOL     OW22111   0.914   3.418   5.861  0.4346  0.6232 -0.1030
 3492SOL    HW122112   0.972   3.488   5.832  0.3429  1.9187  2.8687
 3492SOL    HW222113   0.834   3.471   5.864  1.9245  3.0493 -3.0439
 3493SOL     OW22114   1.795   1.237   3.794 -0.2113  0.1674 -0.0549
 3493SOL    HW122115   1.816   1.249   3.701  0.3623 -0.3969 -0.0003
 3493SOL    HW222116   1.761   1.326   3.803 -0.4628 -0.0197  0.7858
 3494SOL     OW22117   1.660   4.567   4.358 -0.2239  0.7408 -0.0997
 3494SOL    HW122118   1.699   4.480   4.347  1.3800  1.2062  2.1101
 3494SOL    HW222119   1.590   4.547   4.295  0.2134 -0.9269 -0.0645
 3495SOL     OW22120   4.478   3.722  15.049  0.0960  0.0620 -0.3020
 3495SOL    HW122121   4.463   3.632  15.077 -2.2029  0.2705 -0.8193
 3495SOL    HW222122   4.457   3.709  14.957  1.4231 -0.7377 -0.4806
 3496SOL     OW22123   1.972   0.802  17.745  0.7168 -0.0628 -0.0747
 3496SOL    HW122124   1.963   0.711  17.718 -0.4028 -0.1678  0.6548
 3496SOL    HW222125   2.064   0.824  17.730  0.6271  0.0224 -0.4986
 3497SOL     OW22126   4.360   3.506   1.353 -0.5690 -0.0232  0.3219
 3497SOL    HW122127   4.364   3.594   1.315  1.2253 -0.5424 -0.7034
 3497SOL    HW222128   4.273   3.513   1.391 -0.2131  2.2915  0.7251
 3498SOL     OW22129   1.536   1.432   4.168  0.0948 -0.7817  0.5095
 3498SOL    HW122130   1.510   1.519   4.139 -1.8743 -0.9646  1.7845
 3498SOL    HW222131   1.453   1.385   4.159 -0.4383  0.2784 -0.0347
 3499SOL     OW22132   4.527   0.446   5.143 -0.6751 -0.6460  0.5583
 3499SOL    HW122133   4.515   0.468   5.235 -2.1432 -2.1675  0.7322
 3499SOL    HW222134   4.508   0.530   5.102 -1.0436 -0.2837  1.4617
 3500SOL     OW22135   0.638   1.706   2.722 -0.1504 -0.5059  0.4700
 3500SOL    HW122136   0.729   1.681   2.736 -1.1449 -2.3918  3.6678
 3500SOL    HW222137   0.612   1.701   2.814  2.1661 -0.5714  1.1105
 3501SOL     OW22138   4.511   2.701   8.595  0.3014 -0.0979  0.7061
 3501SOL    HW122139   4.529   2.620   8.548 -1.7118  0.2994 -0.7355
 3501SOL    HW222140   4.599   2.721   8.626  0.4713 -0.7829  0.6668
 3502SOL     OW22141   2.712   1.738  11.854 -0.1912 -0.2888 -0.0124
 3502SOL    HW122142   2.762   1.800  11.800 -0.8772  0.5627  0.3279
 3502SOL    HW222143   2.639   1.795  11.875  0.1095 -0.0680  0.4400
 3503SOL     OW22144   1.264   1.253   0.220 -0.2560 -0.4766  0.6386
 3503SOL    HW122145   1.310   1.267   0.303 -0.5970  1.2334  0.5437
 3503SOL    HW222146   1.223   1.337   0.200 -0.4558 -1.3456 -2.4856
 3504SOL     OW22147   2.808   4.074   8.294 -0.5294  0.6545  0.3463
 3504SOL    HW122148   2.781   4.153   8.342 -1.0969  3.1409 -4.0742
 3504SOL    HW222149   2.770   4.008   8.353  2.9360  1.7492  3.7963
 3505SOL     OW22150   1.794   0.256   9.089 -0.3663 -0.7057  0.3519
 3505SOL    HW122151   1.741   0.211   9.023  0.9256 -0.6960 -0.6849
 3505SOL    HW222152   1.767   0.347   9.073  0.9552 -0.2982  0.4603
 3506SOL     OW22153   4.033   2.547   5.539  0.1461 -0.1419 -0.4899
 3506SOL    HW122154   3.977   2.476   5.570  0.8902  1.1234  3.7336
 3506SOL    HW222155   4.015   2.544   5.445  0.0495 -1.1482 -0.4382
 3507SOL     OW22156   2.430   0.837  17.696 -0.2349 -0.2430  0.1281
 3507SOL    HW122157   2.341   0.811  17.669 -0.0766 -0.3055 -0.3347
 3507SOL    HW222158   2.413   0.930  17.712 -1.9120 -0.3787 -0.8482
 3508SOL     OW22159   0.432   0.481   8.287 -0.3163  0.2036 -0.4429
 3508SOL    HW122160   0.378   0.417   8.241 -0.9459  1.7022 -1.7992
 3508SOL    HW222161   0.367   0.547   8.314  1.8538  2.3324 -0.4450
 3509SOL     OW22162   2.245   1.146   0.237  0.5291 -0.3140 -0.0912
 3509SOL    HW122163   2.169   1.197   0.209  0.3149 -0.3356  0.4533
 3509SOL    HW222164   2.233   1.065   0.188 -1.3267 -0.2768  0.3328
 3510SOL     OW22165   4.116   0.123   4.111 -0.4616 -0.1565  0.0706
 3510SOL    HW122166   4.104   0.138   4.205  2.4410 -0.4010  0.4767
 3510SOL    HW222167   4.139   0.030   4.110 -0.6578 -0.2122  0.6134
 3511SOL     OW22168   4.652   0.384   6.290 -0.8976 -0.0805 -0.3382
 3511SOL    HW122169   4.668   0.316   6.356  0.8577  1.2376  0.6084
 3511SOL    HW222170   4.569   0.351   6.255 -1.3746  0.8534 -0.0954
 3512SOL     OW22171   1.269   2.191   8.066  0.3593  0.0010  0.1581
 3512SOL    HW122172   1.178   2.187   8.095  0.7301  0.5190  1.4112
 3512SOL    HW222173   1.280   2.284   8.044  0.9211 -0.5315 -1.7760
 3513SOL     OW22174   2.953   2.959   5.688 -0.1053  0.2198  0.0318
 3513SOL    HW122175   2.974   2.866   5.689 -2.6823 -0.3260  2.5104
 3513SOL    HW222176   2.969   2.982   5.597  1.2637 -0.1375  0.1710
 3514SOL     OW22177   1.590   3.943  14.836 -0.2234 -0.2180 -0.0182
 3514SOL    HW122178   1.510   3.985  14.804  0.5741  0.4653 -1.1164
 3514SOL    HW222179   1.659   4.006  14.817  0.3998 -0.0057  3.0217
 3515SOL     OW22180   3.677   1.544   2.616  0.0632 -0.1238 -0.3530
 3515SOL    HW122181   3.605   1.517   2.560 -1.6258  3.5850  0.0072
 3515SOL    HW222182   3.751   1.501   2.574 -0.7481 -0.1245 -1.7658
 3516SOL     OW22183   2.576   1.472   6.220 -0.4590  0.0756 -0.0325
 3516SOL    HW122184   2.536   1.414   6.284 -1.1043  3.5150  2.7245
 3516SOL    HW222185   2.669   1.456   6.238 -0.8521 -1.7089  0.3863
 3517SOL     OW22186   1.021   1.451  10.621 -0.3329  0.0644 -0.0810
 3517SOL    HW122187   0.962   1.438  10.547 -3.1462  0.6092  2.0692
 3517SOL    HW222188   1.058   1.538  10.607 -0.7214  0.1565 -0.5139
 3518SOL     OW22189   0.235   0.515   5.600 -0.0891 -0.0000  0.3618
 3518SOL    HW122190   0.211   0.452   5.668 -0.2303 -1.6309 -1.2026
 3518SOL    HW222191   0.287   0.572   5.656  0.2202 -0.1261  0.2046
 3519SOL     OW22192   2.372   0.261   2.764  0.0028  0.9072 -0.1110
 3519SOL    HW122193   2.318   0.201   2.714 -1.5572  2.7392 -0.6196
 3519SOL    HW222194   2.362   0.340   2.710 -1.1614  0.3229 -0.7386
 3520SOL     OW22195   4.408   2.725  10.211  0.6139  0.2939  0.0896
 3520SOL    HW122196   4.433   2.785  10.140 -0.0921  3.6637  2.7066
 3520SOL    HW222197   4.384   2.783  10.283 -1.6768 -0.6900  0.1180
 3521SOL     OW22198   0.039   4.591   7.844 -0.0971 -0.7966  0.9603
 3521SOL    HW122199   0.071   4.580   7.934 -1.5965  0.6032  1.6516
 3521SOL    HW222200   4.723   4.668   7.858  2.1603  0.5510  2.2994
 3522SOL     OW22201   2.574   2.300   6.603 -0.1240  0.8138 -0.1391
 3522SOL    HW122202   2.481   2.278   6.611 -0.3911  1.6806 -0.8805
 3522SOL    HW222203   2.613   2.236   6.662  0.7050 -0.6745 -2.2883
 3523SOL     OW22204   0.878   1.575   9.701 -0.2560  0.0076  0.3895
 3523SOL    HW122205   0.825   1.516   9.647 -0.5336  0.3867  0.2425
 3523SOL    HW222206   0.844   1.568   9.790 -0.4617  2.3142  0.5130
 3524SOL     OW22207   1.339   4.138   5.545  0.2026 -0.3753  0.3744
 3524SOL    HW122208   1.335   4.164   5.454  0.5733  0.3327  0.5573
 3524SOL    HW222209   1.346   4.043   5.534 -0.4154 -0.4736  0.8426
 3525SOL     OW22210   3.692   2.055   3.293 -0.1805  0.1308 -0.3798
 3525SOL    HW122211   3.645   1.993   3.236 -0.2576  0.5012 -0.7242
 3525SOL    HW222212   3.714   2.008   3.373  0.2714 -1.6411 -1.5629
 3526SOL     OW22213   0.629   3.758   2.250 -0.9752 -0.0445  0.0616
 3526SOL    HW122214   0.719   3.784   2.270 -0.8812 -0.3677  0.0538
 3526SOL    HW222215   0.602   3.823   2.185  2.7036  0.3034 -1.1055
 3527SOL     OW22216   4.364   3.486   3.383  0.9125  0.3961  0.0172
 3527SOL    HW122217   4.334   3.431   3.455  0.7380 -0.0591 -0.4097
 3527SOL    HW222218   4.304   3.457   3.314 -1.3429  1.4761  1.5104
 3528SOL     OW22219   0.028   2.585   2.009  0.6013  0.1846  0.2780
 3528SOL    HW122220   4.677   2.550   2.012  0.0773  1.4889 -0.1785
 3528SOL    HW222221   0.061   2.526   1.941 -1.7272 -1.4282  0.5815
 3529SOL     OW22222   2.677   3.870   4.337 -0.0952 -0.5298  0.2957
 3529SOL    HW122223   2.687   3.862   4.242 -1.3748 -0.0981  0.1380
 3529SOL    HW222224   2.678   3.777   4.363  0.4627 -0.4638  0.5188
 3530SOL     OW22225   2.442   2.742   1.506 -0.1909 -0.7473  0.5907
 3530SOL    HW122226   2.369   2.791   1.545  0.1060  1.5433 -1.7272
 3530SOL    HW222227   2.512   2.805   1.487 -0.5529 -0.7458 -0.6855
 3531SOL     OW22228   0.619   4.703  11.734  0.3355  0.5111  0.0126
 3531SOL    HW122229   0.706   4.709  11.695  0.6129  1.7232  0.8048
 3531SOL    HW222230   0.619   4.618  11.777 -0.1710  0.6628  0.3095
 3532SOL     OW22231   0.687   0.032   7.918  0.2040  0.4583 -0.1956
 3532SOL    HW122232   0.603   4.726   7.904  1.9686 -3.0305  0.0773
 3532SOL    HW222233   0.658   0.105   7.973 -2.5987 -1.2984  0.6407
 3533SOL     OW22234   2.478   2.268   1.590 -0.0303  0.5174 -0.1626
 3533SOL    HW122235   2.573   2.269   1.605  0.0728  0.2234 -0.8132
 3533SOL    HW222236   2.460   2.361   1.574 -3.0914 -0.2859 -1.2285
 3534SOL     OW22237   0.860   0.034   1.710 -0.5642 -0.2926 -0.1974
 3534SOL    HW122238   0.888   0.126   1.705  0.3785 -0.3814  3.2014
 3534SOL    HW222239   0.941   4.725   1.690 -0.0555  0.3493  0.3120
 3535SOL     OW22240   3.363   0.803  11.416  0.0486 -0.1085  0.1640
 3535SOL    HW122241   3.452   0.839  11.407 -0.3895  1.0159  0.3872
 3535SOL    HW222242   3.316   0.886  11.418  0.6933  0.2981 -1.1249
 3536SOL     OW22243   4.305   1.258   6.690  0.3313  0.1330  0.2458
 3536SOL    HW122244   4.223   1.293   6.726 -0.1454  0.6241 -1.3413
 3536SOL    HW222245   4.265   1.244   6.604 -1.4948 -2.5739  1.5240
 3537SOL     OW22246   1.835   3.965   4.125  1.2344  0.2714  0.7632
 3537SOL    HW122247   1.901   3.963   4.055  0.4538  0.8378  0.0098
 3537SOL    HW222248   1.845   4.053   4.162 -1.3483  0.5193  0.8732
 3538SOL     OW22249   0.884   3.022   2.879 -0.0207 -0.5333  0.6680
 3538SOL    HW122250   0.902   2.970   2.957  0.2907 -0.6422  0.5212
 3538SOL    HW222251   0.839   3.098   2.916  0.7739  0.7964 -1.0560
 3539SOL     OW22252   3.285   3.277  10.732  0.6943  0.3275  0.2219
 3539SOL    HW122253   3.235   3.344  10.777 -0.9961 -0.1432 -0.9390
 3539SOL    HW222254   3.372   3.278  10.772  0.4483 -0.1025  0.7713
 3540SOL     OW22255   2.054   2.446   2.655 -0.1231 -0.4707 -0.6957
 3540SOL    HW122256   2.100   2.529   2.646  1.4709 -1.1103  1.6531
 3540SOL    HW222257   1.998   2.468   2.730  1.2597 -0.4368  0.3333
 3541SOL     OW22258   4.282   3.498   9.079 -0.1267 -0.1628  0.4392
 3541SOL    HW122259   4.351   3.543   9.127  1.4031  0.1758 -2.0630
 3541SOL    HW222260   4.206   3.539   9.120  0.3447 -0.9062  2.0506
 3542SOL     OW22261   0.224   0.105   6.184 -0.3224 -0.0699  0.4043
 3542SOL    HW122262   0.214   0.010   6.192  0.7341 -0.1854  0.2684
 3542SOL    HW222263   0.315   0.103   6.155 -0.4834 -2.6361  0.0802
 3543SOL     OW22264   3.259   4.148   7.556 -0.1797 -0.0042 -0.3393
 3543SOL    HW122265   3.339   4.116   7.514 -0.2124 -0.8924  0.2582
 3543SOL    HW222266   3.199   4.081   7.522  0.6827 -0.1762 -1.5314
 3544SOL     OW22267   0.211   0.623   8.394 -0.0154 -1.0855 -0.1519
 3544SOL    HW122268   0.228   0.610   8.487 -2.5726 -1.7737  0.2102
 3544SOL    HW222269   0.116   0.615   8.405 -0.5453  3.5347 -1.0804
 3545SOL     OW22270   4.191   0.543  16.800 -0.6243 -0.3006 -0.1860
 3545SOL    HW122271   4.175   0.560  16.893 -1.8291  2.2512 -0.8575
 3545SOL    HW222272   4.112   0.499  16.771 -0.2308  0.5375 -2.4999
 3546SOL     OW22273   0.891   1.891   3.461  0.0610 -0.4980 -0.1186
 3546SOL    HW122274   0.925   1.873   3.373  0.9224 -0.8247  0.2812
 3546SOL    HW222275   0.890   1.986   3.463 -0.8901 -0.4522 -2.0598
 3547SOL     OW22276   2.130   1.580   2.604 -0.4933 -0.1568  0.4277
 3547SOL    HW122277   2.040   1.575   2.636 -0.6244 -0.2194  0.0406
 3547SOL    HW222278   2.114   1.585   2.510 -0.0565 -0.2775  0.3483
 3548SOL     OW22279   0.662   3.741   4.004  0.2636  0.2366 -0.2414
 3548SOL    HW122280   0.680   3.789   4.085 -0.3485  0.3203 -0.1528
 3548SOL    HW222281   0.649   3.650   4.031 -1.4230  0.7331  0.6375
 3549SOL     OW22282   3.917   4.364   6.054  0.0778  0.5110  0.4681
 3549SOL    HW122283   3.998   4.368   6.003  1.5725 -0.3992  2.7608
 3549SOL    HW222284   3.942   4.413   6.133 -0.0526  0.8779  0.2824
 3550SOL     OW22285   3.066   3.149   9.206 -0.2316  0.0597  0.0682
 3550SOL    HW122286   3.029   3.199   9.133 -0.0164  0.4851  0.2518
 3550SOL    HW222287   3.140   3.208   9.219 -0.7954  1.6604 -3.9572
 3551SOL     OW22288   1.950   1.649   2.086  0.4371  0.2623 -0.5440
 3551SOL    HW122289   2.043   1.630   2.071  0.8058  0.2535  1.7253
 3551SOL    HW222290   1.912   1.583   2.028 -1.2027 -0.8626  1.8522
 3552SOL     OW22291   4.562   2.151   2.985 -0.4643 -0.1853  0.3352
 3552SOL    HW122292   4.550   2.064   2.947  0.5485 -0.3811  0.4764
 3552SOL    HW222293   4.578   2.131   3.077 -0.6085 -0.5834  0.2726
 3553SOL     OW22294   3.665   3.157   8.533  0.1394 -0.4555  0.0801
 3553SOL    HW122295   3.682   3.087   8.469 -0.8847  0.4084 -1.1226
 3553SOL    HW222296   3.665   3.243   8.492 -1.6083 -0.0592  0.9175
 3554SOL     OW22297   4.199   4.560   4.172 -0.2554 -0.5866  0.5244
 3554SOL    HW122298   4.289   4.550   4.142 -0.1915 -1.3846  0.9507
 3554SOL    HW222299   4.210   4.578   4.266  0.0703  0.5772  0.2615
 3555SOL     OW22300   4.174   3.445  11.783  0.0110  0.1865  0.8165
 3555SOL    HW122301   4.120   3.415  11.856  1.6482 -0.8177  1.6232
 3555SOL    HW222302   4.186   3.535  11.813 -0.9214  0.2106  1.1132
 3556SOL     OW22303   0.882   0.694   6.337  0.0417 -0.3872 -0.0125
 3556SOL    HW122304   0.816   0.635   6.301 -2.0084  1.7847  0.1887
 3556SOL    HW222305   0.845   0.711   6.424  0.2182 -1.0896  0.2007
 3557SOL     OW22306   4.621   3.878   2.309 -0.1043  0.0212  0.1581
 3557SOL    HW122307   4.527   3.860   2.312 -0.7048  3.1132 -0.1835
 3557SOL    HW222308   4.647   3.851   2.397 -0.0833  1.2004  0.5208
 3558SOL     OW22309   2.356   1.886   5.099 -0.2244  0.5591 -0.3884
 3558SOL    HW122310   2.412   1.956   5.065 -1.1269  1.6577  0.4129
 3558SOL    HW222311   2.428   1.825   5.117 -1.0112  0.4023  2.1534
 3559SOL     OW22312   0.650   1.242   3.885  0.4853  0.0446  0.3254
 3559SOL    HW122313   0.725   1.292   3.854  1.2026 -1.3630 -0.1851
 3559SOL    HW222314   0.575   1.276   3.835 -1.5091 -1.7306  2.0790
 3560SOL     OW22315   3.024   0.004   2.519  0.1537 -0.1426  0.2564
 3560SOL    HW122316   2.980   4.713   2.599  1.5221  1.6609  1.6637
 3560SOL    HW222317   3.071   4.662   2.495 -1.2395 -0.6887 -0.6553
 3561SOL     OW22318   4.574   2.962  12.605 -0.2827  0.1884  0.3648
 3561SOL    HW122319   4.562   3.027  12.674  0.1865 -0.1418  0.7477
 3561SOL    HW222320   4.620   3.014  12.538 -0.2264 -1.1035 -0.5888
 3562SOL     OW22321   4.181   0.183   6.878 -0.1040  0.1517  0.5424
 3562SOL    HW122322   4.127   0.245   6.828 -0.6118 -0.5342  0.2433
 3562SOL    HW222323   4.113   0.122   6.903 -0.6295  0.0184 -1.2015
 3563SOL     OW22324   3.955   2.241   1.713  0.5769  0.5577  0.0494
 3563SOL    HW122325   4.027   2.280   1.764 -1.3481  0.8474  2.5207
 3563SOL    HW222326   3.956   2.288   1.630 -0.5343 -2.0037 -1.3876
 3564SOL     OW22327   4.374   1.218   3.930 -0.3923  0.0252  0.2162
 3564SOL    HW122328   4.396   1.130   3.899 -0.4152 -0.3171  1.1496
 3564SOL    HW222329   4.279   1.220   3.924 -0.4239  0.5372  0.9217
 3565SOL     OW22330   1.888   0.784   4.169  0.0520 -0.0257 -0.1119
 3565SOL    HW122331   1.948   0.814   4.237 -0.2721 -0.4733  0.3702
 3565SOL    HW222332   1.824   0.854   4.178  1.5171  1.1869  0.9971
 3566SOL     OW22333   1.030   0.936   3.769  0.0358 -0.2448  0.2154
 3566SOL    HW122334   1.066   1.024   3.756 -0.3452  0.1573  1.8682
 3566SOL    HW222335   0.949   0.952   3.721  1.8974  1.0008 -2.4616
 3567SOL     OW22336   3.755   0.725   9.215  0.2964 -0.2044  0.7643
 3567SOL    HW122337   3.691   0.682   9.272 -2.0727  1.2463 -0.7830
 3567SOL    HW222338   3.765   0.664   9.142  2.9221  0.2659  0.7331
 3568SOL     OW22339   0.425   3.815   9.544  0.3524 -0.5909 -0.3647
 3568SOL    HW122340   0.389   3.820   9.456 -0.8440 -0.7799  0.1063
 3568SOL    HW222341   0.383   3.733   9.571  0.4550 -0.4185  0.3368
 3569SOL     OW22342   2.334   2.931   2.838 -0.5211  0.4040  0.2667
 3569SOL    HW122343   2.366   2.962   2.922 -0.4392 -1.8288  1.0630
 3569SOL    HW222344   2.334   3.012   2.787  1.6256 -0.0412 -0.4628
 3570SOL     OW22345   3.924   0.191  13.265 -0.4863  0.4552 -0.2424
 3570SOL    HW122346   3.929   0.285  13.284 -0.4551  0.4563 -0.2555
 3570SOL    HW222347   3.855   0.199  13.199 -0.9757  4.4456  0.7404
 3571SOL     OW22348   4.413   1.989   7.226 -0.4878  0.4407  0.2821
 3571SOL    HW122349   4.395   1.967   7.134  0.2398 -2.3192  0.7934
 3571SOL    HW222350   4.479   1.920   7.237 -0.8066 -0.2026 -1.7947
 3572SOL     OW22351   0.297   4.329   6.037  0.6199  0.0886  0.3523
 3572SOL    HW122352   0.304   4.249   5.985 -0.0296 -0.4221  1.0696
 3572SOL    HW222353   0.379   4.333   6.087  0.7098 -1.8226  0.3369
 3573SOL     OW22354   4.156   3.038   7.289 -0.0872 -0.0099 -0.3268
 3573SOL    HW122355   4.137   3.099   7.360  0.7893 -1.0212  0.7685
 3573SOL    HW222356   4.249   3.018   7.299 -0.2605 -0.8315 -0.3433
 3574SOL     OW22357   2.941   1.857   5.797  0.0675 -0.0872  0.4675
 3574SOL    HW122358   2.885   1.788   5.763 -1.2314  0.2879  1.8523
 3574SOL    HW222359   2.979   1.907   5.725 -2.3143  0.0696 -0.6826
 3575SOL     OW22360   0.877   3.258  10.162 -0.3219 -0.3955  0.2734
 3575SOL    HW122361   0.813   3.217  10.104 -1.7730 -0.7163  2.1163
 3575SOL    HW222362   0.818   3.325  10.198  0.2685  1.3958 -2.1109
 3576SOL     OW22363   0.821   0.335   2.617 -0.3378  0.7521  0.0026
 3576SOL    HW122364   0.828   0.276   2.543  1.7853  2.2934 -1.0275
 3576SOL    HW222365   0.877   0.287   2.678  0.4955 -0.5658 -1.8013
 3577SOL     OW22366   1.986   1.761   0.169 -0.0200 -0.6025  0.1144
 3577SOL    HW122367   1.984   1.682   0.224 -1.1207 -0.2259  0.6035
 3577SOL    HW222368   2.062   1.791   0.219 -0.7734  1.1579  0.1743
 3578SOL     OW22369   1.052   1.692   6.375  0.3624 -0.6605  0.2960
 3578SOL    HW122370   1.100   1.759   6.423  1.2234 -1.0126 -0.0723
 3578SOL    HW222371   1.105   1.689   6.295 -0.6490 -0.2849 -0.3922
 3579SOL     OW22372   2.284   1.830  14.425 -0.1148 -0.4958 -0.0921
 3579SOL    HW122373   2.292   1.870  14.511  0.0618 -0.9854  0.1166
 3579SOL    HW222374   2.242   1.745  14.440 -1.6351  0.5063  1.2355
 3580SOL     OW22375   3.521   1.191   4.793 -0.1390  0.3881 -0.0281
 3580SOL    HW122376   3.551   1.129   4.727  0.3135  1.2431 -0.6321
 3580SOL    HW222377   3.543   1.140   4.871 -1.2889  0.1909  0.1688
 3581SOL     OW22378   3.896   3.359   4.593 -0.1989  0.0559 -0.1774
 3581SOL    HW122379   3.828   3.424   4.606  0.6553  0.8865  0.1794
 3581SOL    HW222380   3.912   3.349   4.499 -0.8838 -2.5109 -0.0347
 3582SOL     OW22381   0.181   3.367   8.144 -0.6781 -0.0386  0.0573
 3582SOL    HW122382   0.220   3.412   8.068 -2.0681 -0.6806 -1.0222
 3582SOL    HW222383   0.147   3.290   8.100  0.7867  0.4252 -1.8883
 3583SOL     OW22384   1.882   4.018  15.989 -0.7706 -0.2619 -0.1253
 3583SOL    HW122385   1.882   4.089  16.054 -0.4804 -0.6502  0.3058
 3583SOL    HW222386   1.923   4.068  15.918  0.1792 -0.3246  0.3690
 3584SOL     OW22387   2.720   2.459   2.004  0.2877  0.0714 -0.0392
 3584SOL    HW122388   2.651   2.396   2.024  0.9613 -0.3616  0.9168
 3584SOL    HW222389   2.680   2.539   2.037 -0.0208 -0.0672 -0.0779
 3585SOL     OW22390   1.171   2.173   6.730  0.4452  0.1070 -0.4941
 3585SOL    HW122391   1.257   2.191   6.693  1.2380 -0.6935  0.9599
 3585SOL    HW222392   1.168   2.207   6.819  0.0728  0.4178 -0.6249
 3586SOL     OW22393   2.696   0.479   7.845 -0.4810 -0.0562  0.0404
 3586SOL    HW122394   2.680   0.518   7.931  0.1788 -2.2710  1.1769
 3586SOL    HW222395   2.694   0.558   7.791  2.1690  0.7942  1.2145
 3587SOL     OW22396   3.626   0.567   8.106 -0.4407  0.4005 -0.8147
 3587SOL    HW122397   3.593   0.657   8.104  0.1509  0.6682  0.8999
 3587SOL    HW222398   3.664   0.567   8.019 -1.5571  2.1526 -1.2941
 3588SOL     OW22399   4.384   2.388   2.677  0.4727 -0.1421  0.6941
 3588SOL    HW122400   4.342   2.456   2.624 -1.6185 -2.4724 -0.6366
 3588SOL    HW222401   4.452   2.354   2.619 -1.0926  2.0292 -2.4611
 3589SOL     OW22402   2.975   4.441   5.044  0.4139  0.8712 -0.1902
 3589SOL    HW122403   3.005   4.520   4.998 -0.2327  1.9214  1.1952
 3589SOL    HW222404   2.882   4.456   5.060  0.3267  0.9993 -0.8083
 3590SOL     OW22405   4.200   0.777   2.142 -0.4009  0.0589  0.0324
 3590SOL    HW122406   4.127   0.736   2.187  0.5312 -1.8273 -0.1822
 3590SOL    HW222407   4.281   0.732   2.165  0.3211  1.2767 -0.1153
 3591SOL     OW22408   2.255   4.447   5.198  0.0939  0.0348 -0.1004
 3591SOL    HW122409   2.169   4.433   5.159 -0.6050 -1.1512  1.8818
 3591SOL    HW222410   2.304   4.371   5.166  1.6888  0.4985  1.2623
 3592SOL     OW22411   2.328   2.749   4.076 -0.6319 -0.6913 -0.6057
 3592SOL    HW122412   2.288   2.678   4.126  1.7272 -0.5009  1.5686
 3592SOL    HW222413   2.296   2.825   4.126  0.0593 -0.3228 -0.7295
 3593SOL     OW22414   2.259   0.442   7.188 -0.6223 -0.5648  0.2894
 3593SOL    HW122415   2.273   0.361   7.139 -1.6739 -1.8953  2.1835
 3593SOL    HW222416   2.336   0.453   7.244 -0.7441  1.5510  0.0380
 3594SOL     OW22417   1.144   3.013   1.300  0.1503 -0.0855  0.2933
 3594SOL    HW122418   1.192   2.931   1.314  1.6483  0.5489 -1.1093
 3594SOL    HW222419   1.155   3.028   1.206  0.7323  1.9565  0.6874
 3595SOL     OW22420   4.598   0.781  12.129 -0.6346  0.1757  0.3731
 3595SOL    HW122421   4.680   0.755  12.088 -0.1490  0.0687  1.4239
 3595SOL    HW222422   4.538   0.771  12.056  1.2003  1.7233 -1.3438
 3596SOL     OW22423   1.780   2.298   8.838 -0.1138 -0.0230 -0.0933
 3596SOL    HW122424   1.707   2.251   8.876  0.2477 -1.8092 -1.6102
 3596SOL    HW222425   1.820   2.329   8.919 -0.1422  1.0632 -0.4872
 3597SOL     OW22426   0.751   1.457   6.849  0.1489 -0.4161 -1.0560
 3597SOL    HW122427   0.801   1.483   6.771  1.6326  0.3460  0.1540
 3597SOL    HW222428   0.744   1.549   6.877  0.1022 -0.5872 -0.5111
 3598SOL     OW22429   2.561   4.201   9.497 -0.0587 -0.0899  0.2318
 3598SOL    HW122430   2.613   4.135   9.452  0.4993 -1.4903  2.9087
 3598SOL    HW222431   2.629   4.256   9.536  1.9123 -0.9578 -1.9959
 3599SOL     OW22432   1.130   1.247   1.884  0.3674 -0.3362 -0.4520
 3599SOL    HW122433   1.160   1.242   1.793  3.4840 -0.0120  0.5281
 3599SOL    HW222434   1.210   1.231   1.935  0.7103  0.9958 -0.5574
 3600SOL     OW22435   3.285   2.536   3.631  0.5415  0.1891 -0.2861
 3600SOL    HW122436   3.361   2.493   3.671  0.4204 -0.3903 -0.6780
 3600SOL    HW222437   3.221   2.473   3.662  0.1868  0.0263 -1.3303
 3601SOL     OW22438   0.590   3.524  13.916  0.1012 -0.8943 -0.2867
 3601SOL    HW122439   0.619   3.516  14.007 -1.2498  0.9304  0.3024
 3601SOL    HW222440   0.536   3.600  13.936 -2.3506 -2.0040 -2.7835
 3602SOL     OW22441   2.578   4.237   8.600  0.4079  0.7559 -0.6723
 3602SOL    HW122442   2.495   4.200   8.572  0.5465  1.0178 -1.4242
 3602SOL    HW222443   2.553   4.329   8.590 -1.8144  0.1044 -0.9329
 3603SOL     OW22444   1.680   4.319   6.522  0.0548  0.3542 -0.2541
 3603SOL    HW122445   1.604   4.342   6.469 -1.1039 -2.1719  0.3104
 3603SOL    HW222446   1.657   4.363   6.604  0.6700  1.6730 -0.7853
 3604SOL     OW22447   4.029   4.442   2.850  0.1753 -0.0540  0.0573
 3604SOL    HW122448   4.051   4.477   2.764  0.2824  1.1860  0.5908
 3604SOL    HW222449   3.958   4.505   2.861  2.3390  3.1772 -4.1259
 3605SOL     OW22450   4.164   1.019   0.358  0.2681  0.3192  0.5421
 3605SOL    HW122451   4.203   1.106   0.344  1.1098 -0.0686  0.4551
 3605SOL    HW222452   4.145   1.020   0.451  0.5009  0.1034  0.5923
 3606SOL     OW22453   4.653   3.865   7.638  0.2627  0.9893  0.2165
 3606SOL    HW122454   4.632   3.782   7.681  0.0909  2.0969  2.2525
 3606SOL    HW222455   4.663   3.930   7.708  1.0374 -0.3930  1.3690
 3607SOL     OW22456   3.336   3.840   3.977  0.3147  0.0348 -0.6714
 3607SOL    HW122457   3.273   3.777   4.012  0.7563 -1.0524 -1.8020
 3607SOL    HW222458   3.418   3.828   4.025  1.4469  1.9196 -2.1498
 3608SOL     OW22459   2.622   1.819   0.286 -0.4084 -0.1363  0.5350
 3608SOL    HW122460   2.643   1.783   0.200 -0.2140  2.4581 -0.5046
 3608SOL    HW222461   2.536   1.861   0.282  0.2744  1.0940 -0.9324
 3609SOL     OW22462   4.249   0.035   2.717  0.4862  0.0252  0.0871
 3609SOL    HW122463   4.220   4.682   2.710 -1.1861  0.4933  0.9074
 3609SOL    HW222464   4.324   0.006   2.768  1.9837  1.9458 -1.0540
 3610SOL     OW22465   0.532   1.629   5.001 -0.0480 -0.4969 -0.4035
 3610SOL    HW122466   0.480   1.557   5.036 -1.1091  1.5515  2.2454
 3610SOL    HW222467   0.461   1.674   4.954  0.6837 -0.8531 -1.8460
 3611SOL     OW22468   3.871   1.236  16.930 -0.2985 -0.1144 -0.0909
 3611SOL    HW122469   3.908   1.250  16.843 -0.6852 -0.0806 -0.2522
 3611SOL    HW222470   3.875   1.315  16.985 -0.7152 -0.4505  0.4241
 3612SOL     OW22471   2.028   0.321   8.484  0.0436 -0.2016 -0.2789
 3612SOL    HW122472   2.053   0.360   8.400  0.3982 -1.2196 -0.6473
 3612SOL    HW222473   1.935   0.297   8.480 -0.1702  0.1869  2.5695
 3613SOL     OW22474   0.150   4.624   5.131 -0.3618 -0.0634  0.5235
 3613SOL    HW122475   0.088   4.671   5.075  2.1249  0.4808 -1.7336
 3613SOL    HW222476   0.217   4.614   5.064  0.1135  2.0331  0.6972
 3614SOL     OW22477   1.057   4.366   1.011  0.1549 -0.4638 -0.1570
 3614SOL    HW122478   1.071   4.279   1.048 -0.4862 -0.3690  0.3054
 3614SOL    HW222479   1.115   4.426   1.058  2.7452 -2.0240 -1.3709
 3615SOL     OW22480   0.854   0.653  10.520  0.5471 -0.0733  0.0094
 3615SOL    HW122481   0.877   0.560  10.520 -1.0167 -0.4536 -0.7073
 3615SOL    HW222482   0.778   0.650  10.579  0.5627  1.4724  0.0996
 3616SOL     OW22483   4.688   3.989   6.224  0.3803 -0.2714  0.0453
 3616SOL    HW122484   4.629   4.065   6.217  0.1679 -0.4996 -0.7172
 3616SOL    HW222485   4.737   4.025   6.297 -4.0330  0.6126  2.6023
 3617SOL     OW22486   0.596   0.097   7.299  0.0382 -0.0465  0.3757
 3617SOL    HW122487   0.661   0.070   7.364 -0.0332  0.5855  0.7113
 3617SOL    HW222488   0.652   0.128   7.228 -1.8617  2.4758 -0.0141
 3618SOL     OW22489   3.051   4.585   7.889 -0.3790 -0.3730 -0.4131
 3618SOL    HW122490   3.017   4.631   7.813  2.7542  1.7064 -0.5181
 3618SOL    HW222491   3.003   4.501   7.891 -2.3412  0.7296 -1.1762
 3619SOL     OW22492   0.082   2.766  14.249 -0.6554 -0.5584  0.1432
 3619SOL    HW122493   0.042   2.679  14.253 -0.4825 -0.6419  0.0476
 3619SOL    HW222494   0.143   2.762  14.322 -0.7879  1.2780  0.3571
 3620SOL     OW22495   1.480   0.538   4.657  0.1046 -0.2061  0.1198
 3620SOL    HW122496   1.554   0.529   4.716  0.6261  0.1553 -0.4904
 3620SOL    HW222497   1.501   0.507   4.569 -1.7016 -1.8550  0.2486
 3621SOL     OW22498   0.549   0.795   7.163 -0.5258  0.2666 -0.1434
 3621SOL    HW122499   0.474   0.759   7.210 -0.0185  0.3995  0.7614
 3621SOL    HW222500   0.611   0.722   7.171 -2.0638 -0.9403  0.7831
 3622SOL     OW22501   0.356   1.403   2.851  0.3847 -0.0211  0.2053
 3622SOL    HW122502   0.326   1.356   2.929 -1.0375  1.8640  0.7927
 3622SOL    HW222503   0.451   1.394   2.856  0.4671  1.5431  1.4724
 3623SOL     OW22504   1.681   4.435   3.408 -0.2552 -0.3065 -0.0569
 3623SOL    HW122505   1.627   4.435   3.487 -1.3074  0.4585 -0.7789
 3623SOL    HW222506   1.670   4.527   3.381 -1.1364 -0.6860 -0.9841
 3624SOL     OW22507   2.667   4.712   7.889  0.3558  0.2341  0.0109
 3624SOL    HW122508   2.646   4.674   7.974  2.2959  0.1861  0.4745
 3624SOL    HW222509   2.677   0.066   7.911 -2.4801  0.7137 -0.6671
 3625SOL     OW22510   3.589   3.685   6.546  0.1595  0.3609 -0.0167
 3625SOL    HW122511   3.572   3.777   6.524 -1.3338 -0.1253 -0.8899
 3625SOL    HW222512   3.537   3.643   6.477  1.2146  0.7121 -1.0359
 3626SOL     OW22513   4.293   0.308   8.507  0.5969 -0.5727  0.2464
 3626SOL    HW122514   4.266   0.294   8.597 -0.4371 -0.7730 -0.0972
 3626SOL    HW222515   4.205   0.294   8.473  0.2481 -0.0447  0.9400
 3627SOL     OW22516   0.975   0.423   6.241 -0.1061 -0.5815  0.3157
 3627SOL    HW122517   0.943   0.333   6.241  0.4670 -0.7921 -2.0154
 3627SOL    HW222518   1.026   0.436   6.321  2.0712  2.7309 -1.5721
 3628SOL     OW22519   2.358   0.336   8.607 -0.1134 -0.3417  0.2524
 3628SOL    HW122520   2.375   0.341   8.701 -0.7013  0.6691  0.3049
 3628SOL    HW222521   2.305   0.415   8.608  0.1552 -0.1482 -0.7537
 3629SOL     OW22522   2.804   3.285  12.534  0.4106 -0.4801  0.6101
 3629SOL    HW122523   2.864   3.316  12.601  0.5773 -0.7446  0.5814
 3629SOL    HW222524   2.867   3.267  12.464 -0.5976  0.8460 -0.6431
 3630SOL     OW22525   1.588   3.819   5.068 -0.3578  0.0515 -0.1390
 3630SOL    HW122526   1.583   3.724   5.073  0.3711 -0.0831 -1.8710
 3630SOL    HW222527   1.514   3.845   5.013  0.0446  1.2009 -0.1319
 3631SOL     OW22528   0.887   0.864   3.378  0.0022 -0.1519 -0.0455
 3631SOL    HW122529   0.868   0.896   3.467 -0.3516 -0.0156 -0.1704
 3631SOL    HW222530   0.814   0.803   3.365  0.8646 -1.2600  0.2819
 3632SOL     OW22531   3.585   3.082   6.512 -0.2824 -0.2987 -0.0153
 3632SOL    HW122532   3.549   2.993   6.505 -0.8137 -0.0993  0.1844
 3632SOL    HW222533   3.566   3.120   6.598 -0.6565  2.0915 -1.1817
 3633SOL     OW22534   0.828   0.535   2.260  0.1788 -0.3010 -0.6121
 3633SOL    HW122535   0.837   0.466   2.195  1.7583  0.2952 -1.0260
 3633SOL    HW222536   0.885   0.503   2.330  0.0130  0.3692 -0.1715
 3634SOL     OW22537   1.026   1.861  16.281 -0.4039  0.2051 -0.3754
 3634SOL    HW122538   0.931   1.870  16.288 -0.2923  1.0108  0.0463
 3634SOL    HW222539   1.036   1.871  16.186  1.2577 -0.1753 -0.2483
 3635SOL     OW22540   4.429   3.541   6.744  0.0357  0.4588 -0.5665
 3635SOL    HW122541   4.338   3.516   6.732  0.2148 -0.5844  0.2502
 3635SOL    HW222542   4.428   3.606   6.674 -0.3242  1.9144  0.7784
 3636SOL     OW22543   4.405   4.394  10.362 -0.6911  0.3975  0.2522
 3636SOL    HW122544   4.412   4.393  10.457  2.1242  1.8840  0.0582
 3636SOL    HW222545   4.404   4.300  10.346  0.8575  0.7749 -2.0113
 3637SOL     OW22546   1.802   3.868   2.147 -0.3403  0.0564 -0.4911
 3637SOL    HW122547   1.833   3.946   2.191 -0.7506 -0.1006  0.0707
 3637SOL    HW222548   1.882   3.856   2.096 -1.2971  0.4043 -2.0947
 3638SOL     OW22549   4.374   1.068   5.226 -0.4025 -0.0216  0.1647
 3638SOL    HW122550   4.291   1.043   5.185 -0.5809 -0.3809  0.7517
 3638SOL    HW222551   4.416   1.105   5.148  1.8432 -0.5155  1.1404
 3639SOL     OW22552   4.554   2.856  13.223  0.5821  0.1469 -0.3015
 3639SOL    HW122553   4.500   2.824  13.296 -1.9607 -0.2812 -2.3490
 3639SOL    HW222554   4.493   2.870  13.150 -0.2949 -0.8359  0.2332
 3640SOL     OW22555   3.777   2.340  12.429  0.8479  0.2610  0.4134
 3640SOL    HW122556   3.724   2.267  12.398  1.5299 -0.0375 -0.0541
 3640SOL    HW222557   3.732   2.366  12.509  1.3097  2.4651 -0.0541
 3641SOL     OW22558   2.320   2.909   2.498  0.6024  0.1483 -0.4878
 3641SOL    HW122559   2.368   2.847   2.554 -0.6111 -0.4968 -0.1509
 3641SOL    HW222560   2.243   2.938   2.548  1.3150 -0.7428  1.1217
 3642SOL     OW22561   4.551   2.630   5.423 -0.6487 -0.2564 -0.1384
 3642SOL    HW122562   4.469   2.604   5.466 -0.0360 -3.1823 -0.7696
 3642SOL    HW222563   4.621   2.618   5.487 -2.2490 -0.4025  1.5896
 3643SOL     OW22564   1.669   3.043   2.664 -0.2637 -0.4478  0.0298
 3643SOL    HW122565   1.739   3.102   2.692  0.7712 -0.7778 -1.9238
 3643SOL    HW222566   1.701   3.003   2.584  0.3816  2.8759 -1.3602
 3644SOL     OW22567   3.315   3.741   5.839  0.1188  0.2653  0.1215
 3644SOL    HW122568   3.310   3.651   5.805 -2.8550  0.2082  0.7179
 3644SOL    HW222569   3.225   3.758   5.866  0.4995  1.8713  0.3460
 3645SOL     OW22570   1.722   3.468   3.796  0.0502  0.3765 -0.0297
 3645SOL    HW122571   1.812   3.492   3.815 -0.3525  1.6816  0.2325
 3645SOL    HW222572   1.687   3.482   3.884  1.7542  0.1504  0.6822
 3646SOL     OW22573   2.339   0.134  13.221  0.4024 -0.1004 -0.8964
 3646SOL    HW122574   2.417   0.143  13.166 -0.5078 -3.0313 -2.7050
 3646SOL    HW222575   2.354   0.053  13.270 -1.5770 -0.1178 -0.3545
 3647SOL     OW22576   3.110   3.607   2.128 -0.3860 -0.3045 -0.4141
 3647SOL    HW122577   3.034   3.552   2.105 -2.5021  1.9201  1.2679
 3647SOL    HW222578   3.172   3.544   2.166 -0.5933 -1.2589 -1.6452
 3648SOL     OW22579   3.520   3.420  10.036 -0.0708  0.6883  0.1741
 3648SOL    HW122580   3.435   3.384  10.011 -0.2844  2.5734 -1.8394
 3648SOL    HW222581   3.489   3.455  10.120  0.6665  0.3558  0.5819
 3649SOL     OW22582   0.353   3.052   0.370 -0.0399 -0.3269 -0.9385
 3649SOL    HW122583   0.361   2.977   0.429 -0.2197 -0.4220 -1.0362
 3649SOL    HW222584   0.446   3.074   0.363  0.0764 -0.9856 -1.4341
 3650SOL     OW22585   2.780   0.666   7.302 -0.5564  0.7838 -0.0735
 3650SOL    HW122586   2.865   0.626   7.285 -0.7534  0.7474 -0.9403
 3650SOL    HW222587   2.767   0.707   7.217 -0.4145 -1.1404 -0.9967
 3651SOL     OW22588   4.252   3.060   4.631  0.2105 -0.0573 -0.4073
 3651SOL    HW122589   4.262   2.965   4.622 -3.0129 -0.2599 -1.8340
 3651SOL    HW222590   4.258   3.092   4.541 -3.5540  0.7498 -0.3738
 3652SOL     OW22591   3.130   1.320  17.567 -0.0693 -0.3777 -0.0808
 3652SOL    HW122592   3.057   1.276  17.610 -0.9855 -1.3005 -2.5556
 3652SOL    HW222593   3.111   1.293  17.477 -0.3307 -1.1468  0.2086
 3653SOL     OW22594   4.432   3.322   9.298  0.1490  0.2328  0.5162
 3653SOL    HW122595   4.396   3.350   9.214  0.1038  0.5165  0.6303
 3653SOL    HW222596   4.517   3.366   9.301  1.3142 -1.9918  0.1772
 3654SOL     OW22597   3.252   4.240   0.317 -0.6689  0.2963  0.6624
 3654SOL    HW122598   3.221   4.282   0.236 -1.3134 -0.0256  0.7402
 3654SOL    HW222599   3.192   4.261   0.389 -1.4494  0.6229 -0.0732
 3655SOL     OW22600   1.390   4.305   1.934 -0.8634  0.1432  0.4688
 3655SOL    HW122601   1.428   4.255   2.006  0.6657 -0.9809 -1.1431
 3655SOL    HW222602   1.470   4.312   1.882 -0.2718  1.7425  1.5997
 3656SOL     OW22603   1.584   2.311  17.568  0.3574  0.1368 -0.6402
 3656SOL    HW122604   1.642   2.254  17.617 -2.9642 -0.4881  2.5946
 3656SOL    HW222605   1.503   2.294  17.617  0.5018 -1.8719 -1.1016
 3657SOL     OW22606   2.214   2.411  14.967 -0.8198  0.3246 -0.2840
 3657SOL    HW122607   2.237   2.501  14.989  0.8398 -0.1342 -0.1691
 3657SOL    HW222608   2.188   2.383  15.054 -1.1513  0.8074 -0.2275
 3658SOL     OW22609   2.409   4.489   6.808  0.4463 -0.4374  0.1162
 3658SOL    HW122610   2.354   4.505   6.885  1.5910  1.2881  0.5707
 3658SOL    HW222611   2.438   4.578   6.789  0.0144 -0.1403  0.8774
 3659SOL     OW22612   1.100   0.884   1.871 -0.2315  0.5063  0.4502
 3659SOL    HW122613   1.087   0.822   1.943 -0.4471  1.9603  1.6558
 3659SOL    HW222614   1.194   0.903   1.876  0.2205 -2.0957  2.3415
 3660SOL     OW22615   2.041   2.231   5.474  0.2972 -0.1347  0.0213
 3660SOL    HW122616   1.949   2.227   5.500 -0.4323  1.0885 -2.4018
 3660SOL    HW222617   2.029   2.225   5.379  0.7064 -1.0418  0.0272
 3661SOL     OW22618   2.508   0.887   7.147 -0.2527 -0.0220 -0.1140
 3661SOL    HW122619   2.448   0.839   7.203  0.6268 -0.1412  0.7231
 3661SOL    HW222620   2.524   0.965   7.200 -0.8137 -1.3563  1.9988
 3662SOL     OW22621   3.186   3.558   4.602 -0.3832  0.2427  0.0735
 3662SOL    HW122622   3.194   3.530   4.693  0.2111 -1.0007 -0.3638
 3662SOL    HW222623   3.103   3.512   4.584 -2.1907  4.2156 -1.8478
 3663SOL     OW22624   2.155   3.613   7.731 -0.1129  0.1636  0.1803
 3663SOL    HW122625   2.211   3.662   7.672 -0.4583 -0.8239 -0.9712
 3663SOL    HW222626   2.130   3.545   7.668  0.3068 -0.0583  0.2544
 3664SOL     OW22627   3.339   4.570   6.953  0.1592 -0.0110 -0.6156
 3664SOL    HW122628   3.403   4.543   7.019 -1.8855 -0.9550  0.9524
 3664SOL    HW222629   3.394   4.560   6.874  0.9074 -0.8708  0.0132
 3665SOL     OW22630   2.742   0.441   9.656 -0.3964  0.0206  0.1696
 3665SOL    HW122631   2.752   0.536   9.645  2.5508 -0.3463 -0.2725
 3665SOL    HW222632   2.817   0.416   9.709 -1.2030 -0.7915  0.9120
 3666SOL     OW22633   1.205   1.769   8.615 -0.5559 -0.5020  0.9998
 3666SOL    HW122634   1.275   1.722   8.661  0.1281 -0.2299  0.2145
 3666SOL    HW222635   1.243   1.854   8.596  0.0695 -0.8423  0.7371
 3667SOL     OW22636   3.741   2.446   0.435  0.2947 -0.1355 -0.3058
 3667SOL    HW122637   3.735   2.351   0.426 -2.2798 -0.0677  0.5325
 3667SOL    HW222638   3.657   2.464   0.478  1.6825  0.5923  2.1096
 3668SOL     OW22639   2.012   3.369   4.675  0.0490 -0.5299 -0.6006
 3668SOL    HW122640   1.948   3.351   4.744  1.0689  1.4151  0.8514
 3668SOL    HW222641   2.023   3.464   4.679  2.5053 -0.7994 -1.4048
 3669SOL     OW22642   0.080   2.713   6.955  0.0687  0.1801  0.3933
 3669SOL    HW122643   0.021   2.662   7.011  1.4560 -2.8945 -0.8888
 3669SOL    HW222644   0.015   2.779   6.933  1.2612  1.0536 -0.5272
 3670SOL     OW22645   1.550   0.741   9.397 -0.4188  0.0660 -0.0913
 3670SOL    HW122646   1.611   0.670   9.378 -0.3344 -0.3959  1.9240
 3670SOL    HW222647   1.491   0.719   9.325  0.9076  2.0781 -1.8210
 3671SOL     OW22648   1.082   2.264  14.272  0.2786  0.1479 -0.5001
 3671SOL    HW122649   0.991   2.234  14.270 -0.9402  3.7684  1.2645
 3671SOL    HW222650   1.089   2.300  14.361  1.0895 -2.1989  0.4044
 3672SOL     OW22651   0.107   4.282   5.363  0.3849 -0.5807  0.1390
 3672SOL    HW122652   0.098   4.373   5.392 -1.7025 -0.8308  0.3212
 3672SOL    HW222653   0.075   4.241   5.443 -1.5281  0.0103 -0.3096
 3673SOL     OW22654   0.728   3.836   7.752  0.0108 -0.1615  0.1484
 3673SOL    HW122655   0.810   3.885   7.765 -0.3500  0.1484  1.3145
 3673SOL    HW222656   0.746   3.780   7.677  0.5998 -1.6013  1.3666
 3674SOL     OW22657   1.736   0.209   4.662 -0.1518 -0.5428 -0.2150
 3674SOL    HW122658   1.701   0.211   4.751 -1.3611 -1.2122 -0.6879
 3674SOL    HW222659   1.773   0.121   4.661 -0.9216 -0.8970  2.2806
 3675SOL     OW22660   1.475   3.312  13.222  0.0033  0.6676  0.0834
 3675SOL    HW122661   1.512   3.387  13.267 -0.2098 -0.1457  1.6132
 3675SOL    HW222662   1.433   3.283  13.303  2.0260 -0.6480  0.6627
 3676SOL     OW22663   1.885   0.141   5.753  0.1916  0.0043  0.6080
 3676SOL    HW122664   1.939   0.122   5.829  1.7649 -0.3607 -0.5919
 3676SOL    HW222665   1.823   0.201   5.794 -0.0898 -0.7102  1.2150
 3677SOL     OW22666   1.938   1.664   9.347 -0.1264 -0.7109 -0.0743
 3677SOL    HW122667   1.948   1.590   9.406  2.8113  0.4736  0.9240
 3677SOL    HW222668   2.031   1.680   9.334  0.0316 -2.3498 -0.8223
 3678SOL     OW22669   3.844   2.083  11.177  0.2880 -0.3870  0.3327
 3678SOL    HW122670   3.922   2.077  11.122  0.3054  1.1729  0.1883
 3678SOL    HW222671   3.796   2.001  11.167 -0.7921  0.1561  1.1333
 3679SOL     OW22672   3.176   3.369   6.131 -0.1490  0.0413 -0.3713
 3679SOL    HW122673   3.084   3.395   6.137  0.0946  0.6523  0.5503
 3679SOL    HW222674   3.205   3.458   6.151 -0.8581 -0.7242  4.1091
 3680SOL     OW22675   0.092   1.956  13.677 -0.4646  0.2218  0.0873
 3680SOL    HW122676   0.029   2.028  13.675 -0.6047  0.0426 -1.6784
 3680SOL    HW222677   0.179   1.992  13.695 -0.5040  0.2295  0.2624
 3681SOL     OW22678   0.925   3.052   7.307 -0.1876 -0.4612  0.3225
 3681SOL    HW122679   0.836   3.017   7.300  0.5344 -2.3331  0.3602
 3681SOL    HW222680   0.975   2.992   7.252 -1.0141 -0.0828 -0.8275
 3682SOL     OW22681   2.687   3.976   3.246  0.7166  0.2843  0.2453
 3682SOL    HW122682   2.757   3.950   3.305  0.1335 -1.1299  0.3202
 3682SOL    HW222683   2.693   3.912   3.175 -0.3276  1.3616 -0.8250
 3683SOL     OW22684   1.210   3.140   7.263 -0.0512  0.3279  0.1145
 3683SOL    HW122685   1.144   3.121   7.330 -2.1881 -0.5295 -2.2638
 3683SOL    HW222686   1.295   3.118   7.301 -0.5283 -1.5357  0.0798
 3684SOL     OW22687   3.491   0.963   5.310 -0.0961 -0.6266  0.0339
 3684SOL    HW122688   3.412   1.016   5.300  0.6184  0.5655  0.7047
 3684SOL    HW222689   3.511   0.945   5.219 -0.6754 -0.8382 -0.0557
 3685SOL     OW22690   0.385   3.130   6.498  0.1436 -0.1026 -0.1092
 3685SOL    HW122691   0.291   3.145   6.497  0.1042 -0.3942 -0.9693
 3685SOL    HW222692   0.398   3.130   6.403  1.6105  0.3053  0.0888
 3686SOL     OW22693   1.483   2.291   5.932  0.8101 -0.0266 -0.1860
 3686SOL    HW122694   1.476   2.368   5.987  1.3079  0.1374 -0.3556
 3686SOL    HW222695   1.517   2.231   5.999  0.0769  0.4638  0.6238
 3687SOL     OW22696   0.609   1.212   0.973  0.2701  0.2256  0.3944
 3687SOL    HW122697   0.514   1.212   0.987  0.2254 -2.1878  0.0965
 3687SOL    HW222698   0.628   1.247   1.060 -0.9277  0.1453  0.6931
 3688SOL     OW22699   2.997   2.839   0.505 -0.3941 -0.1085 -0.2692
 3688SOL    HW122700   2.923   2.899   0.518  0.1135  0.1327  1.4943
 3688SOL    HW222701   2.982   2.813   0.415  2.9195 -0.0872 -0.7967
 3689SOL     OW22702   4.118   0.606  15.011 -0.2058 -0.4407  0.1881
 3689SOL    HW122703   4.211   0.614  14.991 -0.1580  2.6610  1.7105
 3689SOL    HW222704   4.100   0.527  14.959 -3.4659 -1.1643  2.3769
 3690SOL     OW22705   1.496   0.982   3.871 -0.3474  0.7302  0.2339
 3690SOL    HW122706   1.565   0.988   3.937 -1.2602  2.3795  1.0323
 3690SOL    HW222707   1.416   0.964   3.921  0.0342 -0.0306  0.5701
 3691SOL     OW22708   4.332   0.082   5.347  0.0509  0.1412 -0.5354
 3691SOL    HW122709   4.249   0.122   5.321 -1.3528 -2.0220  0.6322
 3691SOL    HW222710   4.310   4.727   5.349 -1.7179  0.5319 -1.6737
 3692SOL     OW22711   4.636   4.214  13.867  0.3072 -0.0681 -0.2892
 3692SOL    HW122712   4.590   4.291  13.833  1.3736 -0.0271 -1.6311
 3692SOL    HW222713   4.589   4.199  13.949  0.4186 -0.5965 -0.3232
 3693SOL     OW22714   1.980   4.095  15.754  0.0639 -0.0083 -0.0322
 3693SOL    HW122715   2.020   4.146  15.684 -0.7379  0.8341  0.1261
 3693SOL    HW222716   1.998   4.007  15.721 -2.1866 -0.5374  0.1976
 3694SOL     OW22717   1.598   2.191   4.572 -0.4785 -0.3482  0.2344
 3694SOL    HW122718   1.578   2.174   4.664  3.8507  1.4400  1.4905
 3694SOL    HW222719   1.689   2.165   4.566 -0.1698  0.3236  1.7820
 3695SOL     OW22720   1.918   2.403   7.637 -0.2678  0.0861 -0.2734
 3695SOL    HW122721   1.899   2.370   7.725 -1.1783  1.7168  0.1381
 3695SOL    HW222722   1.927   2.497   7.654  0.7577 -0.1403  0.4778
 3696SOL     OW22723   2.656   1.567  16.665 -0.3633  0.5918  0.4029
 3696SOL    HW122724   2.717   1.638  16.649  0.4711 -0.3222 -0.4791
 3696SOL    HW222725   2.707   1.522  16.732 -0.7530 -1.7352 -0.8494
 3697SOL     OW22726   3.534   0.375   5.384  0.0513 -0.0505  0.7406
 3697SOL    HW122727   3.490   0.460   5.382 -0.8971 -0.5310  0.8689
 3697SOL    HW222728   3.500   0.345   5.468  0.0428  2.1484  1.5052
 3698SOL     OW22729   0.984   1.093  13.206  0.9566  0.0133 -0.0509
 3698SOL    HW122730   0.968   1.082  13.112  2.0231 -1.0016 -0.1009
 3698SOL    HW222731   0.931   1.017  13.229  1.8039 -0.6726 -0.3948
 3699SOL     OW22732   3.008   3.329   5.899 -0.2402 -0.0002  0.3620
 3699SOL    HW122733   2.961   3.268   5.956  1.7112 -1.9584 -0.1122
 3699SOL    HW222734   2.956   3.408   5.908 -2.0199 -0.9294 -1.6170
 3700SOL     OW22735   3.282   3.064   1.868 -0.2305  0.7701 -0.0546
 3700SOL    HW122736   3.337   2.998   1.825 -1.1137 -0.4712  0.7138
 3700SOL    HW222737   3.250   3.019   1.946  0.6412  1.3382  0.6373
 3701SOL     OW22738   0.125   4.051   5.020 -0.8877 -0.4426  0.0551
 3701SOL    HW122739   0.120   3.974   4.964 -1.8526 -0.9315  0.8339
 3701SOL    HW222740   0.173   4.025   5.098  1.0761 -0.5132 -1.1662
 3702SOL     OW22741   4.579   2.164   1.942  0.0129 -0.7690 -0.6480
 3702SOL    HW122742   4.580   2.180   1.847  1.7428  0.8263 -0.3355
 3702SOL    HW222743   4.590   2.070   1.957  1.6783 -0.0985  2.3258
 3703SOL     OW22744   3.884   3.742  12.661 -0.0359 -0.2119  0.4371
 3703SOL    HW122745   3.966   3.786  12.686  1.1812 -0.9384 -2.2760
 3703SOL    HW222746   3.901   3.655  12.697 -0.5389 -1.0425 -1.3552
 3704SOL     OW22747   0.647   4.190  10.402 -0.6324  0.2522  0.0784
 3704SOL    HW122748   0.604   4.275  10.395 -0.2712  0.2968 -1.6614
 3704SOL    HW222749   0.670   4.189  10.495 -0.0005 -1.2831 -0.0972
 3705SOL     OW22750   0.118   3.495   5.624  0.3650 -0.2137 -0.3804
 3705SOL    HW122751   0.180   3.568   5.619  0.8645 -0.5980  0.1820
 3705SOL    HW222752   0.040   3.549   5.610 -0.1301 -0.9594 -0.4972
 3706SOL     OW22753   0.412   0.939   6.589  0.2508 -0.1680  0.1476
 3706SOL    HW122754   0.449   0.874   6.529 -3.4051 -3.5673  1.5519
 3706SOL    HW222755   0.475   1.009   6.576  1.2841 -1.5001 -2.0066
 3707SOL     OW22756   2.792   0.265  14.511  0.1037 -0.5472 -0.0956
 3707SOL    HW122757   2.719   0.211  14.543 -1.4378  0.3745 -2.0220
 3707SOL    HW222758   2.862   0.201  14.510  1.2728  0.7122  2.6868
 3708SOL     OW22759   2.091   2.954   5.743 -0.2397 -0.1703 -0.1605
 3708SOL    HW122760   2.048   3.035   5.714 -0.8979 -0.0293  1.2132
 3708SOL    HW222761   2.039   2.886   5.701  1.0725 -0.2919 -1.5684
 3709SOL     OW22762   1.008   1.522   5.231 -0.3838  0.2636 -0.1104
 3709SOL    HW122763   0.974   1.484   5.312  0.4264  0.0454  0.1257
 3709SOL    HW222764   0.967   1.608   5.224 -2.1723 -0.3788  2.2782
 3710SOL     OW22765   1.724   0.619  10.535  0.2042 -0.3506  0.2252
 3710SOL    HW122766   1.793   0.554  10.526  0.7150 -0.4270  4.5021
 3710SOL    HW222767   1.653   0.569  10.497  0.8429 -1.1832  0.1317
 3711SOL     OW22768   0.802   4.709  11.978 -0.2023 -0.5788 -0.7621
 3711SOL    HW122769   0.743   0.045  11.968 -1.7605 -1.6214  0.5696
 3711SOL    HW222770   0.833   4.708  11.887  1.4452 -1.2896 -0.1951
 3712SOL     OW22771   3.372   3.544   6.434  0.2345  0.0819  0.4748
 3712SOL    HW122772   3.325   3.626   6.440  0.6032  0.4645 -2.1010
 3712SOL    HW222773   3.319   3.492   6.495 -1.1411 -0.7771 -1.4424
 3713SOL     OW22774   1.102   4.512  11.432  0.2815 -0.1208  0.2693
 3713SOL    HW122775   1.035   4.446  11.419  3.6362 -3.1432 -1.6499
 3713SOL    HW222776   1.182   4.463  11.414  1.4213  1.6909  0.3705
 3714SOL     OW22777   3.179   2.197   0.457 -0.2769  0.1291  0.5429
 3714SOL    HW122778   3.146   2.241   0.535 -1.5569 -0.0078  0.0651
 3714SOL    HW222779   3.254   2.146   0.490  0.7473  0.8989 -0.5961
 3715SOL     OW22780   2.713   0.622   6.616  0.3780 -0.1347  0.0674
 3715SOL    HW122781   2.761   0.703   6.632  1.1739 -1.0498  2.3024
 3715SOL    HW222782   2.789   0.565   6.624  0.2956 -0.1689  0.5890
 3716SOL     OW22783   0.819   3.528   7.629 -0.3966 -0.0309  0.0714
 3716SOL    HW122784   0.863   3.601   7.585 -1.0382 -0.5256 -1.3681
 3716SOL    HW222785   0.891   3.470   7.655 -0.2403 -0.3954 -1.1503
 3717SOL     OW22786   1.374   2.549   3.634 -0.6030 -0.3146 -0.0464
 3717SOL    HW122787   1.456   2.506   3.612 -1.7343 -2.0277 -0.8640
 3717SOL    HW222788   1.411   2.597   3.709 -0.5499 -0.0231 -0.2603
 3718SOL     OW22789   4.285   3.179   7.837  0.1658  0.0931 -0.1559
 3718SOL    HW122790   4.346   3.161   7.909 -0.6629  0.4079  0.6285
 3718SOL    HW222791   4.337   3.241   7.786  0.9447  0.2331  0.7970
 3719SOL     OW22792   4.639   4.184   7.099  0.4053 -0.5443 -0.3560
 3719SOL    HW122793   4.618   4.148   7.012 -0.1130  1.7256 -1.1513
 3719SOL    HW222794   4.731   4.160   7.113  0.4890 -0.0844 -0.1263
 3720SOL     OW22795   3.949   1.083   5.251 -0.0170  0.6715  1.2354
 3720SOL    HW122796   3.965   1.130   5.333  0.9964  0.4034  1.1978
 3720SOL    HW222797   3.869   1.124   5.219  0.5901  1.4539  0.7331
 3721SOL     OW22798   2.221   2.193   4.506  0.3713  0.3269  0.5415
 3721SOL    HW122799   2.279   2.119   4.488  1.2644  1.3139 -0.6505
 3721SOL    HW222800   2.194   2.215   4.417 -3.7236  0.4832  1.8343
 3722SOL     OW22801   0.349   3.140  15.634  0.0665 -0.1443  0.4476
 3722SOL    HW122802   0.375   3.098  15.552 -1.1574 -1.6334  0.8251
 3722SOL    HW222803   0.347   3.067  15.696  0.5039 -1.7862 -1.4637
 3723SOL     OW22804   0.196   1.625   1.423  0.1203 -0.1656  0.3369
 3723SOL    HW122805   0.236   1.690   1.482 -0.7854  1.2184 -0.5608
 3723SOL    HW222806   0.157   1.555   1.475  0.7777 -0.1290  0.8691
 3724SOL     OW22807   4.046   0.301   5.956  0.6899  0.1760  0.1216
 3724SOL    HW122808   4.081   0.215   5.932 -1.9152 -1.2014  1.2570
 3724SOL    HW222809   4.125   0.340   5.994  0.1920  0.6361  0.6785
 3725SOL     OW22810   4.468   0.907   4.247  0.3049  0.6257 -0.0161
 3725SOL    HW122811   4.547   0.912   4.301 -0.4399  1.2726  1.0122
 3725SOL    HW222812   4.407   0.956   4.301  0.0204  0.8194 -0.5062
 3726SOL     OW22813   3.607   2.975   9.996  0.2358  0.3254 -0.1403
 3726SOL    HW122814   3.512   2.976  10.009  0.4490 -1.2844  1.5139
 3726SOL    HW222815   3.609   2.966   9.900 -3.0114  0.5150 -0.2347
 3727SOL     OW22816   4.043   1.523  10.906  0.3632 -0.1721  0.5881
 3727SOL    HW122817   3.992   1.504  10.827 -0.5542 -0.6382  1.2892
 3727SOL    HW222818   4.007   1.604  10.942 -2.5659 -0.3763 -1.8761
 3728SOL     OW22819   4.247   4.099   3.364 -0.0067 -0.1252 -0.0681
 3728SOL    HW122820   4.222   4.066   3.450 -0.4681 -1.1446 -0.5885
 3728SOL    HW222821   4.165   4.140   3.338 -0.1952  0.3426  1.2875
 3729SOL     OW22822   3.895   1.003   9.401 -0.0381 -0.0246  0.6160
 3729SOL    HW122823   3.949   0.924   9.395 -1.6471 -1.1709  1.2473
 3729SOL    HW222824   3.898   1.013   9.496 -2.9255  0.8083  0.6402
 3730SOL     OW22825   1.376   0.585   6.964  0.1750  0.5410  0.1267
 3730SOL    HW122826   1.417   0.661   7.007  3.5393 -1.6971  0.8627
 3730SOL    HW222827   1.451   0.531   6.938 -1.1352 -1.3941  0.4180
 3731SOL     OW22828   1.778   1.311   4.135  0.6037  0.7162 -0.1584
 3731SOL    HW122829   1.697   1.360   4.124 -0.6534 -0.8783  1.9541
 3731SOL    HW222830   1.815   1.319   4.047 -0.1949  2.5999 -0.3189
 3732SOL     OW22831   2.745   0.411   4.310  0.2978 -0.2014  0.3787
 3732SOL    HW122832   2.824   0.454   4.278  0.2322  0.4752  1.1225
 3732SOL    HW222833   2.743   0.327   4.264 -1.7256 -1.0498  1.9783
 3733SOL     OW22834   1.859   0.403   6.694 -0.5898  0.1566  0.4467
 3733SOL    HW122835   1.873   0.310   6.713 -0.0270 -0.3412 -2.3782
 3733SOL    HW222836   1.926   0.403   6.626 -1.1650  0.0026 -0.1205
 3734SOL     OW22837   4.221   3.922   3.934  0.2446 -0.1664 -0.3055
 3734SOL    HW122838   4.190   3.983   3.867 -0.3921 -1.1216 -0.8800
 3734SOL    HW222839   4.292   3.969   3.978 -0.2885 -0.9122  1.3672
 3735SOL     OW22840   1.277   2.162  16.570  0.0714  0.6083  0.5622
 3735SOL    HW122841   1.191   2.130  16.542 -1.7768  4.0364  2.3287
 3735SOL    HW222842   1.269   2.252  16.602 -1.9345  0.6757 -0.1045
 3736SOL     OW22843   2.955   3.276   7.127 -0.2851  0.4771  0.0962
 3736SOL    HW122844   2.964   3.369   7.105  0.2691  0.3771 -0.1029
 3736SOL    HW222845   3.043   3.246   7.104 -0.3959 -0.7902  1.2921
 3737SOL     OW22846   0.161   4.517   6.776 -0.2982 -0.0826  0.4864
 3737SOL    HW122847   0.076   4.474   6.789  0.5711 -2.3392 -1.2769
 3737SOL    HW222848   0.205   4.446   6.728 -1.3934  2.0293 -3.5922
 3738SOL     OW22849   4.304   2.874   2.091  0.1166  0.0221  0.6361
 3738SOL    HW122850   4.240   2.842   2.154  0.9837 -1.5428  0.7116
 3738SOL    HW222851   4.383   2.838   2.131 -0.0015 -1.9221 -0.8755
 3739SOL     OW22852   2.021   1.785  15.150  0.4223  0.2855  0.3104
 3739SOL    HW122853   1.948   1.761  15.207 -0.3495  3.3758  0.6372
 3739SOL    HW222854   2.014   1.725  15.075  0.2618  1.1624 -0.3757
 3740SOL     OW22855   0.266   1.849   1.940  0.4099  0.1443  0.5242
 3740SOL    HW122856   0.264   1.774   1.999  0.9745  1.8784  2.7399
 3740SOL    HW222857   0.360   1.858   1.957  0.5232 -0.0786  0.0310
 3741SOL     OW22858   3.871   2.635   2.612 -0.0752  0.0260 -0.3837
 3741SOL    HW122859   3.857   2.586   2.693  1.5687  0.6690  0.2980
 3741SOL    HW222860   3.848   2.566   2.550  0.6281 -0.2220 -0.3703
 3742SOL     OW22861   0.888   3.987  16.902 -0.2626 -0.1072  0.3746
 3742SOL    HW122862   0.977   3.957  16.922  0.2255  2.9256  2.7746
 3742SOL    HW222863   0.842   3.904  16.899  0.8057 -0.7351  1.1628
 3743SOL     OW22864   4.127   2.466   1.895  0.4129 -0.0212  0.7640
 3743SOL    HW122865   4.065   2.464   1.823 -0.1006 -1.7127  1.2415
 3743SOL    HW222866   4.154   2.558   1.893  0.6921 -0.0653  2.7518
 3744SOL     OW22867   0.848   1.719  15.063  0.0440  0.7013  0.3533
 3744SOL    HW122868   0.904   1.751  15.134  1.8983 -2.0135  0.1360
 3744SOL    HW222869   0.765   1.760  15.087 -2.0015 -2.4970 -1.2504
 3745SOL     OW22870   2.112   2.625   5.530 -0.0222  0.0666 -0.4269
 3745SOL    HW122871   2.138   2.554   5.588 -0.0029  0.2716 -0.1894
 3745SOL    HW222872   2.183   2.688   5.539 -0.5034  0.8248 -1.8885
 3746SOL     OW22873   2.750   4.105   4.677  0.0617  0.4025 -0.1853
 3746SOL    HW122874   2.798   4.156   4.612  1.0892 -1.7583 -1.1249
 3746SOL    HW222875   2.736   4.021   4.633  1.9081 -0.3323  0.6123
 3747SOL     OW22876   3.302   0.874   2.385 -0.1006 -0.1426 -0.1236
 3747SOL    HW122877   3.277   0.794   2.433 -0.8072 -0.4375 -0.9927
 3747SOL    HW222878   3.240   0.869   2.313  0.9572  0.0325 -1.0443
 3748SOL     OW22879   0.517   1.190  12.147  0.2095  0.4390  0.1362
 3748SOL    HW122880   0.519   1.110  12.200  0.3873  0.8928  0.8022
 3748SOL    HW222881   0.591   1.165  12.091 -1.1029 -0.6384 -1.1503
 3749SOL     OW22882   4.446   1.156   5.692 -0.4945  0.0154  0.1665
 3749SOL    HW122883   4.533   1.141   5.655  0.1443 -0.0359  1.6769
 3749SOL    HW222884   4.451   1.103   5.771  0.5030 -3.2205 -2.0932
 3750SOL     OW22885   3.373   3.811   5.467  0.4658  0.5585  0.0050
 3750SOL    HW122886   3.282   3.808   5.497  0.3647 -0.7987 -0.4124
 3750SOL    HW222887   3.420   3.807   5.550  1.3379 -2.8471 -0.6372
 3751SOL     OW22888   1.259   3.757   9.098  0.1638  0.1466  0.4723
 3751SOL    HW122889   1.229   3.707   9.174 -2.1668 -0.7836 -1.0610
 3751SOL    HW222890   1.180   3.811   9.093  1.2095  1.6071 -0.3154
 3752SOL     OW22891   4.271   4.104  16.167  0.6420  0.0262  0.4203
 3752SOL    HW122892   4.248   4.019  16.129  0.4849  0.0014  0.5718
 3752SOL    HW222893   4.285   4.073  16.256  1.6666 -1.5153 -0.2839
 3753SOL     OW22894   4.518   0.170   4.996  0.0604 -0.4172 -0.1380
 3753SOL    HW122895   4.437   0.172   5.047  0.0049 -1.2637 -0.1935
 3753SOL    HW222896   4.553   0.257   5.013 -0.3809 -0.2479 -0.0998
 3754SOL     OW22897   2.611   0.089   7.625 -0.6465  0.2966 -0.1657
 3754SOL    HW122898   2.522   0.121   7.633  0.1128  1.9094  1.8154
 3754SOL    HW222899   2.623   0.017   7.688  0.2315  1.5493  1.1117
 3755SOL     OW22900   3.727   1.830   7.749  0.1125  0.3633  0.5270
 3755SOL    HW122901   3.642   1.874   7.743 -0.2615 -0.0777  2.6867
 3755SOL    HW222902   3.756   1.817   7.658  1.2880  2.2565  0.6150
 3756SOL     OW22903   0.724   1.583   8.790 -0.4258  0.2076 -0.0231
 3756SOL    HW122904   0.689   1.528   8.860  0.0705 -0.0120  0.0564
 3756SOL    HW222905   0.796   1.528   8.759  1.2056  2.4971 -0.2853
 3757SOL     OW22906   0.446   0.670   5.220 -0.8682 -0.6733  0.4728
 3757SOL    HW122907   0.431   0.590   5.169  2.7731 -1.7931  1.1673
 3757SOL    HW222908   0.457   0.629   5.306  0.9331 -0.9682  0.0832
 3758SOL     OW22909   2.037   0.733  16.988 -0.3823  0.8246 -0.5228
 3758SOL    HW122910   2.083   0.731  16.904  0.7908 -1.5066  0.1647
 3758SOL    HW222911   2.023   0.826  17.005  3.0691  1.5076 -1.3632
 3759SOL     OW22912   3.707   0.628  11.826  0.0463 -0.9155 -0.0210
 3759SOL    HW122913   3.614   0.607  11.834  0.5151 -2.8975  0.1840
 3759SOL    HW222914   3.747   0.544  11.804  0.6771 -0.4420 -0.7063
 3760SOL     OW22915   4.194   4.366   1.878 -0.6573 -0.1942  0.5759
 3760SOL    HW122916   4.254   4.413   1.821 -0.1270 -0.9522  0.5178
 3760SOL    HW222917   4.145   4.440   1.913 -0.4751 -0.8015  2.1680
 3761SOL     OW22918   3.056   3.432   4.833 -0.2956  0.3170 -0.1487
 3761SOL    HW122919   3.072   3.484   4.911 -1.4820 -1.1383  1.0612
 3761SOL    HW222920   3.138   3.382   4.831 -1.3992 -1.5155  0.0821
 3762SOL     OW22921   1.162   1.424   7.167 -0.3587 -0.0588  0.1996
 3762SOL    HW122922   1.239   1.367   7.158 -0.3497  0.1559 -1.1653
 3762SOL    HW222923   1.190   1.512   7.143 -1.2598  0.4507  1.0729
 3763SOL     OW22924   2.161   2.732  14.110 -0.4834 -0.2982 -0.8395
 3763SOL    HW122925   2.116   2.796  14.054 -0.2188  0.7473  0.1230
 3763SOL    HW222926   2.248   2.731  14.072 -0.7782 -4.3953 -1.3141
 3764SOL     OW22927   2.593   2.558   9.890 -0.2753 -0.0046 -0.0751
 3764SOL    HW122928   2.687   2.547   9.903 -0.2653  1.6273  1.1378
 3764SOL    HW222929   2.594   2.642   9.844  0.5532  0.3721  0.6495
 3765SOL     OW22930   2.591   1.463   5.151 -0.2375 -0.2448  0.1668
 3765SOL    HW122931   2.609   1.460   5.057  2.1412  0.0217  0.5979
 3765SOL    HW222932   2.496   1.468   5.143 -0.1406 -1.5080 -1.7867
 3766SOL     OW22933   4.317   0.083   3.287 -0.4903 -0.5203 -0.1655
 3766SOL    HW122934   4.372   0.011   3.318 -1.6795 -1.9591 -1.3625
 3766SOL    HW222935   4.319   0.133   3.368  1.7485 -0.4283 -0.2842
 3767SOL     OW22936   3.292   2.702   3.416  0.3117  0.2449 -0.1775
 3767SOL    HW122937   3.297   2.652   3.497  2.9596  0.0960 -0.4414
 3767SOL    HW222938   3.205   2.677   3.383 -0.0558  1.5783 -0.2035
 3768SOL     OW22939   0.551   1.732   2.266 -0.4482  0.1288 -0.0902
 3768SOL    HW122940   0.510   1.680   2.336 -0.8178  2.4761  1.4584
 3768SOL    HW222941   0.570   1.814   2.313 -1.9961  0.5284 -0.1766
 3769SOL     OW22942   4.304   3.312   0.874 -0.2951 -0.1715 -0.1744
 3769SOL    HW122943   4.296   3.384   0.936  1.9170  0.6118 -0.8064
 3769SOL    HW222944   4.352   3.245   0.923 -0.0014  0.3382  0.2359
 3770SOL     OW22945   3.186   2.854   5.051  0.3319  0.5952  0.5268
 3770SOL    HW122946   3.214   2.876   4.961 -1.5991  2.2402  0.3333
 3770SOL    HW222947   3.194   2.935   5.101  2.3045  0.0179  1.1581
 3771SOL     OW22948   3.517   3.843   4.895  0.6705 -0.1127 -0.1244
 3771SOL    HW122949   3.464   3.908   4.850 -1.2969 -0.9437  1.0145
 3771SOL    HW222950   3.590   3.899   4.922  0.5535  0.0832 -0.2145
 3772SOL     OW22951   1.734   3.136  17.659 -0.2721 -0.1476  0.6607
 3772SOL    HW122952   1.781   3.214  17.632  0.3649 -0.8992 -0.4034
 3772SOL    HW222953   1.754   3.066  17.597  1.2130  0.6503  0.2529
 3773SOL     OW22954   3.737   4.522   4.256  0.7660  0.1649 -0.5459
 3773SOL    HW122955   3.729   4.615   4.238  0.3259 -0.0150 -1.2811
 3773SOL    HW222956   3.817   4.498   4.209 -0.4516 -0.1539 -2.4665
 3774SOL     OW22957   3.096   2.127  12.043  0.3548 -0.2396 -0.8088
 3774SOL    HW122958   3.053   2.046  12.018  0.5961 -0.1892 -1.4097
 3774SOL    HW222959   3.163   2.134  11.974 -0.6840  1.0348 -1.6888
 3775SOL     OW22960   0.624   3.910   6.912 -0.4891 -0.6782  0.0744
 3775SOL    HW122961   0.575   3.853   6.852 -0.7429  0.0389 -0.4002
 3775SOL    HW222962   0.684   3.946   6.846 -0.9383 -2.3045 -1.2253
 3776SOL     OW22963   0.596   4.574   5.656  0.1303 -0.2746  0.1911
 3776SOL    HW122964   0.638   4.578   5.570 -0.3213 -1.3696 -0.0824
 3776SOL    HW222965   0.555   4.487   5.662 -2.0337  0.7327 -0.0090
 3777SOL     OW22966   2.346   0.754   9.962  0.0718 -0.3777  0.3861
 3777SOL    HW122967   2.260   0.732   9.998  1.4490 -2.4805  2.4328
 3777SOL    HW222968   2.393   0.682  10.004  2.2963  2.1684  2.1721
 3778SOL     OW22969   1.689   2.598  17.476 -0.3555 -0.0515 -0.2489
 3778SOL    HW122970   1.611   2.546  17.491 -0.0514 -0.5446 -0.3624
 3778SOL    HW222971   1.687   2.656  17.552  1.0590  0.7629 -0.8316
 3779SOL     OW22972   3.686   1.164   7.994  0.1400 -0.1864  0.2974
 3779SOL    HW122973   3.777   1.177   7.970 -0.0870  0.7988 -0.0090
 3779SOL    HW222974   3.658   1.248   7.958 -0.1054 -0.8654 -1.0959
 3780SOL     OW22975   4.303   4.364   3.799 -0.1006 -0.3550 -0.1570
 3780SOL    HW122976   4.298   4.416   3.718 -3.8169 -0.4423  0.0378
 3780SOL    HW222977   4.258   4.412   3.868  1.1248  0.1572  0.2884
 3781SOL     OW22978   1.402   2.897  14.843 -0.1976  0.2531 -0.6489
 3781SOL    HW122979   1.313   2.908  14.876 -0.2408  1.9454 -1.3252
 3781SOL    HW222980   1.371   2.910  14.753 -1.1094  0.6590 -0.2791
 3782SOL     OW22981   2.237   0.066   6.535 -0.2179  0.9545  0.3004
 3782SOL    HW122982   2.266   0.030   6.618  2.5541 -0.2630 -1.2023
 3782SOL    HW222983   2.281   0.000   6.482  1.2474  0.1086  2.5705
 3783SOL     OW22984   0.305   2.727   3.841  0.4124 -0.3367  0.3422
 3783SOL    HW122985   0.311   2.706   3.934  0.7828  0.9639  0.6169
 3783SOL    HW222986   0.364   2.660   3.808 -1.4650 -3.2321  2.9238
 3784SOL     OW22987   2.962   0.023   4.208  0.6569 -0.2783  0.1687
 3784SOL    HW122988   2.926   4.681   4.248 -0.3549 -0.7452 -1.6915
 3784SOL    HW222989   2.886   0.081   4.206  2.3947  1.9130 -1.8733
 3785SOL     OW22990   3.680   1.873   4.419  0.3100 -0.1634  0.3042
 3785SOL    HW122991   3.774   1.887   4.410  0.1933  1.5048  1.7231
 3785SOL    HW222992   3.668   1.882   4.513 -1.1093 -3.0208  0.4005
 3786SOL     OW22993   4.689   2.197   4.881 -0.9364 -0.2456  0.2761
 3786SOL    HW122994   0.003   2.244   4.946  0.3211 -1.6386  0.2609
 3786SOL    HW222995   4.660   2.117   4.923 -0.2134  0.6112  2.4242
 3787SOL     OW22996   4.473   3.619   7.857 -0.2284 -0.2439 -0.0150
 3787SOL    HW122997   4.444   3.698   7.902 -0.4782 -0.6680  0.5635
 3787SOL    HW222998   4.524   3.580   7.928  1.1600 -3.3244 -2.6815
 3788SOL     OW22999   1.989   4.123   2.609 -0.0898 -0.5101  0.0605
 3788SOL    HW123000   1.906   4.094   2.646  0.1289 -0.8032  0.3166
 3788SOL    HW223001   1.983   4.217   2.627  2.1276  0.0396 -1.9793
 3789SOL     OW23002   3.549   3.336  10.814  0.2999 -0.0670 -0.1200
 3789SOL    HW123003   3.569   3.426  10.839 -0.7012 -0.3692  1.8015
 3789SOL    HW223004   3.588   3.295  10.892  0.8919  1.5905  0.4529
 3790SOL     OW23005   1.570   0.497   9.627 -0.0890  0.0861  0.2186
 3790SOL    HW123006   1.555   0.488   9.533  2.0228  0.2914 -0.1212
 3790SOL    HW223007   1.568   0.593   9.632  2.1684  0.0354  2.1000
 3791SOL     OW23008   1.139   1.751  14.163  0.1228 -0.4561 -0.4197
 3791SOL    HW123009   1.085   1.780  14.089  0.1181 -1.1306 -0.6817
 3791SOL    HW223010   1.212   1.710  14.116  1.5805  2.5931 -0.7769
 3792SOL     OW23011   0.549   1.117   6.185 -0.1481  0.0411 -0.2374
 3792SOL    HW123012   0.643   1.123   6.169 -0.0161  0.8555  0.7881
 3792SOL    HW223013   0.550   1.068   6.267  0.9749  1.1890  0.4327
 3793SOL     OW23014   1.113   1.113   5.876  0.0101  0.1514 -0.3016
 3793SOL    HW123015   1.115   1.118   5.971  1.2132  0.5904 -0.3417
 3793SOL    HW223016   1.023   1.141   5.860 -0.3728 -0.5520  0.7031
 3794SOL     OW23017   2.967   3.652   2.479 -0.0551  0.0483  0.2628
 3794SOL    HW123018   3.057   3.623   2.493  0.4927  2.5289  1.9015
 3794SOL    HW223019   2.937   3.676   2.567 -2.9002 -1.4155 -0.3115
 3795SOL     OW23020   4.466   0.836   5.438 -0.4968  0.0159 -0.4468
 3795SOL    HW123021   4.413   0.898   5.388  0.2954  0.3562 -0.8605
 3795SOL    HW223022   4.542   0.891   5.458 -1.2603  0.1826  2.0155
 3796SOL     OW23023   4.066   4.132   2.661 -0.1214 -0.0023  0.4154
 3796SOL    HW123024   4.148   4.115   2.614  1.3434  1.1408  2.5534
 3796SOL    HW223025   4.046   4.217   2.620 -0.6308  0.3141  1.3343
 3797SOL     OW23026   0.563   2.662   1.974  1.0146 -0.3899 -0.0721
 3797SOL    HW123027   0.571   2.739   2.030 -1.1864  0.6388 -1.2082
 3797SOL    HW223028   0.487   2.616   2.009  1.2424 -0.3107  0.5207
 3798SOL     OW23029   2.227   3.022   6.081  0.1195  0.1747 -0.3183
 3798SOL    HW123030   2.312   3.065   6.077  0.3330 -0.1894  0.2584
 3798SOL    HW223031   2.234   2.965   6.158  0.1269  2.5995  1.4868
 3799SOL     OW23032   1.279   3.326  10.760  0.5959 -0.0656  0.0302
 3799SOL    HW123033   1.312   3.271  10.831  2.4860  1.6718  0.4900
 3799SOL    HW223034   1.208   3.282  10.714 -1.2524  0.7597  2.0803
 3800SOL     OW23035   2.491   2.510  15.276  0.1939 -0.2219 -0.1420
 3800SOL    HW123036   2.479   2.524  15.182  0.1107  0.5786 -0.0198
 3800SOL    HW223037   2.479   2.602  15.301  1.3692 -0.3045  0.7158
 3801SOL     OW23038   1.053   1.222   6.552  0.2390  0.2065 -0.3354
 3801SOL    HW123039   0.970   1.177   6.568  0.1388 -0.0300 -1.5026
 3801SOL    HW223040   1.076   1.169   6.476  4.6514  1.4383  0.1449
 3802SOL     OW23041   2.805   2.918   9.066  0.2692 -0.2848 -0.5136
 3802SOL    HW123042   2.763   3.000   9.092  1.7466  0.3917 -0.2828
 3802SOL    HW223043   2.770   2.909   8.977  0.9459 -0.6083 -0.7497
 3803SOL     OW23044   4.351   4.000   7.818 -0.5823 -0.6952 -0.0671
 3803SOL    HW123045   4.394   4.083   7.798  1.4142 -1.8291 -0.4888
 3803SOL    HW223046   4.263   4.033   7.833  0.7673  2.0745  1.8268
 3804SOL     OW23047   4.071   0.896  11.472 -0.1644  0.1049  0.6638
 3804SOL    HW123048   4.079   0.928  11.561  1.5532 -0.7596  0.8079
 3804SOL    HW223049   3.989   0.845  11.471  0.0328 -0.2824  3.9811
 3805SOL     OW23050   0.415   4.203   8.434 -0.1251 -0.8564 -0.2387
 3805SOL    HW123051   0.407   4.224   8.341  3.7202  1.2429 -0.0968
 3805SOL    HW223052   0.371   4.119   8.443  0.5380 -1.1010  0.7348
 3806SOL     OW23053   2.931   2.753   7.055 -0.4187  0.3597  0.1621
 3806SOL    HW123054   2.992   2.780   6.987 -0.2778  0.8550  0.4865
 3806SOL    HW223055   2.846   2.771   7.015 -1.4227 -1.1655  1.5961
 3807SOL     OW23056   2.812   3.675  16.693  0.3237 -0.3693 -0.4316
 3807SOL    HW123057   2.831   3.613  16.622 -1.6062 -1.6113  0.1400
 3807SOL    HW223058   2.894   3.725  16.693  0.9588 -1.3985 -1.5530
 3808SOL     OW23059   2.697   0.585   7.562 -0.5280 -0.4775 -0.1251
 3808SOL    HW123060   2.741   0.619   7.484 -1.1858  0.1056 -0.2411
 3808SOL    HW223061   2.623   0.537   7.524 -1.2790  0.4866  0.1370
 3809SOL     OW23062   2.992   1.935  17.545 -0.0954 -0.2371 -0.3022
 3809SOL    HW123063   3.050   2.001  17.582  0.8726  0.0058 -2.2245
 3809SOL    HW223064   2.916   1.945  17.603  0.7290  1.0003  0.5340
 3810SOL     OW23065   1.368   3.298   8.378 -0.0696  0.3054 -0.4692
 3810SOL    HW123066   1.282   3.266   8.403  0.5431 -0.7817  0.2399
 3810SOL    HW223067   1.373   3.283   8.283 -0.7678  0.3652 -0.5167
 3811SOL     OW23068   2.493   2.964   4.502  0.1481 -0.0138  0.2795
 3811SOL    HW123069   2.520   2.878   4.536 -2.5324 -0.3617  1.4956
 3811SOL    HW223070   2.542   3.025   4.558  0.0280  2.0646 -1.8555
 3812SOL     OW23071   1.163   3.839   1.356 -0.4375  0.8377  0.2089
 3812SOL    HW123072   1.253   3.805   1.361 -1.1561 -1.3903 -1.6850
 3812SOL    HW223073   1.171   3.879   1.269 -0.9626 -0.2963 -0.3653
 3813SOL     OW23074   0.985   1.830  15.282 -0.5215  0.0746 -0.5077
 3813SOL    HW123075   0.987   1.839  15.377 -0.2236 -1.5746 -0.3607
 3813SOL    HW223076   0.948   1.915  15.256 -0.1274  0.5695  0.5224
 3814SOL     OW23077   0.757   0.675  11.701  0.0950 -1.3170  0.1643
 3814SOL    HW123078   0.767   0.709  11.789  2.5504  0.2547 -0.7227
 3814SOL    HW223079   0.664   0.652  11.702 -0.1474 -0.4269 -1.0876
 3815SOL     OW23080   0.360   2.274  16.896 -0.0570  0.3887  0.1442
 3815SOL    HW123081   0.437   2.330  16.904  0.3348  0.3167 -3.2527
 3815SOL    HW223082   0.284   2.332  16.898  0.9665  1.7168  0.4442
 3816SOL     OW23083   1.891   0.901   2.329  0.4863  0.4781  0.1852
 3816SOL    HW123084   1.975   0.889   2.373 -0.2684  1.1722  1.8083
 3816SOL    HW223085   1.839   0.907   2.409 -0.3209  0.3962 -0.3383
 3817SOL     OW23086   0.051   4.615  12.999  0.2433  0.2342  0.1248
 3817SOL    HW123087   4.733   4.679  12.953 -1.9006 -1.3227  0.5586
 3817SOL    HW223088   0.023   4.530  12.965 -1.2755  1.2258 -1.1500
 3818SOL     OW23089   1.788   4.640  16.975  0.2795 -0.1925  0.1461
 3818SOL    HW123090   1.810   4.635  16.882  0.5598  0.9768  0.1559
 3818SOL    HW223091   1.781   4.735  16.980  2.1179 -0.0022 -1.2313
 3819SOL     OW23092   1.600   3.156  14.587  0.4016  0.6899 -0.2375
 3819SOL    HW123093   1.584   3.065  14.560  0.6514 -0.1691  2.5297
 3819SOL    HW223094   1.675   3.173  14.530  0.6086  2.6779  0.6174
 3820SOL     OW23095   4.192   3.795   6.725 -0.0989  0.2606  0.1087
 3820SOL    HW123096   4.155   3.799   6.636  2.0675  4.6753 -0.5999
 3820SOL    HW223097   4.194   3.700   6.735  0.9410  0.1157 -1.4200
 3821SOL     OW23098   3.009   1.845  14.054  0.1314 -0.7687 -0.1989
 3821SOL    HW123099   3.032   1.862  13.962  1.2589 -2.6739 -0.2562
 3821SOL    HW223100   2.931   1.900  14.064  0.2143 -0.5324 -0.8487
 3822SOL     OW23101   3.347   1.891  16.597 -0.3979 -0.0042  0.1255
 3822SOL    HW123102   3.365   1.872  16.689  3.8589  1.7610 -0.3233
 3822SOL    HW223103   3.257   1.925  16.601 -0.3467 -0.4064  4.5315
 3823SOL     OW23104   1.371   3.785   4.907 -0.1644  0.1924  0.0025
 3823SOL    HW123105   1.284   3.797   4.868 -0.8561  1.0202  1.7883
 3823SOL    HW223106   1.344   3.722   4.973  2.8140 -1.5530 -0.4340
 3824SOL     OW23107   3.104   3.408   1.855  0.1365  0.3506 -0.1542
 3824SOL    HW123108   3.148   3.383   1.774  2.9578  2.2126  0.8037
 3824SOL    HW223109   3.119   3.502   1.862 -0.7452  0.4644  0.1943
 3825SOL     OW23110   0.592   2.026   7.046  0.0403 -0.0544  0.1187
 3825SOL    HW123111   0.644   2.105   7.051  0.7602 -0.5660  0.7545
 3825SOL    HW223112   0.594   1.984   7.132 -0.8358 -0.1820  0.0788
 3826SOL     OW23113   3.062   2.974   8.658 -0.3640 -0.0970  0.2698
 3826SOL    HW123114   3.023   3.058   8.637  0.5892 -0.1433 -1.6547
 3826SOL    HW223115   3.026   2.926   8.583  0.0545  2.0362 -1.2962
 3827SOL     OW23116   0.679   2.376   4.753 -0.2773  0.6307  0.3302
 3827SOL    HW123117   0.643   2.341   4.834 -0.8714  0.1502 -0.1331
 3827SOL    HW223118   0.678   2.294   4.703  0.4096  1.7986 -1.6222
 3828SOL     OW23119   0.019   0.050   4.992  0.0273 -0.3684 -0.1333
 3828SOL    HW123120   4.681   0.088   4.947 -1.2201  0.1218  2.3687
 3828SOL    HW223121   0.073   0.129   4.983  0.8495 -0.9524 -0.2607
 3829SOL     OW23122   0.169   0.720   9.922  0.2779 -0.2301  0.0829
 3829SOL    HW123123   0.181   0.675   9.839 -1.4798 -0.2184 -0.1904
 3829SOL    HW223124   0.099   0.670   9.965  0.2311  0.6387  1.0112
 3830SOL     OW23125   4.190   0.664   3.738 -0.1372  0.0665  0.2492
 3830SOL    HW123126   4.270   0.673   3.685  0.4714  1.8967  1.4941
 3830SOL    HW223127   4.147   0.591   3.694  0.4713 -0.0331 -0.1909
 3831SOL     OW23128   1.743   2.302   3.191  0.0491 -0.1659  0.2094
 3831SOL    HW123129   1.690   2.241   3.139  1.5483 -2.4950  1.4258
 3831SOL    HW223130   1.814   2.310   3.128 -0.4111 -0.0274 -0.2940
 3832SOL     OW23131   2.681   1.997  12.914  0.1471  0.2585 -0.7475
 3832SOL    HW123132   2.736   1.962  12.985 -1.1884 -1.6993 -0.6917
 3832SOL    HW223133   2.628   2.067  12.953 -0.9259 -1.6287  1.1686
 3833SOL     OW23134   0.072   1.140   6.115 -0.5480  0.0387 -0.4496
 3833SOL    HW123135   0.016   1.087   6.171  0.4141 -1.5246 -0.9655
 3833SOL    HW223136   0.131   1.176   6.181 -0.0025 -0.6495 -0.5623
 3834SOL     OW23137   0.793   3.144  14.757 -0.0578 -0.5791  0.1990
 3834SOL    HW123138   0.715   3.192  14.785  1.1630  2.0249 -0.8975
 3834SOL    HW223139   0.813   3.118  14.847  2.4031 -0.7310 -0.4036
 3835SOL     OW23140   1.120   0.885  17.063  0.1038 -0.1153  0.0645
 3835SOL    HW123141   1.159   0.972  17.060  0.1213 -0.1313 -0.1447
 3835SOL    HW223142   1.044   0.900  17.118  0.2535 -0.3569  0.3398
 3836SOL     OW23143   2.132   1.763   5.090  0.4446 -0.2265 -0.3054
 3836SOL    HW123144   2.103   1.851   5.066  2.2198  0.2701 -0.6301
 3836SOL    HW223145   2.226   1.779   5.086  0.6465 -1.2678  0.1187
 3837SOL     OW23146   2.363   2.586   6.678 -0.1212 -0.1603 -0.5092
 3837SOL    HW123147   2.331   2.502   6.645  0.1319 -0.3895 -0.1765
 3837SOL    HW223148   2.455   2.597   6.653 -0.2269  1.6060 -0.1045
 3838SOL     OW23149   0.805   4.340   2.389 -0.4192 -0.1552  0.0195
 3838SOL    HW123150   0.775   4.249   2.395  0.8964 -0.5980 -0.1473
 3838SOL    HW223151   0.898   4.320   2.397 -0.2442  0.2434 -1.0132
 3839SOL     OW23152   3.961   3.200   4.096 -0.5139 -0.1265 -0.0384
 3839SOL    HW123153   3.876   3.242   4.082  0.2361  0.9833 -1.2719
 3839SOL    HW223154   4.025   3.267   4.071  0.4833 -2.0616 -2.5266
 3840SOL     OW23155   0.640   1.076   8.188 -0.4486 -0.2703 -0.2259
 3840SOL    HW123156   0.587   1.142   8.144 -1.8387  0.1361  2.0363
 3840SOL    HW223157   0.593   1.058   8.270  1.8568 -0.0185  1.1442
 3841SOL     OW23158   3.253   4.040   2.896 -0.4663  0.2804  0.2678
 3841SOL    HW123159   3.189   4.102   2.862 -1.8143 -1.1344  0.1852
 3841SOL    HW223160   3.218   3.960   2.855  1.4211 -0.7720  0.7120
 3842SOL     OW23161   1.851   3.929   2.993  0.1693 -0.3273  0.3058
 3842SOL    HW123162   1.757   3.912   2.990  0.4784 -2.1038  0.8684
 3842SOL    HW223163   1.889   3.842   2.985  0.1391 -0.3932  0.8649
 3843SOL     OW23164   2.049   2.931   6.906  0.2889 -0.0845  0.2527
 3843SOL    HW123165   2.121   2.991   6.886  0.8835 -1.1189 -0.7243
 3843SOL    HW223166   2.096   2.859   6.862 -0.4585 -0.8019  0.6173
 3844SOL     OW23167   2.744   3.496  12.350 -0.2699  0.5880  0.3220
 3844SOL    HW123168   2.667   3.545  12.379 -2.3520 -1.6829 -1.3791
 3844SOL    HW223169   2.743   3.424  12.413  1.9412  1.0569  0.8749
 3845SOL     OW23170   2.068   1.224   3.213  0.2496 -0.5863  1.2600
 3845SOL    HW123171   2.039   1.260   3.297 -0.5159  0.1304  0.6947
 3845SOL    HW223172   1.987   1.228   3.162 -0.1587 -2.7666  1.7456
 3846SOL     OW23173   2.485   2.765   8.923 -0.6069  0.3203  0.2914
 3846SOL    HW123174   2.445   2.804   8.845 -0.8089 -0.3104  0.0835
 3846SOL    HW223175   2.572   2.748   8.886 -0.7778 -2.3132  1.1662
 3847SOL     OW23176   0.451   2.078   2.626 -0.1510  0.0581  0.2982
 3847SOL    HW123177   0.384   2.050   2.564 -0.1080  0.3343  0.1226
 3847SOL    HW223178   0.482   2.160   2.586 -2.0517  0.6759  0.1016
 3848SOL     OW23179   1.609   1.938   0.703  0.6226  0.5611 -0.1372
 3848SOL    HW123180   1.634   2.005   0.639 -1.0773  0.2522 -1.1279
 3848SOL    HW223181   1.687   1.883   0.704  0.1594 -0.1193 -1.4424
 3849SOL     OW23182   2.756   4.726   3.780  0.5233 -0.1962  0.1441
 3849SOL    HW123183   2.844   4.691   3.793  1.2641  2.1472  1.5494
 3849SOL    HW223184   2.775   0.080   3.760  1.1008 -0.3402  0.0231
 3850SOL     OW23185   0.753   1.032   1.866 -0.7189  0.4086 -0.0285
 3850SOL    HW123186   0.824   1.045   1.803 -0.7950 -1.4399 -0.5026
 3850SOL    HW223187   0.717   1.120   1.869  1.1540  1.2053 -0.6655
 3851SOL     OW23188   1.071   1.243   2.982 -0.4591 -0.5362 -0.0085
 3851SOL    HW123189   1.029   1.162   3.011  0.7156 -0.5983  1.5150
 3851SOL    HW223190   1.104   1.200   2.902  0.0308 -0.0653 -0.0577
 3852SOL     OW23191   2.644   1.378   6.483 -0.3081  0.2341  0.3178
 3852SOL    HW123192   2.571   1.325   6.452 -1.1758  2.2198 -1.0691
 3852SOL    HW223193   2.606   1.442   6.544  3.5849  1.0190  1.8748
 3853SOL     OW23194   3.813   3.517   7.294 -0.0484  0.8911  0.3508
 3853SOL    HW123195   3.839   3.425   7.296 -0.6509  0.8115  3.5474
 3853SOL    HW223196   3.852   3.543   7.210 -1.6829 -0.8233 -0.9523
 3854SOL     OW23197   2.177   0.244   3.417  0.0720  0.5259  0.3831
 3854SOL    HW123198   2.137   0.326   3.388 -2.9132 -0.1139  2.7315
 3854SOL    HW223199   2.197   0.209   3.330 -0.4527 -0.6070  0.7149
 3855SOL     OW23200   2.164   3.215  12.772  0.0156 -0.5126  0.2554
 3855SOL    HW123201   2.166   3.186  12.864 -1.2771  1.0210  0.7545
 3855SOL    HW223202   2.184   3.129  12.734  0.5251 -0.0126 -0.5997
 3856SOL     OW23203   0.575   0.171   9.233  0.1650 -0.5257 -0.4335
 3856SOL    HW123204   0.501   0.219   9.196  0.2531 -0.0001  0.0773
 3856SOL    HW223205   0.536   0.146   9.317  0.7879 -0.2124 -0.0559
 3857SOL     OW23206   2.425   1.984   3.918 -0.4969  0.0611  0.5119
 3857SOL    HW123207   2.339   1.956   3.950 -1.2299  1.3896 -0.3350
 3857SOL    HW223208   2.434   1.967   3.824  1.3931 -1.9100  1.0231
 3858SOL     OW23209   3.909   2.492   5.277  0.2229 -0.3143  0.1663
 3858SOL    HW123210   3.960   2.497   5.196 -1.6943 -0.4635 -1.0388
 3858SOL    HW223211   3.863   2.576   5.274 -1.3133 -1.2673 -2.6617
 3859SOL     OW23212   2.830   3.892   5.341  0.4744 -0.8433 -0.2089
 3859SOL    HW123213   2.736   3.881   5.332  0.2738  0.3270  0.4935
 3859SOL    HW223214   2.838   3.970   5.285  0.5885  1.7799  3.4655
 3860SOL     OW23215   4.418   3.147  15.639 -0.0843 -0.3517  0.1787
 3860SOL    HW123216   4.496   3.195  15.610  0.2519  0.0543  1.7266
 3860SOL    HW223217   4.453   3.085  15.703  0.8581  0.3328  0.3367
 3861SOL     OW23218   0.931   1.891   1.536 -0.0139 -0.2931 -0.2231
 3861SOL    HW123219   0.926   1.859   1.626 -0.6782  0.1873 -0.0906
 3861SOL    HW223220   1.025   1.878   1.526 -0.0095 -0.8118  0.5610
 3862SOL     OW23221   1.818   2.532   1.219 -0.1195 -0.1056 -0.3068
 3862SOL    HW123222   1.914   2.536   1.221 -0.1672  1.0993 -0.7004
 3862SOL    HW223223   1.805   2.535   1.314  0.6789 -3.4308 -0.1077
 3863SOL     OW23224   3.119   2.344   4.485  0.3245 -0.1022  0.2006
 3863SOL    HW123225   3.136   2.278   4.552 -1.5883  0.9248  1.7176
 3863SOL    HW223226   3.177   2.327   4.411  1.6415  0.2279  1.1581
 3864SOL     OW23227   1.913   4.161  13.532  0.4326 -0.2581 -0.5048
 3864SOL    HW123228   1.861   4.118  13.464 -0.0235  0.5535 -0.6675
 3864SOL    HW223229   1.854   4.179  13.605  0.0636  0.4900 -0.9863
 3865SOL     OW23230   3.100   1.167   2.702  0.1240  0.1727  0.2934
 3865SOL    HW123231   3.148   1.085   2.688  0.5113  0.1174  1.9440
 3865SOL    HW223232   3.077   1.152   2.793 -1.5912  1.7745  0.1082
 3866SOL     OW23233   4.684   4.476   2.943 -0.2252  0.3402  0.5603
 3866SOL    HW123234   0.041   4.469   2.953  0.1272 -0.0971 -3.3519
 3866SOL    HW223235   4.674   4.480   2.848 -0.1510  2.1987  0.6154
 3867SOL     OW23236   4.212   1.862   5.143 -0.1596  0.4343  0.4436
 3867SOL    HW123237   4.188   1.939   5.195 -0.2735  0.4966  0.3005
 3867SOL    HW223238   4.182   1.901   5.061 -2.7965  2.7666  2.4962
 3868SOL     OW23239   2.087   0.688  10.026  0.2056  0.3930 -0.0774
 3868SOL    HW123240   2.013   0.713  10.081  0.9210  1.1986  0.5235
 3868SOL    HW223241   2.049   0.631   9.959  0.6707  1.1886 -1.0153
 3869SOL     OW23242   2.950   3.065  17.239  0.2397  0.4799  1.0523
 3869SOL    HW123243   2.954   3.154  17.204  0.3273 -0.5449 -1.5337
 3869SOL    HW223244   3.042   3.040  17.232  0.0726 -0.2893  1.5063
 3870SOL     OW23245   0.679   2.551   4.959  0.1056  0.5798 -0.1225
 3870SOL    HW123246   0.645   2.465   4.984  3.0662 -1.2613 -2.4086
 3870SOL    HW223247   0.703   2.534   4.868  0.4949 -0.0173  0.0897
 3871SOL     OW23248   0.274   2.345   3.043 -0.0852  0.5324 -0.2575
 3871SOL    HW123249   0.224   2.279   3.092  1.2297  0.1708  0.5918
 3871SOL    HW223250   0.258   2.413   3.108  0.0220  0.9161 -0.6353
 3872SOL     OW23251   3.246   4.489   8.531  0.3513 -0.1725  0.2748
 3872SOL    HW123252   3.190   4.411   8.523  0.3309 -0.0171 -1.0538
 3872SOL    HW223253   3.186   4.553   8.492  0.4513  0.5181  1.2669
 3873SOL     OW23254   0.160   2.405   6.730 -0.0743 -0.3624  0.2586
 3873SOL    HW123255   0.082   2.384   6.782 -0.9278  1.0113 -0.4568
 3873SOL    HW223256   0.141   2.350   6.653 -3.6551  0.6085  0.4458
 3874SOL     OW23257   3.448   0.650   6.415  0.2586 -0.1719  0.1771
 3874SOL    HW123258   3.530   0.633   6.368 -0.1594 -1.8941  0.0777
 3874SOL    HW223259   3.478   0.653   6.505  0.1756  2.4951  0.1044
 3875SOL     OW23260   3.382   3.721   2.860  0.5081 -0.4286  0.0253
 3875SOL    HW123261   3.390   3.626   2.863 -0.4098 -0.4886  0.8720
 3875SOL    HW223262   3.469   3.744   2.828  0.6438 -2.1671 -0.8303
 3876SOL     OW23263   2.208   1.786   9.475 -0.2416 -0.1820 -0.0816
 3876SOL    HW123264   2.223   1.875   9.443 -2.7197 -0.1366 -1.1422
 3876SOL    HW223265   2.252   1.733   9.409 -1.5245  0.6123 -1.5659
 3877SOL     OW23266   0.532   2.013  13.080  0.1395 -0.0412  0.6159
 3877SOL    HW123267   0.493   2.096  13.108 -0.9602 -1.4717  3.3281
 3877SOL    HW223268   0.492   1.945  13.135 -1.1427  0.3470  0.1579
 3878SOL     OW23269   1.486   2.212   4.834 -0.1011 -0.0457  0.3791
 3878SOL    HW123270   1.549   2.284   4.835  1.0366 -1.0545  2.4265
 3878SOL    HW223271   1.488   2.175   4.922 -0.8813  0.4548  0.6041
 3879SOL     OW23272   1.457   2.995  11.442  0.4489 -0.4220  0.0868
 3879SOL    HW123273   1.496   2.932  11.382  3.1016  0.6972  0.6475
 3879SOL    HW223274   1.526   3.005  11.507  0.7205 -0.0123 -0.2752
 3880SOL     OW23275   0.215   0.375   6.320  0.3641 -0.4945  0.1649
 3880SOL    HW123276   0.200   0.281   6.311  1.3016 -0.8858  2.7384
 3880SOL    HW223277   0.126   0.411   6.318  0.0168 -1.3504  0.0508
 3881SOL     OW23278   2.865   2.095   6.180  0.0875 -0.0872  0.7382
 3881SOL    HW123279   2.834   2.072   6.268 -1.1734  0.7130  0.5081
 3881SOL    HW223280   2.802   2.054   6.120 -0.3434  1.0834  0.3823
 3882SOL     OW23281   1.559   2.632   8.157 -0.5868  0.2622  0.4375
 3882SOL    HW123282   1.639   2.611   8.109 -3.0848 -0.6024 -3.3262
 3882SOL    HW223283   1.510   2.682   8.091 -1.5837 -2.9560 -1.2663
 3883SOL     OW23284   1.457   0.486   9.953  0.2432 -0.3968  0.4704
 3883SOL    HW123285   1.429   0.577   9.940 -3.1024 -1.2495  1.5521
 3883SOL    HW223286   1.472   0.466   9.861 -1.3606 -1.4895  0.4299
 3884SOL     OW23287   3.413   0.686  11.138 -0.2821  0.0560 -0.2695
 3884SOL    HW123288   3.374   0.720  11.219 -0.9104  0.3018 -0.6721
 3884SOL    HW223289   3.391   0.755  11.076  2.5091  1.9745  0.9249
 3885SOL     OW23290   1.527   2.376  16.043 -0.1318  0.0722  0.0282
 3885SOL    HW123291   1.595   2.362  15.976 -1.2375 -2.6936 -0.4848
 3885SOL    HW223292   1.569   2.333  16.117 -1.3714 -1.0782  0.0614
 3886SOL     OW23293   1.469   3.033   5.525  0.5652  0.4205  0.1291
 3886SOL    HW123294   1.380   3.039   5.558  0.1395  0.6890 -1.0881
 3886SOL    HW223295   1.507   3.070   5.605  0.2242 -1.6470  1.2506
 3887SOL     OW23296   2.764   2.388   1.541  0.2222 -0.6522 -0.2657
 3887SOL    HW123297   2.849   2.344   1.552  0.1904 -0.7776 -0.5326
 3887SOL    HW223298   2.771   2.470   1.591 -0.7191 -0.4667 -0.4352
 3888SOL     OW23299   3.265   3.597  17.527 -0.4402 -0.0959  0.4025
 3888SOL    HW123300   3.231   3.533  17.465  1.7705 -1.6999  0.8607
 3888SOL    HW223301   3.227   3.564  17.608  0.9881 -0.5244  0.8875
 3889SOL     OW23302   3.409   1.863   1.928  0.1911 -0.3893  0.3221
 3889SOL    HW123303   3.461   1.786   1.953  0.0258 -0.6078 -0.0084
 3889SOL    HW223304   3.477   1.914   1.884  0.6822 -0.0766  1.4249
 3890SOL     OW23305   2.839   0.777   2.146 -0.2703 -0.1306  0.0926
 3890SOL    HW123306   2.843   0.687   2.181  1.3998 -0.4929 -1.0146
 3890SOL    HW223307   2.861   0.836   2.218  2.1499 -2.6332  1.4398
 3891SOL     OW23308   0.620   4.462   1.335 -0.2109 -0.3031  0.4687
 3891SOL    HW123309   0.660   4.511   1.407 -2.2335 -1.5613  2.4503
 3891SOL    HW223310   0.531   4.494   1.349  0.4573  1.4898  0.6172
 3892SOL     OW23311   3.367   1.680   7.237 -0.1792 -0.3906  0.0435
 3892SOL    HW123312   3.364   1.628   7.156 -0.8711  0.5903 -0.5610
 3892SOL    HW223313   3.458   1.710   7.237 -0.5660  0.7888 -1.3860
 3893SOL     OW23314   3.425   1.182   6.347  0.0279 -0.6439  0.3271
 3893SOL    HW123315   3.442   1.099   6.391 -2.9516 -1.4948 -0.1197
 3893SOL    HW223316   3.423   1.161   6.254 -0.1058 -0.4672  0.2894
 3894SOL     OW23317   2.954   2.219   5.086 -0.8315 -0.1950 -0.7639
 3894SOL    HW123318   2.884   2.267   5.131 -1.5839 -2.5242  0.5562
 3894SOL    HW223319   3.007   2.216   5.166 -0.4061 -3.7567 -1.1822
 3895SOL     OW23320   3.969   2.156   3.436 -0.5162 -0.5549  0.4881
 3895SOL    HW123321   3.923   2.114   3.509  2.7373 -3.2771  0.9945
 3895SOL    HW223322   3.981   2.086   3.372  1.7155 -0.6792  1.0342
 3896SOL     OW23323   1.454   3.311   7.740  0.0536 -0.1648  0.5668
 3896SOL    HW123324   1.496   3.274   7.818  4.2580  3.7768  0.1747
 3896SOL    HW223325   1.446   3.403   7.765  1.9787 -0.3495  1.8211
 3897SOL     OW23326   0.371   1.181  10.341 -0.0088  0.3291  0.5883
 3897SOL    HW123327   0.310   1.164  10.270  2.9898 -1.3260 -1.5832
 3897SOL    HW223328   0.424   1.102  10.354  0.7189  0.6199 -0.6288
 3898SOL     OW23329   2.679   3.338   6.141  0.0768  0.3055  0.2569
 3898SOL    HW123330   2.628   3.414   6.169  0.7192  1.5666 -1.9886
 3898SOL    HW223331   2.609   3.273   6.139  0.6245 -0.3007  0.8556
 3899SOL     OW23332   0.274   4.527   2.531 -0.2672  0.2667  0.1313
 3899SOL    HW123333   0.289   4.549   2.623  0.5131 -0.0196  0.0720
 3899SOL    HW223334   0.330   4.449   2.528  1.7308  1.6547  1.1652
 3900SOL     OW23335   4.462   1.018   2.835  0.5646  0.3936 -0.0875
 3900SOL    HW123336   4.504   1.104   2.838  0.5425  0.4037 -0.0636
 3900SOL    HW223337   4.376   1.025   2.877  0.2048 -0.6293 -0.6680
 3901SOL     OW23338   0.371   2.760   2.261  0.4285  0.1855  0.4170
 3901SOL    HW123339   0.447   2.797   2.305  1.2493  1.5520 -2.0946
 3901SOL    HW223340   0.320   2.751   2.341 -0.7793 -0.2943 -0.3926
 3902SOL     OW23341   1.333   1.264  14.781  0.3952 -0.4233  0.4766
 3902SOL    HW123342   1.302   1.352  14.760  1.6759 -0.3498 -1.1272
 3902SOL    HW223343   1.250   1.221  14.801 -0.7118  2.0119  1.1180
 3903SOL     OW23344   0.388   3.882   7.168 -0.0993 -0.2773 -0.1038
 3903SOL    HW123345   0.327   3.955   7.179  1.4546  0.7109  2.0266
 3903SOL    HW223346   0.471   3.913   7.204 -1.0928  1.3934  0.7984
 3904SOL     OW23347   2.006   2.796   3.522  0.6436  0.6140 -0.1190
 3904SOL    HW123348   1.954   2.840   3.454  0.2677  0.1780 -0.1130
 3904SOL    HW223349   2.076   2.861   3.531  1.8125 -0.4630 -1.3534
 3905SOL     OW23350   2.220   0.682  14.370 -0.0106 -0.2546 -0.0706
 3905SOL    HW123351   2.125   0.682  14.365  0.0001  1.0282 -0.1580
 3905SOL    HW223352   2.251   0.620  14.303 -2.4171  1.5355 -2.8077
 3906SOL     OW23353   1.798   0.980   0.116 -0.3367 -0.2557 -0.2063
 3906SOL    HW123354   1.866   0.929   0.071  0.6256  1.5143 -0.7336
 3906SOL    HW223355   1.842   0.975   0.202  2.0633 -4.2172 -1.6433
 3907SOL     OW23356   1.951   2.558   3.191  0.5665  0.7819  0.5262
 3907SOL    HW123357   2.019   2.601   3.139 -0.3292 -0.7745 -1.8956
 3907SOL    HW223358   1.879   2.619   3.177 -0.3021 -0.2925  0.3258
 3908SOL     OW23359   0.508   3.973   7.780 -0.1553 -0.1199  0.0262
 3908SOL    HW123360   0.536   4.053   7.736 -1.1418 -0.3490 -1.0180
 3908SOL    HW223361   0.582   3.916   7.758  0.3090  0.2517  0.6506
 3909SOL     OW23362   2.290   1.527  12.817 -0.1089 -0.3852 -0.1984
 3909SOL    HW123363   2.249   1.597  12.867  0.7896 -0.7990  1.1315
 3909SOL    HW223364   2.289   1.453  12.878  1.7523 -0.0724  0.2057
 3910SOL     OW23365   0.809   2.059   5.373 -0.6868  0.5454  0.2072
 3910SOL    HW123366   0.751   2.058   5.449 -1.5816 -2.1643 -0.5042
 3910SOL    HW223367   0.825   1.965   5.370 -2.9833  0.1778 -0.3309
 3911SOL     OW23368   4.114   1.920   3.615  0.2040  0.6371  0.1083
 3911SOL    HW123369   4.117   1.846   3.554  0.3855 -0.8967  1.9936
 3911SOL    HW223370   4.182   1.890   3.675  1.1359  0.6146 -0.9692
 3912SOL     OW23371   4.543   2.153   4.651 -0.0089  0.1676 -0.0235
 3912SOL    HW123372   4.594   2.171   4.571 -1.0630  1.7407 -0.3404
 3912SOL    HW223373   4.602   2.192   4.715 -1.9116  2.2880  0.4130
 3913SOL     OW23374   2.564   0.307   2.397  0.0134  0.8235  0.2226
 3913SOL    HW123375   2.653   0.310   2.432 -1.1556 -1.7717  3.3335
 3913SOL    HW223376   2.538   0.223   2.435  1.1063 -0.3193 -1.5554
 3914SOL     OW23377   3.443   2.035   4.843  0.9193  0.3850  0.4771
 3914SOL    HW123378   3.522   2.057   4.893 -0.2395  3.6493  0.8429
 3914SOL    HW223379   3.391   2.018   4.922  2.2228  0.5132  1.3724
 3915SOL     OW23380   3.611   2.057  12.222 -0.2281 -0.3826  0.5956
 3915SOL    HW123381   3.533   2.003  12.205 -0.7929 -0.3343  3.0147
 3915SOL    HW223382   3.592   2.068  12.315 -0.1617  3.0458  0.1908
 3916SOL     OW23383   3.787   4.080   5.720 -0.4370 -0.1288 -0.1164
 3916SOL    HW123384   3.712   4.135   5.698 -0.9243  0.0970  2.1041
 3916SOL    HW223385   3.818   4.099   5.809  0.5797  1.0740 -0.7283
 3917SOL     OW23386   3.576   0.088   7.376  0.3531  0.3784  0.2576
 3917SOL    HW123387   3.598   4.733   7.379  1.6748  0.6381 -1.3192
 3917SOL    HW223388   3.666   0.121   7.386 -0.8759  4.3040 -1.7005
 3918SOL     OW23389   0.944   3.033   4.926 -0.2863 -0.0057 -0.0058
 3918SOL    HW123390   0.855   3.037   4.964 -0.4797 -1.3744 -0.3412
 3918SOL    HW223391   0.984   2.979   4.994 -0.1339  3.1883  2.4273
 3919SOL     OW23392   2.591   4.496   5.928 -0.1846  0.0566 -0.2396
 3919SOL    HW123393   2.581   4.471   5.836  1.0285 -0.3697 -0.2484
 3919SOL    HW223394   2.550   4.583   5.920 -1.1379 -0.3370  0.2811
 3920SOL     OW23395   1.277   4.495  15.649 -0.1252  0.5216 -0.0436
 3920SOL    HW123396   1.321   4.416  15.618 -2.5441 -1.9004  2.7241
 3920SOL    HW223397   1.209   4.455  15.703 -0.4559  0.8706 -0.2018
 3921SOL     OW23398   3.352   1.569  12.929  0.1529  0.6453  0.2040
 3921SOL    HW123399   3.434   1.556  12.881  0.2407 -0.8453  0.7594
 3921SOL    HW223400   3.295   1.568  12.853  1.6093  0.7813 -0.8775
 3922SOL     OW23401   1.263   1.926   1.154  0.0786  0.5300 -0.5852
 3922SOL    HW123402   1.178   1.887   1.137  0.2057 -0.9111  2.0701
 3922SOL    HW223403   1.324   1.896   1.086  0.7020 -2.5052  1.3004
 3923SOL     OW23404   3.424   2.837   0.132  0.1479  0.2742  0.2004
 3923SOL    HW123405   3.482   2.874   0.199 -2.3803  0.9798  2.0309
 3923SOL    HW223406   3.407   2.749   0.166 -0.0779 -1.0049 -3.2367
 3924SOL     OW23407   3.397   4.637   5.034 -0.2436 -0.5896  0.1241
 3924SOL    HW123408   3.337   4.644   5.108  0.0065 -0.7076  0.3371
 3924SOL    HW223409   3.365   4.711   4.983 -0.1692 -1.0140 -0.5372
 3925SOL     OW23410   2.120   0.172   0.626  0.1340 -0.3447 -0.1886
 3925SOL    HW123411   2.025   0.173   0.640  0.0803 -2.9449 -0.3602
 3925SOL    HW223412   2.116   0.191   0.533  1.9324 -0.0395 -0.1954
 3926SOL     OW23413   0.433   1.186   4.543  0.5485  0.2480 -0.0464
 3926SOL    HW123414   0.469   1.098   4.550 -3.8755 -1.3896  1.9436
 3926SOL    HW223415   0.399   1.201   4.632 -1.0406  2.3314 -0.9994
 3927SOL     OW23416   3.734   1.695   3.778  0.2021  0.4337  0.6331
 3927SOL    HW123417   3.816   1.707   3.827  1.1193 -0.0129 -0.7819
 3927SOL    HW223418   3.699   1.784   3.779  1.6466  1.0291 -1.1080
 3928SOL     OW23419   2.386   0.426  17.216  0.5242  0.0281 -0.3747
 3928SOL    HW123420   2.481   0.424  17.199  0.7916  3.3022  0.7431
 3928SOL    HW223421   2.390   0.398  17.308 -0.3087 -1.8280 -0.8985
 3929SOL     OW23422   2.765   1.948   2.958  0.1822  0.2258 -0.2576
 3929SOL    HW123423   2.818   1.876   2.923 -0.9514  0.4952 -2.5058
 3929SOL    HW223424   2.738   1.910   3.042 -0.5292  1.5600  0.1036
 3930SOL     OW23425   3.412   0.250   8.702 -0.0939 -0.3014 -0.6463
 3930SOL    HW123426   3.341   0.284   8.649  0.3490 -0.5672 -1.4113
 3930SOL    HW223427   3.487   0.241   8.643  0.9622 -1.4823  0.8887
 3931SOL     OW23428   0.019   4.289   5.103 -0.3870  0.4327  0.0765
 3931SOL    HW123429   0.049   4.294   5.194  1.1819 -1.0518 -0.3712
 3931SOL    HW223430   0.059   4.213   5.060 -2.5748  0.2364 -1.6002
 3932SOL     OW23431   1.977   3.267   8.071  0.4882  0.1425  0.1772
 3932SOL    HW123432   2.036   3.313   8.011  0.3562  0.2504  0.1306
 3932SOL    HW223433   2.010   3.301   8.154  0.6566  3.4828 -1.2525
 3933SOL     OW23434   0.211   3.718   2.871  0.0003 -0.1389 -0.2583
 3933SOL    HW123435   0.167   3.780   2.813  2.1262  0.6455 -1.0018
 3933SOL    HW223436   0.219   3.646   2.808  1.0553  1.0291 -1.4513
 3934SOL     OW23437   1.030   2.135   7.307 -0.6227 -0.3368  0.8479
 3934SOL    HW123438   1.059   2.226   7.300 -1.3871 -0.0459  1.3604
 3934SOL    HW223439   1.017   2.130   7.402  4.7336 -0.0906  1.6097
 3935SOL     OW23440   3.735   0.310   6.825 -0.3236  0.1846  0.3530
 3935SOL    HW123441   3.828   0.322   6.805 -0.7095  0.5093 -1.2287
 3935SOL    HW223442   3.699   0.293   6.738  2.0016  0.1848 -0.6001
 3936SOL     OW23443   0.358   4.266   2.314  0.4490  0.1590 -0.2335
 3936SOL    HW123444   0.322   4.188   2.272  0.1295  0.7835 -1.1193
 3936SOL    HW223445   0.380   4.236   2.403 -0.7608  2.4589  0.8386
 3937SOL     OW23446   0.534   1.764   6.781 -0.2806 -0.4427 -0.2906
 3937SOL    HW123447   0.588   1.772   6.860 -0.6073 -2.0735  0.1019
 3937SOL    HW223448   0.564   1.842   6.734  2.0620 -0.4540  1.1651
 3938SOL     OW23449   1.373   3.560   6.876 -0.0579 -0.4363  0.3417
 3938SOL    HW123450   1.387   3.486   6.816  0.9036 -1.2885  1.6173
 3938SOL    HW223451   1.335   3.626   6.818  0.8695 -1.8850 -1.9229
 3939SOL     OW23452   2.399   4.480   2.945  0.1536 -0.0258  1.1425
 3939SOL    HW123453   2.305   4.498   2.940  0.1284 -0.2709  0.7061
 3939SOL    HW223454   2.398   4.385   2.928  0.8725  0.0175  0.8529
 3940SOL     OW23455   2.498   4.035   5.531  0.0236 -0.1751 -0.3901
 3940SOL    HW123456   2.462   3.969   5.590  0.1845 -0.7963 -0.9841
 3940SOL    HW223457   2.513   3.980   5.454  1.8798  2.8235 -2.1882
 3941SOL     OW23458   4.708   3.068  12.345  0.4244  0.0098 -0.6287
 3941SOL    HW123459   0.052   3.053  12.297  1.3477 -0.7100  1.1329
 3941SOL    HW223460   4.726   3.142  12.403  0.2028 -1.9752  1.9773
 3942SOL     OW23461   1.376   4.648   2.072  0.3999  0.2796  0.6135
 3942SOL    HW123462   1.369   0.002   2.099 -0.8216  1.0425 -2.2534
 3942SOL    HW223463   1.354   4.640   1.979 -0.4750  0.8486  0.7710
 3943SOL     OW23464   3.940   1.274   8.827 -0.2619 -0.0218 -0.1178
 3943SOL    HW123465   3.973   1.346   8.772  1.4508 -0.9490 -0.2857
 3943SOL    HW223466   3.913   1.314   8.909 -0.1263  1.2579 -0.6956
 3944SOL     OW23467   1.985   1.571   7.255 -0.3247  0.4438  0.4823
 3944SOL    HW123468   1.960   1.663   7.245  1.8871  1.0451  0.5675
 3944SOL    HW223469   2.030   1.572   7.340  0.0503  0.1407  0.2838
 3945SOL     OW23470   0.360   0.624   6.620  0.3029 -0.1638 -0.5171
 3945SOL    HW123471   0.358   0.561   6.692 -1.8143  0.3541 -0.1254
 3945SOL    HW223472   0.328   0.704   6.661 -0.9411 -1.2758  0.6718
 3946SOL     OW23473   4.449   2.036  12.904  0.4691 -0.2123 -0.5138
 3946SOL    HW123474   4.509   1.965  12.882  1.3390  0.2125  0.4561
 3946SOL    HW223475   4.517   2.088  12.948  0.7305 -0.9771 -0.0219
 3947SOL     OW23476   2.214   2.876   1.597  0.0531  0.5095 -0.2813
 3947SOL    HW123477   2.267   2.941   1.642  0.1657  0.8115 -0.8504
 3947SOL    HW223478   2.164   2.846   1.673  0.7927  2.2145  0.8665
 3948SOL     OW23479   1.658   0.856   2.136 -0.0031  0.2895 -0.4204
 3948SOL    HW123480   1.636   0.942   2.172 -0.1619  0.5423 -1.1189
 3948SOL    HW223481   1.733   0.869   2.078  0.5004  1.4842  0.4857
 3949SOL     OW23482   4.220   1.637  16.127 -0.1351 -0.3914  0.7078
 3949SOL    HW123483   4.245   1.712  16.074 -0.2125 -2.4235 -2.1814
 3949SOL    HW223484   4.259   1.563  16.081  0.6444  1.0141 -0.8741
 3950SOL     OW23485   4.434   2.929   5.555  0.4233  0.2565  0.1611
 3950SOL    HW123486   4.423   2.836   5.572  0.4343  0.0584 -0.9522
 3950SOL    HW223487   4.341   2.948   5.546  0.4396 -1.1411 -2.7176
 3951SOL     OW23488   3.931   0.800   0.294  0.9036 -0.1777 -0.9498
 3951SOL    HW123489   3.876   0.877   0.307 -1.1042 -1.7353 -0.2682
 3951SOL    HW223490   4.017   0.843   0.289  0.7830  0.3357  1.1924
 3952SOL     OW23491   1.401   1.415   1.761 -0.4194 -0.0346 -0.3413
 3952SOL    HW123492   1.309   1.390   1.749 -0.6268 -0.8448  3.1143
 3952SOL    HW223493   1.429   1.409   1.670 -0.3625 -0.8116 -0.2697
 3953SOL     OW23494   2.382   3.345  13.803 -0.4054 -0.3720 -0.4702
 3953SOL    HW123495   2.324   3.289  13.752 -1.8941  0.6617  0.0864
 3953SOL    HW223496   2.339   3.339  13.888 -1.8858 -0.2642 -1.2170
 3954SOL     OW23497   2.697   1.790   6.697  0.2564  0.4929 -0.1033
 3954SOL    HW123498   2.687   1.702   6.733  0.3478  0.2804 -0.5839
 3954SOL    HW223499   2.696   1.771   6.603 -0.2931  1.3508 -0.2695
 3955SOL     OW23500   3.756   4.269  17.176 -0.1413  1.0156 -0.0727
 3955SOL    HW123501   3.721   4.236  17.094  2.4211 -1.7504 -0.0739
 3955SOL    HW223502   3.768   4.181  17.211 -0.2981  0.2520 -1.9546
 3956SOL     OW23503   0.869   0.937   5.923  0.2839  0.4162  0.0714
 3956SOL    HW123504   0.814   0.861   5.943  0.1310 -0.1854 -2.6650
 3956SOL    HW223505   0.950   0.909   5.966  0.8687  2.9273  0.6183
 3957SOL     OW23506   4.678   1.160   7.226 -0.2160  0.9136  0.4677
 3957SOL    HW123507   4.696   1.236   7.171 -0.2457 -0.5206 -1.5170
 3957SOL    HW223508   4.582   1.154   7.219 -0.3846  4.3464  0.1917
 3958SOL     OW23509   3.821   1.465  14.038 -0.6539  0.4442  0.0060
 3958SOL    HW123510   3.831   1.537  14.100  0.8343 -0.0376  0.3111
 3958SOL    HW223511   3.827   1.517  13.957  0.6436  2.2010  1.2387
 3959SOL     OW23512   4.261   3.384   2.001  0.5176  0.0601 -0.8235
 3959SOL    HW123513   4.169   3.384   1.973  0.7372  1.1344 -1.5231
 3959SOL    HW223514   4.273   3.476   2.022 -1.7918  0.1116  0.3010
 3960SOL     OW23515   1.384   2.256   6.456 -0.1395 -0.0094  0.0155
 3960SOL    HW123516   1.382   2.165   6.485  1.1906 -0.6044 -1.8179
 3960SOL    HW223517   1.341   2.250   6.371 -0.9101  1.0518  0.3308
 3961SOL     OW23518   0.557   1.093   7.873  0.4584 -0.4727  0.3024
 3961SOL    HW123519   0.470   1.064   7.902 -0.9378  1.6986 -1.7613
 3961SOL    HW223520   0.571   1.158   7.942 -0.5071  0.0190  0.0276
 3962SOL     OW23521   3.772   3.706   6.159 -0.2316 -0.1931  0.1582
 3962SOL    HW123522   3.716   3.696   6.082 -0.7574  2.5057  0.2173
 3962SOL    HW223523   3.772   3.614   6.187 -1.2227 -0.3334 -0.3112
 3963SOL     OW23524   4.659   0.841  12.826 -0.0193 -0.2098  0.0604
 3963SOL    HW123525   4.714   0.904  12.781 -1.2023  2.1139  1.8944
 3963SOL    HW223526   4.598   0.816  12.757  1.6380  1.1993 -1.8963
 3964SOL     OW23527   3.224   1.268  16.216 -0.5780 -0.0061 -0.0540
 3964SOL    HW123528   3.177   1.263  16.300  1.8176  0.7924  1.3417
 3964SOL    HW223529   3.172   1.203  16.169 -1.9771  0.3735  0.9632
 3965SOL     OW23530   0.469   2.562   2.498  0.3407  0.0718 -0.2255
 3965SOL    HW123531   0.547   2.616   2.485 -0.0060  0.4648 -0.6685
 3965SOL    HW223532   0.401   2.627   2.519 -0.2416 -0.6992  0.2644
 3966SOL     OW23533   1.021   0.251   0.538  0.3106 -0.1724 -0.1798
 3966SOL    HW123534   1.026   0.228   0.630 -0.4042  0.1827 -0.0528
 3966SOL    HW223535   1.112   0.230   0.518  0.3531 -0.5715  0.4468
 3967SOL     OW23536   3.807   3.546   5.870 -0.5227 -0.1470  0.2218
 3967SOL    HW123537   3.881   3.545   5.931  0.8819 -0.9048 -1.4949
 3967SOL    HW223538   3.753   3.471   5.897  0.1949 -0.6013  0.3937
 3968SOL     OW23539   3.121   0.493  11.336 -0.2700  0.2166 -0.1254
 3968SOL    HW123540   3.030   0.480  11.360  0.3256 -0.8323  1.6044
 3968SOL    HW223541   3.161   0.507  11.422  1.7503  3.4082 -1.6090
 3969SOL     OW23542   2.576   1.867   5.645 -0.2268 -0.5285 -0.0302
 3969SOL    HW123543   2.506   1.834   5.701  0.1343 -0.5939  0.3927
 3969SOL    HW223544   2.633   1.790   5.650  1.6284  0.7223 -1.8280
 3970SOL     OW23545   1.192   2.736   1.294 -0.4390 -0.0454 -0.5067
 3970SOL    HW123546   1.155   2.705   1.211  0.9676  1.7753 -1.8062
 3970SOL    HW223547   1.284   2.715   1.281  0.0800  0.7000  2.0037
 3971SOL     OW23548   1.224   4.594   5.726 -0.4276 -0.3466 -0.6160
 3971SOL    HW123549   1.196   4.686   5.725  1.1185  0.1126 -0.5451
 3971SOL    HW223550   1.311   4.590   5.765 -0.3687  2.7163 -0.4744
 3972SOL     OW23551   0.198   0.392   7.973  0.3961  0.3352  0.6735
 3972SOL    HW123552   0.120   0.413   8.024 -1.2132 -0.2473 -1.5583
 3972SOL    HW223553   0.241   0.329   8.030  0.1778 -0.6754 -0.2551
 3973SOL     OW23554   3.759   1.135   8.513 -0.4825  0.3093 -0.2427
 3973SOL    HW123555   3.777   1.225   8.539  0.4237  0.0616 -0.0129
 3973SOL    HW223556   3.762   1.142   8.417 -0.8391 -1.2074 -0.3670
 3974SOL     OW23557   1.229   0.241   6.580  0.1537  0.1286  0.1748
 3974SOL    HW123558   1.278   0.199   6.651 -0.3075 -1.0075 -0.1798
 3974SOL    HW223559   1.187   0.167   6.536  1.2148 -0.7786  0.6619
 3975SOL     OW23560   2.163   1.522   3.727  0.8988 -0.1628 -0.5325
 3975SOL    HW123561   2.216   1.601   3.719  1.6033 -0.3410  2.4382
 3975SOL    HW223562   2.119   1.516   3.642  0.5349  3.3636 -0.6169
 3976SOL     OW23563   0.860   2.602   4.450 -0.0733  0.7015 -0.1443
 3976SOL    HW123564   0.802   2.649   4.391  0.1021 -0.7878 -1.4987
 3976SOL    HW223565   0.905   2.674   4.494  0.7292 -0.0185  0.2102
 3977SOL     OW23566   4.288   0.481   7.363 -0.4779 -0.0373 -0.0279
 3977SOL    HW123567   4.262   0.572   7.377  1.1964  0.2078  1.4041
 3977SOL    HW223568   4.233   0.442   7.431  0.7123 -1.5355  0.0746
 3978SOL     OW23569   3.817   3.268  16.319  0.4471  0.3166 -0.4767
 3978SOL    HW123570   3.907   3.251  16.290 -0.0140  0.1645 -1.8009
 3978SOL    HW223571   3.785   3.332  16.256 -3.8550 -1.7070 -0.2934
 3979SOL     OW23572   2.576   0.277  15.335 -0.6722 -0.2524 -0.5507
 3979SOL    HW123573   2.577   0.223  15.414  2.0361 -0.1041 -0.4835
 3979SOL    HW223574   2.590   0.208  15.270  1.4101 -2.0581  1.8181
 3980SOL     OW23575   2.326   1.589   8.647  0.3903 -0.2394 -0.2684
 3980SOL    HW123576   2.338   1.637   8.565 -1.5141  1.5438  0.5035
 3980SOL    HW223577   2.251   1.534   8.622  1.2858 -2.3936  1.7811
 3981SOL     OW23578   0.044   3.889   8.098  0.1978  0.3428 -0.4605
 3981SOL    HW123579   4.712   3.838   8.138  0.8680  1.1984  1.7929
 3981SOL    HW223580   0.111   3.868   8.163  0.6180 -1.5779 -1.5105
 3982SOL     OW23581   3.538   3.066   4.690 -0.3256 -0.2198  0.2641
 3982SOL    HW123582   3.611   3.085   4.630  0.4595 -2.8725  0.3656
 3982SOL    HW223583   3.556   3.128   4.760 -0.0824  1.3946 -1.2258
 3983SOL     OW23584   2.097   3.941   1.433 -0.2719  0.4568 -0.3813
 3983SOL    HW123585   2.013   3.927   1.389  0.1407 -0.9413 -0.7579
 3983SOL    HW223586   2.122   4.019   1.384  0.4774  0.0732 -0.6263
 3984SOL     OW23587   3.453   1.566  12.292 -0.3874 -0.2597  0.3774
 3984SOL    HW123588   3.475   1.480  12.328  1.3048 -0.7712 -1.8487
 3984SOL    HW223589   3.443   1.554  12.197  0.8212  1.0336  0.0826
 3985SOL     OW23590   1.136   0.623   4.410  0.6030 -0.3678  1.1386
 3985SOL    HW123591   1.114   0.588   4.324  1.0105  1.0195  0.4583
 3985SOL    HW223592   1.177   0.704   4.380  0.1819 -0.0787  1.3448
 3986SOL     OW23593   4.666   1.840   6.500  0.4770 -0.0308  0.1668
 3986SOL    HW123594   4.653   1.821   6.593  2.0278 -2.5255 -0.1154
 3986SOL    HW223595   4.574   1.853   6.479  0.2835 -0.5294  0.7080
 3987SOL     OW23596   3.390   3.943   8.943  0.2523 -1.0655  0.1084
 3987SOL    HW123597   3.437   3.971   8.864 -1.8501  0.3315 -0.6401
 3987SOL    HW223598   3.382   4.033   8.974  0.7882 -0.4296 -1.5957
 3988SOL     OW23599   3.067   1.301   2.277  0.5336 -0.5851 -0.0024
 3988SOL    HW123600   3.074   1.275   2.369 -0.2852 -0.4643  0.0937
 3988SOL    HW223601   2.975   1.325   2.281  0.6497 -0.2543  0.8101
 3989SOL     OW23602   0.158   1.971   1.242 -0.2004  0.3198 -0.4119
 3989SOL    HW123603   0.134   1.988   1.333 -0.1619 -1.3881 -0.0766
 3989SOL    HW223604   0.249   1.940   1.245 -1.1531 -2.5996 -1.4607
 3990SOL     OW23605   3.618   1.792   2.735  0.2221  0.4176 -0.1828
 3990SOL    HW123606   3.543   1.811   2.679 -0.5312 -0.0564  0.6690
 3990SOL    HW223607   3.640   1.703   2.706  1.6131  0.0129  2.1473
 3991SOL     OW23608   2.358   1.621   7.437 -0.2535  0.3972 -0.5052
 3991SOL    HW123609   2.429   1.652   7.381 -0.3169 -1.3924 -1.6055
 3991SOL    HW223610   2.289   1.676   7.399 -1.9672 -1.3776  0.0537
 3992SOL     OW23611   4.642   2.741   2.703  0.3111  0.1240 -0.1176
 3992SOL    HW123612   4.701   2.789   2.644  2.1097 -0.5260  1.1762
 3992SOL    HW223613   4.699   2.669   2.727  0.4976 -0.4240 -2.2203
 3993SOL     OW23614   3.437   3.081  12.650  0.0977 -0.2382 -0.4538
 3993SOL    HW123615   3.456   3.121  12.734 -2.4394 -0.9184  0.4120
 3993SOL    HW223616   3.447   3.159  12.595 -2.6513 -0.8113 -1.7778
 3994SOL     OW23617   4.308   1.754   3.054 -0.3398 -0.5853 -0.0788
 3994SOL    HW123618   4.287   1.808   3.130  0.4246  2.1036 -1.7659
 3994SOL    HW223619   4.324   1.826   2.992 -0.5707  0.2364  0.8109
 3995SOL     OW23620   2.802   3.470  14.981  0.3783 -0.5907  0.3170
 3995SOL    HW123621   2.850   3.515  14.912  0.0192  0.4546  0.7562
 3995SOL    HW223622   2.723   3.522  14.994 -1.0208 -2.5701 -0.3036
 3996SOL     OW23623   0.007   3.212   5.314  0.5797 -0.4014  0.2047
 3996SOL    HW123624   0.078   3.265   5.351  1.1768 -0.5126 -0.7634
 3996SOL    HW223625   0.048   3.137   5.271  0.3010 -1.2020  1.3313
 3997SOL     OW23626   3.418   0.049   9.663 -0.5224  0.3215  0.5007
 3997SOL    HW123627   3.418   0.143   9.683 -0.0943  0.3851  0.2152
 3997SOL    HW223628   3.352   0.041   9.595  0.5178  0.6502 -0.5536
 3998SOL     OW23629   3.295   1.942  12.527  0.6397 -0.3758  0.3658
 3998SOL    HW123630   3.250   1.907  12.604  1.7302 -3.8380 -0.5841
 3998SOL    HW223631   3.219   1.941  12.470  0.9245 -0.8170 -0.0015
 3999SOL     OW23632   4.302   3.980  16.405  0.0043  0.3354 -0.5326
 3999SOL    HW123633   4.386   3.996  16.448  1.5889 -0.4644 -3.3015
 3999SOL    HW223634   4.243   4.027  16.464  2.0912  0.4655  1.4503
 4000SOL     OW23635   3.012   4.603   3.671  0.0920  0.2352  0.3833
 4000SOL    HW123636   2.985   4.546   3.599 -2.1330  1.5974  0.1372
 4000SOL    HW223637   3.090   4.552   3.695  1.2137  1.8562  0.1672
 4001SOL     OW23638   3.933   0.467  16.495 -0.0336 -0.4199  0.7568
 4001SOL    HW123639   3.896   0.398  16.440  0.5069 -0.6414  0.6639
 4001SOL    HW223640   3.877   0.543  16.486 -1.1419 -1.4900 -1.4011
 4002SOL     OW23641   2.306   3.108  17.218  0.4403 -0.1049 -0.5205
 4002SOL    HW123642   2.249   3.182  17.196 -0.4056 -0.5375  0.2236
 4002SOL    HW223643   2.250   3.034  17.195 -0.0662  1.4150 -4.1665
 4003SOL     OW23644   1.183   1.464   8.320  0.7915 -0.1011  0.0075
 4003SOL    HW123645   1.228   1.380   8.307  2.5643  0.7324  0.7205
 4003SOL    HW223646   1.249   1.521   8.281 -1.9410  2.6266 -0.6525
 4004SOL     OW23647   1.233   1.396  17.433 -0.0327  0.0014 -0.4632
 4004SOL    HW123648   1.206   1.369  17.521  2.7966 -0.0707  0.3854
 4004SOL    HW223649   1.226   1.316  17.383  0.0136 -1.3010  1.6027
 4005SOL     OW23650   3.828   3.059   1.703 -0.9045 -0.2204  0.2938
 4005SOL    HW123651   3.849   3.058   1.610  1.2492 -0.8511  0.7919
 4005SOL    HW223652   3.915   3.044   1.740 -1.6557 -2.3442  1.2117
 4006SOL     OW23653   4.730   2.855   9.250  0.5266 -0.4943  0.3668
 4006SOL    HW123654   0.020   2.943   9.275 -0.3498  0.0388 -0.5287
 4006SOL    HW223655   4.663   2.872   9.184  0.9964 -2.9639 -0.7460
 4007SOL     OW23656   1.001   2.004  11.838  0.1651  0.3036  0.3649
 4007SOL    HW123657   0.976   2.068  11.905  3.4622 -2.4467  4.2414
 4007SOL    HW223658   0.984   2.057  11.760  2.3333 -0.0735 -0.3611
 4008SOL     OW23659   3.279   4.635   4.347 -0.5663  0.0547  0.3232
 4008SOL    HW123660   3.327   4.661   4.268 -0.9883  0.7698  0.2940
 4008SOL    HW223661   3.229   4.556   4.326 -0.2154 -0.5577  1.8511
 4009SOL     OW23662   0.380   3.618   5.665  0.0823  0.1408 -0.1094
 4009SOL    HW123663   0.406   3.627   5.757  0.7502  0.6342 -0.3394
 4009SOL    HW223664   0.461   3.640   5.619  0.5917 -3.0099 -0.7392
 4010SOL     OW23665   3.380   2.515   7.779 -0.4705  0.4435 -0.4217
 4010SOL    HW123666   3.378   2.574   7.854 -0.6857 -0.1280  0.0222
 4010SOL    HW223667   3.286   2.524   7.764 -0.4697 -0.2451 -0.8197
 4011SOL     OW23668   0.527   0.936   5.227  0.1688 -0.3164  0.3845
 4011SOL    HW123669   0.491   0.848   5.238 -0.9712  0.0496 -0.4725
 4011SOL    HW223670   0.620   0.928   5.247 -0.1782 -1.8438  1.4206
 4012SOL     OW23671   3.112   4.205   8.582  0.4478 -0.0800 -0.0881
 4012SOL    HW123672   3.039   4.153   8.550  0.5747 -0.7354  0.6964
 4012SOL    HW223673   3.071   4.251   8.655 -1.0783 -0.0386 -0.9838
 4013SOL     OW23674   1.521   1.541   1.171  0.5867  0.0262 -0.6295
 4013SOL    HW123675   1.426   1.541   1.171  0.5859 -2.0795  3.3900
 4013SOL    HW223676   1.534   1.636   1.164 -0.8899  0.4419  1.9640
 4014SOL     OW23677   1.700   2.952  13.352 -0.6178  0.2168 -0.3828
 4014SOL    HW123678   1.637   2.968  13.282  0.2329  0.3752 -1.1151
 4014SOL    HW223679   1.766   3.017  13.327  0.5416 -0.4966  0.8188
 4015SOL     OW23680   2.449   2.870  16.325  0.7167 -0.2245  0.2267
 4015SOL    HW123681   2.367   2.848  16.282 -1.4202  0.8787  3.7145
 4015SOL    HW223682   2.420   2.858  16.415  1.4627 -0.7011  0.3998
 4016SOL     OW23683   1.419   1.313   2.789  0.7206  0.3267  0.5616
 4016SOL    HW123684   1.407   1.263   2.870 -0.6928 -0.8093 -0.3394
 4016SOL    HW223685   1.493   1.367   2.815  0.5935  0.2556  1.0691
 4017SOL     OW23686   4.665   3.452   1.072  0.0843 -0.2127  0.3778
 4017SOL    HW123687   4.638   3.449   1.164 -0.1710 -2.3548  0.2388
 4017SOL    HW223688   4.639   3.543   1.060 -0.5426 -0.5682 -1.0100
 4018SOL     OW23689   0.266   3.969   5.243 -0.0788  0.0321  0.5390
 4018SOL    HW123690   0.321   3.999   5.315 -0.8958 -0.3726  1.3315
 4018SOL    HW223691   0.188   3.941   5.290 -1.9252 -0.3331 -2.7456
 4019SOL     OW23692   3.887   1.835  12.169 -0.5272  0.1081 -0.3129
 4019SOL    HW123693   3.899   1.928  12.187 -0.8814  0.1310 -0.1875
 4019SOL    HW223694   3.972   1.824  12.126 -0.3907  2.5901 -0.6931
 4020SOL     OW23695   1.502   3.248  11.731 -0.3375  0.3392 -0.1115
 4020SOL    HW123696   1.494   3.221  11.822 -1.3653 -0.3678 -0.4058
 4020SOL    HW223697   1.570   3.191  11.695  0.3009  0.9170  0.1842
 4021SOL     OW23698   2.566   3.380   3.951 -0.3674  0.5865 -0.0058
 4021SOL    HW123699   2.526   3.293   3.943 -0.1634  0.4672  0.2642
 4021SOL    HW223700   2.594   3.381   4.042 -2.9120 -0.0454  0.7815
 4022SOL     OW23701   4.621   0.074  12.910 -0.2714 -0.5518 -0.5211
 4022SOL    HW123702   4.537   0.109  12.939  0.8228  2.0313 -0.4144
 4022SOL    HW223703   4.652   0.131  12.839 -1.9948  1.1203  0.0674
 4023SOL     OW23704   0.367   4.601   1.281  0.0072 -0.3887 -0.6587
 4023SOL    HW123705   0.292   4.555   1.243 -0.7720  0.0584  0.3242
 4023SOL    HW223706   0.412   4.625   1.200  0.3690  2.7508  0.4751
 4024SOL     OW23707   4.525   3.657   3.212  0.1925  0.3279  0.2095
 4024SOL    HW123708   4.469   3.723   3.252 -1.4346 -0.4173 -0.8630
 4024SOL    HW223709   4.505   3.583   3.269  1.7933 -0.3602 -0.0999
 4025SOL     OW23710   0.764   0.329  11.808  0.2463 -0.0554 -0.0161
 4025SOL    HW123711   0.849   0.288  11.828  0.4598  1.9285  3.1962
 4025SOL    HW223712   0.786   0.416  11.773  1.2477 -0.5002 -0.5003
 4026SOL     OW23713   2.442   3.214  16.993  0.7245  0.0122  0.4868
 4026SOL    HW123714   2.522   3.177  16.955  0.2974  0.7148 -1.1170
 4026SOL    HW223715   2.421   3.157  17.066  0.3199 -2.1151 -1.2945
 4027SOL     OW23716   0.456   1.507   1.549  0.0607 -0.8227 -0.1674
 4027SOL    HW123717   0.444   1.434   1.609 -2.8779  0.6345  1.0216
 4027SOL    HW223718   0.395   1.482   1.479  0.1895 -0.4349 -0.4184
 4028SOL     OW23719   4.193   2.401   1.172 -0.6856  0.2500  0.0113
 4028SOL    HW123720   4.189   2.349   1.092 -2.4110  1.3187 -0.5966
 4028SOL    HW223721   4.260   2.467   1.158 -0.4727  0.4911  2.0648
 4029SOL     OW23722   2.346   1.892   8.709 -0.7817 -0.6440  0.1974
 4029SOL    HW123723   2.295   1.811   8.714  0.8503 -1.6254  0.8577
 4029SOL    HW223724   2.328   1.919   8.799 -1.4634 -0.5942  0.0439
 4030SOL     OW23725   0.222   0.616  11.531 -0.6436  0.3101  0.2137
 4030SOL    HW123726   0.127   0.617  11.540 -0.8689 -0.5397 -2.1448
 4030SOL    HW223727   0.243   0.704  11.563  1.2978 -0.4891  1.1497
 4031SOL     OW23728   4.660   3.102   0.247 -0.0159 -0.2445 -0.5795
 4031SOL    HW123729   4.566   3.120   0.254  0.0524  0.2613 -1.0228
 4031SOL    HW223730   4.685   3.115   0.156 -0.3880 -0.0353 -0.6511
 4032SOL     OW23731   0.241   0.772   5.448 -0.1353  0.1504 -0.3531
 4032SOL    HW123732   0.214   0.691   5.491  0.3428 -0.1286 -0.5801
 4032SOL    HW223733   0.260   0.747   5.358 -1.1794  0.5588 -0.6861
 4033SOL     OW23734   2.993   3.126   3.411 -0.0434  0.0992 -0.4136
 4033SOL    HW123735   3.062   3.066   3.381  0.6122  1.0999 -0.9006
 4033SOL    HW223736   3.045   3.206   3.409  0.6906 -0.4587 -3.4570
 4034SOL     OW23737   3.175   3.262   2.580 -0.0493 -0.1028  0.0343
 4034SOL    HW123738   3.133   3.236   2.498  1.1495 -1.1636 -0.2501
 4034SOL    HW223739   3.100   3.255   2.638  0.3897 -2.6567  0.2934
 4035SOL     OW23740   0.890   3.479   6.595  0.2785  0.1096 -0.3840
 4035SOL    HW123741   0.818   3.533   6.628  2.0270  0.0132  3.5153
 4035SOL    HW223742   0.972   3.522   6.618  1.2983 -1.2283 -1.5197
 4036SOL     OW23743   2.922   4.412  15.025  0.3527 -0.8760  0.1774
 4036SOL    HW123744   2.962   4.327  15.047 -0.0189 -0.2987  3.1238
 4036SOL    HW223745   2.832   4.413  15.058 -0.7367  0.3166 -2.8650
 4037SOL     OW23746   3.945   2.126   7.292  0.0166  0.3143 -0.3436
 4037SOL    HW123747   3.991   2.210   7.290 -0.3544  0.5688  1.8924
 4037SOL    HW223748   4.014   2.066   7.320 -2.0940 -1.9582 -0.0544
 4038SOL     OW23749   4.735   0.067   7.313 -0.3847  0.2016 -0.2988
 4038SOL    HW123750   0.013   0.036   7.224 -1.3753  0.3613 -0.5369
 4038SOL    HW223751   0.076   0.030   7.352 -1.5276  0.5238  2.3627
 4039SOL     OW23752   4.414   2.362   8.144  0.1032 -0.7975 -0.1589
 4039SOL    HW123753   4.471   2.288   8.165  0.4028 -0.0173  1.7668
 4039SOL    HW223754   4.374   2.375   8.230  1.2424  1.8933 -0.0379
 4040SOL     OW23755   0.295   1.233   6.252 -0.2236  0.0688  0.1737
 4040SOL    HW123756   0.374   1.182   6.237  0.7401  2.2731 -2.4012
 4040SOL    HW223757   0.327   1.305   6.306 -1.4525  0.8475 -0.1260
 4041SOL     OW23758   3.599   4.619   7.099 -0.5541 -0.3060  0.1254
 4041SOL    HW123759   3.570   4.707   7.123 -0.8328 -0.3370 -0.0932
 4041SOL    HW223760   3.681   4.638   7.055 -0.5726  0.5746  0.4767
 4042SOL     OW23761   2.165   2.052   3.968 -0.6256  0.1369 -0.2104
 4042SOL    HW123762   2.130   2.039   3.880 -2.0198 -0.3308  0.4189
 4042SOL    HW223763   2.107   1.997   4.019  0.0720  1.4066  1.9711
 4043SOL     OW23764   2.332   1.948   4.429  0.1548 -0.4788  0.2152
 4043SOL    HW123765   2.426   1.961   4.422  0.0703 -0.4171 -0.8006
 4043SOL    HW223766   2.299   1.988   4.348 -1.4723 -3.3874 -0.5806
 4044SOL     OW23767   1.084   2.528  15.812  0.0879  0.0118  0.7060
 4044SOL    HW123768   1.022   2.506  15.882 -1.2455 -0.1482 -0.5302
 4044SOL    HW223769   1.163   2.497  15.857 -0.5365 -2.3377  0.1950
 4045SOL     OW23770   2.394   1.101   7.363 -0.7587 -0.1629 -0.0877
 4045SOL    HW123771   2.406   1.130   7.454  0.8505  1.1694 -0.7154
 4045SOL    HW223772   2.338   1.169   7.328 -1.4353 -1.5878 -1.7667
 4046SOL     OW23773   1.896   3.831  11.581  0.5746 -0.1349  0.1931
 4046SOL    HW123774   1.931   3.912  11.619 -1.5173  0.9943 -0.2924
 4046SOL    HW223775   1.824   3.864  11.527  0.8403  2.5621  1.4766
 4047SOL     OW23776   2.242   1.436   2.863 -0.2493 -0.6389  0.1002
 4047SOL    HW123777   2.203   1.464   2.780  1.6950 -0.8452 -0.8969
 4047SOL    HW223778   2.219   1.505   2.925 -0.4756 -0.2301 -0.4338
 4048SOL     OW23779   1.145   0.127   5.709  0.5918 -0.2807  0.8289
 4048SOL    HW123780   1.114   0.139   5.619  2.3174 -0.2360  0.2377
 4048SOL    HW223781   1.115   0.201   5.762 -5.4921 -1.0040 -1.6908
 4049SOL     OW23782   2.074   1.653   6.996 -0.9763 -0.1772  0.2571
 4049SOL    HW123783   2.080   1.640   7.090  0.0975 -0.4898  0.1459
 4049SOL    HW223784   2.035   1.740   6.989 -2.1384 -0.6171  1.3200
 4050SOL     OW23785   2.133   4.230   6.043  0.0699  0.2502 -0.2901
 4050SOL    HW123786   2.189   4.191   6.109 -2.4269 -0.2888  1.5222
 4050SOL    HW223787   2.173   4.205   5.960  0.9948 -3.2303  1.2087
 4051SOL     OW23788   1.927   0.996   3.381 -0.4805  0.3601  0.5690
 4051SOL    HW123789   1.948   0.933   3.312 -0.2579  0.6799  0.3446
 4051SOL    HW223790   1.836   0.977   3.406 -0.3814  0.4370  0.9886
 4052SOL     OW23791   0.494   1.092   7.205  0.8258 -0.2339  0.0715
 4052SOL    HW123792   0.399   1.101   7.219  1.0319  0.9012  0.7484
 4052SOL    HW223793   0.525   1.057   7.289 -0.6962 -1.1816  0.2475
 4053SOL     OW23794   0.865   1.149   3.256 -0.3385 -0.6953 -0.1689
 4053SOL    HW123795   0.905   1.109   3.178  0.9898 -0.9229  0.6305
 4053SOL    HW223796   0.862   1.073   3.314 -0.0311  1.5096  2.7122
 4054SOL     OW23797   4.527   1.621   1.620 -0.6118  0.5671  0.0599
 4054SOL    HW123798   4.596   1.610   1.554 -2.2966  1.0949 -1.7688
 4054SOL    HW223799   4.452   1.629   1.561 -1.1944 -1.9394  0.4321
 4055SOL     OW23800   4.183   1.412   5.698 -0.2156 -0.0134 -0.5682
 4055SOL    HW123801   4.277   1.429   5.702 -0.0498 -0.7344 -1.4530
 4055SOL    HW223802   4.173   1.324   5.734  1.7551 -0.3640 -0.8976
 4056SOL     OW23803   0.792   2.013   2.188  0.0138 -0.1140 -0.0415
 4056SOL    HW123804   0.827   2.101   2.205  0.4258 -0.5288  1.2518
 4056SOL    HW223805   0.750   2.035   2.105 -2.3428  0.6282  1.3482
 4057SOL     OW23806   1.375   1.788   1.375 -0.5092  0.5161  0.0997
 4057SOL    HW123807   1.453   1.837   1.348 -0.9744  1.0420 -0.2778
 4057SOL    HW223808   1.324   1.803   1.295 -2.2802 -2.1460  0.7174
 4058SOL     OW23809   4.288   0.779  16.123 -0.8989  0.3433 -0.0248
 4058SOL    HW123810   4.233   0.844  16.078 -1.0430 -0.4978 -1.0577
 4058SOL    HW223811   4.246   0.800  16.207  2.2172  0.1829  1.5877
 4059SOL     OW23812   2.118   2.057   9.731  0.3378 -0.4390  0.2643
 4059SOL    HW123813   2.210   2.032   9.726  0.1446 -0.8586 -1.4653
 4059SOL    HW223814   2.075   1.979   9.697  1.4318 -0.2136 -1.6726
 4060SOL     OW23815   0.620   4.100   3.301  0.0207 -0.0458 -0.5401
 4060SOL    HW123816   0.646   4.140   3.219 -0.7278  1.6209  0.0429
 4060SOL    HW223817   0.706   4.087   3.341  0.3731 -0.9030 -1.5763
 4061SOL     OW23818   4.619   3.380   3.278  0.2192 -0.1381  0.0078
 4061SOL    HW123819   4.617   3.285   3.293  0.2290 -0.1223  0.1089
 4061SOL    HW223820   4.526   3.399   3.281  0.4091  0.6966  0.4221
 4062SOL     OW23821   0.295   2.423   7.606 -0.6009  0.4663  0.1859
 4062SOL    HW123822   0.360   2.360   7.638 -3.8784 -2.2451  1.4270
 4062SOL    HW223823   0.346   2.504   7.608 -0.1527  0.1667  1.1450
 4063SOL     OW23824   4.415   4.340   7.925  0.4329 -0.1250  0.5712
 4063SOL    HW123825   4.369   4.325   8.008  1.0352 -1.1966  0.7214
 4063SOL    HW223826   4.404   4.435   7.922  2.0011  0.0514  0.5699
 4064SOL     OW23827   4.595   1.642   7.487  0.7693  0.8891 -0.2043
 4064SOL    HW123828   4.521   1.608   7.436  0.8832  0.6984 -0.2432
 4064SOL    HW223829   4.627   1.700   7.418  1.7749  1.2454  0.5591
 4065SOL     OW23830   2.241   0.282   1.850  0.2531 -0.0385 -0.0843
 4065SOL    HW123831   2.255   0.305   1.942  1.3852 -0.6692 -0.0979
 4065SOL    HW223832   2.149   0.266   1.830  0.8706 -2.8874 -0.7310
 4066SOL     OW23833   0.062   3.966   3.584 -0.0644 -0.0731 -0.3614
 4066SOL    HW123834   0.060   3.894   3.521  1.3522  0.0242 -0.5330
 4066SOL    HW223835   0.081   4.046   3.534 -0.2966 -0.1865 -0.6301
 4067SOL     OW23836   3.113   4.128  13.179  0.0835 -0.3049 -0.3894
 4067SOL    HW123837   3.076   4.213  13.155 -2.3892 -1.5410 -1.0233
 4067SOL    HW223838   3.064   4.069  13.122 -1.7366  0.1080  0.7334
 4068SOL     OW23839   1.562   1.994   4.009  0.1293  0.3186  0.2558
 4068SOL    HW123840   1.574   2.061   3.941  1.1205 -1.2371 -1.1171
 4068SOL    HW223841   1.542   1.920   3.952  0.4385 -0.4870  1.2131
 4069SOL     OW23842   4.688   1.326   6.569  0.3794 -0.5454  0.3366
 4069SOL    HW123843   4.729   1.240   6.557 -0.5553 -0.7175 -1.6108
 4069SOL    HW223844   4.701   1.334   6.664 -0.4276  0.0328  0.4027
 4070SOL     OW23845   1.139   0.584   9.135 -0.4241 -0.3111  0.0970
 4070SOL    HW123846   1.102   0.538   9.210 -0.6016 -0.0348  0.1772
 4070SOL    HW223847   1.095   0.669   9.134 -0.5702 -0.3803  0.6536
 4071SOL     OW23848   3.526   1.591  17.275 -0.1268  0.3037  0.3769
 4071SOL    HW123849   3.613   1.552  17.287  0.0117  0.4428 -0.2280
 4071SOL    HW223850   3.511   1.555  17.188  0.8128 -0.2898  0.4511
 4072SOL     OW23851   1.433   3.266  10.193 -0.0389  0.6513 -0.0552
 4072SOL    HW123852   1.518   3.303  10.170 -0.0982  0.5846 -0.3812
 4072SOL    HW223853   1.387   3.350  10.188 -1.4827  0.0274  2.9605
 4073SOL     OW23854   3.476   2.520   2.098  0.2170  0.0111 -0.3484
 4073SOL    HW123855   3.482   2.433   2.136 -1.4170 -0.0244 -0.1698
 4073SOL    HW223856   3.381   2.527   2.100  0.1471 -0.5743 -1.7579
 4074SOL     OW23857   3.608   1.925   3.776  0.3476  0.2882  0.2326
 4074SOL    HW123858   3.687   1.979   3.787  1.6373 -1.2545 -1.3823
 4074SOL    HW223859   3.534   1.983   3.792 -0.4504 -0.1976 -1.7705
 4075SOL     OW23860   1.003   3.928   2.717  0.1501  0.5417 -0.4144
 4075SOL    HW123861   1.013   3.858   2.781 -0.7593  0.5082 -0.3193
 4075SOL    HW223862   1.049   3.996   2.765 -0.8072  1.8497 -1.3328
 4076SOL     OW23863   1.798   4.277  11.612 -0.3462 -0.3079  0.6930
 4076SOL    HW123864   1.856   4.353  11.618  0.6011 -0.9376 -0.5583
 4076SOL    HW223865   1.866   4.211  11.624 -0.9439 -1.2676 -1.3170
 4077SOL     OW23866   0.892   4.194   6.276 -0.2191 -0.0238 -0.3161
 4077SOL    HW123867   0.852   4.223   6.358  2.8433  3.8075 -0.1786
 4077SOL    HW223868   0.824   4.141   6.234 -0.4131  1.7621 -2.2891
 4078SOL     OW23869   4.303   1.876   4.116 -0.2494  0.1715  0.1674
 4078SOL    HW123870   4.397   1.875   4.137 -0.9717  0.7968  3.5206
 4078SOL    HW223871   4.284   1.783   4.130  2.4611 -0.5362 -0.7086
 4079SOL     OW23872   2.556   3.138   6.713 -0.1121 -0.3199 -0.1251
 4079SOL    HW123873   2.517   3.211   6.761  0.4066 -0.3790  0.3865
 4079SOL    HW223874   2.637   3.128   6.762  0.4613 -1.2194 -1.2699
 4080SOL     OW23875   0.627   4.397  15.085  0.7130  0.3759 -0.2279
 4080SOL    HW123876   0.611   4.435  15.171  0.0625  0.9638 -0.6063
 4080SOL    HW223877   0.539   4.405  15.048  0.7818 -1.0356 -0.7003
 4081SOL     OW23878   1.329   1.718   2.747  0.1143  0.1737 -0.1475
 4081SOL    HW123879   1.296   1.806   2.728  0.1334 -0.2177 -2.0190
 4081SOL    HW223880   1.298   1.662   2.676  0.4245  0.4423 -0.4920
 4082SOL     OW23881   1.720   0.101  10.236 -0.8130  0.3844 -0.4755
 4082SOL    HW123882   1.729   0.156  10.157 -1.2624  0.1952 -0.6584
 4082SOL    HW223883   1.689   0.163  10.302  1.8306  0.4665  0.6650
 4083SOL     OW23884   3.545   2.404   5.175 -0.1763  0.0282 -0.3529
 4083SOL    HW123885   3.624   2.384   5.126  1.9816  5.5768  0.9214
 4083SOL    HW223886   3.554   2.499   5.166 -1.3921  0.3815  2.0981
 4084SOL     OW23887   3.691   2.040  15.518 -0.4466  0.5258 -0.1449
 4084SOL    HW123888   3.654   2.128  15.528 -0.6327  0.2647  1.5766
 4084SOL    HW223889   3.621   1.980  15.547  1.1880 -1.7166 -0.8629
 4085SOL     OW23890   3.863   1.460   6.871  0.6518  0.4867 -0.1004
 4085SOL    HW123891   3.890   1.514   6.945 -0.4930  0.7189  0.1413
 4085SOL    HW223892   3.862   1.372   6.908 -0.1668  1.5419  2.3582
 4086SOL     OW23893   2.466   0.525   6.722  0.2727 -0.5901 -0.7812
 4086SOL    HW123894   2.487   0.592   6.788  0.1293 -0.9975 -0.3269
 4086SOL    HW223895   2.524   0.560   6.654  0.8368 -2.0267 -1.0385
 4087SOL     OW23896   0.432   0.782   6.001  0.3049 -0.2842 -0.3767
 4087SOL    HW123897   0.360   0.773   6.063  0.6175 -0.3247 -0.0173
 4087SOL    HW223898   0.417   0.875   5.991  1.7641 -0.1274 -1.1186
 4088SOL     OW23899   0.753   0.361   1.937 -0.0091  0.0115 -0.2507
 4088SOL    HW123900   0.831   0.306   1.946  0.3076  0.4714 -0.1903
 4088SOL    HW223901   0.796   0.445   1.953  0.7459 -0.2958 -0.6943
 4089SOL     OW23902   0.305   2.962   1.698 -0.3052 -0.2658  0.2375
 4089SOL    HW123903   0.271   2.902   1.763  0.5880  1.1160  1.9672
 4089SOL    HW223904   0.255   3.041   1.717 -2.6898 -2.0818  1.4337
 4090SOL     OW23905   1.023   0.688   1.625 -0.1286 -0.3084  0.6476
 4090SOL    HW123906   0.944   0.740   1.612 -1.3184 -1.6687  2.4736
 4090SOL    HW223907   1.066   0.738   1.695 -0.9271 -0.6716  1.3938
 4091SOL     OW23908   2.597   1.634  10.712  0.1175  0.1715  0.4153
 4091SOL    HW123909   2.656   1.571  10.673  1.1678 -0.6831  3.3983
 4091SOL    HW223910   2.598   1.600  10.802 -0.2619 -1.5569 -0.2388
 4092SOL     OW23911   2.411   4.249   1.773  0.2365 -0.2556  0.0659
 4092SOL    HW123912   2.362   4.257   1.692  0.3567  0.4932  0.0675
 4092SOL    HW223913   2.471   4.323   1.762 -0.3231  0.3639  1.1169
 4093SOL     OW23914   4.662   1.602  13.436  0.0538  0.7798 -0.4740
 4093SOL    HW123915   4.676   1.660  13.511  1.5655  0.6049 -0.6253
 4093SOL    HW223916   0.010   1.564  13.421  0.5539  0.7297  2.4005
 4094SOL     OW23917   3.332   1.585  13.209 -0.7522 -0.5107 -0.1027
 4094SOL    HW123918   3.390   1.648  13.252  0.3540 -3.5201  2.7565
 4094SOL    HW223919   3.358   1.585  13.117 -1.0341  1.7857 -0.1839
 4095SOL     OW23920   3.698   0.754   3.878  0.7185  0.1665 -0.0871
 4095SOL    HW123921   3.786   0.782   3.854  1.6036  0.0218  3.1124
 4095SOL    HW223922   3.708   0.660   3.895 -1.3709 -0.3583 -1.7648
 4096SOL     OW23923   0.601   0.192  11.964  0.6613  0.3979  0.2853
 4096SOL    HW123924   0.546   0.160  11.894 -0.5713  2.6786  0.2128
 4096SOL    HW223925   0.658   0.249  11.912 -0.3161 -1.8801 -3.2607
 4097SOL     OW23926   0.498   3.937   5.664 -0.5346 -0.6219  0.3798
 4097SOL    HW123927   0.588   3.942   5.698  1.0696 -0.7087 -3.7442
 4097SOL    HW223928   0.504   3.865   5.601 -0.4548 -0.6358  0.4036
 4098SOL     OW23929   2.228   4.014   8.228  0.1374  0.2838 -0.1518
 4098SOL    HW123930   2.261   4.086   8.174 -0.1021  1.6024  1.4206
 4098SOL    HW223931   2.161   4.068   8.270 -0.9237  0.4382 -2.0817
 4099SOL     OW23932   0.536   2.561   7.078  0.5293 -0.3194  0.2759
 4099SOL    HW123933   0.544   2.646   7.035  1.2078 -1.0525 -1.0447
 4099SOL    HW223934   0.460   2.526   7.030 -1.0471  0.6729  2.0859
 4100SOL     OW23935   1.099   1.586   0.824  0.0691  0.1747  0.1422
 4100SOL    HW123936   1.110   1.513   0.885 -1.7664 -0.6123 -0.4723
 4100SOL    HW223937   1.139   1.560   0.741  0.1420 -0.3766  0.3512
 4101SOL     OW23938   2.565   2.200   8.659 -0.2382 -0.1677 -0.3493
 4101SOL    HW123939   2.590   2.136   8.592  1.5998 -0.8908  1.0169
 4101SOL    HW223940   2.474   2.214   8.633  0.1489  0.3855 -1.4128
 4102SOL     OW23941   2.510   2.213  11.749 -0.0965 -0.2183 -0.0916
 4102SOL    HW123942   2.591   2.229  11.701  0.4465 -1.0104  0.5603
 4102SOL    HW223943   2.528   2.132  11.797 -0.9596 -0.4157 -0.0854
 4103SOL     OW23944   1.259   2.114   2.883  0.3608  0.0324  0.0710
 4103SOL    HW123945   1.229   2.034   2.839  2.0915 -0.7576  0.3299
 4103SOL    HW223946   1.337   2.140   2.834  0.3131 -3.0851 -1.6582
 4104SOL     OW23947   3.998   0.303   1.630  0.0438 -0.6644  0.1834
 4104SOL    HW123948   4.057   0.377   1.618 -1.6291  0.3425 -1.8330
 4104SOL    HW223949   4.053   0.226   1.647  2.8956  1.2029 -0.6353
 4105SOL     OW23950   2.253   2.262  14.675 -0.3586  0.3645  0.1385
 4105SOL    HW123951   2.241   2.290  14.766  0.4217 -2.0864  0.9829
 4105SOL    HW223952   2.249   2.343  14.623  1.2059  0.2588 -0.1565
 4106SOL     OW23953   3.483   3.813  16.107  0.6819 -0.1765 -0.1986
 4106SOL    HW123954   3.574   3.787  16.090  0.8303 -0.3056  0.8026
 4106SOL    HW223955   3.485   3.875  16.179 -0.1022 -0.1420 -0.2073
 4107SOL     OW23956   2.014   3.783   9.461 -0.3187  0.4471 -0.1793
 4107SOL    HW123957   2.096   3.777   9.412 -1.5877  1.8663 -2.4461
 4107SOL    HW223958   1.956   3.725   9.412  0.2334  2.3596 -3.0741
 4108SOL     OW23959   3.296   0.775   4.542 -0.4083  0.1035 -0.4706
 4108SOL    HW123960   3.323   0.866   4.526 -0.3539  0.3616  1.0599
 4108SOL    HW223961   3.235   0.783   4.615 -0.9068  0.4841 -0.9333
 4109SOL     OW23962   0.690   1.645   1.652 -0.5153  0.0768 -0.1569
 4109SOL    HW123963   0.658   1.628   1.741 -0.4259 -0.2029 -0.1786
 4109SOL    HW223964   0.613   1.615   1.604  0.4645 -0.7819 -1.1695
 4110SOL     OW23965   3.929   1.355   4.973 -0.3544 -0.2622  0.4089
 4110SOL    HW123966   4.006   1.403   5.004 -2.0170  2.0077  1.0115
 4110SOL    HW223967   3.863   1.380   5.037  1.2128  1.0519  1.5040
 4111SOL     OW23968   4.146   2.660  17.530  0.0683  0.8141  0.2920
 4111SOL    HW123969   4.098   2.657  17.613 -0.6399 -2.1589 -0.2134
 4111SOL    HW223970   4.223   2.711  17.554  0.0052  0.8574  0.4022
 4112SOL     OW23971   1.158   4.091  12.141  0.1914  0.9264  0.0865
 4112SOL    HW123972   1.112   4.008  12.135  2.8791 -0.5668  0.0409
 4112SOL    HW223973   1.250   4.067  12.152  0.1635  0.7244 -0.1333
 4113SOL     OW23974   0.063   3.151   0.005 -0.0827  0.4409 -0.2024
 4113SOL    HW123975   0.049   3.241   0.035 -2.5405 -0.4013  1.1850
 4113SOL    HW223976   0.156   3.144   0.024 -0.4940 -0.8292  1.2905
 4114SOL     OW23977   1.080   0.300  11.650  0.2767 -0.4685  0.4866
 4114SOL    HW123978   1.144   0.233  11.675  0.3105 -0.1752  1.1937
 4114SOL    HW223979   1.035   0.310  11.735 -0.8559 -2.5203  0.1312
 4115SOL     OW23980   3.613   2.422  17.119 -0.7637 -0.0000  0.0179
 4115SOL    HW123981   3.658   2.471  17.188 -0.6064  1.3477 -1.0367
 4115SOL    HW223982   3.639   2.468  17.040  1.4787 -0.9900  0.1890
 4116SOL     OW23983   1.916   3.971   7.309 -0.2882  0.2783 -0.2352
 4116SOL    HW123984   1.929   3.898   7.248  0.9328  1.5935 -1.5488
 4116SOL    HW223985   1.821   3.964   7.323 -0.2418 -0.9458 -0.5654
 4117SOL     OW23986   1.793   2.583   0.759 -0.1761  0.1869 -0.1830
 4117SOL    HW123987   1.777   2.617   0.847  0.1659 -0.3069  0.0703
 4117SOL    HW223988   1.802   2.493   0.790  0.8887  0.8776  1.5111
 4118SOL     OW23989   2.335   2.031   3.303 -0.4911 -0.0048  0.0290
 4118SOL    HW123990   2.241   2.031   3.285 -0.1387  0.5329 -1.7354
 4118SOL    HW223991   2.380   2.070   3.228 -1.4275  1.0791  0.0168
 4119SOL     OW23992   1.631   3.938   1.818  0.2850  0.2661 -0.0112
 4119SOL    HW123993   1.552   3.963   1.770 -0.3637  1.8047  1.8727
 4119SOL    HW223994   1.660   3.866   1.761 -4.1647 -1.9991  0.5570
 4120SOL     OW23995   3.949   2.211  11.826  0.0246 -0.1845  0.2033
 4120SOL    HW123996   3.959   2.155  11.903  4.7590 -3.0099 -2.4601
 4120SOL    HW223997   3.885   2.276  11.854 -1.7078 -1.6492 -0.3940
 4121SOL     OW23998   1.052   0.829   6.068 -0.0397 -0.0034 -0.4351
 4121SOL    HW123999   1.113   0.772   6.021 -0.1979 -0.6319  0.1264
 4121SOL    HW224000   1.089   0.832   6.157  1.3546 -1.0900 -0.9790
 4122SOL     OW24001   3.539   1.900   3.102 -0.4532  0.2833  0.3531
 4122SOL    HW124002   3.506   1.814   3.075  0.6422 -0.8929  2.8249
 4122SOL    HW224003   3.467   1.953   3.138 -2.3114  0.7614 -3.9815
 4123SOL     OW24004   2.397   2.956  11.956 -0.2975  0.0556  0.3861
 4123SOL    HW124005   2.394   2.862  11.975 -0.3260  0.7367  3.6701
 4123SOL    HW224006   2.443   2.998  12.029  0.8636  3.8795 -2.5445
 4124SOL     OW24007   4.525   4.232   6.292  0.2869 -0.4686 -0.1093
 4124SOL    HW124008   4.489   4.157   6.340 -0.3191 -0.6140 -0.7915
 4124SOL    HW224009   4.499   4.300   6.353 -0.1243 -0.2892 -0.4869
 4125SOL     OW24010   1.048   3.167  13.400 -0.0571  0.3621  0.0997
 4125SOL    HW124011   0.962   3.190  13.367 -0.6990 -1.4223  0.5229
 4125SOL    HW224012   1.008   3.114  13.469  0.4942 -1.3160 -0.8532
 4126SOL     OW24013   4.163   1.951   7.345  0.3058  0.1789 -0.0994
 4126SOL    HW124014   4.163   1.939   7.440  1.2963 -1.9114 -0.3572
 4126SOL    HW224015   4.258   1.937   7.335 -0.1343 -1.0786 -2.5962
 4127SOL     OW24016   4.445   3.754  11.456  0.0235 -0.2075 -0.6034
 4127SOL    HW124017   4.433   3.845  11.484  0.2390 -0.4192  0.1746
 4127SOL    HW224018   4.352   3.733  11.465 -0.2940  1.8543  0.9556
 4128SOL     OW24019   0.824   4.327  15.870  0.4181  0.7811 -0.2272
 4128SOL    HW124020   0.797   4.270  15.798  0.7486 -1.8876  1.7606
 4128SOL    HW224021   0.742   4.346  15.916  0.2738 -1.7392  0.5608
 4129SOL     OW24022   3.494   3.495   6.080 -0.3118  0.2415 -0.4672
 4129SOL    HW124023   3.464   3.464   5.994  0.7382 -2.4616  0.1266
 4129SOL    HW224024   3.489   3.590   6.074  0.0423  0.3905  1.7044
 4130SOL     OW24025   1.931   0.479  12.028 -0.6856 -0.1186 -0.1575
 4130SOL    HW124026   1.960   0.405  12.083 -0.3184 -0.6125 -1.0115
 4130SOL    HW224027   1.867   0.438  11.970 -1.9439  0.2490  0.9714
 4131SOL     OW24028   0.302   1.288  13.321 -0.1825  0.1085 -0.0763
 4131SOL    HW124029   0.326   1.353  13.255  2.3953 -2.4680 -1.6710
 4131SOL    HW224030   0.374   1.226  13.322 -1.6985 -1.6732 -0.4946
 4132SOL     OW24031   3.942   1.244  10.520  0.4005  0.3764 -0.4641
 4132SOL    HW124032   4.021   1.246  10.573 -0.1871 -1.4937  0.4876
 4132SOL    HW224033   3.974   1.294  10.444 -0.7259 -0.0348 -1.2191
 4133SOL     OW24034   4.156   2.633  14.881 -0.3754 -0.5121  0.1334
 4133SOL    HW124035   4.240   2.667  14.851 -1.0536  1.3365  0.2832
 4133SOL    HW224036   4.180   2.547  14.913  3.2054 -0.5149 -2.6240
 4134SOL     OW24037   4.158   3.701  13.372 -0.2666  0.4285 -0.4921
 4134SOL    HW124038   4.141   3.794  13.385 -0.0292  0.4147 -0.0904
 4134SOL    HW224039   4.252   3.699  13.392 -0.3420 -0.6809 -0.2567
 4135SOL     OW24040   2.187   0.410   8.196  0.2118  0.4244 -0.0656
 4135SOL    HW124041   2.207   0.342   8.131 -2.7825  1.0589 -1.6754
 4135SOL    HW224042   2.272   0.431   8.233 -0.5600 -1.6070  2.8715
 4136SOL     OW24043   1.836   0.970  17.560 -0.0083  0.4794  0.0797
 4136SOL    HW124044   1.857   0.947  17.651 -2.8713  1.6767  1.0146
 4136SOL    HW224045   1.760   0.914  17.544 -0.6099  1.1050  0.7549
 4137SOL     OW24046   0.607   3.855   1.773 -0.4082 -0.0476  0.6772
 4137SOL    HW124047   0.611   3.760   1.778  0.5858  0.0670  2.1578
 4137SOL    HW224048   0.686   3.869   1.720 -0.0055  0.2428  1.3406
 4138SOL     OW24049   1.557   4.273  11.713  0.6577 -0.1659  0.4400
 4138SOL    HW124050   1.549   4.179  11.698 -0.2766 -0.1865  1.1159
 4138SOL    HW224051   1.641   4.284  11.667  0.1113  0.8191 -0.3025
 4139SOL     OW24052   0.243   1.980   5.067  0.1146 -0.1275  0.2507
 4139SOL    HW124053   0.181   2.053   5.076 -0.2186 -0.4861  0.8551
 4139SOL    HW224054   0.184   1.906   5.049 -0.7458  0.0487  2.4220
 4140SOL     OW24055   1.420   3.142   5.987 -0.1968 -0.1997  0.0118
 4140SOL    HW124056   1.455   3.231   5.981  1.0319 -0.7499 -1.0240
 4140SOL    HW224057   1.487   3.084   5.951  0.7043  0.3835  0.7411
 4141SOL     OW24058   0.987   2.214   8.215  0.2024  0.1432  0.0255
 4141SOL    HW124059   1.008   2.285   8.154  1.9581 -2.3051 -2.1881
 4141SOL    HW224060   0.955   2.272   8.285  1.1815 -1.3348  1.6977
 4142SOL     OW24061   2.172   4.430   1.823  0.3020  0.0597 -0.4850
 4142SOL    HW124062   2.183   4.370   1.896 -1.2619 -0.9385 -1.0674
 4142SOL    HW224063   2.142   4.376   1.750 -2.5773 -0.7537  1.3130
 4143SOL     OW24064   1.808   1.456   1.627 -0.3298 -0.1346  0.6095
 4143SOL    HW124065   1.862   1.399   1.573  0.7180  1.1940  0.2689
 4143SOL    HW224066   1.723   1.429   1.592 -0.6337  1.3015  0.2575
 4144SOL     OW24067   0.075   2.995   7.536 -0.3234  0.0382 -0.4175
 4144SOL    HW124068   0.118   2.930   7.592  1.1325 -0.6868 -2.3712
 4144SOL    HW224069   0.005   2.939   7.503 -0.1637  0.1130 -0.8936
 4145SOL     OW24070   0.616   0.447   0.896 -0.3711  0.5335  0.3746
 4145SOL    HW124071   0.644   0.502   0.823  0.5117  2.8891  2.5175
 4145SOL    HW224072   0.695   0.444   0.950  0.5455 -1.0553 -1.0583
 4146SOL     OW24073   4.157   2.085   5.582 -0.2162 -0.0858 -0.5360
 4146SOL    HW124074   4.083   2.136   5.615  1.8854  0.6931  2.9357
 4146SOL    HW224075   4.146   2.004   5.630 -0.3385 -0.2153 -0.7803
 4147SOL     OW24076   2.166   1.679  12.575  0.6311 -0.7990 -0.4036
 4147SOL    HW124077   2.079   1.685  12.614  0.2425  0.9064 -1.5230
 4147SOL    HW224078   2.209   1.613  12.630  0.9562  0.4340  0.8383
 4148SOL     OW24079   2.057   2.019   0.624  0.1351  0.4201 -0.0130
 4148SOL    HW124080   2.146   2.045   0.599 -0.1995  0.4148 -1.1707
 4148SOL    HW224081   2.010   2.084   0.572 -0.8936  1.1169  1.7656
 4149SOL     OW24082   4.254   0.908   9.001  0.6103  0.3674 -0.0363
 4149SOL    HW124083   4.332   0.903   9.057  0.1030  0.6456  0.6871
 4149SOL    HW224084   4.184   0.945   9.054 -0.3991 -1.5293 -0.0296
 4150SOL     OW24085   3.752   2.874  12.411 -0.6634 -0.0569  0.3711
 4150SOL    HW124086   3.769   2.788  12.372  0.1152  0.0511  0.4704
 4150SOL    HW224087   3.805   2.872  12.490  0.6830  2.4157 -0.5028
 4151SOL     OW24088   4.483   2.268   8.593  0.1515 -0.1611  0.7352
 4151SOL    HW124089   4.532   2.318   8.659  0.9112 -3.0052  2.3316
 4151SOL    HW224090   4.529   2.185   8.605 -0.8866 -1.1417 -2.2814
 4152SOL     OW24091   4.689   1.237   5.904 -0.0525 -0.8211  0.1415
 4152SOL    HW124092   4.738   1.232   5.986  0.5108 -1.3271 -0.2188
 4152SOL    HW224093   4.684   1.143   5.883 -1.6868 -0.9188  0.9643
 4153SOL     OW24094   3.875   3.942   7.273 -0.0143  0.2895  0.1521
 4153SOL    HW124095   3.957   3.893   7.283 -1.6391 -2.3938  0.3965
 4153SOL    HW224096   3.882   3.992   7.354  0.3479  1.7436 -0.7675
 4154SOL     OW24097   4.669   2.499  11.381  0.6893  0.6948 -0.1809
 4154SOL    HW124098   4.630   2.562  11.441  0.9508  0.3801  0.3145
 4154SOL    HW224099   4.598   2.436  11.368 -0.1934  1.6645 -0.0468
 4155SOL     OW24100   4.497   0.580   3.694  0.7848  0.1531  0.7339
 4155SOL    HW124101   4.507   0.596   3.787  0.2173 -1.4540  1.0668
 4155SOL    HW224102   4.588   0.566   3.669  0.9314 -0.0879  1.4219
 4156SOL     OW24103   0.760   3.037   4.379 -0.4111 -0.0369  0.6534
 4156SOL    HW124104   0.823   3.019   4.309  0.3085 -0.7273  1.4770
 4156SOL    HW224105   0.819   3.059   4.452 -1.1658  1.2643  0.8722
 4157SOL     OW24106   1.121   3.419   7.455  0.3130  0.5025 -0.3307
 4157SOL    HW124107   1.159   3.489   7.508  0.5876  0.5116 -0.5402
 4157SOL    HW224108   1.111   3.354   7.525 -0.1162 -0.5246 -1.3417
 4158SOL     OW24109   2.570   3.973   6.085  0.1128 -0.5130 -0.0698
 4158SOL    HW124110   2.613   4.054   6.058  1.4967 -1.3123 -0.2694
 4158SOL    HW224111   2.642   3.926   6.127  0.3220  1.2679  1.5469
 4159SOL     OW24112   4.450   2.831   6.706  0.0550  0.1186  0.1647
 4159SOL    HW124113   4.419   2.829   6.615  0.5474  2.2114 -0.0501
 4159SOL    HW224114   4.470   2.923   6.721  1.5845 -0.0682 -0.7548
 4160SOL     OW24115   1.454   1.788   6.722  0.9065 -0.3344 -0.6060
 4160SOL    HW124116   1.486   1.698   6.719 -1.3854 -1.1832  0.5442
 4160SOL    HW224117   1.475   1.810   6.813  0.0026 -0.8116 -0.2790
 4161SOL     OW24118   2.063   3.249   7.342  0.0011  0.5004 -0.5577
 4161SOL    HW124119   2.083   3.265   7.250  0.1402  3.4758 -0.0052
 4161SOL    HW224120   2.091   3.157   7.344 -1.5183  0.0644  0.8293
 4162SOL     OW24121   0.834   3.226   8.418  0.4738  0.4085  0.3920
 4162SOL    HW124122   0.775   3.275   8.476  0.2431  0.1956  0.3410
 4162SOL    HW224123   0.841   3.146   8.471  2.2717  1.3863  1.6001
 4163SOL     OW24124   3.229   4.241  17.328 -0.0560 -0.4031 -0.0334
 4163SOL    HW124125   3.179   4.291  17.263 -1.6475 -1.3785  0.4351
 4163SOL    HW224126   3.193   4.152  17.322  1.3680 -0.9270 -0.7628
 4164SOL     OW24127   4.159   1.492   4.978 -0.3213  0.1562  0.3832
 4164SOL    HW124128   4.235   1.468   5.032 -0.3602  1.2518  0.9112
 4164SOL    HW224129   4.111   1.553   5.033  0.4132 -0.0345  1.2401
 4165SOL     OW24130   4.465   0.260   6.821 -0.1172 -0.2147  0.0601
 4165SOL    HW124131   4.447   0.198   6.892  0.6393  1.4767  1.7147
 4165SOL    HW224132   4.561   0.258   6.827 -0.1474  2.2727  1.4932
 4166SOL     OW24133   2.697   4.333   3.709  0.1641 -0.3112 -0.6842
 4166SOL    HW124134   2.784   4.314   3.672  0.2039  1.5000 -1.5269
 4166SOL    HW224135   2.710   4.355   3.801  2.7808  1.5788 -1.4919
 4167SOL     OW24136   4.130   3.837   6.420 -0.0172  0.5001 -0.2795
 4167SOL    HW124137   4.138   3.758   6.367 -2.6297 -1.4411  2.1603
 4167SOL    HW224138   4.037   3.855   6.408 -0.4193 -1.0306  0.4731
 4168SOL     OW24139   0.070   0.150   4.626 -0.5011  0.4728  0.6321
 4168SOL    HW124140   0.135   0.177   4.561 -2.9863  1.2087 -1.5499
 4168SOL    HW224141   0.101   0.062   4.649 -0.1672  0.3409 -0.2938
 4169SOL     OW24142   3.137   1.500   6.106 -0.0109 -0.2410  0.4947
 4169SOL    HW124143   3.054   1.452   6.107 -0.3531  0.3787  1.8004
 4169SOL    HW224144   3.195   1.434   6.067 -2.2845 -1.2805 -1.1306
 4170SOL     OW24145   0.337   2.760   7.016  0.2620 -0.5827 -0.3099
 4170SOL    HW124146   0.258   2.733   6.969 -0.6127  0.5781  0.4766
 4170SOL    HW224147   0.314   2.742   7.108  1.2583 -0.5353 -0.0529
 4171SOL     OW24148   1.417   0.667   6.500 -0.3865  0.3401 -0.7211
 4171SOL    HW124149   1.477   0.603   6.537 -1.3496 -0.5525 -0.6937
 4171SOL    HW224150   1.374   0.703   6.577  2.3909 -1.9247  1.8852
 4172SOL     OW24151   2.333   2.468   3.227 -0.0524 -0.2791 -0.0320
 4172SOL    HW124152   2.343   2.563   3.219 -2.6954 -0.1450 -1.8464
 4172SOL    HW224153   2.287   2.455   3.144  0.0459  0.6588 -0.2336
 4173SOL     OW24154   3.793   2.772   1.214 -0.3735 -0.0152 -0.7158
 4173SOL    HW124155   3.837   2.775   1.299 -1.8975 -2.0194  0.1506
 4173SOL    HW224156   3.838   2.707   1.160  1.2774  1.4113 -1.0729
 4174SOL     OW24157   3.398   1.914  13.562  0.2843 -0.0946 -0.7506
 4174SOL    HW124158   3.387   2.009  13.564  0.7122 -0.0524 -0.4463
 4174SOL    HW224159   3.309   1.881  13.579 -0.2069  2.0960  1.0010
 4175SOL     OW24160   2.828   3.994  10.497  0.4868 -0.0598 -0.0153
 4175SOL    HW124161   2.768   3.963  10.564 -0.7797  1.0599 -0.6383
 4175SOL    HW224162   2.783   3.999  10.413 -1.6868  1.4638  1.2519
 4176SOL     OW24163   2.618   0.838   3.437  0.7047  0.0174 -0.5424
 4176SOL    HW124164   2.603   0.790   3.518 -2.4471 -1.4392 -1.9866
 4176SOL    HW224165   2.562   0.915   3.447  2.1288  1.1258 -1.0025
 4177SOL     OW24166   1.466   0.062   4.192 -0.0596  0.6602 -0.1740
 4177SOL    HW124167   1.422   0.092   4.113 -1.3762  0.5188  0.4926
 4177SOL    HW224168   1.428   0.123   4.256  0.9528  1.9259 -0.7707
 4178SOL     OW24169   4.612   3.491   2.064  0.4187  0.3117 -0.4575
 4178SOL    HW124170   4.701   3.463   2.086  0.0926 -0.1606  0.2408
 4178SOL    HW224171   4.586   3.410   2.020  1.5207  0.8948 -2.2244
 4179SOL     OW24172   2.543   4.279   6.704 -0.3506 -0.7470 -0.1599
 4179SOL    HW124173   2.514   4.354   6.756  0.7494 -0.7515  0.4619
 4179SOL    HW224174   2.560   4.216   6.774 -0.7200 -1.9428 -1.1416
 4180SOL     OW24175   1.194   2.672  16.960 -0.3075 -0.2834 -0.7300
 4180SOL    HW124176   1.105   2.698  16.982 -0.0184  0.9082 -0.9524
 4180SOL    HW224177   1.204   2.715  16.875 -0.1215  1.1896  0.0409
 4181SOL     OW24178   4.724   4.093   1.085 -0.3428 -0.0378 -0.2952
 4181SOL    HW124179   0.002   4.166   1.145  1.0732  0.3681 -1.1576
 4181SOL    HW224180   0.074   4.058   1.070  0.3695  1.3328  0.7045
 4182SOL     OW24181   2.196   3.818   4.287  0.2282  0.5847 -0.1983
 4182SOL    HW124182   2.225   3.759   4.217  0.5494  2.2635 -1.4860
 4182SOL    HW224183   2.225   3.900   4.246 -0.2274  1.4454  1.1890
 4183SOL     OW24184   4.102   4.405   1.001  0.1067  0.2331  0.4910
 4183SOL    HW124185   4.117   4.454   0.919  1.8179 -2.3759 -0.7544
 4183SOL    HW224186   4.140   4.318   0.988 -2.0965 -0.7879  0.9534
 4184SOL     OW24187   1.982   4.735   1.885  0.3455  0.1944  0.0751
 4184SOL    HW124188   1.952   0.084   1.912  0.5334  0.5872 -0.9487
 4184SOL    HW224189   1.914   4.706   1.824  1.8852 -1.8537 -0.6651
 4185SOL     OW24190   1.366   0.435   8.310 -0.3575 -0.4107  0.2295
 4185SOL    HW124191   1.341   0.372   8.378 -0.8731  0.8315  1.1968
 4185SOL    HW224192   1.460   0.438   8.326  0.0728  0.8048 -2.4565
 4186SOL     OW24193   0.983   2.865   3.103 -0.1979  0.3268  0.0923
 4186SOL    HW124194   0.996   2.940   3.162  0.5316 -0.3851  0.8529
 4186SOL    HW224195   1.050   2.816   3.152 -0.6509 -0.6375 -0.2543
 4187SOL     OW24196   1.964   0.116   7.539 -0.1993 -0.1233 -0.0197
 4187SOL    HW124197   2.003   0.032   7.517  0.3865 -0.0583  0.7686
 4187SOL    HW224198   2.006   0.144   7.621  0.7552 -0.7728 -0.2905
 4188SOL     OW24199   4.388   0.806   1.538 -0.0789 -0.2078 -0.0463
 4188SOL    HW124200   4.390   0.894   1.502 -1.2615 -1.0525 -2.1733
 4188SOL    HW224201   4.378   0.823   1.632 -2.6959 -1.3717 -0.0929
 4189SOL     OW24202   3.507   0.588   4.543 -0.3949 -0.1491 -0.1745
 4189SOL    HW124203   3.438   0.653   4.537  1.3949  1.7654 -0.2187
 4189SOL    HW224204   3.486   0.552   4.629 -0.7635 -0.7712 -0.5270
 4190SOL     OW24205   3.089   3.048   7.470  0.5697 -0.6181  0.0696
 4190SOL    HW124206   3.153   3.078   7.405  2.0493  0.7264  2.1777
 4190SOL    HW224207   3.085   2.953   7.465  0.6123 -0.5655 -1.0158
 4191SOL     OW24208   3.150   0.372  10.933  0.5830 -0.6335  0.3852
 4191SOL    HW124209   3.244   0.381  10.950  0.6161 -0.4945  0.1247
 4191SOL    HW224210   3.111   0.433  10.996 -0.5040 -1.7911  0.8108
 4192SOL     OW24211   3.987   2.386   7.413  0.1265  0.5479 -0.4046
 4192SOL    HW124212   4.003   2.373   7.506  0.3796  1.3163 -0.3355
 4192SOL    HW224213   3.893   2.398   7.418 -0.0160 -0.9316  0.3349
 4193SOL     OW24214   3.180   2.094   8.607 -0.3377  0.1571  0.0001
 4193SOL    HW124215   3.185   2.112   8.513  3.7245 -1.5836 -0.1619
 4193SOL    HW224216   3.273   2.118   8.616 -0.0500 -0.6203 -0.8631
 4194SOL     OW24217   1.326   1.838   8.988  0.0132  0.7256  0.3336
 4194SOL    HW124218   1.321   1.911   9.049 -0.0106  0.9380  0.0758
 4194SOL    HW224219   1.244   1.846   8.938 -0.5054 -1.3125  0.8557
 4195SOL     OW24220   1.384   1.127   2.995  0.2125 -0.0544 -0.6907
 4195SOL    HW124221   1.436   1.070   3.053 -2.8529 -0.6690  1.4488
 4195SOL    HW224222   1.370   1.067   2.922 -0.7308 -1.2479  0.4565
 4196SOL     OW24223   3.472   1.464   7.421 -0.4837 -0.0801 -0.3910
 4196SOL    HW124224   3.394   1.487   7.471 -0.9015 -2.1895 -0.0701
 4196SOL    HW224225   3.453   1.507   7.337 -2.6419  0.0426  0.1677
 4197SOL     OW24226   4.447   1.356   1.502 -0.1723 -0.7913  0.1416
 4197SOL    HW124227   4.415   1.375   1.414  0.2919  1.1841  0.3910
 4197SOL    HW224228   4.412   1.422   1.561  0.6340 -1.2324  1.1037
 4198SOL     OW24229   3.040   3.783  13.273 -0.0928  0.0133  0.4408
 4198SOL    HW124230   2.950   3.808  13.294  0.0672 -0.2487  1.4466
 4198SOL    HW224231   3.072   3.735  13.350 -1.0682  0.5428  1.1852
 4199SOL     OW24232   2.272   1.447  17.207 -0.0753  0.2819 -0.2498
 4199SOL    HW124233   2.361   1.481  17.197  0.1436 -0.0861  0.4354
 4199SOL    HW224234   2.224   1.523  17.240  0.3018  0.6035 -0.4449
 4200SOL     OW24235   2.910   3.276   9.022  0.0555  0.3662  0.3458
 4200SOL    HW124236   2.831   3.251   9.070 -1.2475  3.6647 -0.0516
 4200SOL    HW224237   2.912   3.372   9.028  2.3639  0.3768 -0.7636
 4201SOL     OW24238   3.104   1.623  15.483 -0.5519  0.1314  0.3008
 4201SOL    HW124239   3.115   1.555  15.550 -1.1019  0.5665  0.8309
 4201SOL    HW224240   3.040   1.573  15.431 -0.0193 -0.2766  0.0380
 4202SOL     OW24241   1.238   1.327  12.061 -0.0189 -0.3755  0.5280
 4202SOL    HW124242   1.175   1.375  12.115 -0.1603 -0.1697  0.1783
 4202SOL    HW224243   1.240   1.257  12.127 -0.0031 -1.2010 -0.3582
 4203SOL     OW24244   2.240   1.055   6.218  0.0134  0.5531  0.0716
 4203SOL    HW124245   2.240   1.035   6.124 -1.7445  1.0049 -0.0096
 4203SOL    HW224246   2.297   0.983   6.246 -0.8859 -0.2504 -0.1832
 4204SOL     OW24247   2.164   0.980   0.495 -0.6504 -0.0197 -0.8387
 4204SOL    HW124248   2.228   1.046   0.468 -0.4980 -0.4977 -1.6315
 4204SOL    HW224249   2.228   0.908   0.499 -2.5128 -1.5746  0.7741
 4205SOL     OW24250   2.643   2.396   3.941  0.1103 -0.6670  0.0499
 4205SOL    HW124251   2.645   2.358   4.029  2.5906 -1.1906 -0.2182
 4205SOL    HW224252   2.737   2.387   3.925  0.3214 -0.8448  1.3473
 4206SOL     OW24253   0.226   2.291   3.874  0.4246  0.0539 -0.5154
 4206SOL    HW124254   0.310   2.310   3.917  0.4886 -0.7969 -0.2741
 4206SOL    HW224255   0.169   2.347   3.927  1.2360 -0.7421  1.1976
 4207SOL     OW24256   0.469   1.142   1.456  0.1443 -0.9744 -0.2367
 4207SOL    HW124257   0.556   1.163   1.487  0.8835 -3.7180 -0.4503
 4207SOL    HW224258   0.433   1.095   1.531 -0.7246 -2.3681 -1.5177
 4208SOL     OW24259   2.161   4.437   1.312 -0.6360 -0.5271  0.3019
 4208SOL    HW124260   2.213   4.474   1.241 -1.6575  1.0809  0.4001
 4208SOL    HW224261   2.071   4.461   1.290 -0.6938 -0.7848  0.2504
 4209SOL     OW24262   0.020   2.140   8.043 -0.2670 -0.3731 -0.5597
 4209SOL    HW124263   0.076   2.166   7.970 -0.5990  0.4044 -0.5415
 4209SOL    HW224264   0.088   2.102   8.100  0.0560  1.1623  0.0943
 4210SOL     OW24265   0.118   4.204   3.413  0.3949  0.2584 -0.5142
 4210SOL    HW124266   0.081   4.281   3.370 -1.3414 -0.4271 -0.2266
 4210SOL    HW224267   0.125   4.144   3.339 -4.8755 -1.2910  0.2541
 4211SOL     OW24268   1.530   4.550   3.853  1.0280 -0.0683 -0.2909
 4211SOL    HW124269   1.618   4.510   3.856  0.4297 -1.2503  1.6647
 4211SOL    HW224270   1.546   4.627   3.908 -0.2770 -1.8109  2.5566
 4212SOL     OW24271   4.498   0.788   7.348  0.4624 -0.5034 -0.1718
 4212SOL    HW124272   4.509   0.846   7.273 -0.2062  0.6206  0.6102
 4212SOL    HW224273   4.592   0.784   7.365  0.4271 -0.4304  0.0418
 4213SOL     OW24274   4.514   3.273   8.236 -0.1589  0.1232 -0.1440
 4213SOL    HW124275   4.454   3.260   8.310  1.5777  1.3920  1.4772
 4213SOL    HW224276   4.592   3.303   8.282 -1.4636  1.2000  1.3671
 4214SOL     OW24277   1.736   2.454   3.874 -0.6271  0.0071  0.4431
 4214SOL    HW124278   1.716   2.366   3.906  0.1299 -0.5904 -0.7183
 4214SOL    HW224279   1.812   2.441   3.818 -1.6879 -1.3032 -0.6728
 4215SOL     OW24280   1.209   0.429   8.875  0.2715 -0.9237 -0.2594
 4215SOL    HW124281   1.133   0.417   8.931  1.6832 -3.3442  1.1203
 4215SOL    HW224282   1.153   0.424   8.798 -1.1082  0.8963  0.6299
 4216SOL     OW24283   2.561   1.221   5.466  0.3551 -0.2281 -1.3167
 4216SOL    HW124284   2.569   1.293   5.528  2.0224 -1.6640  0.1202
 4216SOL    HW224285   2.466   1.214   5.476  0.5328 -1.6836 -0.6668
 4217SOL     OW24286   1.232   1.698   7.508 -0.1206  0.3189  0.5205
 4217SOL    HW124287   1.154   1.661   7.549 -1.8212  3.5127  0.1548
 4217SOL    HW224288   1.243   1.786   7.542  1.3855  0.2378  0.2435
 4218SOL     OW24289   2.842   4.094   8.583  0.3802 -0.4013 -0.0061
 4218SOL    HW124290   2.763   4.147   8.595 -0.6068 -1.7846 -0.3764
 4218SOL    HW224291   2.816   4.007   8.610 -1.1956 -0.2901 -1.1600
 4219SOL     OW24292   3.644   0.518   6.984  0.6446 -0.3690  0.0805
 4219SOL    HW124293   3.694   0.500   7.064 -0.6817 -0.8732  0.8043
 4219SOL    HW224294   3.677   0.462   6.914  0.5123  0.6702 -0.8055
 4220SOL     OW24295   4.587   4.066   1.795 -0.6571 -0.4980  0.3784
 4220SOL    HW124296   4.669   4.045   1.839 -0.9380 -2.8814 -0.2300
 4220SOL    HW224297   4.532   4.077   1.873  1.3383 -0.5766  1.7910
 4221SOL     OW24298   1.284   2.698   6.565 -0.1622 -0.0053  0.0989
 4221SOL    HW124299   1.362   2.728   6.519 -0.5449  0.6754 -0.1062
 4221SOL    HW224300   1.310   2.610   6.592 -1.7194  0.1358  2.0220
 4222SOL     OW24301   1.848   0.308  14.553 -0.2435 -0.5368 -0.4948
 4222SOL    HW124302   1.753   0.322  14.557 -0.1208 -0.1052  0.8603
 4222SOL    HW224303   1.850   0.213  14.564  0.0898 -0.2710  1.6578
 4223SOL     OW24304   3.367   2.438   8.444  0.2400  0.2751 -0.0809
 4223SOL    HW124305   3.337   2.419   8.532  0.7351 -2.2520 -0.4450
 4223SOL    HW224306   3.432   2.369   8.430 -1.9623 -1.1992 -3.3375
 4224SOL     OW24307   4.593   3.868  15.855  0.9117  0.0903  0.0412
 4224SOL    HW124308   4.595   3.876  15.950 -0.9335 -0.1465  0.1097
 4224SOL    HW224309   4.579   3.958  15.825  1.2196  0.1615  0.1120
 4225SOL     OW24310   3.207   0.899   1.415 -0.0868  0.2796  0.3662
 4225SOL    HW124311   3.142   0.833   1.391 -0.5637  1.5737 -1.9098
 4225SOL    HW224312   3.292   0.872   1.380  0.1509  2.5377 -0.8173
 4226SOL     OW24313   0.321   1.310   7.350  0.0844  0.6122  0.0056
 4226SOL    HW124314   0.270   1.379   7.307  1.9851  2.3390  0.5819
 4226SOL    HW224315   0.411   1.342   7.344  0.2338  0.4414  1.4215
 4227SOL     OW24316   1.050   0.515   3.293 -0.1190  0.2361  0.7208
 4227SOL    HW124317   0.964   0.523   3.252  0.3378 -0.6054 -0.4090
 4227SOL    HW224318   1.072   0.422   3.288  1.0923  0.5327  0.6210
 4228SOL     OW24319   4.376   3.619   5.034 -0.2422 -0.7384 -0.4260
 4228SOL    HW124320   4.352   3.655   5.120  0.1034  0.6870 -0.9371
 4228SOL    HW224321   4.468   3.642   5.020 -0.5029  1.3408  1.3743
 4229SOL     OW24322   3.688   4.539  11.069  0.8081  0.1586  0.3368
 4229SOL    HW124323   3.778   4.544  11.102  1.5129  3.9415 -2.1322
 4229SOL    HW224324   3.648   4.615  11.109  1.4741  0.6209  0.1310
 4230SOL     OW24325   4.255   3.570   8.575  0.0988  0.4302  0.3713
 4230SOL    HW124326   4.255   3.635   8.645 -1.1252 -0.9617  1.6639
 4230SOL    HW224327   4.343   3.534   8.586  0.7507  1.1813 -2.4122
 4231SOL     OW24328   0.150   1.424   8.589 -0.0787 -0.2708  0.0318
 4231SOL    HW124329   0.177   1.354   8.530 -0.6300 -0.1770 -0.3272
 4231SOL    HW224330   0.061   1.440   8.557  0.1335 -1.2890 -1.0526
 4232SOL     OW24331   2.004   3.654   7.373 -0.2547 -0.6346  0.5395
 4232SOL    HW124332   1.916   3.622   7.396 -0.8121  0.2954 -0.3301
 4232SOL    HW224333   2.043   3.567   7.384  0.1745 -0.2392  2.1060
 4233SOL     OW24334   2.193   1.195   4.987  0.4203 -0.7511 -0.3628
 4233SOL    HW124335   2.266   1.163   4.934  0.1829  1.7727 -2.2082
 4233SOL    HW224336   2.142   1.117   5.008 -0.9984  0.1400 -0.5050
 4234SOL     OW24337   1.387   2.694   0.800  0.2060 -0.0230  0.0858
 4234SOL    HW124338   1.345   2.609   0.818 -0.5409  0.5398  1.0218
 4234SOL    HW224339   1.390   2.703   0.705  1.6923  1.2752  0.2621
 4235SOL     OW24340   1.713   2.523   5.980  0.6259  0.1262  0.0150
 4235SOL    HW124341   1.690   2.433   5.957  3.3480 -0.7727  0.7879
 4235SOL    HW224342   1.629   2.560   6.008 -0.1001 -1.5177  0.0463
 4236SOL     OW24343   3.469   3.638   8.396  0.2147  0.7698 -0.6970
 4236SOL    HW124344   3.513   3.719   8.372 -0.2909  0.7098 -1.8840
 4236SOL    HW224345   3.469   3.602   8.307 -2.8757  0.6274 -0.6461
 4237SOL     OW24346   2.328   2.531   2.496  0.0558  0.4229  0.1772
 4237SOL    HW124347   2.364   2.476   2.427 -2.1074 -1.0658  0.2470
 4237SOL    HW224348   2.280   2.602   2.453  0.1477 -0.3342 -1.1776
 4238SOL     OW24349   0.036   0.275   3.804  0.9123  0.0556  0.4297
 4238SOL    HW124350   0.085   0.326   3.869  0.4953  0.4512  0.4359
 4238SOL    HW224351   0.050   0.184   3.829  2.0702  0.4883  1.3653
 4239SOL     OW24352   2.645   4.441  17.453  0.9106 -0.0476 -0.0866
 4239SOL    HW124353   2.560   4.458  17.414  0.0253  0.8309  2.2395
 4239SOL    HW224354   2.645   4.506  17.524  1.0870 -0.6361  0.4515
 4240SOL     OW24355   1.337   1.142   8.962 -0.0874  0.0538 -0.5176
 4240SOL    HW124356   1.262   1.139   9.022  1.7389 -1.1342  1.7409
 4240SOL    HW224357   1.308   1.205   8.897  2.1908 -0.2424 -1.8404
 4241SOL     OW24358   1.754   4.426   2.452 -0.7234 -0.1482  0.1097
 4241SOL    HW124359   1.669   4.384   2.438 -2.1502  3.0679 -0.8393
 4241SOL    HW224360   1.752   4.478   2.372 -1.3016 -2.5260 -1.4294
 4242SOL     OW24361   4.643   0.782   1.387  0.3231 -0.1514 -0.4310
 4242SOL    HW124362   4.635   0.701   1.439 -0.3072  0.0979 -0.1284
 4242SOL    HW224363   4.568   0.831   1.420  0.5449  0.7508 -1.2869
 4243SOL     OW24364   4.369   0.202  14.609 -0.6890  0.1197  0.6952
 4243SOL    HW124365   4.401   0.273  14.554 -0.8017 -0.8628 -0.6431
 4243SOL    HW224366   4.278   0.200  14.578 -0.3851  0.5618 -0.2301
 4244SOL     OW24367   0.462   2.236   7.678  0.0317 -0.0276 -0.6173
 4244SOL    HW124368   0.518   2.243   7.756 -0.4257  1.5619 -0.4404
 4244SOL    HW224369   0.506   2.178   7.616  1.9833 -1.8636  2.4456
 4245SOL     OW24370   0.193   0.646   7.533 -0.3069  0.3902 -0.2313
 4245SOL    HW124371   0.163   0.576   7.475 -0.6850  1.2074 -1.0421
 4245SOL    HW224372   0.203   0.589   7.609  1.1169  0.7797 -0.1349
 4246SOL     OW24373   0.475   3.014   2.579 -0.0990  0.7167 -0.1627
 4246SOL    HW124374   0.516   2.965   2.508 -1.2117 -0.6340  0.1270
 4246SOL    HW224375   0.541   3.016   2.648 -0.5601  0.7699  0.2830
 4247SOL     OW24376   2.725   2.079   7.471 -0.5441  0.2511  0.0500
 4247SOL    HW124377   2.772   2.076   7.554  0.8950  1.6958 -0.7161
 4247SOL    HW224378   2.787   2.071   7.399 -1.8369  1.3248 -1.1901
 4248SOL     OW24379   4.044   3.299   3.736 -0.0663 -0.4852 -0.0772
 4248SOL    HW124380   4.018   3.371   3.677  1.1867 -0.3824 -0.4911
 4248SOL    HW224381   4.013   3.341   3.816 -0.6128 -1.2064  0.0925
 4249SOL     OW24382   2.911   4.512  11.592  0.0449 -0.0988 -0.0305
 4249SOL    HW124383   2.965   4.590  11.578 -0.9630  0.3413 -1.3795
 4249SOL    HW224384   2.983   4.472  11.641  0.8923  0.8724 -0.4701
 4250SOL     OW24385   2.475   0.540  13.656 -0.1724  0.0478 -0.1946
 4250SOL    HW124386   2.501   0.467  13.600 -0.2653 -2.2564  2.7538
 4250SOL    HW224387   2.448   0.476  13.722 -0.7367 -0.0301 -0.4965
 4251SOL     OW24388   2.044   0.421  14.370  0.5580  0.1245 -0.1916
 4251SOL    HW124389   1.967   0.398  14.423 -1.4567  0.4666 -2.9844
 4251SOL    HW224390   2.017   0.510  14.347  1.8104 -0.0827 -2.4642
 4252SOL     OW24391   2.162   1.684  12.306 -0.1345  0.6567 -0.1801
 4252SOL    HW124392   2.132   1.684  12.397 -0.3262  0.6495 -0.2422
 4252SOL    HW224393   2.242   1.728  12.333  1.2838 -0.9686 -1.7061
 4253SOL     OW24394   3.860   2.581   4.825 -0.2274 -0.0491 -0.2379
 4253SOL    HW124395   3.906   2.664   4.820 -1.0350  0.4232  0.2098
 4253SOL    HW224396   3.910   2.548   4.899  0.2813 -3.3797 -2.0564
 4254SOL     OW24397   3.346   2.250  12.212 -0.2181  0.1931  0.8986
 4254SOL    HW124398   3.272   2.196  12.184  0.1223  0.2693 -0.1556
 4254SOL    HW224399   3.330   2.269  12.304 -1.5845 -0.1552  0.7268
 4255SOL     OW24400   3.514   1.425   3.729  0.1396 -0.0971 -0.0113
 4255SOL    HW124401   3.580   1.486   3.762  0.8114  0.9631 -3.3222
 4255SOL    HW224402   3.440   1.485   3.722  0.3155 -0.0732 -1.8054
 4256SOL     OW24403   0.750   2.675  12.652 -0.4453  0.4281  0.2550
 4256SOL    HW124404   0.769   2.748  12.712 -0.4651  0.1101  0.6506
 4256SOL    HW224405   0.671   2.637  12.690  0.5630 -1.1490  0.7801
 4257SOL     OW24406   4.461   1.373  10.820  0.0502  0.2018 -0.3576
 4257SOL    HW124407   4.500   1.460  10.822  2.7173 -1.0535  1.5573
 4257SOL    HW224408   4.442   1.369  10.726 -1.5401 -0.5165 -0.0180
 4258SOL     OW24409   3.394   3.592  13.317 -0.1391  0.3680  0.0522
 4258SOL    HW124410   3.376   3.641  13.236 -1.4965 -2.4878 -1.3618
 4258SOL    HW224411   3.446   3.657  13.365  0.6886  0.6331 -1.1895
 4259SOL     OW24412   3.907   4.183   4.799  0.6600 -0.1131 -0.1839
 4259SOL    HW124413   3.949   4.149   4.878 -1.1153 -0.8337  0.4417
 4259SOL    HW224414   3.946   4.269   4.783 -0.2095  0.5918  1.5470
 4260SOL     OW24415   0.904   2.525   4.723  0.3767  0.1193  0.0749
 4260SOL    HW124416   0.921   2.538   4.629 -0.9752  2.1230  0.1111
 4260SOL    HW224417   0.819   2.480   4.715  0.6308 -0.5656  1.3061
 4261SOL     OW24418   1.264   2.842   9.789 -0.1315  0.4484 -0.0804
 4261SOL    HW124419   1.205   2.793   9.732 -0.5755 -0.6122  1.2810
 4261SOL    HW224420   1.330   2.859   9.722 -0.8929  0.3602 -0.8510
 4262SOL     OW24421   1.104   2.901   3.702 -0.1840  0.2763 -0.0425
 4262SOL    HW124422   1.112   2.857   3.618 -1.1414  0.2941 -0.1404
 4262SOL    HW224423   1.195   2.926   3.720  0.6642 -3.3933  0.7451
 4263SOL     OW24424   2.434   1.596   6.528 -0.0525  0.4955  0.1663
 4263SOL    HW124425   2.345   1.572   6.501  0.2104  2.6757 -2.6010
 4263SOL    HW224426   2.419   1.679   6.574  0.2587  0.5823  0.1092
 4264SOL     OW24427   2.121   4.051  11.915 -0.1391  0.6296 -1.0567
 4264SOL    HW124428   2.213   4.076  11.911 -0.1391  0.7770 -0.1799
 4264SOL    HW224429   2.123   3.985  11.984 -0.5863 -0.2177 -1.8556
 4265SOL     OW24430   2.842   1.675   6.048  0.2756 -0.0542 -0.1588
 4265SOL    HW124431   2.751   1.649   6.031  0.8930 -0.8708 -2.2162
 4265SOL    HW224432   2.892   1.636   5.977 -0.2620  0.8768 -1.0524
 4266SOL     OW24433   3.172   0.968   3.177 -0.0765  0.3523 -0.7971
 4266SOL    HW124434   3.239   1.001   3.236  0.8080 -0.8108 -1.1484
 4266SOL    HW224435   3.138   0.886   3.212  1.6929  0.4206  1.0940
 4267SOL     OW24436   2.489   3.774  14.724 -0.2656  0.9311  0.1010
 4267SOL    HW124437   2.475   3.696  14.669 -0.8796  0.4039  0.9994
 4267SOL    HW224438   2.582   3.782  14.706  0.3140 -3.8844  0.9713
 4268SOL     OW24439   2.716   4.382   9.268  0.0254 -0.7493  0.2993
 4268SOL    HW124440   2.809   4.400   9.252  0.0001  1.1750  2.3568
 4268SOL    HW224441   2.719   4.380   9.364  1.6761 -0.2996  0.2636
 4269SOL     OW24442   2.364   2.454   3.527 -0.6172  0.0541 -0.0242
 4269SOL    HW124443   2.319   2.453   3.443 -1.9997 -3.2486  0.7667
 4269SOL    HW224444   2.295   2.417   3.581 -0.3140  2.4415  1.9678
 4270SOL     OW24445   0.210   0.487   7.323 -0.1146  0.2304  0.7369
 4270SOL    HW124446   0.263   0.408   7.328 -0.7893 -0.2142  0.9525
 4270SOL    HW224447   0.272   0.558   7.307 -0.7647  0.7807  0.6539
 4271SOL     OW24448   3.514   2.634   6.612  0.3165  0.4524 -0.0090
 4271SOL    HW124449   3.430   2.679   6.625  0.3180  0.5688 -0.3988
 4271SOL    HW224450   3.552   2.646   6.699 -0.2757  0.2023  0.2921
 4272SOL     OW24451   4.088   1.723   8.679 -0.4241 -0.3449  0.0419
 4272SOL    HW124452   4.169   1.672   8.674 -0.1479 -0.2290  3.1913
 4272SOL    HW224453   4.113   1.799   8.732 -0.5522  0.7232 -1.4388
 4273SOL     OW24454   1.081   2.531   6.128  0.6094 -0.4081 -0.2418
 4273SOL    HW124455   1.078   2.500   6.038 -2.9035 -0.1352 -0.2250
 4273SOL    HW224456   1.161   2.582   6.136  0.5301 -0.3324  0.0745
 4274SOL     OW24457   1.783   2.325   4.780  0.4803 -0.2989  0.2787
 4274SOL    HW124458   1.864   2.374   4.768 -0.3516  0.8384 -0.6814
 4274SOL    HW224459   1.786   2.261   4.709  0.1528 -0.9266  0.8278
 4275SOL     OW24460   3.706   1.575   1.230 -0.0228 -0.1351 -0.4217
 4275SOL    HW124461   3.639   1.583   1.298  0.5172 -2.1236  0.3376
 4275SOL    HW224462   3.774   1.519   1.267 -1.9698  0.8429  4.5490
 4276SOL     OW24463   2.197   3.463  12.729 -0.7264 -0.2413 -0.3313
 4276SOL    HW124464   2.178   3.371  12.744  0.6994 -1.1180 -3.7588
 4276SOL    HW224465   2.230   3.490  12.815 -0.8466  0.3439 -0.4649
 4277SOL     OW24466   0.498   2.364  14.401 -0.3058 -0.2670 -0.0558
 4277SOL    HW124467   0.469   2.417  14.327  0.3547  0.1853  0.0097
 4277SOL    HW224468   0.415   2.323  14.426 -1.0249  1.0501 -0.2544
 4278SOL     OW24469   3.100   1.922   3.427 -0.7201  0.8956 -0.7600
 4278SOL    HW124470   3.058   2.006   3.406 -1.3033  0.7626 -0.1238
 4278SOL    HW224471   3.019   1.872   3.428 -0.6396  0.7370 -2.1949
 4279SOL     OW24472   3.669   2.412   7.360  0.1753  0.1133 -0.4363
 4279SOL    HW124473   3.653   2.422   7.453 -1.2209  1.3526 -0.8072
 4279SOL    HW224474   3.581   2.431   7.327 -0.0852  0.3857  0.4254
 4280SOL     OW24475   3.287   1.473   0.512 -0.1382  0.6613  0.0901
 4280SOL    HW124476   3.236   1.515   0.441 -3.5256  0.8274  2.6004
 4280SOL    HW224477   3.374   1.468   0.472 -0.9042  1.9735 -1.7700
 4281SOL     OW24478   4.139   0.084   1.703 -0.1331  0.3832 -0.5987
 4281SOL    HW124479   4.140   0.036   1.620  1.4580  0.4042 -0.5839
 4281SOL    HW224480   4.229   0.091   1.735 -1.0507 -0.1600  2.1610
 4282SOL     OW24481   3.780   4.213  14.726  0.2061 -0.9437  0.2570
 4282SOL    HW124482   3.797   4.215  14.631 -1.3129 -0.1649 -0.0023
 4282SOL    HW224483   3.693   4.175  14.716  0.0510 -0.5593  0.1448
 4283SOL     OW24484   2.495   3.772  15.633  0.1526 -0.0603  0.4368
 4283SOL    HW124485   2.538   3.789  15.549  0.6257 -2.9805  0.1054
 4283SOL    HW224486   2.488   3.859  15.672 -0.1581 -0.5297  1.4387
 4284SOL     OW24487   0.183   0.177  15.131  0.0008 -0.3712 -0.1421
 4284SOL    HW124488   0.207   0.245  15.068 -1.1625 -2.7243 -3.1227
 4284SOL    HW224489   0.228   0.193  15.214 -0.1058 -2.3980  0.3034
 4285SOL     OW24490   1.512   2.790   6.460 -0.7634  0.4568 -0.2841
 4285SOL    HW124491   1.544   2.874   6.491  0.9153 -0.8394  1.4870
 4285SOL    HW224492   1.567   2.765   6.386 -3.2779 -0.0483 -1.9844
 4286SOL     OW24493   3.061   2.007   7.402 -0.4697  0.9867 -0.2153
 4286SOL    HW124494   3.097   1.932   7.354 -0.2225  1.8767 -1.4243
 4286SOL    HW224495   3.081   2.087   7.353 -0.2012  1.8482  1.3150
 4287SOL     OW24496   1.910   2.374   3.692  0.4314  0.6499 -0.6487
 4287SOL    HW124497   2.004   2.356   3.691  0.5390  1.1883  0.0454
 4287SOL    HW224498   1.885   2.380   3.600 -1.0912 -1.2128 -0.3476
 4288SOL     OW24499   0.547   1.668   2.973 -0.7897 -0.1874  0.0080
 4288SOL    HW124500   0.552   1.577   3.001  0.9161  0.3676  1.5421
 4288SOL    HW224501   0.464   1.694   3.014 -0.9207 -1.5510  0.6032
 4289SOL     OW24502   4.594   3.982   3.177 -0.5158  0.1760 -0.1871
 4289SOL    HW124503   4.639   3.901   3.153 -1.6450 -1.1801  2.2263
 4289SOL    HW224504   4.522   3.937   3.222 -0.4223  0.3239  0.1108
 4290SOL     OW24505   2.857   2.509   7.386  0.8482 -0.3859 -0.4050
 4290SOL    HW124506   2.785   2.507   7.449 -1.4489  1.1502 -2.9872
 4290SOL    HW224507   2.932   2.472   7.432  0.4428 -1.2851 -0.4708
 4291SOL     OW24508   0.863   1.395   7.164 -0.2931 -0.1465 -0.3726
 4291SOL    HW124509   0.878   1.482   7.126  1.2061  0.3661  1.4124
 4291SOL    HW224510   0.946   1.375   7.207 -1.1390  1.8343  2.2145
 4292SOL     OW24511   0.171   0.810   1.445 -0.4924 -0.6557 -0.8720
 4292SOL    HW124512   0.215   0.836   1.365  2.3451 -2.2403  0.1878
 4292SOL    HW224513   0.081   0.794   1.418 -1.0752  1.5593 -0.2951
 4293SOL     OW24514   0.439   0.474   5.411  0.0892 -0.4661  0.3901
 4293SOL    HW124515   0.417   0.414   5.339 -1.2688  0.2364  0.2112
 4293SOL    HW224516   0.356   0.492   5.456  0.2914  1.4510 -0.0256
 4294SOL     OW24517   0.401   2.663   2.843  0.3946  0.1291 -0.1325
 4294SOL    HW124518   0.496   2.676   2.844  0.4265 -0.2181  2.4545
 4294SOL    HW224519   0.397   2.567   2.845 -0.1174  0.1696  0.7060
 4295SOL     OW24520   1.501   1.887   5.209  0.3439 -0.6131  0.6153
 4295SOL    HW124521   1.462   1.848   5.131 -1.5881 -1.3378  1.9664
 4295SOL    HW224522   1.427   1.916   5.261  1.2840 -0.3370  1.8047
 4296SOL     OW24523   1.228   2.573   8.166  0.2593 -0.4653 -0.5414
 4296SOL    HW124524   1.176   2.506   8.209 -0.7269 -0.0292 -1.0607
 4296SOL    HW224525   1.318   2.547   8.187  0.1854 -2.8283 -3.2912
 4297SOL     OW24526   4.023   0.125   1.112  0.3657 -0.7564 -0.1293
 4297SOL    HW124527   4.051   0.216   1.118  0.6364 -0.7632 -1.2087
 4297SOL    HW224528   3.981   0.113   1.197  0.3198  2.8497  0.3674
 4298SOL     OW24529   1.548   4.017   3.145 -0.2058 -0.1431  0.4435
 4298SOL    HW124530   1.463   4.008   3.189 -0.2934 -2.1205 -0.1419
 4298SOL    HW224531   1.584   4.083   3.205  1.5239 -1.3251  0.6997
 4299SOL     OW24532   3.394   1.581  17.540 -0.7214 -0.1526 -0.4599
 4299SOL    HW124533   3.307   1.617  17.523 -0.6513  0.0201 -0.4471
 4299SOL    HW224534   3.430   1.573  17.451 -0.5014  1.4125 -0.5053
 4300SOL     OW24535   1.859   3.384   4.917 -0.0251 -0.7853 -0.2440
 4300SOL    HW124536   1.808   3.365   4.996 -1.4910  0.6414 -0.8331
 4300SOL    HW224537   1.941   3.411   4.957 -0.5094  2.5391 -1.5130
 4301SOL     OW24538   3.544   4.501   7.822  0.3682  0.1406 -0.4910
 4301SOL    HW124539   3.525   4.547   7.740  0.6198 -0.7229 -1.0285
 4301SOL    HW224540   3.456   4.486   7.856  0.1590 -0.0660 -1.1199
 4302SOL     OW24541   1.214   4.381  14.452 -0.1440 -0.5347  0.8112
 4302SOL    HW124542   1.280   4.391  14.384  1.3983 -1.1615  2.2343
 4302SOL    HW224543   1.134   4.359  14.404  0.2350 -0.0788 -0.0231
 4303SOL     OW24544   2.534   1.755  12.667 -0.1899  0.2977 -0.2420
 4303SOL    HW124545   2.487   1.756  12.750 -2.5111  0.8717 -1.5295
 4303SOL    HW224546   2.519   1.663  12.647  0.0286  0.1452  0.3203
 4304SOL     OW24547   3.144   1.631  13.558  0.1158 -0.0427 -0.3582
 4304SOL    HW124548   3.086   1.707  13.559 -1.7530 -1.4516 -1.7945
 4304SOL    HW224549   3.121   1.584  13.638  0.3319 -3.4748 -2.2887
 4305SOL     OW24550   1.786   2.258   5.479 -0.2491  0.8278  0.5808
 4305SOL    HW124551   1.768   2.172   5.442  0.7050  0.1252  1.7577
 4305SOL    HW224552   1.747   2.315   5.413  0.1855  0.9859  0.4573
 4306SOL     OW24553   1.153   1.996  17.568 -0.5297 -0.1921  0.7568
 4306SOL    HW124554   1.116   1.909  17.551 -2.1261  0.5531  0.4459
 4306SOL    HW224555   1.119   2.049  17.496 -1.0725 -0.7027  0.6316
 4307SOL     OW24556   2.270   3.284   3.510  0.0138 -0.2709 -0.4536
 4307SOL    HW124557   2.308   3.258   3.594 -0.3979 -1.1739 -0.5456
 4307SOL    HW224558   2.250   3.375   3.530  0.9613 -0.1742  0.0318
 4308SOL     OW24559   2.344   3.166   2.690 -0.6602  0.1165 -0.3632
 4308SOL    HW124560   2.288   3.238   2.718  0.5972 -0.3419  3.2947
 4308SOL    HW224561   2.319   3.160   2.598 -0.0055 -2.4735 -0.3741
 4309SOL     OW24562   3.188   0.804   5.177 -0.1206 -0.1425  0.1884
 4309SOL    HW124563   3.134   0.780   5.251 -1.3030  0.9204 -0.3369
 4309SOL    HW224564   3.203   0.721   5.131 -1.2108 -0.9128  1.2413
 4310SOL     OW24565   0.847   2.525   9.883  0.7170 -0.0183 -0.3565
 4310SOL    HW124566   0.846   2.511   9.788  2.5337 -0.7872 -0.2509
 4310SOL    HW224567   0.752   2.530   9.898  1.0587  3.5058  0.5772
 4311SOL     OW24568   1.758   3.502   7.373 -0.3114 -0.1272 -0.0931
 4311SOL    HW124569   1.691   3.454   7.422 -0.7202  0.5297 -0.0057
 4311SOL    HW224570   1.756   3.470   7.283  2.9742 -0.5834  0.0082
 4312SOL     OW24571   1.972   2.707  16.549 -0.5062 -0.0122  0.0223
 4312SOL    HW124572   2.042   2.749  16.500 -2.5193  0.0377 -2.8281
 4312SOL    HW224573   2.020   2.673  16.625  1.6840  2.5129 -0.2334
 4313SOL     OW24574   1.126   4.391  10.578 -0.3942  0.1818 -0.2662
 4313SOL    HW124575   1.201   4.443  10.606 -2.8275  2.3209  2.1871
 4313SOL    HW224576   1.137   4.307  10.622  0.3814  0.2810 -0.2711
 4314SOL     OW24577   0.735   3.315   2.051 -0.2324 -0.1454 -0.0541
 4314SOL    HW124578   0.658   3.372   2.058  0.2303  0.0461  3.3355
 4314SOL    HW224579   0.708   3.265   1.973 -1.1712  1.1748 -0.5783
 4315SOL     OW24580   1.949   4.006   7.890 -0.0126  0.1878  0.0674
 4315SOL    HW124581   1.920   3.975   7.805  0.4869  0.0279 -0.0451
 4315SOL    HW224582   1.867   4.011   7.939 -0.6626 -1.7807 -0.8667
 4316SOL     OW24583   3.680   1.549  13.405  0.1548  0.1106  0.0367
 4316SOL    HW124584   3.656   1.463  13.370  0.2305  0.0303  0.1794
 4316SOL    HW224585   3.595   1.593  13.408  0.4564  0.7711 -1.5095
 4317SOL     OW24586   1.511   3.839   1.449  0.0891  0.3316  0.5411
 4317SOL    HW124587   1.566   3.801   1.380  0.8304  0.7364  0.9087
 4317SOL    HW224588   1.478   3.764   1.498 -0.0718 -0.7282 -1.2052
 4318SOL     OW24589   1.965   1.295   0.371  0.4361  0.5200 -0.0490
 4318SOL    HW124590   1.892   1.344   0.409 -0.9805 -1.8957  0.3487
 4318SOL    HW224591   2.039   1.314   0.429  0.4117 -0.2648  0.2435
 4319SOL     OW24592   4.652   0.313   3.555  0.0448 -0.4884  0.4300
 4319SOL    HW124593   4.725   0.333   3.615  0.3960  2.1117 -0.8867
 4319SOL    HW224594   4.611   0.242   3.605 -2.8068  0.9803  0.1268
 4320SOL     OW24595   1.412   2.606   1.208  0.2793  0.5166  0.2081
 4320SOL    HW124596   1.409   2.521   1.166  4.9959  1.1631 -1.4242
 4320SOL    HW224597   1.448   2.577   1.292 -0.1132 -2.0355 -0.5315
 4321SOL     OW24598   0.838   2.256   3.443 -0.0019  0.0259 -0.5817
 4321SOL    HW124599   0.827   2.340   3.398  2.3419 -0.3035 -1.7646
 4321SOL    HW224600   0.862   2.197   3.372 -1.3035 -0.2828 -0.7715
 4322SOL     OW24601   2.518   0.413   1.449 -0.3792 -0.1803  0.6848
 4322SOL    HW124602   2.480   0.474   1.385  0.7984 -0.6789 -0.5183
 4322SOL    HW224603   2.515   0.461   1.532 -0.5377  2.5701 -0.8890
 4323SOL     OW24604   4.531   1.306   7.599 -0.6999 -0.2038 -0.0084
 4323SOL    HW124605   4.595   1.327   7.531 -0.3238  1.1651  0.7551
 4323SOL    HW224606   4.550   1.374   7.664 -2.0786  0.5878 -0.4267
 4324SOL     OW24607   4.160   4.205  12.336 -0.8026 -0.2268 -0.0620
 4324SOL    HW124608   4.239   4.218  12.284 -0.6273  0.1584  0.3032
 4324SOL    HW224609   4.171   4.114  12.362  1.3950  0.4382  1.3278
 4325SOL     OW24610   4.443   3.023   3.941  0.3210 -0.6552 -0.5321
 4325SOL    HW124611   4.486   2.941   3.917  1.5546  0.0211 -0.6127
 4325SOL    HW224612   4.352   3.005   3.916  0.0929 -1.0435  0.5994
 4326SOL     OW24613   0.984   2.521   2.474  0.1389 -0.1647 -0.3235
 4326SOL    HW124614   1.013   2.499   2.385  1.3337 -2.1611  0.5618
 4326SOL    HW224615   1.062   2.568   2.503 -0.1509 -0.6937  1.3299
 4327SOL     OW24616   1.012   0.840   9.116 -0.0864 -0.5631 -0.4796
 4327SOL    HW124617   1.013   0.847   9.021  2.0810 -1.9449 -0.5639
 4327SOL    HW224618   0.954   0.913   9.136  0.0104 -0.8897  1.0022
 4328SOL     OW24619   1.928   3.733  11.841 -0.2533 -0.2524  0.5716
 4328SOL    HW124620   2.022   3.745  11.827 -0.3398 -0.6023 -0.3574
 4328SOL    HW224621   1.896   3.747  11.752 -1.6435  2.8057  1.5553
 4329SOL     OW24622   4.019   3.205   5.193 -0.1111  0.6314  0.9033
 4329SOL    HW124623   4.083   3.205   5.264  0.4898  0.8436  0.3689
 4329SOL    HW224624   4.060   3.274   5.141  2.2909 -2.2681 -1.0427
 4330SOL     OW24625   0.252   2.713   2.528 -0.5925 -0.2793 -0.2168
 4330SOL    HW124626   0.174   2.658   2.523 -0.6867  0.0399 -2.3601
 4330SOL    HW224627   0.222   2.789   2.579 -0.9203 -0.1204 -0.6402
 4331SOL     OW24628   1.486   1.774  14.391 -0.4964  0.0423  0.3558
 4331SOL    HW124629   1.478   1.866  14.363  0.9409 -0.1552 -0.6927
 4331SOL    HW224630   1.394   1.756  14.409 -0.7313  0.2684 -0.5793
 4332SOL     OW24631   4.666   4.645   9.005  0.4432 -0.0198 -0.0470
 4332SOL    HW124632   4.620   4.728   9.017  3.5755  2.0475 -2.1499
 4332SOL    HW224633   4.625   4.585   9.067 -0.1914  0.5321  0.0654
 4333SOL     OW24634   0.995   2.453   5.878 -0.5024  0.1806 -0.3673
 4333SOL    HW124635   1.016   2.410   5.795 -0.6088  2.3270 -1.4869
 4333SOL    HW224636   0.901   2.438   5.881 -0.3021 -1.8105 -3.7574
 4334SOL     OW24637   0.121   2.606   1.337  0.0666 -0.0702 -0.5090
 4334SOL    HW124638   0.097   2.697   1.320 -0.6797 -0.4091 -1.2915
 4334SOL    HW224639   0.046   2.563   1.295 -0.2497 -0.9675  0.9809
 4335SOL     OW24640   0.789   1.733   0.990  0.4847 -0.3011  0.4496
 4335SOL    HW124641   0.733   1.796   0.945  1.6628 -0.8107 -1.7383
 4335SOL    HW224642   0.733   1.659   1.013  0.9541 -1.1024 -0.9463
 4336SOL     OW24643   2.842   1.676   2.356 -0.3177 -0.0879 -0.2523
 4336SOL    HW124644   2.818   1.673   2.264  1.8905  1.1913 -0.8708
 4336SOL    HW224645   2.785   1.612   2.398 -0.4225  0.2768  0.1630
 4337SOL     OW24646   2.786   0.759   9.564 -0.1929 -0.8691 -0.1959
 4337SOL    HW124647   2.701   0.743   9.605  0.2836 -1.4884  0.5448
 4337SOL    HW224648   2.772   0.821   9.493 -0.0428 -0.8560 -0.2126
 4338SOL     OW24649   3.109   0.606  11.057  0.2900  0.3134  0.2690
 4338SOL    HW124650   3.136   0.576  11.144 -1.5613 -0.2061  0.6854
 4338SOL    HW224651   3.154   0.690  11.047  2.7296 -1.1165 -0.8263
 4339SOL     OW24652   1.457   3.794  11.790  0.2085  0.9460 -0.6368
 4339SOL    HW124653   1.480   3.733  11.860 -0.9106 -1.1984 -2.1351
 4339SOL    HW224654   1.396   3.748  11.730 -2.0941  1.0010  1.6570
 4340SOL     OW24655   2.267   0.607   8.494 -0.4196  0.6229 -0.1281
 4340SOL    HW124656   2.324   0.680   8.517 -1.5559  1.1516  0.9923
 4340SOL    HW224657   2.310   0.579   8.413 -0.6035 -0.6613  0.2157
 4341SOL     OW24658   1.222   3.055   5.651  0.0444 -0.7010 -0.2115
 4341SOL    HW124659   1.184   2.976   5.689  1.1424  0.7104  3.8788
 4341SOL    HW224660   1.222   3.121   5.720 -2.5588 -1.7300  0.7538
 4342SOL     OW24661   1.233   2.270   3.113  0.0781 -0.1576 -0.3033
 4342SOL    HW124662   1.238   2.208   3.040  0.2041  1.8735 -2.0263
 4342SOL    HW224663   1.244   2.348   3.058  1.0552 -0.4503 -0.5152
 4343SOL     OW24664   1.395   2.978  10.616  0.1683  0.3972 -1.2185
 4343SOL    HW124665   1.370   3.041  10.549  3.3557 -0.5190 -3.3032
 4343SOL    HW224666   1.490   2.978  10.600  0.2857  0.8434 -0.5097
 4344SOL     OW24667   2.377   2.341   2.668  0.4074  0.2631 -0.5002
 4344SOL    HW124668   2.361   2.255   2.629  1.3520  0.0745 -0.4705
 4344SOL    HW224669   2.339   2.403   2.607 -3.0729 -0.8462  0.5193
 4345SOL     OW24670   4.395   4.449   6.798 -0.5136 -0.6329  0.2708
 4345SOL    HW124671   4.359   4.431   6.886  1.2510 -0.6466  0.9825
 4345SOL    HW224672   4.335   4.521   6.778 -1.1373 -0.9851  0.8229
 4346SOL     OW24673   4.398   1.375  16.202 -0.8324  0.5333  0.1491
 4346SOL    HW124674   4.364   1.294  16.239 -0.3737  0.1745 -0.2254
 4346SOL    HW224675   4.353   1.375  16.117 -0.2905  0.4684 -0.1416
 4347SOL     OW24676   2.157   4.142  15.551 -0.4828 -0.2690 -0.3108
 4347SOL    HW124677   2.205   4.210  15.598  2.1884 -1.9791 -0.5549
 4347SOL    HW224678   2.223   4.105  15.493 -0.7340  0.0812 -0.8189
 4348SOL     OW24679   0.001   3.002   6.928 -0.6631 -0.1638 -0.0834
 4348SOL    HW124680   0.086   2.989   6.886 -0.7836  1.4593 -0.8097
 4348SOL    HW224681   0.022   2.975   7.018  0.2826  3.3056  0.7530
 4349SOL     OW24682   0.939   1.331   8.030 -0.5641 -0.7256  0.0355
 4349SOL    HW124683   0.850   1.328   7.996 -1.0916  0.7921  1.3074
 4349SOL    HW224684   0.954   1.414   8.074 -1.2928 -0.2736 -0.5628
 4350SOL     OW24685   0.434   0.767   3.296  0.0905 -0.7196  0.1590
 4350SOL    HW124686   0.442   0.689   3.350  1.4078  0.9324  2.3474
 4350SOL    HW224687   0.339   0.780   3.292 -0.2737 -3.2702  0.4835
 4351SOL     OW24688   4.165   3.153  12.832 -0.3488  0.5583 -0.6854
 4351SOL    HW124689   4.083   3.164  12.785 -1.8540 -0.9861  1.5651
 4351SOL    HW224690   4.173   3.060  12.811  1.1173  0.9550 -1.8863
 4352SOL     OW24691   1.514   3.000  13.586 -0.1584 -0.3433 -0.2016
 4352SOL    HW124692   1.525   2.929  13.523 -1.5263 -0.5923 -0.1617
 4352SOL    HW224693   1.601   2.992  13.625 -0.2219  0.7426  0.1639
 4353SOL     OW24694   0.044   3.363   4.691 -0.2204 -0.3555  0.0280
 4353SOL    HW124695   0.001   3.320   4.765 -0.1738 -0.3642  0.0502
 4353SOL    HW224696   0.033   3.303   4.617  1.5989  0.6146 -1.0246
 4354SOL     OW24697   3.947   2.650   4.467 -0.1659 -0.0815  0.3131
 4354SOL    HW124698   3.889   2.714   4.508  0.2323 -0.9298  2.1601
 4354SOL    HW224699   3.911   2.571   4.507  1.5305 -1.4620 -0.8645
 4355SOL     OW24700   2.657   1.536   2.474  0.0608  0.4655 -0.4369
 4355SOL    HW124701   2.574   1.568   2.510 -0.4784  1.0899 -2.2230
 4355SOL    HW224702   2.633   1.452   2.435 -0.5987 -0.6451  2.3482
 4356SOL     OW24703   1.562   0.308  10.370  0.1639  0.3378 -0.1687
 4356SOL    HW124704   1.569   0.388  10.319  1.7489 -0.4162 -1.1425
 4356SOL    HW224705   1.534   0.338  10.456 -2.2187 -1.8703 -0.1416
 4357SOL     OW24706   0.877   4.694  11.681  0.2791  0.1421 -0.3428
 4357SOL    HW124707   0.879   0.001  11.596  1.5184 -1.0141 -0.9104
 4357SOL    HW224708   0.966   4.661  11.675 -0.7991 -3.1162  1.7143
 4358SOL     OW24709   0.822   0.931   7.077  0.0432  0.4503  0.5877
 4358SOL    HW124710   0.743   0.951   7.127  0.1098 -1.3277  1.3751
 4358SOL    HW224711   0.834   1.016   7.033  0.1021  1.0206  1.7165
 4359SOL     OW24712   3.301   4.580  17.289 -0.2546  0.8950 -0.2795
 4359SOL    HW124713   3.208   4.589  17.272 -0.2951  1.3706  0.2002
 4359SOL    HW224714   3.312   4.534  17.373  1.1321 -0.0192 -0.9654
 4360SOL     OW24715   3.354   0.440   1.952  0.5155  0.1494 -0.6597
 4360SOL    HW124716   3.277   0.483   1.990 -1.4491 -2.2917 -1.9626
 4360SOL    HW224717   3.400   0.443   2.037  0.8579  1.0209 -0.8749
 4361SOL     OW24718   2.996   2.475   3.501  0.0947  0.2150 -0.4928
 4361SOL    HW124719   3.007   2.438   3.413  1.5510  1.0443 -0.6567
 4361SOL    HW224720   3.014   2.398   3.554 -1.7148  0.5265  0.5714
 4362SOL     OW24721   1.514   1.520   4.571 -0.4352  0.5814  0.7370
 4362SOL    HW124722   1.433   1.492   4.529 -0.4064  1.9324 -0.2051
 4362SOL    HW224723   1.490   1.613   4.573 -0.1732  0.6582 -0.0033
 4363SOL     OW24724   0.158   2.002   2.184 -0.1322  0.0637 -0.2255
 4363SOL    HW124725   0.186   1.971   2.098 -0.4290 -1.8614  0.3738
 4363SOL    HW224726   0.093   1.935   2.206  0.5021 -0.7906 -0.9385
 4364SOL     OW24727   1.353   2.289   2.263  0.1311  0.1520 -0.0105
 4364SOL    HW124728   1.322   2.243   2.186  1.0772  0.9756 -0.8888
 4364SOL    HW224729   1.288   2.250   2.322  0.5542  0.8446  0.9249
 4365SOL     OW24730   1.338   1.414   4.916  0.4397 -0.0245 -0.4633
 4365SOL    HW124731   1.259   1.433   4.866  0.4636 -1.8948 -1.1955
 4365SOL    HW224732   1.315   1.433   5.007  0.6079 -1.0911 -0.2058
 4366SOL     OW24733   1.975   2.175   6.595  0.3684  0.5623  0.9388
 4366SOL    HW124734   1.931   2.222   6.666  0.2420 -0.2247  1.3867
 4366SOL    HW224735   1.983   2.238   6.524 -0.1531 -0.7865 -0.2924
 4367SOL     OW24736   1.287   4.336   3.175 -0.0418  0.7293 -0.1254
 4367SOL    HW124737   1.311   4.286   3.253 -2.0659 -1.2286 -0.7388
 4367SOL    HW224738   1.223   4.277   3.136  0.4056 -0.7820  1.4335
 4368SOL     OW24739   0.736   3.308  15.214  0.4794 -1.0393 -0.1594
 4368SOL    HW124740   0.684   3.333  15.291 -0.1493  1.6453 -1.4155
 4368SOL    HW224741   0.758   3.393  15.175  3.2574 -1.4180  0.6345
 4369SOL     OW24742   0.454   1.046   2.019  0.2059  0.4269  0.9740
 4369SOL    HW124743   0.412   1.026   2.102  0.1246 -1.1026  0.5780
 4369SOL    HW224744   0.476   1.138   2.032  1.6904  0.2853 -0.4712
 4370SOL     OW24745   3.780   3.692   3.900 -0.2222 -0.1557 -0.3293
 4370SOL    HW124746   3.828   3.731   3.974 -0.1081  0.6111 -0.7988
 4370SOL    HW224747   3.772   3.763   3.837  0.7815 -1.4700 -1.9305
 4371SOL     OW24748   4.240   0.707   4.001  0.2003  0.2179 -0.5634
 4371SOL    HW124749   4.228   0.710   3.906  0.4928 -1.8184 -0.6680
 4371SOL    HW224750   4.291   0.626   4.011  0.1541  0.2064 -0.4218
 4372SOL     OW24751   2.413   1.335  11.698 -0.1233  0.2852  0.0184
 4372SOL    HW124752   2.349   1.324  11.628  0.6328 -2.6088 -0.2282
 4372SOL    HW224753   2.456   1.415  11.669 -1.0734  2.0537  3.3956
 4373SOL     OW24754   0.953   2.517   4.080 -0.9090  0.2088 -0.1824
 4373SOL    HW124755   1.032   2.560   4.048  0.0084  0.3001  2.2070
 4373SOL    HW224756   0.928   2.460   4.008 -0.0649 -1.8594  1.1400
 4374SOL     OW24757   0.337   0.543   2.767 -0.0358  0.2733 -0.1771
 4374SOL    HW124758   0.291   0.521   2.848  0.0637  0.8283  0.0288
 4374SOL    HW224759   0.357   0.636   2.776 -0.0852  0.1835  0.8233
 4375SOL     OW24760   1.991   1.460   8.821 -0.4881 -0.3070 -0.3187
 4375SOL    HW124761   2.002   1.421   8.908  1.2929  0.6196 -0.1460
 4375SOL    HW224762   2.065   1.519   8.832 -0.8871  0.1598 -0.1244
 4376SOL     OW24763   1.526   4.277  14.564  0.3377  0.0478  0.1502
 4376SOL    HW124764   1.513   4.183  14.559  0.5016  0.0656 -0.6071
 4376SOL    HW224765   1.539   4.292  14.471  1.9271 -0.1696  0.3386
 4377SOL     OW24766   0.757   1.703   8.059  0.0413  0.0278 -0.3005
 4377SOL    HW124767   0.832   1.652   8.090 -0.0567 -0.3756 -0.7229
 4377SOL    HW224768   0.701   1.703   8.136 -0.6378  0.3491 -0.7918
 4378SOL     OW24769   1.594   0.683   1.836 -0.1948 -0.0541 -0.6231
 4378SOL    HW124770   1.597   0.693   1.741 -0.7860  1.8523 -0.4348
 4378SOL    HW224771   1.639   0.763   1.861  1.4386 -1.3565  0.6749
 4379SOL     OW24772   0.965   4.138   7.921  0.0810  0.0803  0.6719
 4379SOL    HW124773   1.026   4.212   7.920  0.7742 -0.5070 -1.6100
 4379SOL    HW224774   0.906   4.154   7.995 -1.1581 -0.6529 -0.1520
 4380SOL     OW24775   4.303   2.540   1.587 -0.4284 -0.1590  0.2407
 4380SOL    HW124776   4.354   2.577   1.660 -0.3769  2.0458 -0.9090
 4380SOL    HW224777   4.230   2.602   1.580  0.8283  1.3945  0.7641
 4381SOL     OW24778   1.492   3.750   3.579 -0.3451 -0.1179 -0.0239
 4381SOL    HW124779   1.459   3.662   3.562  0.0433 -0.1968 -0.3886
 4381SOL    HW224780   1.583   3.741   3.549  0.0488  0.9506  0.8513
 4382SOL     OW24781   2.477   3.594   3.811  0.2585 -0.1497 -0.3662
 4382SOL    HW124782   2.394   3.560   3.777  0.6698 -0.3944 -1.1308
 4382SOL    HW224783   2.511   3.523   3.866 -1.2280 -1.6968 -1.4366
 4383SOL     OW24784   3.011   1.523   1.756  0.1642 -0.4559  0.9664
 4383SOL    HW124785   3.089   1.577   1.760  0.6631 -1.2518  1.9491
 4383SOL    HW224786   2.940   1.582   1.783  1.8666  2.0936 -0.1964
 4384SOL     OW24787   2.267   3.846   7.040  0.2248  0.1986 -0.4655
 4384SOL    HW124788   2.209   3.910   6.999  0.8218 -0.1417 -1.8556
 4384SOL    HW224789   2.281   3.894   7.122 -0.0582  2.7636 -1.9118
 4385SOL     OW24790   2.245   3.076   4.565  0.4789  0.0701 -0.1002
 4385SOL    HW124791   2.316   3.014   4.547  0.5766  0.3137 -0.5450
 4385SOL    HW224792   2.244   3.071   4.661 -0.6307 -0.5415 -0.1421
 4386SOL     OW24793   3.266   1.634   1.745 -0.2263 -0.4282 -0.2034
 4386SOL    HW124794   3.301   1.695   1.680  0.8176 -2.5813 -1.6608
 4386SOL    HW224795   3.341   1.613   1.800 -0.3905 -1.9994 -0.5723
 4387SOL     OW24796   3.003   3.259   0.466  0.4223  0.6286 -0.2027
 4387SOL    HW124797   2.930   3.197   0.475 -1.3945  2.6806 -0.5900
 4387SOL    HW224798   3.071   3.207   0.424 -0.3553  0.1169 -0.8418
 4388SOL     OW24799   1.206   0.814  11.144  0.3245  0.0484  0.1925
 4388SOL    HW124800   1.214   0.750  11.215 -1.4314  0.0793  0.4214
 4388SOL    HW224801   1.296   0.811  11.111  0.5344 -1.7860  0.9539
 4389SOL     OW24802   1.105   4.483  12.478  0.0001 -0.5914  0.2406
 4389SOL    HW124803   1.114   4.388  12.478  0.2878 -0.5638 -0.8715
 4389SOL    HW224804   1.196   4.508  12.465 -0.5876 -0.0877 -2.9068
 4390SOL     OW24805   1.376   3.720   0.862  0.1948 -0.4963  0.3636
 4390SOL    HW124806   1.296   3.713   0.914 -1.1464 -2.1805 -1.8972
 4390SOL    HW224807   1.346   3.788   0.801  1.5481 -1.0867 -0.9610
 4391SOL     OW24808   1.423   0.252   8.944  0.0286 -0.4370 -0.5417
 4391SOL    HW124809   1.347   0.294   8.903  0.5458  0.1299 -0.9133
 4391SOL    HW224810   1.488   0.309   8.903  0.8926  0.3677  1.9523
 4392SOL     OW24811   3.185   1.843   3.814  0.2494  0.4743 -0.3804
 4392SOL    HW124812   3.169   1.815   3.904 -0.4052 -0.8355 -0.9098
 4392SOL    HW224813   3.108   1.899   3.807 -1.1133 -1.2849  0.6143
 4393SOL     OW24814   1.215   3.747  12.080  0.1144  0.2218  0.1108
 4393SOL    HW124815   1.246   3.672  12.029 -1.0351 -1.0420  1.2462
 4393SOL    HW224816   1.195   3.804  12.006  1.0769  0.5633  0.1085
 4394SOL     OW24817   1.900   1.439   4.505 -0.2601  0.0872  0.3688
 4394SOL    HW124818   1.830   1.413   4.445  2.0553  0.1306 -2.3800
 4394SOL    HW224819   1.926   1.348   4.520  3.0664  1.1247  0.8978
 4395SOL     OW24820   0.843   1.410   5.438  0.2984  0.3633 -0.8359
 4395SOL    HW124821   0.749   1.395   5.433  0.5077 -0.5661 -2.0002
 4395SOL    HW224822   0.862   1.469   5.511 -0.1735 -0.5534  0.0115
 4396SOL     OW24823   1.202   1.755  15.524  0.3290 -0.6935  0.3296
 4396SOL    HW124824   1.248   1.806  15.458 -0.2690 -1.5424 -0.7475
 4396SOL    HW224825   1.116   1.797  15.518  1.4797  1.6603  0.3665
 4397SOL     OW24826   3.486   3.999   3.794  0.2408 -0.2124  0.0504
 4397SOL    HW124827   3.581   4.004   3.788  0.2015 -1.4795 -1.7785
 4397SOL    HW224828   3.485   3.992   3.890  0.5469 -0.5180  0.0296
 4398SOL     OW24829   4.450   4.386   6.487 -0.3284  0.6502  0.4869
 4398SOL    HW124830   4.483   4.472   6.514 -2.9362  1.3634  1.4107
 4398SOL    HW224831   4.393   4.372   6.563 -0.4018 -0.1718  0.2763
 4399SOL     OW24832   1.784   3.728   2.584 -0.2284 -0.7301 -0.0481
 4399SOL    HW124833   1.745   3.715   2.498  0.7348 -1.3107 -0.3960
 4399SOL    HW224834   1.855   3.789   2.561  0.1534 -1.3889 -0.6040
 4400SOL     OW24835   1.011   2.335   5.628  0.4137  1.0266  0.3154
 4400SOL    HW124836   0.947   2.332   5.558  0.5072  0.3806  0.2532
 4400SOL    HW224837   1.081   2.380   5.582  0.1039  1.8389  0.6510
 4401SOL     OW24838   0.151   2.516   3.250 -0.3805 -0.5487  0.4406
 4401SOL    HW124839   0.110   2.577   3.188 -0.1211  0.9976  1.7738
 4401SOL    HW224840   0.112   2.532   3.337  0.8376  1.5554  0.6086
 4402SOL     OW24841   3.141   1.149   7.317 -0.1952  0.0194  0.2109
 4402SOL    HW124842   3.110   1.238   7.333 -1.8117 -0.4225 -0.4515
 4402SOL    HW224843   3.214   1.149   7.379  0.7996 -3.4215 -0.9153
 4403SOL     OW24844   2.109   3.357   1.421 -0.3265 -0.1243 -0.3510
 4403SOL    HW124845   2.127   3.370   1.328 -0.7336  0.9520 -0.2764
 4403SOL    HW224846   2.197   3.331   1.448 -0.7721 -1.1006  0.1729
 4404SOL     OW24847   3.001   3.472   3.307 -0.5343  0.0573  0.3843
 4404SOL    HW124848   2.968   3.518   3.384  0.7120 -0.2128  1.0849
 4404SOL    HW224849   3.059   3.535   3.265 -0.5502 -0.7084 -0.7945
 4405SOL     OW24850   0.336   4.135   5.471  0.5633 -0.3269 -0.0691
 4405SOL    HW124851   0.283   4.094   5.539  3.3285 -2.3731  0.8604
 4405SOL    HW224852   0.292   4.219   5.456 -0.8919 -1.0394  0.1701
 4406SOL     OW24853   3.901   4.199   7.435 -0.3913  0.5367  0.8984
 4406SOL    HW124854   3.959   4.273   7.452 -0.6772  0.8999  0.2649
 4406SOL    HW224855   3.822   4.239   7.469 -0.2540  2.0494 -0.5725
 4407SOL     OW24856   4.161   2.140   8.835  0.4593 -0.0548  0.3678
 4407SOL    HW124857   4.230   2.076   8.851  0.1623 -0.3222  0.5883
 4407SOL    HW224858   4.175   2.188   8.917  0.5335  0.4592  0.0551
 4408SOL     OW24859   1.739   0.907   1.873 -0.1884 -0.7044 -0.4739
 4408SOL    HW124860   1.790   0.986   1.889  0.9639 -2.5337  4.9262
 4408SOL    HW224861   1.819   0.859   1.851 -0.1189  0.0496 -1.8323
 4409SOL     OW24862   2.445   2.336   4.302  0.0118  0.3371  0.6458
 4409SOL    HW124863   2.438   2.323   4.207  0.6617 -0.3976  0.6939
 4409SOL    HW224864   2.511   2.270   4.324  0.5500  0.0614 -1.7345
 4410SOL     OW24865   2.618   3.559   8.294 -0.0377  0.1119  0.0082
 4410SOL    HW124866   2.712   3.542   8.294  0.0586  0.6885  1.8931
 4410SOL    HW224867   2.606   3.653   8.307 -0.4822 -0.1594  1.4864
 4411SOL     OW24868   3.095   2.629   5.166 -0.0534 -0.4423  0.1157
 4411SOL    HW124869   3.176   2.584   5.143  0.7869  1.2273 -0.1337
 4411SOL    HW224870   3.114   2.719   5.140 -0.1387 -0.2080  0.8587
 4412SOL     OW24871   2.130   3.836   2.267  0.1281  0.2042 -0.4930
 4412SOL    HW124872   2.103   3.835   2.175  0.1709 -0.1120 -0.5030
 4412SOL    HW224873   2.188   3.760   2.267 -1.6973 -1.1753  1.3093
 4413SOL     OW24874   3.085   0.458  11.766 -0.2040  0.1830 -0.2118
 4413SOL    HW124875   3.116   0.534  11.717 -0.5626  0.4882  0.0309
 4413SOL    HW224876   3.093   0.491  11.856  1.4783 -2.5615  0.6261
 4414SOL     OW24877   2.732   2.855   2.518 -0.1906 -0.0047  0.4274
 4414SOL    HW124878   2.722   2.944   2.550 -0.3849 -0.0353  0.4518
 4414SOL    HW224879   2.701   2.811   2.597  1.0096 -0.4332  0.6641
 4415SOL     OW24880   0.545   0.986   8.440  0.6036 -0.3007  0.0680
 4415SOL    HW124881   0.533   0.896   8.472 -1.1440 -0.3171 -0.6247
 4415SOL    HW224882   0.575   1.037   8.516  0.8153 -1.4362  0.7502
 4416SOL     OW24883   1.163   1.849   2.063 -0.2358 -0.4851  0.0031
 4416SOL    HW124884   1.168   1.764   2.018  1.5437 -0.2848 -0.1861
 4416SOL    HW224885   1.248   1.856   2.107 -0.1715 -0.0150 -0.2093
 4417SOL     OW24886   3.184   2.947   3.674 -0.0523  0.6960  0.6635
 4417SOL    HW124887   3.091   2.966   3.662  0.4048  2.1432 -0.6229
 4417SOL    HW224888   3.219   3.026   3.713 -1.7484  2.4420 -1.3330
 4418SOL     OW24889   0.406   2.793   6.147  0.1312 -0.2643 -0.2029
 4418SOL    HW124890   0.369   2.771   6.232 -1.8688  0.7692 -0.7888
 4418SOL    HW224891   0.324   2.790   6.098 -0.3247  0.7455  0.4822
 4419SOL     OW24892   1.617   4.523   2.736  0.2979 -0.4485 -0.3639
 4419SOL    HW124893   1.693   4.565   2.696 -0.9382  1.8257 -0.3773
 4419SOL    HW224894   1.554   4.529   2.664 -0.4430  4.1483  0.6563
 4420SOL     OW24895   2.500   3.423   9.523  0.1487 -0.3951  0.0496
 4420SOL    HW124896   2.530   3.333   9.530  1.2306 -0.1157 -0.9513
 4420SOL    HW224897   2.565   3.463   9.581 -0.6139  0.3512  0.3806
 4421SOL     OW24898   4.134   2.379   0.136  0.0753  0.0881 -0.2079
 4421SOL    HW124899   4.082   2.299   0.148  1.6097 -0.8077  0.4591
 4421SOL    HW224900   4.204   2.351   0.078 -0.6853 -1.1628 -0.5269
 4422SOL     OW24901   2.280   3.102   6.864 -0.4255 -0.1634  0.3288
 4422SOL    HW124902   2.331   3.181   6.845 -1.7444  0.7472  0.5588
 4422SOL    HW224903   2.282   3.097   6.960  1.6257 -0.2283  0.2825
 4423SOL     OW24904   2.614   1.541   0.356 -0.0819  0.0212  0.5936
 4423SOL    HW124905   2.626   1.635   0.344 -0.1923 -0.1477 -0.8281
 4423SOL    HW224906   2.552   1.528   0.428 -0.1761 -1.9349  0.1709
 4424SOL     OW24907   3.921   0.787  15.887  0.3712 -0.2787 -0.4974
 4424SOL    HW124908   3.964   0.758  15.806  0.2861  0.5657 -0.8499
 4424SOL    HW224909   3.837   0.801  15.843 -0.3207 -1.8691  0.3260
 4425SOL     OW24910   0.275   0.848   1.190 -0.1938 -0.7979 -0.6410
 4425SOL    HW124911   0.344   0.783   1.200  1.5432  1.3346  1.3547
 4425SOL    HW224912   0.327   0.928   1.185 -0.9204 -0.3645 -1.2301
 4426SOL     OW24913   4.335   1.958   8.127  0.3258 -0.5300 -0.0985
 4426SOL    HW124914   4.352   1.937   8.035  2.5527  0.4624  0.0651
 4426SOL    HW224915   4.407   2.015   8.152 -0.6099 -0.7938  3.1211
 4427SOL     OW24916   4.110   2.852   4.322 -0.6657  0.0640 -0.6555
 4427SOL    HW124917   4.075   2.936   4.354  0.5741  0.7443 -1.0792
 4427SOL    HW224918   4.055   2.786   4.363  1.8591 -1.0590  0.9134
 4428SOL     OW24919   1.060   1.265   7.761 -0.0039 -0.4233  0.5364
 4428SOL    HW124920   0.981   1.222   7.729 -0.8325  0.1653  1.8050
 4428SOL    HW224921   1.030   1.317   7.835 -1.1617 -0.3842  0.0411
 4429SOL     OW24922   2.127   4.461   8.613  0.0220 -0.6391  0.7776
 4429SOL    HW124923   2.041   4.425   8.592  0.0704 -0.0269 -0.4582
 4429SOL    HW224924   2.149   4.485   8.523 -0.5958  2.9241  1.5740
 4430SOL     OW24925   2.931   3.603   6.851  0.4271 -0.0506 -0.0998
 4430SOL    HW124926   2.841   3.635   6.843  0.6072  0.4951  0.0599
 4430SOL    HW224927   2.915   3.522   6.804  0.0456  0.0207 -0.0917
 4431SOL     OW24928   1.766   1.175   5.551 -0.0812  0.3967 -0.4869
 4431SOL    HW124929   1.698   1.178   5.483  0.9999  1.7502 -1.4909
 4431SOL    HW224930   1.722   1.125   5.620 -0.9313  1.3925 -0.3011
 4432SOL     OW24931   0.543   2.934   0.005  0.6019 -0.1779  0.4343
 4432SOL    HW124932   0.599   2.927  17.678  1.7874 -1.1963  1.3808
 4432SOL    HW224933   0.538   2.844   0.038  0.9428 -0.3718 -0.0408
 4433SOL     OW24934   0.063   2.937   2.628  0.8934 -0.8896 -0.1338
 4433SOL    HW124935   0.105   2.946   2.713  2.0471  0.8360 -0.8901
 4433SOL    HW224936   0.104   3.016   2.593 -0.6254  0.0938  0.2824
 4434SOL     OW24937   3.873   2.034   3.659  0.1916 -0.1076  1.0724
 4434SOL    HW124938   3.960   2.001   3.681  0.6488 -1.4248 -2.7064
 4434SOL    HW224939   3.851   1.973   3.589 -0.2572 -1.9472  2.8250
 4435SOL     OW24940   4.441   2.748   2.889  0.3266  0.1811  0.1737
 4435SOL    HW124941   4.517   2.746   2.830 -0.7505  0.5243 -1.2170
 4435SOL    HW224942   4.437   2.656   2.915  1.9244 -0.4985 -1.9294
 4436SOL     OW24943   2.668   2.768   8.281 -0.3338 -0.4052  0.5098
 4436SOL    HW124944   2.579   2.750   8.252 -0.6807  1.2903  0.5314
 4436SOL    HW224945   2.690   2.681   8.316  0.5164 -1.2025 -2.0333
 4437SOL     OW24946   4.363   4.459   4.734  0.1709  0.1557  0.1213
 4437SOL    HW124947   4.352   4.551   4.757 -0.9772 -0.6781  2.8370
 4437SOL    HW224948   4.367   4.420   4.821 -2.2348  0.8921  0.5549
 4438SOL     OW24949   4.025   0.767   9.290 -0.2697 -0.7929  0.4961
 4438SOL    HW124950   4.010   0.715   9.368 -1.3896 -0.8984  0.2192
 4438SOL    HW224951   3.938   0.776   9.250 -0.1534 -0.2032  0.3655
 4439SOL     OW24952   0.654   0.788   4.863  0.3199  0.4404  0.1938
 4439SOL    HW124953   0.660   0.720   4.930  2.4290 -0.0280 -0.4623
 4439SOL    HW224954   0.740   0.781   4.820  0.0625  0.9971 -0.4209
 4440SOL     OW24955   3.805   2.982   5.990 -0.1697 -0.0278  0.0976
 4440SOL    HW124956   3.806   2.886   5.982 -1.7779 -0.0784  0.5055
 4440SOL    HW224957   3.710   2.991   5.996 -0.0385 -0.0109  2.1801
 4441SOL     OW24958   2.687   3.901   6.443  0.0494  0.1340  0.1040
 4441SOL    HW124959   2.594   3.925   6.453 -0.3474 -1.9841  1.4096
 4441SOL    HW224960   2.725   3.969   6.498 -0.2750 -0.4105  1.0049
 4442SOL     OW24961   2.655   4.542   3.952 -0.1158  0.0001 -0.1862
 4442SOL    HW124962   2.688   4.599   3.883  1.5473  0.2756  0.8206
 4442SOL    HW224963   2.564   4.569   3.943 -0.2893 -1.0353 -1.4803
 4443SOL     OW24964   1.935   0.819   2.085 -0.0533 -0.5576  0.2430
 4443SOL    HW124965   1.913   0.849   2.173 -1.3399  0.8712 -0.5617
 4443SOL    HW224966   2.029   0.838   2.084 -0.0724 -0.5015 -0.5581
 4444SOL     OW24967   1.533   4.697  10.052 -0.4083  0.8623  0.0923
 4444SOL    HW124968   1.466   4.659  10.109 -1.3971  0.8879 -1.0546
 4444SOL    HW224969   1.579   0.008  10.121  1.3624 -0.2422 -0.2817
 4445SOL     OW24970   3.984   1.487   5.547  0.0554  0.5309 -0.0304
 4445SOL    HW124971   3.989   1.582   5.551 -1.4617  0.5847  0.4702
 4445SOL    HW224972   4.058   1.462   5.602 -2.1706  0.5323  2.9324
 4446SOL     OW24973   1.951   2.829  14.564  0.1713  1.1129 -0.1643
 4446SOL    HW124974   1.950   2.826  14.468  1.3276  1.1321 -0.1866
 4446SOL    HW224975   1.861   2.812  14.590 -0.2324  2.4281 -0.7282
 4447SOL     OW24976   1.375   0.396   9.376  0.2262  0.3681 -0.1789
 4447SOL    HW124977   1.406   0.455   9.307 -1.8125 -2.1587 -3.2163
 4447SOL    HW224978   1.325   0.449   9.438 -0.6220  0.6377 -1.1010
 4448SOL     OW24979   0.587   3.050   6.033 -0.2773 -0.0486 -0.3605
 4448SOL    HW124980   0.595   2.961   5.998  0.8922 -0.3612  0.7276
 4448SOL    HW224981   0.653   3.096   5.982  1.4799 -2.0904  0.0605
 4449SOL     OW24982   2.615   0.631  11.272  0.2704 -0.3663 -0.5432
 4449SOL    HW124983   2.688   0.675  11.228  0.1144  0.2793 -0.1744
 4449SOL    HW224984   2.652   0.544  11.281  3.8202  0.8401 -3.4262
 4450SOL     OW24985   2.165   2.869  14.749  0.3463 -0.5496 -0.2360
 4450SOL    HW124986   2.089   2.854  14.694  0.6802  2.1445 -1.4332
 4450SOL    HW224987   2.172   2.964  14.757 -2.3981 -0.3590 -0.1652
 4451SOL     OW24988   1.709   2.695   6.263  0.1769 -0.4104 -0.7058
 4451SOL    HW124989   1.716   2.725   6.172 -0.4247 -2.9220 -1.5876
 4451SOL    HW224990   1.780   2.741   6.307 -0.2916 -2.2509  2.0006
 4452SOL     OW24991   2.944   1.071   7.999  0.0112 -0.3640 -0.4021
 4452SOL    HW124992   2.940   0.976   7.996  0.0143 -0.4424  1.7647
 4452SOL    HW224993   3.021   1.097   7.948  1.5600  0.0779  2.1646
 4453SOL     OW24994   3.859   3.661  17.680  0.0857 -0.2629 -0.5544
 4453SOL    HW124995   3.830   3.600  17.748  1.2798 -0.9423 -0.6642
 4453SOL    HW224996   3.931   3.707  17.721  0.5644 -1.7476  0.2875
 4454SOL     OW24997   2.632   4.118   4.920  0.2910 -0.0084 -0.9817
 4454SOL    HW124998   2.718   4.117   4.962  0.4467  0.0794 -1.2996
 4454SOL    HW224999   2.654   4.121   4.827 -0.7139  1.6362 -1.1643
 4455SOL     OW25000   1.983   1.987  14.825  0.4224 -0.6257  0.4316
 4455SOL    HW125001   2.021   2.018  14.907  1.1060  0.6799 -0.3635
 4455SOL    HW225002   1.904   1.942  14.853  0.5460 -1.0455  0.1096
 4456SOL     OW25003   3.701   2.871   1.959  0.6141 -0.2340 -0.1162
 4456SOL    HW125004   3.697   2.936   2.029  1.0189  0.7375 -0.9909
 4456SOL    HW225005   3.789   2.890   1.926 -0.3041 -0.5722 -2.7411
 4457SOL     OW25006   1.133   1.176   9.204  0.2341  0.3588 -0.0664
 4457SOL    HW125007   1.105   1.268   9.201 -3.1542 -0.5981  1.5613
 4457SOL    HW225008   1.045   1.140   9.195 -0.1821  1.7394 -1.6011
 4458SOL     OW25009   1.756   2.659   1.844  0.4477  0.4212  0.3616
 4458SOL    HW125010   1.666   2.680   1.869 -0.1038 -0.0425 -1.2023
 4458SOL    HW225011   1.778   2.743   1.802 -0.5852  1.6051  2.2067
 4459SOL     OW25012   2.278   2.270  17.295 -0.2684  0.6049  0.4942
 4459SOL    HW125013   2.260   2.216  17.372 -1.4581 -0.6751 -0.6917
 4459SOL    HW225014   2.187   2.284  17.272  0.1922  0.3370 -1.5241
 4460SOL     OW25015   2.115   3.225   6.651 -0.1226  0.1967  0.3910
 4460SOL    HW125016   2.140   3.227   6.559 -3.6533  1.1221 -0.5513
 4460SOL    HW225017   2.200   3.201   6.688  0.2435  2.4428  0.9894
 4461SOL     OW25018   4.076   2.617   3.885  0.5210  0.3517 -0.0182
 4461SOL    HW125019   4.035   2.635   3.969 -0.6706 -0.3044 -0.4505
 4461SOL    HW225020   4.164   2.590   3.911  1.1735  1.5664 -0.9776
 4462SOL     OW25021   0.103   4.670   0.123 -0.0013  0.1983 -0.3452
 4462SOL    HW125022   0.069   4.581   0.122  1.8118 -0.4894 -0.7493
 4462SOL    HW225023   0.134   4.692   0.211  0.1498 -1.5725  0.0297
 4463SOL     OW25024   0.879   4.315   5.887  0.1353  0.1875 -0.0044
 4463SOL    HW125025   0.847   4.350   5.804  2.1643 -1.2639 -1.3966
 4463SOL    HW225026   0.810   4.344   5.948  1.8266  1.9365  1.0738
 4464SOL     OW25027   4.412   3.849   8.043  0.0661 -0.7097 -0.3490
 4464SOL    HW125028   4.382   3.923   8.095 -0.2197 -1.2881  0.3043
 4464SOL    HW225029   4.431   3.895   7.961 -0.2124  1.3319  0.7251
 4465SOL     OW25030   4.210   3.441   7.408  0.0155  0.4139  0.2608
 4465SOL    HW125031   4.142   3.397   7.458  0.6053  1.0030  1.5711
 4465SOL    HW225032   4.266   3.456   7.484  0.0425  2.0317 -0.0891
 4466SOL     OW25033   3.702   1.206   4.018  0.5824  0.4445  0.4120
 4466SOL    HW125034   3.640   1.152   3.970  1.6789 -2.5241  2.3762
 4466SOL    HW225035   3.783   1.156   4.018  0.9264  0.9956 -1.7051
 4467SOL     OW25036   4.289   1.937  14.915  0.0978  0.1518 -0.4127
 4467SOL    HW125037   4.213   1.985  14.882  0.2813  1.5836  1.2760
 4467SOL    HW225038   4.353   1.961  14.848 -1.1634  2.1863 -0.8914
 4468SOL     OW25039   2.494   3.937  13.460  0.7509  0.0205  0.1470
 4468SOL    HW125040   2.406   3.901  13.449  1.4417 -1.5789 -0.1342
 4468SOL    HW225041   2.469   4.027  13.440 -2.8009 -0.5968  1.8987
 4469SOL     OW25042   4.052   3.906   2.221  0.2552  0.1236  0.4620
 4469SOL    HW125043   4.070   3.927   2.129  0.3224 -1.0703  0.2066
 4469SOL    HW225044   4.106   3.828   2.231  0.3179  0.2397  1.0207
 4470SOL     OW25045   2.747   3.316   6.487  0.0198 -0.2891 -0.3869
 4470SOL    HW125046   2.668   3.286   6.532 -0.2347 -0.6572 -1.0916
 4470SOL    HW225047   2.750   3.243   6.426 -0.6065  0.1646 -0.9639
 4471SOL     OW25048   3.634   1.493   6.728 -0.4148 -0.0529  0.3129
 4471SOL    HW125049   3.700   1.475   6.795 -1.1971  1.6005  1.5164
 4471SOL    HW225050   3.609   1.405   6.698 -1.3743  0.6024 -0.8226
 4472SOL     OW25051   2.449   3.451   8.647  0.1197 -0.0273 -0.5977
 4472SOL    HW125052   2.427   3.388   8.716  0.3078 -1.1358 -1.5372
 4472SOL    HW225053   2.413   3.422   8.563 -1.2123 -2.4377  0.7949
 4473SOL     OW25054   0.755   3.752  16.824  0.2279 -0.8563 -0.2007
 4473SOL    HW125055   0.683   3.697  16.793  0.5889 -0.8970 -0.9737
 4473SOL    HW225056   0.793   3.684  16.879 -1.7517 -0.1100  2.0683
 4474SOL     OW25057   3.428   0.336   3.857  0.8293 -0.3977 -0.5392
 4474SOL    HW125058   3.377   0.416   3.871 -0.6226 -1.2852 -0.6749
 4474SOL    HW225059   3.365   0.264   3.864  0.1663  0.2237 -0.0901
 4475SOL     OW25060   3.257   2.768  13.381  0.2110  0.7625  0.1501
 4475SOL    HW125061   3.177   2.741  13.425  1.4287 -1.7762  0.8002
 4475SOL    HW225062   3.318   2.790  13.451 -0.7020 -1.2997  1.5671
 4476SOL     OW25063   2.667   1.061   8.980 -0.6925 -0.0640 -0.1508
 4476SOL    HW125064   2.641   1.032   8.892 -2.0308  0.5158  0.0559
 4476SOL    HW225065   2.686   1.155   8.968 -1.8620  0.0730 -0.9324
 4477SOL     OW25066   2.847   1.758   3.396 -0.9279  0.1654 -0.0527
 4477SOL    HW125067   2.794   1.697   3.448  0.3561 -0.4910  0.4850
 4477SOL    HW225068   2.875   1.708   3.320  0.2714 -2.2527  1.9790
 4478SOL     OW25069   4.477   2.208   6.594  0.3976  0.7375 -0.2802
 4478SOL    HW125070   4.459   2.114   6.605  2.7836  0.4963  1.5170
 4478SOL    HW225071   4.572   2.205   6.604  0.1352  0.1432  2.0967
 4479SOL     OW25072   3.895   3.542   6.496 -0.1609 -0.2038 -0.0051
 4479SOL    HW125073   3.827   3.504   6.440 -1.5312 -0.7417  2.0184
 4479SOL    HW225074   3.954   3.581   6.432  1.1312 -0.3052  1.1206
 4480SOL     OW25075   4.089   1.250   3.912  0.6273 -0.3177 -0.6697
 4480SOL    HW125076   4.088   1.297   3.995 -0.8994  0.0944 -0.9259
 4480SOL    HW225077   4.039   1.171   3.934 -0.7572  0.3279 -1.4320
 4481SOL     OW25078   3.538   3.232  15.456 -0.2317 -0.9426  0.2173
 4481SOL    HW125079   3.563   3.194  15.372  0.2981  0.5513 -0.2911
 4481SOL    HW225080   3.623   3.224  15.498  0.0811  1.1262 -0.0693
 4482SOL     OW25081   0.568   2.912   1.646 -0.2354  0.3723  0.1390
 4482SOL    HW125082   0.581   2.961   1.565  0.6153 -1.1053 -0.6059
 4482SOL    HW225083   0.483   2.951   1.669  0.4518  0.9410  1.7897
 4483SOL     OW25084   0.772   1.593   3.567  0.5934  0.1633  0.0685
 4483SOL    HW125085   0.785   1.688   3.568 -1.8034  0.5072  1.5841
 4483SOL    HW225086   0.749   1.587   3.475  1.9567 -3.8968 -0.0095
 4484SOL     OW25087   1.754   0.738   6.738  0.2748 -0.0129  0.3723
 4484SOL    HW125088   1.819   0.775   6.679 -0.0711  0.1858  0.1151
 4484SOL    HW225089   1.797   0.738   6.823  0.5789 -0.1089  0.2174
 4485SOL     OW25090   3.041   2.027   5.601 -0.3748  0.1892  0.0095
 4485SOL    HW125091   2.987   1.989   5.531  1.2429  1.5149 -1.9235
 4485SOL    HW225092   2.998   2.110   5.620  1.9672  0.5152  3.7295
 4486SOL     OW25093   2.568   2.414   6.346 -0.3979 -0.9528 -0.2206
 4486SOL    HW125094   2.630   2.387   6.279 -0.5049 -1.0418 -0.2841
 4486SOL    HW225095   2.601   2.372   6.426  0.6286  2.3868  1.1040
 4487SOL     OW25096   3.332   2.826   9.044 -0.0114  0.2935  0.4395
 4487SOL    HW125097   3.334   2.864   9.132 -1.9634  0.6759  0.3295
 4487SOL    HW225098   3.237   2.830   9.028  0.2439  1.4964 -0.8222
 4488SOL     OW25099   2.065   1.888  11.953  0.2169  0.3709 -0.4779
 4488SOL    HW125100   2.145   1.919  11.996  0.9418 -0.2707 -1.3392
 4488SOL    HW225101   2.036   1.829  12.022 -0.2909  0.4378 -0.6353
 4489SOL     OW25102   0.099   3.782   5.865  0.3359  0.1856 -0.1897
 4489SOL    HW125103   0.011   3.744   5.868  0.5294 -0.3395 -0.9848
 4489SOL    HW225104   0.116   3.801   5.957  1.2115 -0.4123 -0.2253
 4490SOL     OW25105   1.633   4.605   4.774 -0.3267 -0.2816 -0.2011
 4490SOL    HW125106   1.646   4.514   4.747  2.1030  0.1547 -0.4461
 4490SOL    HW225107   1.690   4.645   4.709  0.3099  0.2380  0.6836
 4491SOL     OW25108   2.527   4.021   7.982 -0.1855  0.1761  0.0919
 4491SOL    HW125109   2.569   3.942   8.016 -3.0241 -0.2305  2.6396
 4491SOL    HW225110   2.481   4.060   8.056  1.3736  0.2731  1.0232
 4492SOL     OW25111   3.320   4.055   4.837 -0.4880 -0.5038  0.1535
 4492SOL    HW125112   3.231   4.034   4.809 -1.9111  1.8505  2.9532
 4492SOL    HW225113   3.308   4.034   4.929 -1.3440  0.5770  0.2938
 4493SOL     OW25114   3.353   2.078   6.701 -0.2590  0.0510  0.7048
 4493SOL    HW125115   3.362   2.062   6.795 -2.9583  1.1252  1.1186
 4493SOL    HW225116   3.301   2.001   6.678 -0.8171  0.0221  2.0704
 4494SOL     OW25117   3.701   2.906   7.209 -0.2544 -0.0134 -0.1740
 4494SOL    HW125118   3.779   2.931   7.259 -0.0838  0.0567 -0.4808
 4494SOL    HW225119   3.665   2.844   7.273 -0.1008  2.0988  1.9402
 4495SOL     OW25120   1.404   2.443   7.543 -0.0293 -0.0972  0.7210
 4495SOL    HW125121   1.349   2.475   7.472  0.8795 -3.2540 -1.3922
 4495SOL    HW225122   1.455   2.521   7.564  0.5066  0.0800 -1.2478
 4496SOL     OW25123   0.230   0.339   9.379 -0.1677 -0.0609  0.7293
 4496SOL    HW125124   0.284   0.283   9.435  0.8675 -1.3650 -1.5640
 4496SOL    HW225125   0.283   0.417   9.366 -0.1077 -0.7519 -3.2800
 4497SOL     OW25126   2.175   2.555  16.315 -0.3666  0.1237 -0.0272
 4497SOL    HW125127   2.154   2.470  16.276 -0.4929  0.7098 -1.2225
 4497SOL    HW225128   2.188   2.518  16.403 -2.1215 -0.0344  0.1564
 4498SOL     OW25129   1.549   3.563  17.019 -0.2164  0.0466 -0.4348
 4498SOL    HW125130   1.619   3.505  17.050 -0.8712 -1.5199 -1.8741
 4498SOL    HW225131   1.578   3.649  17.050 -3.0468  0.7620  0.1942
 4499SOL     OW25132   1.165   0.551   9.452 -0.2355  0.6523 -0.4934
 4499SOL    HW125133   1.133   0.639   9.433  0.0220  0.6228 -1.0819
 4499SOL    HW225134   1.101   0.514   9.512  1.0313  1.0008  1.0864
 4500SOL     OW25135   1.533   1.312   7.648 -0.0949 -0.2513  0.4740
 4500SOL    HW125136   1.520   1.259   7.570 -1.6177  1.3723 -0.3691
 4500SOL    HW225137   1.489   1.391   7.616  0.4460  0.0649  0.5065
 4501SOL     OW25138   3.363   4.405   7.435 -0.1458 -0.3689 -0.0992
 4501SOL    HW125139   3.309   4.440   7.365 -2.5512 -0.8880  1.4800
 4501SOL    HW225140   3.304   4.343   7.479  0.9305 -0.2896  1.4703
 4502SOL     OW25141   2.036   1.930   8.643  0.3339 -0.1999  0.1029
 4502SOL    HW125142   1.998   1.896   8.563  0.8057  1.7967 -0.9771
 4502SOL    HW225143   1.987   2.011   8.660  4.0070  1.4222  2.9343
 4503SOL     OW25144   2.833   3.591   5.019 -0.2236 -0.1268  0.1916
 4503SOL    HW125145   2.779   3.662   4.986 -0.7104  0.2625  1.8188
 4503SOL    HW225146   2.920   3.633   5.015  0.7069 -2.0459  0.2296
 4504SOL     OW25147   4.275   1.708   5.398  0.1635 -0.5748  0.1266
 4504SOL    HW125148   4.200   1.721   5.457 -0.2411 -1.3229 -0.2346
 4504SOL    HW225149   4.260   1.790   5.351 -2.2113 -1.6430 -0.9650
 4505SOL     OW25150   1.279   4.457   9.183 -0.4803 -0.1468 -0.5175
 4505SOL    HW125151   1.324   4.373   9.181 -0.0709  0.0325  1.9158
 4505SOL    HW225152   1.223   4.452   9.261  3.3561  0.7283  2.2603
 4506SOL     OW25153   2.986   3.403  11.583 -0.1930  0.1546 -0.0571
 4506SOL    HW125154   2.951   3.488  11.609  2.1363  1.8740 -2.5374
 4506SOL    HW225155   2.968   3.393  11.489 -0.8555 -0.0584  0.0926
 4507SOL     OW25156   3.210   0.958  17.121  0.0404  0.2256  0.2538
 4507SOL    HW125157   3.199   0.937  17.028 -0.8526  1.8179 -0.0102
 4507SOL    HW225158   3.303   0.980  17.121  0.5602 -1.9782 -1.4477
 4508SOL     OW25159   4.511   2.429   2.030 -0.1884 -1.0763  0.1494
 4508SOL    HW125160   4.443   2.468   2.084 -0.0756  0.5531 -0.8791
 4508SOL    HW225161   4.524   2.345   2.072  0.7006 -0.8358  0.3414
 4509SOL     OW25162   1.467   3.030  17.341 -0.3267  0.3405  0.1792
 4509SOL    HW125163   1.402   2.962  17.321  3.1994 -2.9376 -0.2839
 4509SOL    HW225164   1.421   3.084  17.404 -0.9205 -0.5292  0.4902
 4510SOL     OW25165   2.356   3.699   4.491 -0.3665  0.3636 -0.2038
 4510SOL    HW125166   2.300   3.706   4.414 -0.7901  1.1867  0.1733
 4510SOL    HW225167   2.401   3.783   4.502 -0.4979  0.5304 -0.9386
 4511SOL     OW25168   0.125   4.611   8.097  0.2555  0.4342  0.0201
 4511SOL    HW125169   0.166   4.680   8.149  0.3778  0.6795 -0.4043
 4511SOL    HW225170   0.114   4.549   8.169 -0.1311 -0.0756 -0.4744
 4512SOL     OW25171   2.090   0.970   5.366 -0.2399  0.4327  0.4816
 4512SOL    HW125172   2.177   0.960   5.326  0.2223  2.3570  1.0101
 4512SOL    HW225173   2.054   1.039   5.311  1.5212 -1.1083 -2.6083
 4513SOL     OW25174   2.903   1.516   4.617 -0.0213 -0.1342  0.1274
 4513SOL    HW125175   2.859   1.551   4.539  0.5619  1.4220  0.5040
 4513SOL    HW225176   2.934   1.590   4.669  2.2118 -1.5093  0.7066
 4514SOL     OW25177   0.891   0.390  10.548  0.0433 -0.2678 -0.0183
 4514SOL    HW125178   0.801   0.358  10.550 -0.6899  1.6811 -1.3406
 4514SOL    HW225179   0.917   0.389  10.640 -1.1529 -0.8202  0.2992
 4515SOL     OW25180   0.081   0.745   5.827  0.1543 -0.2653  0.3166
 4515SOL    HW125181   0.121   0.798   5.896  2.4481 -2.1290  0.4338
 4515SOL    HW225182   0.079   0.659   5.869  3.5005 -0.2537  0.4996
 4516SOL     OW25183   1.214   0.916   5.703 -0.0547 -0.2038 -0.0121
 4516SOL    HW125184   1.148   0.935   5.635  1.1203  0.5609 -0.9284
 4516SOL    HW225185   1.193   0.974   5.777  0.4914 -1.9281  1.4891
 4517SOL     OW25186   2.869   1.886   8.720 -0.4091 -0.1182 -0.0561
 4517SOL    HW125187   2.949   1.872   8.670 -0.0074 -2.3374  1.2055
 4517SOL    HW225188   2.800   1.912   8.659 -0.6141  0.6672  0.5023
 4518SOL     OW25189   1.928   3.725  14.300  0.0750 -0.5499 -0.0451
 4518SOL    HW125190   1.919   3.651  14.359  2.6674 -0.5009  0.4110
 4518SOL    HW225191   2.005   3.699  14.249 -0.6151 -0.3986 -1.1806
 4519SOL     OW25192   3.568   2.996   5.273 -0.1072  0.2487 -0.1316
 4519SOL    HW125193   3.601   2.937   5.341  1.5037  0.8422 -0.3874
 4519SOL    HW225194   3.628   3.069   5.289 -0.4564  0.3859  0.5204
 4520SOL     OW25195   1.784   0.149   8.745 -0.4818  0.0858  0.4167
 4520SOL    HW125196   1.853   0.208   8.777  1.2872 -0.9624 -1.4753
 4520SOL    HW225197   1.831   0.096   8.680 -0.7548  2.1757 -1.5081
 4521SOL     OW25198   0.322   3.378   7.599 -0.1101 -0.3629  0.0831
 4521SOL    HW125199   0.393   3.380   7.536  1.9010 -1.0558  2.3255
 4521SOL    HW225200   0.274   3.452   7.563 -0.0884 -1.2400 -1.7548
 4522SOL     OW25201   2.867   1.072   3.399 -0.2524  0.0024 -0.1980
 4522SOL    HW125202   2.944   1.128   3.401 -1.4672  1.6853 -0.0425
 4522SOL    HW225203   2.803   1.119   3.453 -1.1827 -2.2906  0.6970
 4523SOL     OW25204   0.927   3.162   0.929  0.3665  0.7284 -0.8421
 4523SOL    HW125205   1.017   3.196   0.923  1.1364 -1.3872 -1.6288
 4523SOL    HW225206   0.943   3.071   0.903  0.6981  0.3862  0.5470
 4524SOL     OW25207   3.931   1.505  13.496 -0.5111 -0.3143  0.2481
 4524SOL    HW125208   3.880   1.427  13.517  0.0261 -0.1790  2.0490
 4524SOL    HW225209   3.865   1.559  13.453 -1.9712 -0.3989  2.3765
 4525SOL     OW25210   3.538   1.381   7.965 -0.3877 -0.1005 -0.1289
 4525SOL    HW125211   3.542   1.426   7.881 -0.4347 -0.4500 -0.3153
 4525SOL    HW225212   3.566   1.453   8.022  1.4627 -1.4220  0.6090
 4526SOL     OW25213   2.336   3.895   3.018 -0.9500 -0.3491  0.4546
 4526SOL    HW125214   2.431   3.899   3.019 -0.7631 -4.4207  0.7082
 4526SOL    HW225215   2.308   3.939   2.938  0.6547  0.1257  0.1565
 4527SOL     OW25216   3.265   2.709  10.134 -0.1683  0.6393 -0.0390
 4527SOL    HW125217   3.260   2.722  10.229 -0.4265  0.4271 -0.0235
 4527SOL    HW225218   3.289   2.798  10.110  0.6895  0.5413  0.4479
 4528SOL     OW25219   2.969   4.390   3.955  0.2836  0.2264  0.6247
 4528SOL    HW125220   2.919   4.309   3.961  0.3029 -0.0233 -2.6311
 4528SOL    HW225221   3.053   4.348   3.938  1.4520  1.4702  3.3217
 4529SOL     OW25222   4.279   2.201   4.715  0.5185 -0.1357 -0.3201
 4529SOL    HW125223   4.371   2.174   4.715 -0.1251 -2.2503 -2.4913
 4529SOL    HW225224   4.290   2.296   4.709  1.8103 -0.4710 -3.1659
 4530SOL     OW25225   1.616   2.391   3.590 -0.2862 -0.2904  0.5151
 4530SOL    HW125226   1.691   2.401   3.649 -0.0402  1.7181 -0.1316
 4530SOL    HW225227   1.635   2.306   3.550  0.5467 -1.0730  2.5662
 4531SOL     OW25228   3.949   2.896  12.582  0.0566  0.3722 -0.5422
 4531SOL    HW125229   3.975   2.848  12.661 -1.0409  0.4432 -0.1378
 4531SOL    HW225230   4.002   2.975  12.578 -1.4751  1.5282  1.8549
 4532SOL     OW25231   0.545   4.178   7.013  0.2946 -0.2633  0.5726
 4532SOL    HW125232   0.545   4.167   7.108 -0.7984 -0.1444  0.5870
 4532SOL    HW225233   0.596   4.101   6.987  0.5802 -0.3409  1.3695
 4533SOL     OW25234   2.721   0.257   3.651 -0.4317  0.4080 -0.3176
 4533SOL    HW125235   2.778   0.327   3.619  0.9877 -0.4932  0.2444
 4533SOL    HW225236   2.646   0.308   3.681 -2.2225 -1.7187 -1.1783
 4534SOL     OW25237   1.504   3.279  17.106 -0.2446  0.4681  0.2818
 4534SOL    HW125238   1.576   3.339  17.126  1.0978 -0.0065 -3.0764
 4534SOL    HW225239   1.557   3.199  17.099 -0.1238  0.7035 -1.5166
 4535SOL     OW25240   3.142   3.153   4.658 -0.9290 -1.0776  0.1910
 4535SOL    HW125241   3.053   3.144   4.623 -0.9326 -1.3222  0.2619
 4535SOL    HW225242   3.188   3.177   4.577 -0.6219  0.5592  0.8415
 4536SOL     OW25243   2.130   2.027   4.962 -0.3183  1.1185 -0.2047
 4536SOL    HW125244   2.130   2.096   4.896  0.9386  3.4695  2.2753
 4536SOL    HW225245   2.221   1.999   4.966  0.1800  3.1555  2.3167
 4537SOL     OW25246   3.174   1.533   3.468 -0.5940  0.4619 -0.3228
 4537SOL    HW125247   3.247   1.591   3.446  0.7477 -1.2638 -0.3999
 4537SOL    HW225248   3.205   1.522   3.558 -1.3297  0.2116 -0.1018
 4538SOL     OW25249   3.149   2.606  11.271 -0.4220  0.2537 -0.1465
 4538SOL    HW125250   3.211   2.619  11.200 -0.4143 -2.1722 -0.5846
 4538SOL    HW225251   3.091   2.542  11.230  1.5573 -0.7386 -1.4133
 4539SOL     OW25252   2.969   2.301  17.479 -0.1606 -0.0353 -0.0764
 4539SOL    HW125253   3.033   2.240  17.443 -1.2476  0.3111 -2.5577
 4539SOL    HW225254   2.903   2.275  17.415  0.6371 -1.4438 -0.3278
 4540SOL     OW25255   3.243   0.706   6.252  0.2810 -0.0507 -0.2181
 4540SOL    HW125256   3.191   0.765   6.307  0.8151 -0.0719  0.3095
 4540SOL    HW225257   3.314   0.692   6.314 -0.9180 -1.4758  0.8369
 4541SOL     OW25258   3.984   4.648   5.940 -0.5516  0.0544 -0.7200
 4541SOL    HW125259   4.008   4.567   5.984 -3.0668  0.5768  1.5676
 4541SOL    HW225260   4.064   4.699   5.955 -1.5511  0.7870  1.8953
 4542SOL     OW25261   2.756   3.998   1.917 -0.9765 -1.0455  0.0065
 4542SOL    HW125262   2.694   3.927   1.901 -1.9394 -0.1531 -0.1806
 4542SOL    HW225263   2.781   4.021   1.828 -0.1011 -0.2950  0.4457
 4543SOL     OW25264   1.669   0.608   4.848 -0.7713 -0.4029 -0.2213
 4543SOL    HW125265   1.627   0.683   4.889 -1.5805 -0.0758 -1.6816
 4543SOL    HW225266   1.762   0.627   4.859 -1.0496  1.4057 -1.0800
 4544SOL     OW25267   1.251   2.179   2.030 -0.3223 -0.0952  0.1463
 4544SOL    HW125268   1.304   2.197   1.952  0.9991 -1.5653  0.7128
 4544SOL    HW225269   1.233   2.086   2.025  0.8244 -0.4886  3.5395
 4545SOL     OW25270   3.132   1.760  16.863  0.0639  0.5888  0.1854
 4545SOL    HW125271   3.084   1.833  16.824 -1.3999 -0.3923  0.1228
 4545SOL    HW225272   3.195   1.818  16.904  2.0456 -0.3894 -1.4686
 4546SOL     OW25273   3.460   1.569   4.948  0.1190 -0.1640  0.6025
 4546SOL    HW125274   3.504   1.565   4.863 -0.6675 -1.0658  0.2438
 4546SOL    HW225275   3.395   1.499   4.948  0.4033 -0.4290 -0.1260
 4547SOL     OW25276   3.997   0.560   2.396 -0.0054  0.1980 -0.3052
 4547SOL    HW125277   3.912   0.526   2.425 -0.6156  0.5670 -1.6539
 4547SOL    HW225278   4.018   0.500   2.324 -2.1691 -0.6019 -0.2858
 4548SOL     OW25279   2.900   0.236   9.161 -0.3355 -0.5204  0.3130
 4548SOL    HW125280   2.904   0.318   9.210 -2.3375 -0.3196  0.1294
 4548SOL    HW225281   2.862   0.269   9.079  0.5789  3.5458  1.5166
 4549SOL     OW25282   1.413   1.869   2.190  0.5980 -0.2281  0.3554
 4549SOL    HW125283   1.495   1.831   2.159  0.7512  3.0870 -3.3080
 4549SOL    HW225284   1.453   1.948   2.225  3.5407 -1.2634 -0.6781
 4550SOL     OW25285   1.966   3.287  17.487 -0.6544  1.0804 -0.4633
 4550SOL    HW125286   1.976   3.205  17.438 -0.1216 -0.3991  2.1705
 4550SOL    HW225287   1.986   3.348  17.416 -1.3970  0.2549 -1.3921
 4551SOL     OW25288   2.325   0.533   8.872  0.5896 -0.0502 -0.4355
 4551SOL    HW125289   2.262   0.602   8.851  0.0718 -0.3640  0.0727
 4551SOL    HW225290   2.280   0.498   8.949  1.9671 -0.4306  0.1832
 4552SOL     OW25291   4.122   3.400   3.310  0.2809  0.4066 -0.1441
 4552SOL    HW125292   4.099   3.314   3.346  1.6279 -0.5563 -1.5758
 4552SOL    HW225293   4.034   3.438   3.313 -0.1779 -0.5262 -2.0893
 4553SOL     OW25294   1.532   2.941  16.321 -0.2098  0.4592  0.3565
 4553SOL    HW125295   1.593   3.014  16.318  0.4291 -0.1257 -0.9373
 4553SOL    HW225296   1.548   2.912  16.231  0.8948  0.8313  0.4255
 4554SOL     OW25297   1.793   0.613   3.170  0.2757 -0.4293  0.1684
 4554SOL    HW125298   1.704   0.623   3.203  1.0769  2.9813  1.2601
 4554SOL    HW225299   1.810   0.520   3.186 -0.1208 -0.5961 -0.3848
 4555SOL     OW25300   0.928   2.316   3.684  0.4011 -0.6477 -0.4306
 4555SOL    HW125301   0.883   2.284   3.606 -1.0481  2.4196 -0.8398
 4555SOL    HW225302   1.021   2.314   3.664  0.6587 -1.1499  0.7674
 4556SOL     OW25303   4.436   3.032   8.820 -0.0133 -0.2070 -0.1778
 4556SOL    HW125304   4.381   3.094   8.868 -0.6610  0.5153 -1.8591
 4556SOL    HW225305   4.438   3.078   8.736 -2.1285  0.4718  0.1327
 4557SOL     OW25306   0.761   3.975   2.598  0.2362 -0.5449  1.0707
 4557SOL    HW125307   0.840   3.942   2.640  0.8487  0.5843  0.8060
 4557SOL    HW225308   0.704   3.911   2.641 -1.0202  0.5577  1.0513
 4558SOL     OW25309   1.763   1.428   0.208  0.7658 -0.2526 -0.5560
 4558SOL    HW125310   1.682   1.470   0.237 -0.6974 -3.4587 -0.0353
 4558SOL    HW225311   1.723   1.352   0.166  1.8056 -1.9505  1.4973
 4559SOL     OW25312   3.790   0.514   7.211 -0.0155 -0.1805 -0.0260
 4559SOL    HW125313   3.757   0.598   7.241  0.3537  0.4113 -1.2628
 4559SOL    HW225314   3.741   0.460   7.273  0.3322 -1.4248 -0.8420
 4560SOL     OW25315   0.405   0.338   5.171  0.0760  0.3872 -0.3268
 4560SOL    HW125316   0.435   0.392   5.098  0.2450  1.5329  0.5851
 4560SOL    HW225317   0.318   0.313   5.139  0.3355 -3.8422  2.2434
 4561SOL     OW25318   2.563   3.040   7.199  0.4388  0.2761  0.3151
 4561SOL    HW125319   2.646   3.023   7.244 -0.6672 -1.0434  1.8393
 4561SOL    HW225320   2.548   2.956   7.155  0.8129 -0.7867  2.2481
 4562SOL     OW25321   2.304   0.758   1.262 -0.3677  0.1336  0.4036
 4562SOL    HW125322   2.317   0.723   1.350  0.2087  1.2550  0.7699
 4562SOL    HW225323   2.328   0.681   1.210 -0.6144  1.4871 -1.7401
 4563SOL     OW25324   4.534   1.495   4.550  0.0227 -0.0526  0.3538
 4563SOL    HW125325   4.590   1.443   4.492  0.2509 -0.2114  0.7201
 4563SOL    HW225326   4.578   1.478   4.633 -0.7549  3.1491  1.4200
 4564SOL     OW25327   4.626   1.143   9.910  0.5641 -0.5123  0.7750
 4564SOL    HW125328   4.554   1.112   9.855  0.8472 -1.5929  1.0114
 4564SOL    HW225329   4.691   1.077   9.888  3.4282  2.0661  1.4166
 4565SOL     OW25330   1.501   3.491   3.636 -0.0005 -0.3412 -0.3640
 4565SOL    HW125331   1.588   3.491   3.676 -1.0230 -1.8233  1.8682
 4565SOL    HW225332   1.445   3.454   3.704  0.7591 -0.6918  0.0735
 4566SOL     OW25333   2.039   2.174   2.467  0.8345 -0.1999  0.6901
 4566SOL    HW125334   2.123   2.132   2.482  1.5287  0.5887 -0.9352
 4566SOL    HW225335   2.048   2.247   2.528  0.2864  1.4056 -1.1570
 4567SOL     OW25336   0.918   3.636   2.114  0.0838 -0.0787  0.6395
 4567SOL    HW125337   0.980   3.700   2.080  1.7810 -2.8139 -1.4371
 4567SOL    HW225338   0.915   3.656   2.208  1.3512 -0.4716  0.7658
 4568SOL     OW25339   4.503   4.101   8.698  0.0414  0.2080  0.2737
 4568SOL    HW125340   4.516   4.196   8.701  0.9909  0.0459  0.8940
 4568SOL    HW225341   4.591   4.064   8.693 -0.0155  0.0156  0.7198
 4569SOL     OW25342   0.601   2.594   9.964  0.3097  0.2203  0.3885
 4569SOL    HW125343   0.592   2.689   9.977 -0.9030  0.0550  0.7447
 4569SOL    HW225344   0.510   2.565   9.968  0.4060  0.1316  1.8845
 4570SOL     OW25345   2.187   4.584   5.704 -0.4718  0.0192  0.1618
 4570SOL    HW125346   2.200   4.663   5.756 -0.3091 -0.2232  0.4867
 4570SOL    HW225347   2.130   4.614   5.634 -0.3378  2.9007  1.2708
 4571SOL     OW25348   4.296   4.484  13.940 -0.4035  0.4502 -0.5841
 4571SOL    HW125349   4.328   4.491  14.030 -1.0514 -1.8213 -0.1669
 4571SOL    HW225350   4.209   4.521  13.948 -0.0216  1.4752 -1.2182
 4572SOL     OW25351   3.200   3.295  16.698  0.4246  0.0719 -0.4013
 4572SOL    HW125352   3.191   3.213  16.746 -1.8263  0.8379  0.4855
 4572SOL    HW225353   3.261   3.271  16.627 -1.1574 -0.2051 -1.6806
 4573SOL     OW25354   3.916   4.346   9.795 -0.3736 -0.3827  0.8859
 4573SOL    HW125355   3.853   4.315   9.860 -0.0655 -1.7824  0.5216
 4573SOL    HW225356   3.931   4.267   9.743 -0.1423  1.3596 -1.6839
 4574SOL     OW25357   4.665   1.138   3.504 -0.9952  0.5914 -0.3712
 4574SOL    HW125358   4.617   1.066   3.545  0.4826  0.5202  1.2546
 4574SOL    HW225359   4.643   1.115   3.414 -0.0728  0.1817 -0.4884
 4575SOL     OW25360   1.050   2.241  16.083  0.3094  0.3772  0.2520
 4575SOL    HW125361   0.970   2.197  16.111  0.3714 -0.8686 -1.5853
 4575SOL    HW225362   1.039   2.321  16.135 -1.1073  0.0016  0.5149
 4576SOL     OW25363   2.816   1.040   4.463 -0.1903  0.0565  0.1786
 4576SOL    HW125364   2.790   1.108   4.400  0.8241  0.1687 -0.1177
 4576SOL    HW225365   2.823   1.094   4.541  1.3786  0.1247 -0.0080
 4577SOL     OW25366   2.173   4.108   6.545  0.2784 -1.0990 -0.1246
 4577SOL    HW125367   2.103   4.164   6.511  0.8617  0.0805  0.6123
 4577SOL    HW225368   2.198   4.169   6.614  2.8632 -1.4032 -0.8096
 4578SOL     OW25369   4.369   0.436   0.035 -0.1405 -0.3784 -0.0039
 4578SOL    HW125370   4.282   0.401   0.012 -0.1418 -0.7491  0.5901
 4578SOL    HW225371   4.390   0.483  17.704 -2.0133 -2.4999 -1.7558
 4579SOL     OW25372   1.304   2.383   0.731  0.2262 -0.4564  0.7427
 4579SOL    HW125373   1.380   2.419   0.685 -1.4891  0.6539 -1.2062
 4579SOL    HW225374   1.334   2.292   0.738 -1.3381 -0.8969  1.6963
 4580SOL     OW25375   1.143   1.558   9.203 -0.2258 -0.1793 -0.0153
 4580SOL    HW125376   1.108   1.644   9.179  0.3786  0.1778  0.4138
 4580SOL    HW225377   1.074   1.506   9.162 -0.6933  0.6589 -0.2998
 4581SOL     OW25378   2.934   0.919   2.371 -0.0792 -0.3488 -0.0968
 4581SOL    HW125379   2.902   0.994   2.420  2.1505  0.9739 -0.6836
 4581SOL    HW225380   2.967   0.864   2.442 -0.5037 -1.8245 -1.0362
 4582SOL     OW25381   1.321   3.764   8.346 -0.4256 -0.2463 -0.0285
 4582SOL    HW125382   1.291   3.735   8.259 -1.3303 -0.5556  0.3867
 4582SOL    HW225383   1.246   3.740   8.399 -1.1680 -0.1118 -1.0078
 4583SOL     OW25384   1.267   4.011  15.849 -0.6148  0.1661 -0.4585
 4583SOL    HW125385   1.235   4.036  15.935  1.8169 -0.1320  0.5344
 4583SOL    HW225386   1.356   4.046  15.859 -0.6306  0.0921 -0.0839
 4584SOL     OW25387   2.176   1.260  17.040  0.2976 -0.1766  0.2387
 4584SOL    HW125388   2.094   1.267  17.090 -1.3605 -0.8569 -2.3661
 4584SOL    HW225389   2.226   1.327  17.086 -2.6268  1.5577  0.9512
 4585SOL     OW25390   3.945   0.284   2.971 -0.3080  0.2871 -0.0919
 4585SOL    HW125391   4.013   0.314   3.031 -1.9785  0.0950  1.8821
 4585SOL    HW225392   4.005   0.256   2.901 -2.4322 -1.3956 -1.2641
 4586SOL     OW25393   1.937   4.055  11.724 -0.6008 -0.2523 -0.1062
 4586SOL    HW125394   1.848   4.044  11.756 -1.1352  2.6137 -0.6191
 4586SOL    HW225395   1.991   4.054  11.804  0.6786  0.3177 -0.9680
 4587SOL     OW25396   0.464   0.720   1.854  0.4476 -0.1490  0.3556
 4587SOL    HW125397   0.404   0.787   1.820  1.7360  0.4744 -0.6926
 4587SOL    HW225398   0.467   0.657   1.783  0.0040 -0.8421  0.9563
 4588SOL     OW25399   4.392   1.940   6.682  0.6370  0.5315  0.0101
 4588SOL    HW125400   4.311   1.917   6.635  1.0936  1.9953 -1.4780
 4588SOL    HW225401   4.441   1.858   6.692  1.0540  0.7034 -0.6419
 4589SOL     OW25402   0.057   3.251   2.732  0.0742 -0.3874  0.0912
 4589SOL    HW125403   0.022   3.275   2.647 -0.0185  2.2886  0.8619
 4589SOL    HW225404   4.725   3.193   2.760 -2.2361  2.7593  0.8554
 4590SOL     OW25405   0.837   3.526  15.034 -0.0831  0.3674 -0.0443
 4590SOL    HW125406   0.918   3.529  15.084 -1.2967 -0.9699  1.9675
 4590SOL    HW225407   0.866   3.535  14.943  0.5701  0.6014  0.1862
 4591SOL     OW25408   2.523   0.691   5.259  0.0254 -0.4065 -0.3354
 4591SOL    HW125409   2.465   0.617   5.279 -1.0025  0.8522  1.4189
 4591SOL    HW225410   2.601   0.648   5.226 -0.3420  0.4000 -2.2321
 4592SOL     OW25411   1.180   4.046   4.886 -0.3396  0.5035  0.1611
 4592SOL    HW125412   1.150   3.959   4.912  0.6995 -0.9820 -3.5819
 4592SOL    HW225413   1.096   4.090   4.901 -0.6747 -0.1172  0.0898
 4593SOL     OW25414   4.722   0.410   8.832  0.6545 -0.0427  0.7213
 4593SOL    HW125415   4.694   0.423   8.923  1.9413  0.2764  1.0671
 4593SOL    HW225416   4.687   0.481   8.778 -0.2357 -0.0932  1.2326
 4594SOL     OW25417   4.578   4.080   9.082 -0.0699 -0.2878  0.0985
 4594SOL    HW125418   4.608   4.117   9.165 -0.5439  0.7923 -0.1990
 4594SOL    HW225419   4.495   4.125   9.066 -1.0987 -2.0078  0.6794
 4595SOL     OW25420   1.457   4.248   9.224  0.0090 -0.0891  0.0094
 4595SOL    HW125421   1.421   4.164   9.253 -0.3668  0.3032  0.6689
 4595SOL    HW225422   1.546   4.220   9.201  0.7396  1.6246  0.7578
 4596SOL     OW25423   3.595   2.673  15.942  0.1743  0.1617  0.2241
 4596SOL    HW125424   3.684   2.674  15.978 -0.1430 -1.9433  1.0886
 4596SOL    HW225425   3.564   2.588  15.974 -0.5812 -0.3337 -1.7794
 4597SOL     OW25426   3.970   1.474  14.373  0.2177  0.0437  0.4136
 4597SOL    HW125427   3.882   1.458  14.406  0.8194  2.0472  3.0031
 4597SOL    HW225428   3.963   1.557  14.325 -0.4419 -0.2881 -0.0676
 4598SOL     OW25429   3.144   3.677   0.395  0.8011  0.7022  0.1705
 4598SOL    HW125430   3.158   3.768   0.420  1.4989  0.0224  2.1949
 4598SOL    HW225431   3.119   3.630   0.474  1.5127  0.9043  0.5063
 4599SOL     OW25432   2.875   2.370   2.518 -0.5111  0.2257  0.7606
 4599SOL    HW125433   2.825   2.315   2.458  1.1600  1.4374 -1.7999
 4599SOL    HW225434   2.916   2.299   2.567  0.9210 -1.1557 -2.4320
 4600SOL     OW25435   2.658   3.249   3.583  0.2392 -0.0572  0.1607
 4600SOL    HW125436   2.680   3.333   3.624 -0.6048 -0.0419  0.5849
 4600SOL    HW225437   2.570   3.230   3.616  0.6331 -0.4999  0.9515
 4601SOL     OW25438   1.834   3.014   4.848 -0.0970 -0.3106 -0.2324
 4601SOL    HW125439   1.761   3.059   4.890  0.3905  1.2340 -1.0560
 4601SOL    HW225440   1.906   3.076   4.844  0.0334 -0.4722 -0.3890
 4602SOL     OW25441   0.734   1.387   7.856  0.1141 -0.6801 -0.2314
 4602SOL    HW125442   0.721   1.351   7.768  0.5738  0.1356 -0.6196
 4602SOL    HW225443   0.725   1.480   7.835 -0.6972 -0.6003  0.4535
 4603SOL     OW25444   4.324   1.891  16.468  0.0140 -0.2676  0.3738
 4603SOL    HW125445   4.416   1.868  16.477 -0.0993 -0.2713  1.5475
 4603SOL    HW225446   4.282   1.809  16.443 -0.9614  0.1236  0.7282
 4604SOL     OW25447   0.034   4.249   2.790  0.1286  0.1312 -0.6512
 4604SOL    HW125448   0.052   4.216   2.703 -0.9275  0.7475 -1.1089
 4604SOL    HW225449   4.723   4.330   2.772  2.5752  1.7003 -0.1860
 4605SOL     OW25450   4.123   3.486   1.495 -0.1259 -0.0925  0.1179
 4605SOL    HW125451   4.053   3.531   1.448  0.0436 -0.9316 -0.9375
 4605SOL    HW225452   4.095   3.518   1.581 -0.4360 -3.7706  1.3952
 4606SOL     OW25453   4.028   3.510   1.750 -0.2956 -0.4999 -0.1060
 4606SOL    HW125454   3.983   3.593   1.737 -1.6966 -1.3170 -0.4365
 4606SOL    HW225455   4.033   3.502   1.845  2.0743 -4.2705 -0.5076
 4607SOL     OW25456   3.834   4.049  12.231 -0.1461  0.1293 -0.2104
 4607SOL    HW125457   3.750   4.088  12.257 -0.4094 -0.3452 -0.3549
 4607SOL    HW225458   3.868   4.116  12.173 -1.8408  0.1937 -1.1221
 4608SOL     OW25459   2.516   1.076  13.280  0.3517  0.1146 -0.5525
 4608SOL    HW125460   2.454   1.004  13.285 -1.0884  1.1513 -3.6145
 4608SOL    HW225461   2.574   1.042  13.348 -0.4098 -1.1983 -0.5659
 4609SOL     OW25462   1.090   3.789   8.496  0.2165  0.1508 -0.2298
 4609SOL    HW125463   1.075   3.815   8.587  0.4357 -1.6971  0.3476
 4609SOL    HW225464   1.016   3.728   8.486  0.0594  0.2513  0.3151
 4610SOL     OW25465   4.161   3.671   2.234 -0.7068 -0.4112  0.0580
 4610SOL    HW125466   4.154   3.626   2.318 -1.6797 -1.3705 -0.5371
 4610SOL    HW225467   4.244   3.645   2.193 -0.8080 -0.2052 -0.2765
 4611SOL     OW25468   4.462   4.452   1.102 -0.1641  0.2983 -0.1407
 4611SOL    HW125469   4.436   4.386   1.166  0.3153  0.0158 -0.2390
 4611SOL    HW225470   4.377   4.492   1.085 -0.2723 -0.2055 -0.8043
 4612SOL     OW25471   0.223   0.521   0.541  0.6047 -0.1116  0.4528
 4612SOL    HW125472   0.263   0.605   0.520  0.2460 -0.2104 -0.5971
 4612SOL    HW225473   0.132   0.552   0.545  0.0626 -1.5614 -0.6109
 4613SOL     OW25474   2.723   2.411   8.611  0.3715  0.0338  0.3493
 4613SOL    HW125475   2.691   2.324   8.635  0.2237 -0.0942 -0.3219
 4613SOL    HW225476   2.769   2.436   8.691  2.9478 -2.1650 -0.4698
 4614SOL     OW25477   1.670   0.181   2.227  0.3949 -0.2351  1.1446
 4614SOL    HW125478   1.730   0.254   2.214  1.3484 -1.2530 -0.2677
 4614SOL    HW225479   1.590   0.228   2.251  1.1002  2.6203 -2.1426
 4615SOL     OW25480   2.832   1.580  16.367  0.3386  0.4672 -0.7744
 4615SOL    HW125481   2.915   1.628  16.370 -0.5388  1.7129  2.6494
 4615SOL    HW225482   2.776   1.622  16.432  0.4682 -1.1847  0.3768
 4616SOL     OW25483   2.308   1.759   7.995 -0.0571 -0.2754 -0.5987
 4616SOL    HW125484   2.263   1.695   7.940 -0.6703  0.2421 -0.6905
 4616SOL    HW225485   2.251   1.835   8.008  0.6936  0.1431  0.2505
 4617SOL     OW25486   0.088   0.888   2.360 -0.5208 -0.0166  0.4129
 4617SOL    HW125487   4.734   0.874   2.384 -0.3834 -1.9038 -0.1388
 4617SOL    HW225488   0.132   0.854   2.438  0.2929  1.1174  0.4463
 4618SOL     OW25489   4.721   4.000   7.866 -0.1732  0.4189  0.0885
 4618SOL    HW125490   4.731   3.955   7.950 -1.4750  1.0845  0.5919
 4618SOL    HW225491   4.725   4.090   7.897  0.7031  1.2629 -2.4697
 4619SOL     OW25492   3.662   3.904   4.372  0.1318  0.1382  0.0238
 4619SOL    HW125493   3.712   3.898   4.454  0.7246 -2.4919 -0.5444
 4619SOL    HW225494   3.623   3.991   4.385 -0.7812 -0.2713 -0.0184
 4620SOL     OW25495   2.722   2.457  17.025 -0.5156 -0.5169 -0.4607
 4620SOL    HW125496   2.676   2.524  17.077  1.9971  2.4267 -2.0429
 4620SOL    HW225497   2.766   2.516  16.965 -0.8152 -1.3106 -1.4515
 4621SOL     OW25498   0.092   3.893   2.668  0.3280 -0.4895 -0.5425
 4621SOL    HW125499   0.017   3.942   2.702  3.5979  2.6349  2.1570
 4621SOL    HW225500   0.135   3.969   2.630 -0.0878 -0.9319 -1.8745
 4622SOL     OW25501   2.555   2.161   7.108  0.6017 -0.2540  0.8027
 4622SOL    HW125502   2.521   2.094   7.166  0.7248  1.6297  3.0528
 4622SOL    HW225503   2.646   2.179   7.133  0.7547 -0.0637  0.1392
 4623SOL     OW25504   4.523   0.448  13.926 -0.5714 -0.4282  0.2878
 4623SOL    HW125505   4.467   0.522  13.949 -0.4740 -0.7519  1.5585
 4623SOL    HW225506   4.469   0.382  13.970 -1.3553  0.2953  0.4294
 4624SOL     OW25507   3.820   3.542   2.438 -0.5556 -0.1126 -0.2746
 4624SOL    HW125508   3.903   3.534   2.486 -0.5079 -0.5800 -0.4357
 4624SOL    HW225509   3.830   3.484   2.362 -1.4364 -0.5437 -0.0566
 4625SOL     OW25510   4.237   2.505   8.829 -0.3575  0.2029  0.1201
 4625SOL    HW125511   4.292   2.458   8.892 -0.1888  0.4349  0.1436
 4625SOL    HW225512   4.166   2.441   8.823  0.2920 -0.4792 -0.3040
 4626SOL     OW25513   2.402   3.952   1.732  0.2628  0.1633 -0.2131
 4626SOL    HW125514   2.487   3.937   1.691 -0.8227 -1.6124 -1.8739
 4626SOL    HW225515   2.406   4.046   1.751 -1.1673  0.3999 -1.0155
 4627SOL     OW25516   3.079   0.197   8.695  0.2516 -0.1751  0.5578
 4627SOL    HW125517   3.017   0.125   8.698 -0.1151  0.0919 -0.4547
 4627SOL    HW225518   3.080   0.215   8.601  0.2851 -2.0377  0.2043
 4628SOL     OW25519   4.198   2.640   4.949  0.0653 -0.1639 -0.3641
 4628SOL    HW125520   4.153   2.572   5.000 -0.0571  0.9503  1.0256
 4628SOL    HW225521   4.126   2.701   4.930  0.6164  0.7421  0.4255
 4629SOL     OW25522   4.225   0.525   1.904 -0.5432 -0.6343  0.0112
 4629SOL    HW125523   4.301   0.503   1.958 -0.6990  1.9691  1.2488
 4629SOL    HW225524   4.159   0.564   1.960 -1.3006 -0.4285 -1.0414
 4630SOL     OW25525   3.259   4.623   1.411 -0.8520  0.2566  0.4068
 4630SOL    HW125526   3.188   4.664   1.361 -2.6509  0.6816  3.2876
 4630SOL    HW225527   3.311   4.576   1.346  0.1493 -1.7370  2.6591
 4631SOL     OW25528   1.122   0.350   1.239  0.1190  0.5383 -0.4441
 4631SOL    HW125529   1.149   0.435   1.204  1.6855  0.1257 -0.2284
 4631SOL    HW225530   1.038   0.357   1.193 -0.3533  0.7311  0.4525
 4632SOL     OW25531   1.459   2.089   7.880 -0.4633  0.2526  0.4029
 4632SOL    HW125532   1.515   2.157   7.843 -1.9917  0.7968 -0.9195
 4632SOL    HW225533   1.375   2.129   7.858 -1.0770 -1.0278  0.4703
 4633SOL     OW25534   4.353   1.631   0.224  0.9590  0.0003  0.1048
 4633SOL    HW125535   4.330   1.637   0.317 -0.5787  0.3994 -0.3034
 4633SOL    HW225536   4.280   1.660   0.169  0.5800  0.3629  0.7975
 4634SOL     OW25537   0.234   4.045  14.629 -0.2262 -0.2922  0.0558
 4634SOL    HW125538   0.289   4.099  14.684  0.6652 -0.8770 -0.2665
 4634SOL    HW225539   0.290   4.024  14.554 -1.3682 -0.4332 -0.7729
 4635SOL     OW25540   3.743   1.627  12.383  0.3480 -0.6887 -0.0379
 4635SOL    HW125541   3.681   1.639  12.311 -2.4994  0.5578  2.5989
 4635SOL    HW225542   3.700   1.573  12.450  1.0677  0.4306  1.3131
 4636SOL     OW25543   1.406   4.711   7.404  0.1503  1.1090  0.0645
 4636SOL    HW125544   1.447   0.019   7.478 -2.1587  0.4528  1.7557
 4636SOL    HW225545   1.389   4.622   7.434 -1.4447  1.1974 -0.5633
 4637SOL     OW25546   0.012   3.805   0.588  0.3853  0.4014 -0.5039
 4637SOL    HW125547   4.670   3.843   0.552 -0.3213 -0.6777 -0.0642
 4637SOL    HW225548   0.052   3.883   0.626  1.0190  1.0029 -2.3824
 4638SOL     OW25549   0.527   3.658   1.211 -0.0842  0.1154 -0.3097
 4638SOL    HW125550   0.583   3.735   1.206 -1.7859  1.4443  1.3676
 4638SOL    HW225551   0.588   3.588   1.190  0.8666  0.6407  0.7516
 4639SOL     OW25552   1.448   1.122   7.448 -0.4037 -0.1228  0.1053
 4639SOL    HW125553   1.495   1.116   7.365  1.3067 -1.0599  1.1406
 4639SOL    HW225554   1.380   1.055   7.439 -0.4101 -0.2923  1.4748
 4640SOL     OW25555   0.002   0.821   0.558  0.0674  0.3274 -0.3479
 4640SOL    HW125556   4.715   0.745   0.505 -0.7641  1.6798 -1.8917
 4640SOL    HW225557   0.092   0.840   0.534  0.2888 -2.3169 -1.5796
 4641SOL     OW25558   3.825   4.591   5.729  0.2380  0.2370  0.3534
 4641SOL    HW125559   3.887   4.624   5.794  2.1269 -0.0772 -1.2726
 4641SOL    HW225560   3.806   4.517   5.786  2.3537  0.0654  0.8239
 4642SOL     OW25561   3.564   3.815   5.665 -0.1508  0.1122 -0.2260
 4642SOL    HW125562   3.655   3.838   5.649 -0.3799  1.7756  0.8501
 4642SOL    HW225563   3.527   3.893   5.708  3.2287  1.8422 -0.4983
 4643SOL     OW25564   2.726   1.632   5.680  0.8282 -0.0240 -0.2587
 4643SOL    HW125565   2.668   1.585   5.620  1.1751 -1.4390  0.4951
 4643SOL    HW225566   2.769   1.559   5.725  1.5726  0.8298  0.4133
 4644SOL     OW25567   3.789   1.131   2.714  0.3669  0.1172  0.2513
 4644SOL    HW125568   3.820   1.046   2.746  0.8527  0.3216  0.3241
 4644SOL    HW225569   3.852   1.194   2.750  0.2034  1.0613 -1.1323
 4645SOL     OW25570   4.045   1.954  16.866  0.1499  0.0545  0.4570
 4645SOL    HW125571   4.055   1.861  16.849 -0.0327 -0.1407  1.4214
 4645SOL    HW225572   3.960   1.949  16.911  0.1937 -0.4956  0.4723
 4646SOL     OW25573   3.988   1.970   1.442  0.4707 -0.3944 -0.4322
 4646SOL    HW125574   4.039   2.045   1.412  0.2870 -0.0701  0.0655
 4646SOL    HW225575   3.923   1.957   1.373 -0.8796  0.6198  0.6501
 4647SOL     OW25576   2.772   2.907   4.441  0.0864 -0.5153  0.4250
 4647SOL    HW125577   2.741   2.869   4.523 -1.2004  0.3505  0.3371
 4647SOL    HW225578   2.710   2.867   4.380  0.5980  2.1820 -1.8265
 4648SOL     OW25579   3.257   1.338  14.738 -0.7400  0.2766  0.0651
 4648SOL    HW125580   3.203   1.323  14.815 -1.7055  1.9055 -0.2833
 4648SOL    HW225581   3.194   1.302  14.675  0.0683 -1.6158  0.3379
 4649SOL     OW25582   3.769   0.430   1.912  0.1785  0.1265 -0.6228
 4649SOL    HW125583   3.733   0.510   1.874  0.5257  0.4509 -0.2591
 4649SOL    HW225584   3.746   0.355   1.856 -0.0923  0.4623 -0.9592
 4650SOL     OW25585   2.119   2.309  13.022  0.5272 -0.2115 -0.0787
 4650SOL    HW125586   2.152   2.322  13.111  0.9632 -0.3006 -0.2270
 4650SOL    HW225587   2.193   2.311  12.961 -1.0618  1.4799 -1.9600
 4651SOL     OW25588   1.820   2.149  16.772 -0.9214  0.3585 -0.2499
 4651SOL    HW125589   1.909   2.117  16.760 -0.8250  0.1401  0.9987
 4651SOL    HW225590   1.791   2.106  16.853  0.5740 -0.9590 -0.4082
 4652SOL     OW25591   2.146   2.040  17.713 -0.1298 -0.4387  0.2550
 4652SOL    HW125592   2.138   1.951  17.680  0.6343 -0.1543 -0.6993
 4652SOL    HW225593   2.094   2.036   0.043  1.3140 -1.5605  1.1466
 4653SOL     OW25594   0.354   1.956  10.297 -0.2322  0.7370 -0.5518
 4653SOL    HW125595   0.423   1.900  10.335  0.0461  0.7761 -1.0035
 4653SOL    HW225596   0.409   2.030  10.273  2.1988 -1.0319 -0.4891
 4654SOL     OW25597   1.719   1.873   9.557 -0.2671  0.2241  0.1105
 4654SOL    HW125598   1.663   1.802   9.586 -1.2210  0.2473 -1.6596
 4654SOL    HW225599   1.802   1.827   9.542 -1.7548 -2.0064 -1.2206
 4655SOL     OW25600   2.535   1.302   2.380  0.2110 -0.1641  0.3923
 4655SOL    HW125601   2.611   1.291   2.322 -0.0522 -1.3472  0.2585
 4655SOL    HW225602   2.545   1.217   2.424 -0.5749 -0.0948  0.6894
 4656SOL     OW25603   3.358   0.843   2.988  0.1491  0.9200  0.1102
 4656SOL    HW125604   3.321   0.901   3.054 -0.4278  0.2909  0.3478
 4656SOL    HW225605   3.440   0.889   2.973  0.0797  0.4863 -1.5397
 4657SOL     OW25606   4.728   2.150  10.422  0.9825  0.6837 -0.1782
 4657SOL    HW125607   4.653   2.196  10.460  1.4337  1.1133  0.1808
 4657SOL    HW225608   0.023   2.092  10.491 -1.5003 -1.0424 -0.4160
 4658SOL     OW25609   1.935   0.547  17.593  0.5695  0.0232  0.0402
 4658SOL    HW125610   1.949   0.571  17.502  1.1466  3.3888  1.0378
 4658SOL    HW225611   1.895   0.460  17.581  2.9873 -1.1742  0.5919
 4659SOL     OW25612   1.301   2.128   3.814 -1.1490  0.9282 -0.6576
 4659SOL    HW125613   1.259   2.197   3.764 -3.7347 -0.4065 -0.3097
 4659SOL    HW225614   1.269   2.050   3.769 -1.2155  1.4364 -1.4859
 4660SOL     OW25615   2.702   4.389  13.523 -0.5015 -0.2216  0.4230
 4660SOL    HW125616   2.784   4.339  13.529 -0.0095  0.6739  1.1560
 4660SOL    HW225617   2.643   4.322  13.556 -2.1261  0.9236 -0.1711
 4661SOL     OW25618   1.826   2.668   7.407  0.2215  0.3929  0.2773
 4661SOL    HW125619   1.800   2.760   7.414 -1.4985 -0.0693 -0.1855
 4661SOL    HW225620   1.873   2.665   7.491 -0.8818  2.0379  0.9478
 4662SOL     OW25621   2.108   4.658   3.558 -0.1721 -0.0273  0.3721
 4662SOL    HW125622   2.142   4.657   3.468 -2.0733  0.4493 -0.3640
 4662SOL    HW225623   2.046   4.585   3.559  0.1208 -0.3113 -2.3153
 4663SOL     OW25624   1.495   2.780   2.597 -0.4611  0.3231  0.6159
 4663SOL    HW125625   1.515   2.742   2.683 -2.2714 -0.5562  0.6445
 4663SOL    HW225626   1.451   2.857   2.632 -1.6004 -0.0094 -0.0920
 4664SOL     OW25627   4.697   0.879   1.809 -0.3024  0.5431 -0.3780
 4664SOL    HW125628   4.688   0.823   1.886  0.5675 -0.6705 -1.1647
 4664SOL    HW225629   4.651   0.959   1.836 -3.1216 -0.9256 -0.8283
 4665SOL     OW25630   0.075   2.385   5.451 -0.4309  0.7336 -0.0749
 4665SOL    HW125631   0.024   2.444   5.506 -0.7799 -1.3126  1.7857
 4665SOL    HW225632   0.107   2.321   5.514 -2.5199 -1.3070 -1.0599
 4666SOL     OW25633   1.652   3.996  11.798 -0.7007  0.5442  0.0940
 4666SOL    HW125634   1.605   3.918  11.768 -0.7939  0.2962  0.9059
 4666SOL    HW225635   1.605   4.004  11.880  0.3221 -0.5170  0.7830
 4667SOL     OW25636   0.706   0.750   6.555  0.1411  0.3022 -0.7957
 4667SOL    HW125637   0.705   0.783   6.645  3.9594 -2.3738  0.2103
 4667SOL    HW225638   0.725   0.658   6.573  1.7557  0.8291  0.2261
 4668SOL     OW25639   1.747   2.037   8.136 -0.4904 -0.4565  0.3990
 4668SOL    HW125640   1.656   2.050   8.110  0.2328 -1.2261 -2.5574
 4668SOL    HW225641   1.766   2.107   8.198  1.7088 -0.7037  0.0094
 4669SOL     OW25642   1.137   2.319   6.958 -0.3118  0.0824  1.0121
 4669SOL    HW125643   1.219   2.368   6.950 -1.0775  1.3977  1.2181
 4669SOL    HW225644   1.078   2.386   6.994  1.6070  1.3339  1.8665
 4670SOL     OW25645   3.123   2.865   8.001  0.0649 -0.1004  0.2137
 4670SOL    HW125646   3.118   2.944   7.946  0.5954  1.0415  1.8088
 4670SOL    HW225647   3.046   2.879   8.056 -1.3412 -1.3648 -1.4209
 4671SOL     OW25648   1.050   4.189  12.581 -0.1778  0.0711  0.0275
 4671SOL    HW125649   0.989   4.218  12.649  1.1500 -0.5052  1.4547
 4671SOL    HW225650   1.000   4.207  12.501  1.0917 -0.8068 -0.9669
 4672SOL     OW25651   0.254   1.956   2.443 -0.4353  0.1011 -0.0597
 4672SOL    HW125652   0.249   1.864   2.417  1.0827 -0.1370  0.5347
 4672SOL    HW225653   0.243   2.006   2.362 -0.3750 -0.1495 -0.2213
 4673SOL     OW25654   2.711   2.074   3.867 -0.3821 -0.1695 -0.5608
 4673SOL    HW125655   2.629   2.025   3.877 -0.8366  0.5535 -0.8453
 4673SOL    HW225656   2.740   2.029   3.787  0.0519 -2.4610  0.8577
 4674SOL     OW25657   4.666   1.278   3.958  0.3170 -0.3308 -0.3208
 4674SOL    HW125658   4.690   1.328   3.880 -0.9449  1.0332  0.1570
 4674SOL    HW225659   4.575   1.267   3.931  0.4472  0.2651 -1.0153
 4675SOL     OW25660   4.136   1.723   3.421 -0.4010  0.3610  0.0536
 4675SOL    HW125661   4.098   1.647   3.465  2.0111 -0.0563  1.4329
 4675SOL    HW225662   4.076   1.749   3.351  1.0372 -1.0296 -1.7150
 4676SOL     OW25663   4.413   3.049  16.945 -0.4015 -0.2136 -0.1766
 4676SOL    HW125664   4.469   3.097  16.884  0.2014  0.3497  0.8219
 4676SOL    HW225665   4.477   2.984  16.976 -1.3696 -1.3081 -0.5075
 4677SOL     OW25666   4.259   3.842   9.148 -0.3532  0.4099 -0.2469
 4677SOL    HW125667   4.178   3.831   9.098 -0.3604  0.8836 -0.3314
 4677SOL    HW225668   4.245   3.792   9.228  1.3920 -1.6476 -1.2192
 4678SOL     OW25669   0.030   1.954   9.865 -0.1073  0.6557  0.0364
 4678SOL    HW125670   0.094   2.016   9.831  0.0171 -1.6259 -3.8056
 4678SOL    HW225671   0.034   1.974   9.959 -1.1842  0.3547  0.1476
 4679SOL     OW25672   2.637   1.632   9.134 -0.1829 -0.4465 -0.1467
 4679SOL    HW125673   2.693   1.616   9.057  1.5733 -0.7036  1.1652
 4679SOL    HW225674   2.614   1.723   9.118  1.2443 -0.3019 -1.4369
 4680SOL     OW25675   4.591   2.282  10.183  0.1835  0.3683  0.1484
 4680SOL    HW125676   4.534   2.347  10.141 -1.4233 -0.5964  0.8045
 4680SOL    HW225677   4.597   2.305  10.275  1.5633  3.6210 -0.7668
 4681SOL     OW25678   2.916   2.047  12.742 -0.1718  0.6159 -0.6021
 4681SOL    HW125679   2.887   1.956  12.736 -0.3725  0.7964 -2.2346
 4681SOL    HW225680   2.837   2.080  12.699 -0.8971 -1.8174 -1.1854
 4682SOL     OW25681   4.689   4.263   4.103  0.1313 -0.3260  0.4017
 4682SOL    HW125682   4.719   4.336   4.156 -1.6290 -0.5831  1.7259
 4682SOL    HW225683   0.005   4.263   4.024 -1.3976 -1.0402 -0.6583
 4683SOL     OW25684   1.417   4.159   1.532 -0.3580 -0.0010 -0.8360
 4683SOL    HW125685   1.322   4.144   1.531 -0.5973  1.4177  2.5060
 4683SOL    HW225686   1.447   4.097   1.598 -0.6023  0.1257 -0.6086
 4684SOL     OW25687   2.407   1.028   3.517  0.3350  0.3160  0.1112
 4684SOL    HW125688   2.402   1.002   3.609  0.1592  1.9552  0.5704
 4684SOL    HW225689   2.320   1.066   3.508 -0.3688 -0.9904  1.4795
 4685SOL     OW25690   1.280   4.308  12.325 -0.2468  0.3288 -0.1233
 4685SOL    HW125691   1.316   4.240  12.268  1.9290 -1.4554  3.3313
 4685SOL    HW225692   1.357   4.335  12.375 -0.0263 -1.9157  0.7621
 4686SOL     OW25693   4.169   2.338  14.648 -0.1480  0.0421 -0.1113
 4686SOL    HW125694   4.219   2.420  14.640  0.6617 -0.5224 -0.8837
 4686SOL    HW225695   4.130   2.353  14.562 -0.1734  1.6732  0.1803
 4687SOL     OW25696   4.313   2.278   2.920  0.4817  0.2851 -0.5615
 4687SOL    HW125697   4.334   2.330   2.843  2.0458  2.7270  1.5457
 4687SOL    HW225698   4.392   2.224   2.924 -0.1466 -0.4961  1.1947
 4688SOL     OW25699   1.864   3.916   1.329  0.8030  0.0138 -0.1649
 4688SOL    HW125700   1.800   3.966   1.379  0.6107 -0.5659  0.1781
 4688SOL    HW225701   1.858   3.956   1.243  1.0073  1.2821  0.4163
 4689SOL     OW25702   0.686   4.224  11.645 -0.0019 -0.1649  0.0268
 4689SOL    HW125703   0.632   4.299  11.666 -0.7864 -1.1750  1.6703
 4689SOL    HW225704   0.764   4.233  11.700  1.2904 -0.1656 -1.8094
 4690SOL     OW25705   0.354   2.351  10.081  0.4081 -0.6885  0.2156
 4690SOL    HW125706   0.355   2.283  10.013 -0.5672  0.0364 -0.5400
 4690SOL    HW225707   0.298   2.310  10.147  1.1182  2.3244  2.7145
 4691SOL     OW25708   0.589   1.133  14.538  0.2897 -0.0362 -0.2240
 4691SOL    HW125709   0.626   1.133  14.449  1.4028  0.9674  0.2305
 4691SOL    HW225710   0.589   1.039  14.557  0.6487  0.5775  2.7280
 4692SOL     OW25711   4.148   2.691   5.241 -0.7203 -0.1060  0.1275
 4692SOL    HW125712   4.150   2.738   5.325 -1.8489  1.0510 -0.4802
 4692SOL    HW225713   4.230   2.642   5.246 -0.3198  0.6791  1.4009
 4693SOL     OW25714   2.404   2.935  13.875  0.0709 -0.7254 -0.3167
 4693SOL    HW125715   2.398   2.843  13.900  0.2921 -0.7188 -0.2381
 4693SOL    HW225716   2.382   2.929  13.782 -0.6581  1.1257 -0.2620
 4694SOL     OW25717   3.942   0.013   5.197  0.1156 -0.1334 -0.2126
 4694SOL    HW125718   3.909   4.680   5.252 -1.3273  1.8575  1.4444
 4694SOL    HW225719   3.902   0.092   5.233  0.3212 -0.0170 -0.2403
 4695SOL     OW25720   3.777   2.623   8.395  0.3112 -0.7371  0.4293
 4695SOL    HW125721   3.784   2.652   8.304 -0.5089 -2.6798 -0.2781
 4695SOL    HW225722   3.836   2.548   8.396  0.3623 -0.7023  0.0200
 4696SOL     OW25723   3.965   3.016   1.415 -0.1941 -0.2631  0.2676
 4696SOL    HW125724   4.041   2.968   1.381 -0.2662  0.0302 -0.3121
 4696SOL    HW225725   4.010   3.076   1.474  0.8513 -0.8173  0.0463
 4697SOL     OW25726   2.521   4.311   1.372  0.1293  0.4696  0.3608
 4697SOL    HW125727   2.509   4.248   1.301 -2.5356 -0.1209  1.3327
 4697SOL    HW225728   2.490   4.255   1.442  2.3835  1.5312  2.2231
 4698SOL     OW25729   1.978   1.500   3.925  0.1403  0.4010 -0.3345
 4698SOL    HW125730   2.053   1.480   3.868  0.2825  0.4071 -0.1503
 4698SOL    HW225731   2.020   1.539   4.002 -0.9609 -2.1781  1.5707
 4699SOL     OW25732   4.428   2.917  11.531 -0.1479  0.1696 -0.3240
 4699SOL    HW125733   4.437   2.907  11.625 -1.6482 -1.8554 -0.4159
 4699SOL    HW225734   4.342   2.957  11.528 -1.6429 -2.8108  3.1256
 4700SOL     OW25735   1.427   4.712  12.089  0.7058  0.6017 -0.1517
 4700SOL    HW125736   1.448   0.021  12.169 -1.3450 -2.2242  2.0571
 4700SOL    HW225737   1.429   4.617  12.098  0.1320  0.4978 -1.0004
 4701SOL     OW25738   1.460   1.930   1.732 -0.7193  0.1401 -0.1263
 4701SOL    HW125739   1.472   1.919   1.826 -0.3598  0.4749 -0.1317
 4701SOL    HW225740   1.512   2.008   1.711  0.4781 -0.5539  0.2310
 4702SOL     OW25741   4.213   1.611  13.881  0.9616  0.6087 -0.4416
 4702SOL    HW125742   4.258   1.540  13.927 -1.8653  0.2253  1.6950
 4702SOL    HW225743   4.208   1.571  13.794  1.5249  1.2948 -0.7879
 4703SOL     OW25744   0.448   1.937   5.888 -0.2125 -0.3807 -0.2771
 4703SOL    HW125745   0.444   2.004   5.956  0.3152 -0.7823  0.1559
 4703SOL    HW225746   0.399   1.870   5.937 -0.7370 -0.0633 -0.3648
 4704SOL     OW25747   4.256   1.135   5.479  0.0830  0.4161  0.0641
 4704SOL    HW125748   4.309   1.177   5.546  1.7522 -0.1867 -0.8689
 4704SOL    HW225749   4.309   1.140   5.399 -0.6580 -0.0256 -0.4596
 4705SOL     OW25750   2.365   0.665   8.236 -0.0545 -0.3495 -0.5668
 4705SOL    HW125751   2.383   0.681   8.144  0.9439  2.2717  0.0865
 4705SOL    HW225752   2.441   0.712   8.269 -0.0691 -0.9831  0.3673
 4706SOL     OW25753   1.665   0.010   8.963 -0.4138 -0.4509 -0.1365
 4706SOL    HW125754   1.743   4.694   8.978 -0.3305 -0.2982 -0.0131
 4706SOL    HW225755   1.677   0.035   8.871  0.9340  1.7899  0.6377
 4707SOL     OW25756   0.091   0.755   9.465 -0.3921  0.3870 -0.3679
 4707SOL    HW125757   0.080   0.818   9.394 -2.1112 -0.3855 -0.7941
 4707SOL    HW225758   0.035   0.798   9.530  2.1807  1.4225  1.1714
 4708SOL     OW25759   3.191   4.079   6.001 -0.1803 -0.1396  0.3087
 4708SOL    HW125760   3.105   4.111   5.977 -0.1602  0.8356  1.5058
 4708SOL    HW225761   3.244   4.103   5.925  0.6843  0.0870  0.9759
 4709SOL     OW25762   1.479   0.067   7.735 -0.2318 -0.2977 -0.7119
 4709SOL    HW125763   1.561   0.024   7.711  1.3109  1.2063  1.8771
 4709SOL    HW225764   1.494   0.117   7.815 -1.7233 -2.1499  0.7266
 4710SOL     OW25765   4.191   4.361   3.529 -0.4385 -0.4491 -0.1584
 4710SOL    HW125766   4.189   4.379   3.435  0.1363  2.0445  0.2942
 4710SOL    HW225767   4.123   4.293   3.528  0.7997 -1.6582 -1.2310
 4711SOL     OW25768   3.444   2.021   7.484  0.2433 -0.7867  0.2810
 4711SOL    HW125769   3.521   2.073   7.507 -2.0596  1.3835  3.1692
 4711SOL    HW225770   3.446   1.952   7.551 -1.4822  0.2012  1.3526
 4712SOL     OW25771   0.411   1.640   0.801  0.0279  0.4835 -0.9178
 4712SOL    HW125772   0.356   1.690   0.862  1.1314  0.1188  0.4022
 4712SOL    HW225773   0.498   1.649   0.841  0.7030 -1.1525 -1.9906
 4713SOL     OW25774   2.728   3.009   3.881  0.5479  0.3275  0.2150
 4713SOL    HW125775   2.721   3.005   3.785  1.4640 -0.4410  0.1789
 4713SOL    HW225776   2.747   2.915   3.885 -1.1153  0.0627  1.7307
 4714SOL     OW25777   2.540   4.608   9.573  0.1008  0.4731 -0.0537
 4714SOL    HW125778   2.496   4.638   9.493 -0.9014 -1.2236 -0.1415
 4714SOL    HW225779   2.565   4.687   9.621  1.0108 -0.6261  1.2947
 4715SOL     OW25780   0.098   0.212  16.577 -0.0194 -0.1358  0.8969
 4715SOL    HW125781   0.054   0.214  16.492  1.5237 -0.9026  0.0839
 4715SOL    HW225782   0.128   0.302  16.591 -1.2763  0.4062  0.1445
 4716SOL     OW25783   4.705   2.240   4.452  0.2695  0.0160 -0.2288
 4716SOL    HW125784   4.678   2.332   4.450  0.3976  0.0548 -0.1695
 4716SOL    HW225785   0.033   2.244   4.384 -2.3437 -2.8608 -2.9156
 4717SOL     OW25786   4.530   3.583  10.176  0.0145  0.3669 -0.0169
 4717SOL    HW125787   4.618   3.545  10.172 -0.0757  0.2772 -1.0645
 4717SOL    HW225788   4.566   3.667  10.206  2.5693 -0.3033 -1.1768
 4718SOL     OW25789   2.991   0.094  14.602 -0.3133 -0.0454  0.2755
 4718SOL    HW125790   3.083   0.078  14.620 -1.1970 -3.7950  1.5145
 4718SOL    HW225791   2.961   0.122  14.688 -1.7076  0.0849 -0.2422
 4719SOL     OW25792   2.192   1.498   5.299 -0.1070 -0.2787 -0.3471
 4719SOL    HW125793   2.254   1.478   5.229  3.1189  1.6760  1.9682
 4719SOL    HW225794   2.247   1.548   5.359  1.7754  1.6114 -3.6276
 4720SOL     OW25795   3.988   4.506   7.131 -0.6515  0.1394  0.0222
 4720SOL    HW125796   3.956   4.534   7.216  0.5433  0.6030  0.3140
 4720SOL    HW225797   4.023   4.421   7.157  1.9189  1.2921  0.2834
 4721SOL     OW25798   0.861   1.859   6.029 -0.2352  0.0779 -0.3996
 4721SOL    HW125799   0.792   1.822   5.973 -1.8216 -0.5406  1.9758
 4721SOL    HW225800   0.846   1.813   6.112 -0.3109 -0.0346 -0.4746
 4722SOL     OW25801   0.516   2.911  12.873  0.0203  0.3551 -0.3214
 4722SOL    HW125802   0.532   2.974  12.944  0.9578 -1.6425  1.2385
 4722SOL    HW225803   0.430   2.875  12.897 -1.0032  1.7882 -1.9103
 4723SOL     OW25804   0.509   2.576  12.756  0.3221 -0.1148  0.1175
 4723SOL    HW125805   0.503   2.522  12.677  2.5419 -1.1324  0.6591
 4723SOL    HW225806   0.423   2.556  12.792 -0.2514 -0.2241 -1.3256
 4724SOL     OW25807   2.509   3.905   5.055 -0.6462  0.1214 -0.1108
 4724SOL    HW125808   2.566   3.834   5.027  0.7714  0.4720  1.8914
 4724SOL    HW225809   2.531   3.973   4.991 -0.9628  0.2951 -0.0346
 4725SOL     OW25810   3.098   0.506   3.088 -0.0065 -0.4498  0.9026
 4725SOL    HW125811   3.093   0.594   3.052  0.2620 -0.7466  0.1351
 4725SOL    HW225812   3.064   0.451   3.017 -0.8068 -1.0216  1.7354
 4726SOL     OW25813   2.192   0.507  15.189  0.8589 -0.5380 -0.5250
 4726SOL    HW125814   2.175   0.519  15.096  2.5161 -0.3292 -0.8035
 4726SOL    HW225815   2.284   0.533  15.190  0.5318  0.6260 -0.7267
 4727SOL     OW25816   1.887   4.692   8.552 -0.0208  0.2253  1.0862
 4727SOL    HW125817   1.945   4.622   8.583 -0.2205 -1.3670 -2.0596
 4727SOL    HW225818   1.831   4.632   8.502 -0.3086  0.7907  0.7314
 4728SOL     OW25819   2.106   0.554   2.418  0.6887 -0.4331 -0.5920
 4728SOL    HW125820   2.016   0.568   2.388  1.7348  3.5680 -1.8633
 4728SOL    HW225821   2.143   0.592   2.338  1.6564  0.7952  0.4362
 4729SOL     OW25822   0.888   3.144   2.637  0.1496 -0.0552 -0.1919
 4729SOL    HW125823   0.845   3.086   2.575 -1.3483 -0.6460  1.3833
 4729SOL    HW225824   0.906   3.082   2.708  0.1193  0.9172  0.6692
 4730SOL     OW25825   4.250   4.643   6.320 -0.3122  0.0798  0.1096
 4730SOL    HW125826   4.302   4.631   6.399 -0.8975 -0.9066  0.3368
 4730SOL    HW225827   4.300   4.710   6.274 -3.5913  1.7451 -1.0675
 4731SOL     OW25828   1.682   1.885   8.748  0.1930  0.4943  0.1637
 4731SOL    HW125829   1.647   1.824   8.813 -0.3257  1.7554  1.0538
 4731SOL    HW225830   1.692   1.817   8.681 -2.6876 -0.4937  0.7323
 4732SOL     OW25831   2.297   1.302   3.365 -0.0301  0.1493 -0.1149
 4732SOL    HW125832   2.338   1.270   3.446  1.2443  0.5634 -0.6058
 4732SOL    HW225833   2.214   1.337   3.397  0.3976  0.2147  0.9214
 4733SOL     OW25834   2.224   0.241   7.984  0.0674  0.1390 -0.4955
 4733SOL    HW125835   2.276   0.163   8.003 -0.0613  0.4724  1.2658
 4733SOL    HW225836   2.279   0.295   7.928  1.5751  0.6614  1.4962
 4734SOL     OW25837   0.962   3.479   7.207  0.2658 -0.4735  0.7047
 4734SOL    HW125838   1.003   3.454   7.290  0.7821  1.1561  0.9348
 4734SOL    HW225839   1.016   3.424   7.150  2.3921  1.2288  1.0863
 4735SOL     OW25840   0.284   2.323   0.738  0.0955 -0.7065 -0.1433
 4735SOL    HW125841   0.210   2.262   0.741 -0.5119  0.0755  0.6954
 4735SOL    HW225842   0.263   2.381   0.810  0.6372  0.6098 -1.0455
 4736SOL     OW25843   3.829   2.408   9.029 -0.0944 -0.3645 -0.2590
 4736SOL    HW125844   3.828   2.404   9.125  1.5359  0.6117 -0.2064
 4736SOL    HW225845   3.758   2.468   9.007 -0.6230 -0.1213  2.0839
 4737SOL     OW25846   1.307   1.667   8.189 -0.0144 -0.3070  0.1099
 4737SOL    HW125847   1.396   1.696   8.211 -0.1181  0.6950 -0.7878
 4737SOL    HW225848   1.269   1.744   8.147 -0.8776 -1.0818 -0.5321
 4738SOL     OW25849   0.803   0.869   8.430 -0.1966 -0.3937  0.3368
 4738SOL    HW125850   0.708   0.868   8.422 -0.0111 -4.0149 -1.1488
 4738SOL    HW225851   0.832   0.960   8.420  1.3913 -0.9221  0.2006
 4739SOL     OW25852   3.869   3.445   3.560 -0.2371  0.0032  0.3747
 4739SOL    HW125853   3.800   3.386   3.531  2.5742 -2.4279 -1.3152
 4739SOL    HW225854   3.847   3.465   3.651  1.5895  0.6362  0.6803
 4740SOL     OW25855   4.734   0.510   5.958  0.2893  0.0370 -0.0760
 4740SOL    HW125856   4.724   0.433   6.015 -1.8858  0.5055  0.1581
 4740SOL    HW225857   4.646   0.516   5.922  0.2156 -2.3205 -0.2613
 4741SOL     OW25858   2.799   4.407   9.819 -0.1720 -0.8853  0.1493
 4741SOL    HW125859   2.706   4.410   9.841 -0.6109 -0.6501 -1.7037
 4741SOL    HW225860   2.834   4.345   9.883 -0.5853  0.5479  1.7443
 4742SOL     OW25861   2.071   0.320   2.710  0.3040  0.1875 -0.0253
 4742SOL    HW125862   2.025   0.285   2.634  0.1806  0.0430  0.1169
 4742SOL    HW225863   2.141   0.367   2.665  0.0535  0.6359  0.0501
 4743SOL     OW25864   4.255   3.458   4.361 -0.4794 -0.1545  0.1092
 4743SOL    HW125865   4.328   3.451   4.301 -0.8046 -1.6496 -0.1143
 4743SOL    HW225866   4.183   3.473   4.299  0.8746  1.5665 -1.0528
 4744SOL     OW25867   1.563   1.854   6.306  0.2823 -0.5785  0.5019
 4744SOL    HW125868   1.608   1.849   6.222 -1.0976 -0.7564 -0.2283
 4744SOL    HW225869   1.626   1.837   6.376 -1.3545 -0.9474  1.8854
 4745SOL     OW25870   2.134   3.910   1.121 -0.0068 -0.1807 -0.4969
 4745SOL    HW125871   2.136   3.924   1.216 -2.1583  0.6630 -0.5924
 4745SOL    HW225872   2.146   3.998   1.087  0.0237 -0.0042 -0.0324
 4746SOL     OW25873   2.636   0.122   7.040 -0.2718 -0.7318  0.2529
 4746SOL    HW125874   2.649   0.169   6.958  0.5439 -0.6782  0.4050
 4746SOL    HW225875   2.632   0.031   7.010  2.8738 -0.3329 -1.4588
 4747SOL     OW25876   0.413   1.362   2.586 -0.1992 -0.0562 -0.0421
 4747SOL    HW125877   0.387   1.389   2.674  2.5549  0.8213  0.4965
 4747SOL    HW225878   0.339   1.307   2.561 -0.1334  0.0959 -0.5757
 4748SOL     OW25879   2.948   4.231  10.414  0.2901  0.6614  0.3673
 4748SOL    HW125880   2.884   4.163  10.434  0.0027  0.3352 -1.7692
 4748SOL    HW225881   3.006   4.213  10.488  1.6519  0.5543 -0.7338
 4749SOL     OW25882   4.408   3.085   2.635 -0.1176 -0.2868 -0.1991
 4749SOL    HW125883   4.465   3.010   2.620 -0.8031 -0.2612 -3.0443
 4749SOL    HW225884   4.323   3.041   2.641  0.2851 -1.1882 -0.9593
 4750SOL     OW25885   3.717   2.328   1.403  0.5625  0.1039 -0.2685
 4750SOL    HW125886   3.701   2.361   1.315  0.3123 -1.9028 -0.9602
 4750SOL    HW225887   3.813   2.324   1.400  0.6529  0.9966  1.3005
 4751SOL     OW25888   4.049   3.524   6.000  0.7866 -0.1291 -0.1695
 4751SOL    HW125889   4.054   3.429   5.990 -1.1786 -0.2516 -0.0204
 4751SOL    HW225890   4.108   3.559   5.934  1.3989  0.0675  0.4744
 4752SOL     OW25891   2.891   2.035   7.801  0.5279  0.1260  0.5263
 4752SOL    HW125892   2.914   2.082   7.721  0.3510  0.1104  0.4645
 4752SOL    HW225893   2.977   2.018   7.838  0.5072 -0.2251  0.4222
 4753SOL     OW25894   3.400   2.310   1.101  0.3133  0.6178  0.0252
 4753SOL    HW125895   3.326   2.354   1.058  1.8879  1.3453 -1.9379
 4753SOL    HW225896   3.381   2.220   1.072  1.2169  0.6162 -0.5682
 4754SOL     OW25897   1.078   2.542   0.804 -0.0609  0.9299  0.3253
 4754SOL    HW125898   1.136   2.467   0.796  1.6983  2.3278 -0.1151
 4754SOL    HW225899   1.038   2.540   0.718  0.3841 -0.7321  0.1506
 4755SOL     OW25900   3.499   4.374   7.116  0.0151  0.5313 -0.1022
 4755SOL    HW125901   3.574   4.322   7.142 -0.0608  1.6045  2.2744
 4755SOL    HW225902   3.544   4.459   7.111  1.5779 -0.2191  1.4735
 4756SOL     OW25903   0.961   2.589   5.364  0.5065  0.1336  0.2455
 4756SOL    HW125904   0.935   2.655   5.427  2.4777  0.5824  0.5848
 4756SOL    HW225905   0.890   2.528   5.386  1.3637 -0.3391  1.6846
 4757SOL     OW25906   4.297   0.906   2.535  0.0717  0.1202  0.0596
 4757SOL    HW125907   4.213   0.890   2.493 -0.1827  1.0473  0.2346
 4757SOL    HW225908   4.291   0.892   2.629  2.2533  0.9739  0.3226
 4758SOL     OW25909   2.941   0.443  15.889  0.0133  0.2368  0.4681
 4758SOL    HW125910   2.868   0.467  15.946  0.1738  2.7210 -0.3949
 4758SOL    HW225911   2.960   0.514  15.828 -0.7109 -1.6249 -1.9099
 4759SOL     OW25912   3.088   1.276   8.934  0.1189 -0.4056  0.0353
 4759SOL    HW125913   3.122   1.189   8.911  1.8472  1.0749 -2.9708
 4759SOL    HW225914   3.034   1.254   9.010  0.7254  0.8005  0.8098
 4760SOL     OW25915   2.578   4.724   1.500  0.0446 -0.4057  0.1958
 4760SOL    HW125916   2.511   4.657   1.515  0.1272 -0.8338 -1.4653
 4760SOL    HW225917   2.527   0.057   1.540  2.5051  1.9816 -0.9452
 4761SOL     OW25918   0.791   2.792   8.040  0.1988 -0.3228 -0.4101
 4761SOL    HW125919   0.721   2.847   8.005 -0.8506 -0.7417  1.0035
 4761SOL    HW225920   0.857   2.858   8.060 -2.2548  1.6064  1.3284
 4762SOL     OW25921   1.535   2.522   1.435  0.0319  0.3183  0.5417
 4762SOL    HW125922   1.498   2.475   1.510  0.0935 -0.7122 -0.0733
 4762SOL    HW225923   1.616   2.557   1.473  1.8047 -0.4824 -2.4058
 4763SOL     OW25924   1.923   0.783   5.483 -0.6540 -0.2411 -0.1362
 4763SOL    HW125925   1.928   0.721   5.411  0.8684 -0.5151  0.2068
 4763SOL    HW225926   1.964   0.861   5.447 -0.8358 -0.7231 -1.3757
 4764SOL     OW25927   1.019   1.888   4.274  0.2085  0.0765  0.3959
 4764SOL    HW125928   1.060   1.972   4.252  0.4782  0.4060  2.2299
 4764SOL    HW225929   0.944   1.934   4.312 -0.5076  0.7570 -1.8116
 4765SOL     OW25930   3.416   4.133   9.848 -0.2033  0.5799  0.5556
 4765SOL    HW125931   3.353   4.179   9.793  0.3810  2.7087  1.6566
 4765SOL    HW225932   3.371   4.132   9.932  2.2799 -2.5065  1.8381
 4766SOL     OW25933   0.857   0.881   9.760 -0.1627  0.0867 -0.0046
 4766SOL    HW125934   0.797   0.834   9.701 -0.2181 -1.7196  1.4943
 4766SOL    HW225935   0.933   0.868   9.703  0.8445 -1.4860  1.6817
 4767SOL     OW25936   3.930   2.655   7.830 -0.3034  0.4288  0.3073
 4767SOL    HW125937   3.989   2.673   7.756 -1.2360  1.1029 -0.2722
 4767SOL    HW225938   3.949   2.737   7.876  2.4663  0.0280 -0.1071
 4768SOL     OW25939   2.656   2.717   3.926  0.5124  0.2313  0.4727
 4768SOL    HW125940   2.656   2.629   3.888  2.8634 -0.1849  1.4909
 4768SOL    HW225941   2.569   2.749   3.901  1.4296  2.2907 -0.0626
 4769SOL     OW25942   3.129   0.641   1.671  0.2048 -0.2534 -0.1050
 4769SOL    HW125943   3.133   0.549   1.697 -0.3980  0.4412  2.5047
 4769SOL    HW225944   3.051   0.655   1.725  0.2305  0.6254 -0.2947
 4770SOL     OW25945   1.833   2.698   4.620  1.0070 -0.4681 -0.4789
 4770SOL    HW125946   1.825   2.780   4.570 -0.3768  0.0749  0.6226
 4770SOL    HW225947   1.856   2.637   4.550 -2.2245 -0.7425 -1.3047
 4771SOL     OW25948   1.022   0.568   6.650  0.5192  0.0410 -0.1928
 4771SOL    HW125949   0.945   0.523   6.617  0.2941 -1.4058  2.3046
 4771SOL    HW225950   0.985   0.653   6.674  0.3897 -0.6253  1.9720
 4772SOL     OW25951   1.990   0.534   7.189 -0.0063  0.1136  0.2136
 4772SOL    HW125952   1.938   0.477   7.246  1.5945 -1.4257  0.1419
 4772SOL    HW225953   2.080   0.507   7.211 -0.8192 -2.9304 -0.2158
 4773SOL     OW25954   3.003   1.737   2.071  0.2116 -0.1143  0.0877
 4773SOL    HW125955   3.037   1.800   2.007  2.8661 -0.5456  1.0700
 4773SOL    HW225956   3.068   1.755   2.139  0.9156 -0.8175 -0.3921
 4774SOL     OW25957   4.650   2.375   6.411 -0.3091 -0.5334 -0.0420
 4774SOL    HW125958   4.730   2.324   6.423 -0.0057  0.3523  1.7464
 4774SOL    HW225959   4.651   2.445   6.477  0.3059 -1.3853  0.8518
 4775SOL     OW25960   3.520   1.629   1.048 -0.1886  0.7342  0.1748
 4775SOL    HW125961   3.447   1.625   1.110  1.3519  3.0873  2.1700
 4775SOL    HW225962   3.587   1.609   1.113 -1.4472  0.7144  1.4678
 4776SOL     OW25963   2.673   2.646   5.136  0.3882  0.2241 -0.3659
 4776SOL    HW125964   2.661   2.725   5.082 -1.6690 -0.8819 -1.4985
 4776SOL    HW225965   2.702   2.587   5.067  1.5756 -0.3473  0.6194
 4777SOL     OW25966   2.741   0.542  11.591 -0.4339 -0.8922 -0.4508
 4777SOL    HW125967   2.672   0.579  11.537  1.8834  1.0759 -2.0843
 4777SOL    HW225968   2.779   0.493  11.518  0.6057  0.2962 -0.6956
 4778SOL     OW25969   4.700   2.464   7.747  0.0455 -0.1227  0.4045
 4778SOL    HW125970   4.692   2.490   7.839 -0.5191  0.9625  0.0469
 4778SOL    HW225971   4.624   2.410   7.725  0.4866 -1.8543  3.1986
 4779SOL     OW25972   3.928   2.869  10.425  0.0978 -0.2487 -0.3943
 4779SOL    HW125973   3.998   2.887  10.488  0.6391 -0.6687 -0.8717
 4779SOL    HW225974   3.855   2.867  10.486 -1.7091 -0.1756 -2.5638
 4780SOL     OW25975   1.335   3.515   3.859  0.0876 -0.4199  0.4275
 4780SOL    HW125976   1.242   3.504   3.883  0.0767  0.9005  0.9642
 4780SOL    HW225977   1.353   3.586   3.920 -0.9007 -0.4102  0.7169
 4781SOL     OW25978   0.990   1.729   2.827  0.1063  0.0416  0.0776
 4781SOL    HW125979   1.046   1.700   2.899  1.3651  0.9456 -0.5428
 4781SOL    HW225980   0.924   1.788   2.864  0.2102  0.9806 -1.2337
 4782SOL     OW25981   3.887   2.978   5.078  0.2441  0.0755  0.1699
 4782SOL    HW125982   3.816   3.015   5.024 -0.4541 -2.0655 -0.3642
 4782SOL    HW225983   3.931   3.056   5.111  0.3716  0.2050 -0.2943
 4783SOL     OW25984   2.897   3.116   5.190 -0.0442 -0.1160 -0.0906
 4783SOL    HW125985   2.808   3.105   5.222  0.0939 -0.1383  0.2780
 4783SOL    HW225986   2.900   3.059   5.113  0.6953 -0.6116  0.3060
 4784SOL     OW25987   2.679   4.182  12.753  0.1528 -0.2061 -0.0787
 4784SOL    HW125988   2.635   4.134  12.824  0.2286  1.6704  1.2433
 4784SOL    HW225989   2.695   4.261  12.805 -2.3893  0.3698 -0.1297
 4785SOL     OW25990   4.092   1.682   8.205 -0.0055 -0.2174 -0.0200
 4785SOL    HW125991   4.024   1.616   8.214  1.1221 -1.1620  1.5205
 4785SOL    HW225992   4.115   1.701   8.296 -2.5165  1.2288  0.3273
 4786SOL     OW25993   4.077   2.201   3.847  0.0570  0.2068  0.3518
 4786SOL    HW125994   4.115   2.151   3.919  0.4814  2.0653  1.4257
 4786SOL    HW225995   3.988   2.167   3.851  0.6025 -1.3613 -0.7646
 4787SOL     OW25996   0.701   1.806   7.252  0.3936  0.4484 -0.5799
 4787SOL    HW125997   0.670   1.877   7.307 -2.3700 -1.6174  0.4982
 4787SOL    HW225998   0.784   1.844   7.223  0.3976 -0.4907 -1.8351
 4788SOL     OW25999   0.293   1.776   6.039 -0.4655  0.6943  0.1233
 4788SOL    HW126000   0.298   1.680   6.037 -0.4350  0.6668  1.7231
 4788SOL    HW226001   0.346   1.790   6.117 -0.5752 -1.2266  0.5588
 4789SOL     OW26002   2.532   0.843  15.059 -0.1807 -0.1870 -0.0571
 4789SOL    HW126003   2.546   0.804  14.973  0.3840  0.9882 -0.5011
 4789SOL    HW226004   2.473   0.778  15.098 -1.1945  0.2699 -0.8141
 4790SOL     OW26005   3.589   0.164  15.044 -0.3498 -0.2777 -0.2904
 4790SOL    HW126006   3.551   0.106  15.110 -1.0783  0.1574 -0.3368
 4790SOL    HW226007   3.684   0.165  15.052 -0.4654 -0.8067  1.0507
 4791SOL     OW26008   4.495   1.610   8.236 -0.2690 -0.4773  0.2633
 4791SOL    HW126009   4.534   1.613   8.323 -0.5187  1.4842  0.3044
 4791SOL    HW226010   4.469   1.701   8.222 -0.9555 -1.1191 -2.6262
 4792SOL     OW26011   4.655   3.862   8.381 -0.4060 -0.8151 -0.2889
 4792SOL    HW126012   4.562   3.883   8.386 -0.3231 -0.9630  1.8955
 4792SOL    HW226013   4.689   3.917   8.452  2.1483 -1.6802 -0.8474
 4793SOL     OW26014   1.967   4.509  17.522 -0.7487  0.9757 -0.3160
 4793SOL    HW126015   2.048   4.541  17.561 -1.0171 -1.4138  2.1597
 4793SOL    HW226016   1.988   4.499  17.429 -0.1468 -0.2458 -0.0492
 4794SOL     OW26017   1.171   1.420   5.658  0.5068 -0.2344 -0.6967
 4794SOL    HW126018   1.084   1.402   5.622  0.8330  0.4557 -1.8384
 4794SOL    HW226019   1.162   1.512   5.683 -0.9473 -0.2036 -1.2880
 4795SOL     OW26020   4.680   0.931   6.318  0.1064  1.2047 -0.3335
 4795SOL    HW126021   0.036   0.923   6.334  0.1566  2.7368  0.1037
 4795SOL    HW226022   4.662   0.841   6.289  0.8843  1.4428 -1.5573
 4796SOL     OW26023   2.944   2.636   8.223  0.2629  0.3677  0.4491
 4796SOL    HW126024   3.012   2.642   8.290 -0.4101  1.5347  1.0264
 4796SOL    HW226025   2.907   2.551   8.244  0.8961 -0.3800 -1.4319
 4797SOL     OW26026   3.043   0.541   8.508 -0.3540  0.2065 -0.1773
 4797SOL    HW126027   3.083   0.586   8.433 -1.1970  0.2548 -0.6004
 4797SOL    HW226028   3.097   0.578   8.578 -0.2269 -1.2081  0.4642
 4798SOL     OW26029   4.555   1.028  11.345  0.3492 -0.6111 -0.0899
 4798SOL    HW126030   4.471   0.986  11.366  0.7187 -2.7433 -2.7848
 4798SOL    HW226031   4.616   0.959  11.371 -0.7700 -1.1376  1.1499
 4799SOL     OW26032   0.611   0.485  10.358  0.3594  0.1715  0.2565
 4799SOL    HW126033   0.633   0.403  10.314 -0.8898 -1.1541  2.1530
 4799SOL    HW226034   0.563   0.459  10.436  0.0113  1.2421  0.4008
 4800SOL     OW26035   0.901   4.357   4.456  0.9021 -0.2985  0.2529
 4800SOL    HW126036   0.939   4.292   4.516  2.8850  1.9676  1.4754
 4800SOL    HW226037   0.984   4.401   4.437  1.3007 -0.7333  0.9823
 4801SOL     OW26038   3.683   1.750  12.929  0.0943  0.0165  0.6341
 4801SOL    HW126039   3.627   1.761  13.006 -0.1203  2.2760  0.1469
 4801SOL    HW226040   3.770   1.724  12.960  1.2554  1.6213 -1.3224
 4802SOL     OW26041   2.560   3.859   5.333  0.1382 -0.4645 -0.0649
 4802SOL    HW126042   2.478   3.809   5.343 -0.0915 -0.1375 -0.3010
 4802SOL    HW226043   2.531   3.887   5.246  1.0367  1.1768  0.1591
 4803SOL     OW26044   0.538   2.757   3.114  0.1411 -0.1205  0.4569
 4803SOL    HW126045   0.508   2.832   3.164 -0.0956 -0.7203  1.2173
 4803SOL    HW226046   0.492   2.696   3.172  0.8535  1.4149  2.6275
 4804SOL     OW26047   0.063   3.638   6.368 -0.2567  0.7837 -0.5258
 4804SOL    HW126048   4.708   3.618   6.367  0.3469 -2.0558  1.7943
 4804SOL    HW226049   0.065   3.691   6.287  2.4186  0.2272 -0.8285
 4805SOL     OW26050   3.629   4.561   7.441  0.3035  0.3817 -0.1567
 4805SOL    HW126051   3.589   4.494   7.384 -0.0048  1.7150 -1.5225
 4805SOL    HW226052   3.655   4.509   7.517 -0.9518 -0.4381 -0.2750
 4806SOL     OW26053   2.747   4.713   2.382 -0.3344  1.0304  0.1145
 4806SOL    HW126054   2.677   4.733   2.443 -1.4464  0.6585 -1.0527
 4806SOL    HW226055   2.714   4.724   2.293 -0.5337  0.6520  0.1400
 4807SOL     OW26056   0.829   4.508   4.125  0.1112  0.0916 -0.4002
 4807SOL    HW126057   0.904   4.476   4.075 -0.3991 -1.3627 -0.2269
 4807SOL    HW226058   0.846   4.600   4.146  0.1400 -0.3263  1.4508
 4808SOL     OW26059   3.831   4.413  11.367  0.1215 -0.2963 -0.3608
 4808SOL    HW126060   3.819   4.505  11.342 -0.6946 -0.1085  0.7195
 4808SOL    HW226061   3.805   4.355  11.295  1.0466 -0.5155 -0.5178
 4809SOL     OW26062   1.435   2.553   2.263 -0.3055 -0.6213 -0.2431
 4809SOL    HW126063   1.514   2.538   2.212 -0.0656 -1.2538  0.3060
 4809SOL    HW226064   1.405   2.462   2.265 -1.4958 -0.2664 -1.9021
 4810SOL     OW26065   4.186   2.414   2.148 -0.2356 -0.1337 -0.0445
 4810SOL    HW126066   4.099   2.419   2.187  0.7020 -2.1662  2.2688
 4810SOL    HW226067   4.158   2.424   2.057 -2.5956 -0.5986  0.6321
 4811SOL     OW26068   0.615   0.176   1.683 -0.6533  0.9729 -0.2746
 4811SOL    HW126069   0.703   0.214   1.677 -0.1876  0.1382  1.2312
 4811SOL    HW226070   0.623   0.135   1.597 -0.8601 -0.8330  0.5569
 4812SOL     OW26071   1.106   1.467  14.515 -0.1051 -0.3345 -0.6350
 4812SOL    HW126072   1.046   1.539  14.535 -1.1639 -2.0657  2.3871
 4812SOL    HW226073   1.156   1.458  14.595 -2.0264 -0.0348  0.5939
 4813SOL     OW26074   3.705   4.056   3.109 -1.3904 -0.7514 -0.2201
 4813SOL    HW126075   3.663   4.042   3.024  0.3733  2.5885 -1.6287
 4813SOL    HW226076   3.719   4.151   3.112 -0.5779 -0.8633 -0.5859
 4814SOL     OW26077   2.588   1.050   5.229 -0.1714 -0.2566 -0.3042
 4814SOL    HW126078   2.506   1.002   5.219  0.6556 -1.5350 -1.0279
 4814SOL    HW226079   2.584   1.097   5.312  0.2698  1.9925 -1.5705
 4815SOL     OW26080   2.105   0.665   3.527  0.1815 -0.1279  0.0343
 4815SOL    HW126081   2.138   0.582   3.491  0.0487  0.0100 -0.3990
 4815SOL    HW226082   2.094   0.718   3.449  1.0197  1.0902  0.7533
 4816SOL     OW26083   2.828   2.570   6.635  0.0276  0.2753 -1.0085
 4816SOL    HW126084   2.827   2.485   6.590 -0.8966 -0.7879  1.0242
 4816SOL    HW226085   2.882   2.544   6.710 -1.1405  0.2839 -0.1652
 4817SOL     OW26086   0.476   0.032   8.103 -0.1490 -0.0169 -0.1091
 4817SOL    HW126087   0.541   0.083   8.152 -0.1912 -0.1213  0.0541
 4817SOL    HW226088   0.493   4.679   8.130 -1.3771 -0.4053 -0.6444
 4818SOL     OW26089   4.701   2.314   5.198 -0.2231  0.1135  0.1556
 4818SOL    HW126090   4.703   2.349   5.288 -0.4449  3.2244 -1.0388
 4818SOL    HW226091   4.643   2.239   5.210 -0.5660  0.3957  0.2590
 4819SOL     OW26092   1.049   3.191   5.276 -0.2262  0.8973  0.0933
 4819SOL    HW126093   1.010   3.104   5.259  1.2362 -0.1481  2.1356
 4819SOL    HW226094   0.999   3.215   5.354 -1.1046  0.4442 -0.3266
 4820SOL     OW26095   4.542   0.923   7.110 -0.2783  0.5839 -0.0817
 4820SOL    HW126096   4.517   0.842   7.065  1.3372 -0.7453  1.4088
 4820SOL    HW226097   4.569   0.973   7.034 -1.0547 -0.3804 -0.9988
 4821SOL     OW26098   4.332   2.217  10.826 -0.5031 -0.4174  0.0151
 4821SOL    HW126099   4.323   2.146  10.763 -0.7673 -0.7884  0.4736
 4821SOL    HW226100   4.372   2.290  10.778  1.6991 -2.0700 -0.6768
 4822SOL     OW26101   1.888   3.676   2.866  0.1442  0.1396  0.7016
 4822SOL    HW126102   1.932   3.633   2.792  1.8740  3.0825 -0.0008
 4822SOL    HW226103   1.799   3.676   2.833  0.1020 -1.5847  0.8575
 4823SOL     OW26104   2.863   3.408   2.395  1.1048 -0.0019 -0.3473
 4823SOL    HW126105   2.844   3.428   2.303 -1.4466  2.6882  0.7673
 4823SOL    HW226106   2.913   3.488   2.411  0.1069  0.5178  0.1114
 4824SOL     OW26107   2.994   0.399   7.763 -0.5905 -0.2763  0.1825
 4824SOL    HW126108   2.957   0.379   7.849 -0.4336  2.0035  0.7781
 4824SOL    HW226109   2.914   0.394   7.711  0.6829  0.7512 -1.8751
 4825SOL     OW26110   0.138   0.457   1.705  0.2192  0.2588  0.2751
 4825SOL    HW126111   0.119   0.364   1.716  1.4894 -0.1041 -0.6062
 4825SOL    HW226112   0.195   0.460   1.781 -0.1315 -1.1339  0.5937
 4826SOL     OW26113   0.224   1.944  15.766  0.1130  0.2031 -0.3485
 4826SOL    HW126114   0.278   1.929  15.844  1.0182  1.5526 -0.7156
 4826SOL    HW226115   0.170   1.869  15.745 -0.1279  0.4258 -0.5206
 4827SOL     OW26116   4.042   0.584   8.178 -0.0047 -0.0815  0.5329
 4827SOL    HW126117   4.050   0.516   8.111  0.3561 -0.5279  1.0300
 4827SOL    HW226118   4.130   0.621   8.178  0.7609 -1.8808 -0.2520
 4828SOL     OW26119   0.977   4.514   1.395 -0.8138  0.0613  0.1079
 4828SOL    HW126120   1.012   4.526   1.483 -1.9226 -1.7764  0.7907
 4828SOL    HW226121   0.952   4.421   1.394 -0.5593 -0.0085  0.1812
 4829SOL     OW26122   2.624   2.899   8.602  0.4822  0.7302 -0.5227
 4829SOL    HW126123   2.628   2.974   8.661 -1.4248  0.5420 -0.1609
 4829SOL    HW226124   2.689   2.909   8.532 -0.3784  2.1663 -1.1269
 4830SOL     OW26125   1.023   3.801   5.405  0.1852  0.5453  0.0009
 4830SOL    HW126126   1.074   3.875   5.438  0.0289  1.0601 -0.9292
 4830SOL    HW226127   1.011   3.838   5.318 -0.3082  0.3872  0.0003
 4831SOL     OW26128   3.978   2.223  14.074  0.5795 -0.6793 -0.5317
 4831SOL    HW126129   3.976   2.286  14.145 -3.2308 -1.3848 -0.0092
 4831SOL    HW226130   4.059   2.259  14.038  0.1283  0.5988 -0.2576
 4832SOL     OW26131   1.379   4.243   4.941  0.0815  0.3608  0.1950
 4832SOL    HW126132   1.334   4.160   4.925  1.5189 -0.5811  1.0224
 4832SOL    HW226133   1.298   4.294   4.950 -0.0096 -0.0683  1.7294
 4833SOL     OW26134   3.204   1.545  15.186 -0.6336  0.2449  0.3480
 4833SOL    HW126135   3.139   1.613  15.167 -3.8942 -2.1088  3.2497
 4833SOL    HW226136   3.190   1.491  15.108  1.0934 -0.1546  0.3197
 4834SOL     OW26137   1.913   1.305  14.887  0.1757  0.4833 -0.3506
 4834SOL    HW126138   1.838   1.365  14.885 -1.3380 -1.2595  2.6217
 4834SOL    HW226139   1.906   1.265  14.974  0.9003 -0.1768 -0.5939
 4835SOL     OW26140   4.399   2.791  12.737 -0.7096  0.0558 -0.0415
 4835SOL    HW126141   4.422   2.719  12.678 -1.3230 -1.7364  1.8901
 4835SOL    HW226142   4.451   2.860  12.696  1.6132 -1.1957  0.7562
 4836SOL     OW26143   0.892   3.974   0.501  0.2137  0.4026  0.0662
 4836SOL    HW126144   0.970   3.919   0.493 -1.0102 -0.8622 -2.9297
 4836SOL    HW226145   0.850   3.942   0.581 -0.5651  1.1950 -0.0271
 4837SOL     OW26146   2.639   4.453   2.176  0.1694 -0.4373 -0.1105
 4837SOL    HW126147   2.696   4.527   2.157  1.3878 -0.7717  2.1896
 4837SOL    HW226148   2.567   4.474   2.117 -0.0185 -3.3522 -0.8998
 4838SOL     OW26149   3.622   0.442   3.646 -0.3978 -0.0836 -0.2652
 4838SOL    HW126150   3.578   0.425   3.563  0.7079  1.1391 -1.0903
 4838SOL    HW226151   3.572   0.518   3.677  0.5690  0.6455 -0.4799
 4839SOL     OW26152   4.494   3.685   7.196  0.3904 -0.5353  0.1709
 4839SOL    HW126153   4.484   3.590   7.196 -0.6289 -0.4295  0.7272
 4839SOL    HW226154   4.470   3.706   7.286  0.6195  0.8030 -0.0844
 4840SOL     OW26155   1.512   4.132  12.652 -0.0948  0.5782  0.3154
 4840SOL    HW126156   1.488   4.070  12.721 -0.6110  0.8005  0.3370
 4840SOL    HW226157   1.523   4.073  12.577 -0.5834  2.2960 -1.1094
 4841SOL     OW26158   3.195   3.851   7.517 -0.1685  0.6159 -0.2999
 4841SOL    HW126159   3.168   3.815   7.601 -0.5232  1.0140 -0.2443
 4841SOL    HW226160   3.291   3.845   7.519 -0.1354  1.6059  0.6905
 4842SOL     OW26161   2.652   2.037   3.415  0.1965 -0.0737 -0.3088
 4842SOL    HW126162   2.665   1.968   3.349 -0.1614 -2.2345  1.8681
 4842SOL    HW226163   2.613   2.111   3.369 -0.8526 -0.6938 -0.4368
 4843SOL     OW26164   1.618   2.258  16.288  0.6689 -0.5468  0.7438
 4843SOL    HW126165   1.680   2.286  16.354  0.7414 -0.9072  0.8270
 4843SOL    HW226166   1.677   2.212  16.228 -0.1786  0.7652 -1.1210
 4844SOL     OW26167   0.557   2.851   9.966 -0.2623  0.2999  0.0341
 4844SOL    HW126168   0.519   2.923   9.915  0.1244 -1.0201 -2.1305
 4844SOL    HW226169   0.531   2.873  10.055 -2.5729  0.1530 -0.6064
 4845SOL     OW26170   3.441   2.124   3.788  0.2186  0.2732  0.1868
 4845SOL    HW126171   3.387   2.091   3.716 -0.0311  2.0942 -0.4809
 4845SOL    HW226172   3.377   2.137   3.857 -0.3011 -1.0899 -0.0561
 4846SOL     OW26173   2.375   3.485   8.386  0.1899 -0.6203 -0.4977
 4846SOL    HW126174   2.459   3.487   8.340  0.8706 -2.1759  0.6866
 4846SOL    HW226175   2.361   3.580   8.388  0.8261 -0.4935 -1.8808
 4847SOL     OW26176   1.521   1.776   7.515 -0.1706 -0.1032  0.0242
 4847SOL    HW126177   1.428   1.771   7.537 -0.3003 -2.4771 -1.0611
 4847SOL    HW226178   1.549   1.803   7.602  1.9244 -0.2924 -0.5890
 4848SOL     OW26179   0.918   1.198  14.517  0.0058 -0.0276 -0.1080
 4848SOL    HW126180   0.840   1.230  14.471 -0.9433 -0.4510  1.1988
 4848SOL    HW226181   0.919   1.253  14.595  3.8641  0.0537 -0.2504
 4849SOL     OW26182   0.979   3.578   5.527  0.0689  0.1017 -0.0671
 4849SOL    HW126183   1.009   3.621   5.608  1.4227 -1.1001  0.0479
 4849SOL    HW226184   0.983   3.653   5.468  2.2226  1.9212  2.3652
 4850SOL     OW26185   4.691   0.561   8.427 -0.1883 -0.1053 -0.6561
 4850SOL    HW126186   4.631   0.487   8.424  1.8268 -1.8145  1.2774
 4850SOL    HW226187   4.630   0.633   8.446  0.5389  1.3610 -3.8920
 4851SOL     OW26188   2.588   3.416   8.944  0.3118  0.1794 -0.0974
 4851SOL    HW126189   2.496   3.434   8.928 -0.0212 -0.6934  0.8547
 4851SOL    HW226190   2.583   3.324   8.970 -0.0960  0.0613 -0.5898
 4852SOL     OW26191   0.575   4.429   2.555  0.5906 -0.5879 -0.3000
 4852SOL    HW126192   0.647   4.425   2.492  0.1934 -0.3707 -0.7657
 4852SOL    HW226193   0.607   4.355   2.607 -0.4420 -0.1311  0.9740
 4853SOL     OW26194   1.546   0.349   3.427 -0.6516 -0.2294  0.7638
 4853SOL    HW126195   1.547   0.443   3.442 -2.3759  0.3053 -2.4754
 4853SOL    HW226196   1.570   0.352   3.334  0.7533 -0.3734  1.1206
 4854SOL     OW26197   2.719   0.629  16.510  0.2539  0.3283  0.4913
 4854SOL    HW126198   2.804   0.618  16.553  0.3494 -2.4402 -0.4629
 4854SOL    HW226199   2.662   0.604  16.583  0.7933 -1.3653  0.3306
 4855SOL     OW26200   1.284   1.234   8.254 -0.4628  0.1749  0.3061
 4855SOL    HW126201   1.305   1.184   8.175  1.3718  1.1969  0.1423
 4855SOL    HW226202   1.264   1.163   8.315 -1.4572  1.7991  1.8568
 4856SOL     OW26203   3.268   1.182   4.053 -0.4231 -0.1351  0.2561
 4856SOL    HW126204   3.215   1.176   4.133  0.1755 -1.2058  0.5703
 4856SOL    HW226205   3.352   1.196   4.097  0.6267 -0.5569 -1.6133
 4857SOL     OW26206   4.310   3.250   8.960 -0.0087 -0.0776 -0.5300
 4857SOL    HW126207   4.294   3.335   9.002  0.2050 -0.8091  1.0517
 4857SOL    HW226208   4.241   3.204   9.008  0.1457  0.1954 -0.0398
 4858SOL     OW26209   1.262   0.551   2.206  0.1925 -0.1757  0.4207
 4858SOL    HW126210   1.299   0.629   2.247  4.0777 -0.7419 -1.9715
 4858SOL    HW226211   1.337   0.536   2.148  1.4486  1.0204  1.7415
 4859SOL     OW26212   2.177   1.499   1.915 -0.3931 -0.0730 -0.2345
 4859SOL    HW126213   2.269   1.511   1.889 -0.7056 -0.2408 -1.3886
 4859SOL    HW226214   2.145   1.571   1.860  4.0093  1.5466 -0.7036
 4860SOL     OW26215   0.815   2.495   3.171  0.0548 -1.0789 -0.3731
 4860SOL    HW126216   0.908   2.499   3.149 -0.1049  0.6509 -0.7099
 4860SOL    HW226217   0.779   2.541   3.096  0.8197  0.0778 -0.0184
 4861SOL     OW26218   2.113   0.277   6.766 -0.0461  0.0407  0.1933
 4861SOL    HW126219   2.204   0.256   6.786  0.7210  0.5066 -2.8051
 4861SOL    HW226220   2.081   0.322   6.845  0.2242  1.2776 -0.4007
 4862SOL     OW26221   2.899   3.629   0.921 -0.2286 -0.1058  0.0532
 4862SOL    HW126222   2.903   3.628   0.825  2.1817  1.3408  0.1646
 4862SOL    HW226223   2.987   3.654   0.947 -0.0229 -1.0242  0.2518
 4863SOL     OW26224   3.910   0.628  12.720  0.2286 -0.4483 -0.0020
 4863SOL    HW126225   3.943   0.670  12.800  0.4432 -0.0868 -0.2821
 4863SOL    HW226226   3.827   0.670  12.697  1.4531  1.8336 -0.3030
 4864SOL     OW26227   3.019   0.226   6.730 -0.1153  0.5885  0.4076
 4864SOL    HW126228   3.016   0.132   6.713 -0.2546  0.9315 -1.4640
 4864SOL    HW226229   3.064   0.226   6.814  2.2154 -2.1240 -0.8554
 4865SOL     OW26230   1.043   1.826   5.830  0.1519 -0.0760 -0.3911
 4865SOL    HW126231   0.975   1.870   5.881  0.1296 -0.1768 -0.3332
 4865SOL    HW226232   1.080   1.897   5.778  1.9124 -0.5852  0.1393
 4866SOL     OW26233   3.992   2.962   2.036 -0.4488  0.2472  0.1861
 4866SOL    HW126234   3.987   2.884   1.980  1.3191  0.6801 -0.5836
 4866SOL    HW226235   4.021   2.920   2.117  1.3795  0.0627 -0.5644
 4867SOL     OW26236   3.942   4.467   6.610  0.1014  0.1877  0.3878
 4867SOL    HW126237   3.978   4.453   6.698  1.7817  3.0914  0.1800
 4867SOL    HW226238   4.014   4.442   6.554  0.1966 -1.1777  1.1308
 4868SOL     OW26239   1.190   0.992   0.432 -0.2715 -0.2331  0.5611
 4868SOL    HW126240   1.265   1.043   0.401 -0.6512 -0.5395 -0.8885
 4868SOL    HW226241   1.118   1.043   0.394 -1.1882  0.0669  2.7020
 4869SOL     OW26242   1.728   2.906   7.552  0.0255  0.2209  0.5034
 4869SOL    HW126243   1.757   2.904   7.643  1.2931  0.8998  0.1133
 4869SOL    HW226244   1.785   2.970   7.510 -2.0942  2.1695  0.6174
 4870SOL     OW26245   2.121   2.287  16.249  0.2671  0.1257  0.3644
 4870SOL    HW126246   2.094   2.204  16.289 -0.5297  1.7024  3.0600
 4870SOL    HW226247   2.211   2.262  16.226  0.0213 -0.4677  0.0457
 4871SOL     OW26248   0.423   3.530   6.196  0.7971 -0.0189  0.6585
 4871SOL    HW126249   0.369   3.482   6.258  0.3817 -1.1407 -0.5706
 4871SOL    HW226250   0.467   3.454   6.157  1.0891 -0.3825  1.6800
 4872SOL     OW26251   3.049   4.700  17.254  0.2354 -0.3692 -0.1023
 4872SOL    HW126252   3.073   0.052  17.273  0.7124 -0.7356  1.0102
 4872SOL    HW226253   2.956   4.723  17.246 -0.0488 -0.8830  1.8014
 4873SOL     OW26254   2.645   2.294   9.597 -0.2789  0.0635 -0.7709
 4873SOL    HW126255   2.679   2.380   9.571 -0.4227  0.0121 -1.1322
 4873SOL    HW226256   2.711   2.270   9.662  2.9212  2.4506 -3.0608
 4874SOL     OW26257   0.656   1.326   3.199  0.7392  0.0001  0.5970
 4874SOL    HW126258   0.601   1.310   3.276 -0.6205  0.6948 -0.2349
 4874SOL    HW226259   0.735   1.279   3.225 -0.2106 -1.6489  0.5262
 4875SOL     OW26260   1.632   0.103   3.871  0.0781  0.2446  0.0058
 4875SOL    HW126261   1.709   0.140   3.915  0.4774 -1.4315  0.7150
 4875SOL    HW226262   1.645   0.155   3.792 -0.3193  1.1637  0.5463
 4876SOL     OW26263   2.411   3.655   4.145 -0.2831  0.1738 -0.3630
 4876SOL    HW126264   2.430   3.579   4.200  2.7809 -0.5048 -2.3845
 4876SOL    HW226265   2.365   3.603   4.079  0.0335 -0.7772  0.1745
 4877SOL     OW26266   1.549   1.320   5.386  0.3813 -0.2752  0.3588
 4877SOL    HW126267   1.554   1.247   5.325 -0.8553 -0.3090  0.2927
 4877SOL    HW226268   1.601   1.386   5.340 -2.0510  1.3491 -0.0952
 4878SOL     OW26269   1.453   2.832   8.001  0.0808  0.1692 -0.2211
 4878SOL    HW126270   1.461   2.865   7.912 -0.1681  3.2192  0.8715
 4878SOL    HW226271   1.416   2.905   8.050  2.2514  1.0962  0.0363
 4879SOL     OW26272   4.406   2.116   1.562 -0.3384 -0.5363 -0.1251
 4879SOL    HW126273   4.321   2.132   1.522 -1.1154 -2.3559  0.7860
 4879SOL    HW226274   4.453   2.044   1.520  1.0904  0.6328 -0.5109
 4880SOL     OW26275   1.343   1.134  10.232  0.3738  0.2331  1.1210
 4880SOL    HW126276   1.394   1.125  10.312  0.3448  0.9409  1.2182
 4880SOL    HW226277   1.310   1.046  10.214 -1.3228  1.5143 -2.2218
 4881SOL     OW26278   4.443   2.709   6.346 -0.0882  0.6187 -0.2733
 4881SOL    HW126279   4.512   2.670   6.291 -2.1686  0.4665 -2.7570
 4881SOL    HW226280   4.391   2.634   6.373  0.0594  0.9401  0.9002
 4882SOL     OW26281   3.083   1.272   0.181 -0.3875 -0.3065  0.5204
 4882SOL    HW126282   3.012   1.314   0.230 -2.0037  1.2740 -3.1535
 4882SOL    HW226283   3.142   1.345   0.161 -1.7338  0.1571 -1.7421
 4883SOL     OW26284   3.657   0.742  10.656  0.0059  0.5135  0.4840
 4883SOL    HW126285   3.735   0.704  10.696 -1.6611 -2.0655  1.2371
 4883SOL    HW226286   3.586   0.682  10.678  0.6891 -0.6232 -0.4460
 4884SOL     OW26287   0.251   4.519   3.432 -0.6456  0.5591  0.3021
 4884SOL    HW126288   0.184   4.490   3.370 -1.3617  0.9922  0.8775
 4884SOL    HW226289   0.215   4.601   3.464 -0.6738  1.0598 -0.9978
 4885SOL     OW26290   2.988   0.108  17.722  0.0488 -0.4273  0.0282
 4885SOL    HW126291   2.906   0.133  17.680  0.8724  0.9337 -0.8160
 4885SOL    HW226292   2.993   0.021  17.683  2.0314 -0.8312  1.1835
 4886SOL     OW26293   1.663   3.409   2.468  0.1640  0.2860  0.1565
 4886SOL    HW126294   1.675   3.487   2.414  2.4324 -0.2496 -0.1063
 4886SOL    HW226295   1.594   3.364   2.419  0.2237  0.7122 -0.3094
 4887SOL     OW26296   1.640   0.453   2.574  0.4518 -0.2660 -0.4164
 4887SOL    HW126297   1.564   0.487   2.622 -1.0584 -1.8581 -1.6753
 4887SOL    HW226298   1.639   0.360   2.597  0.0394 -0.0346  0.5219
 4888SOL     OW26299   1.700   2.110   9.711  0.4930 -0.5437 -0.5107
 4888SOL    HW126300   1.722   2.027   9.668  2.9600  0.3826 -1.0316
 4888SOL    HW226301   1.647   2.100   9.791 -0.9897 -0.8705 -1.5350
 4889SOL     OW26302   2.957   3.730   7.411  0.1046 -0.3416 -0.1389
 4889SOL    HW126303   2.877   3.780   7.398  1.0634  0.8206 -1.5547
 4889SOL    HW226304   3.023   3.791   7.444  1.6329 -0.8926 -2.1701
 4890SOL     OW26305   0.778   0.994   3.622  0.3065  0.0537 -0.2323
 4890SOL    HW126306   0.795   1.088   3.611 -0.5893  0.3183  0.6813
 4890SOL    HW226307   0.705   0.975   3.564 -1.1344 -0.9409  1.9303
 4891SOL     OW26308   2.600   1.514   7.366  0.0303 -0.2902 -0.2969
 4891SOL    HW126309   2.632   1.552   7.447 -0.4011  0.9582 -0.7149
 4891SOL    HW226310   2.546   1.444   7.403 -1.6391  2.0514  1.6623
 4892SOL     OW26311   4.008   3.125   8.151 -0.9541  0.5425 -0.2697
 4892SOL    HW126312   4.089   3.074   8.151 -0.1006  1.9188  0.1597
 4892SOL    HW226313   4.033   3.201   8.099  0.9352  1.5190  2.0663
 4893SOL     OW26314   4.198   3.789   5.236 -0.1596  0.6506 -0.0383
 4893SOL    HW126315   4.251   3.868   5.225  1.8909 -0.6207  0.9619
 4893SOL    HW226316   4.132   3.821   5.298  1.8308  1.2135  1.7666
 4894SOL     OW26317   2.837   1.175   2.019 -0.1218 -0.0451 -0.3102
 4894SOL    HW126318   2.910   1.236   2.025 -0.1504 -0.0766  0.4196
 4894SOL    HW226319   2.885   1.116   1.961 -1.6586 -0.9904 -0.6246
 4895SOL     OW26320   2.764   2.129   2.761 -0.3498  0.3837 -0.3714
 4895SOL    HW126321   2.767   2.059   2.826 -0.2285  0.4309 -0.3252
 4895SOL    HW226322   2.843   2.108   2.712 -0.4172 -1.5700  0.3558
 4896SOL     OW26323   4.542   0.937   3.664 -0.1627 -0.8252 -0.2111
 4896SOL    HW126324   4.626   0.960   3.703 -0.4299 -0.6015  0.2368
 4896SOL    HW226325   4.516   0.900   3.749  1.6044  0.1260  0.7600
 4897SOL     OW26326   2.277   0.073   5.899 -0.1013  0.1759 -0.2201
 4897SOL    HW126327   2.371   0.076   5.881  0.4338 -1.7842  2.1885
 4897SOL    HW226328   2.262   0.151   5.846  0.5570  0.1640 -0.4227
 4898SOL     OW26329   4.085   1.587   3.074  0.4071  0.4148  0.0646
 4898SOL    HW126330   4.109   1.516   3.133  1.0556  0.9303  0.4207
 4898SOL    HW226331   4.171   1.629   3.066  1.3830 -1.4517  0.8045
 4899SOL     OW26332   3.049   0.142   1.436  0.2405 -0.1244 -0.1901
 4899SOL    HW126333   3.104   0.153   1.513 -0.1639 -0.0134  0.0782
 4899SOL    HW226334   2.964   0.118   1.473 -0.3611  1.4043 -0.6106
 4900SOL     OW26335   3.478   2.283   2.231  0.1187  0.4539  0.3111
 4900SOL    HW126336   3.396   2.275   2.279 -0.3229 -4.1964 -1.1707
 4900SOL    HW226337   3.462   2.237   2.148 -0.6027 -0.8849  1.1986
 4901SOL     OW26338   1.861   0.998   1.521  0.3471  0.7365  0.2358
 4901SOL    HW126339   1.894   1.085   1.500 -1.3481  0.6880 -2.5914
 4901SOL    HW226340   1.939   0.966   1.566  1.3423 -0.9048 -2.6332
 4902SOL     OW26341   0.573   1.544   4.611 -0.2179  0.4209 -0.2284
 4902SOL    HW126342   0.500   1.605   4.602  1.1101  1.8517 -1.4219
 4902SOL    HW226343   0.534   1.490   4.679 -1.1131  2.1205  0.6085
 4903SOL     OW26344   0.015   3.714   7.074  0.6567  0.2363 -0.3654
 4903SOL    HW126345   0.010   3.630   7.120  1.1631  0.4043 -0.0045
 4903SOL    HW226346   4.677   3.749   7.120 -0.2228 -3.5996  1.1352
 4904SOL     OW26347   4.642   3.164  14.990 -0.1617 -0.7280 -0.0637
 4904SOL    HW126348   4.602   3.103  15.052 -1.4912  1.1143  0.8760
 4904SOL    HW226349   4.583   3.157  14.916 -1.9032  0.5209  1.2263
 4905SOL     OW26350   0.823   2.225   6.863  0.0323 -0.2716  0.5885
 4905SOL    HW126351   0.850   2.210   6.953 -1.9195 -1.4166  0.9872
 4905SOL    HW226352   0.785   2.312   6.877 -1.2213 -0.6962 -0.1558
 4906SOL     OW26353   2.747   3.637   2.101 -0.2756  0.1187 -0.0758
 4906SOL    HW126354   2.781   3.718   2.140  0.4230 -0.9308  1.5262
 4906SOL    HW226355   2.656   3.647   2.074 -0.7728 -2.0948  0.7558
 4907SOL     OW26356   1.075   0.903   4.890  0.2359 -0.1217 -0.0610
 4907SOL    HW126357   1.068   0.839   4.961 -0.7450  0.7836  0.6593
 4907SOL    HW226358   1.151   0.955   4.917  0.3932  0.4791 -1.6325
 4908SOL     OW26359   2.710   3.062   3.401 -0.4514  0.1900 -0.0425
 4908SOL    HW126360   2.802   3.083   3.386 -0.1075 -2.2110 -1.1369
 4908SOL    HW226361   2.685   3.128   3.466  2.6283 -1.4537  2.7952
 4909SOL     OW26362   2.676   0.026   9.916 -0.2522  0.4733 -0.1788
 4909SOL    HW126363   2.762   4.725   9.904 -0.5071 -0.7930  2.0747
 4909SOL    HW226364   2.660   0.065   9.830  1.0275 -0.0515 -0.6449
 4910SOL     OW26365   0.702   1.492   2.224 -0.0489  0.3917  0.9033
 4910SOL    HW126366   0.648   1.569   2.242 -1.0799  0.3004 -1.8851
 4910SOL    HW226367   0.783   1.539   2.203 -0.4097  0.8700  0.5787
 4911SOL     OW26368   1.016   0.618   8.451  0.2281  0.6270 -0.2903
 4911SOL    HW126369   0.942   0.595   8.394 -1.4186  0.5492  1.8738
 4911SOL    HW226370   1.058   0.686   8.399  0.5195  0.4635 -0.2675
 4912SOL     OW26371   0.788   4.319  14.082 -0.3943 -0.1478  0.4960
 4912SOL    HW126372   0.695   4.333  14.096 -0.3231 -0.2932  1.1005
 4912SOL    HW226373   0.793   4.314  13.986 -0.7417  1.2548  0.4055
 4913SOL     OW26374   1.563   1.747   8.275  0.0967  0.5229 -0.3726
 4913SOL    HW126375   1.541   1.755   8.368  1.8231  0.3177  0.0572
 4913SOL    HW226376   1.591   1.836   8.256 -0.7676  1.4327  2.6570
 4914SOL     OW26377   2.249   3.217   4.351 -0.6999  0.4376  0.1122
 4914SOL    HW126378   2.253   3.161   4.429 -2.6613  1.6511  1.0748
 4914SOL    HW226379   2.157   3.239   4.339 -0.6897  0.8354  0.7589
 4915SOL     OW26380   3.950   2.449   3.724 -0.5187  0.1945  0.9310
 4915SOL    HW126381   3.995   2.513   3.779  0.3661  0.5961 -0.2564
 4915SOL    HW226382   4.030   2.404   3.694 -0.8540  1.3186 -1.5819
 4916SOL     OW26383   1.965   1.933  15.782 -0.2595 -0.3022  0.0615
 4916SOL    HW126384   1.968   1.948  15.688 -1.1353 -0.6479 -0.0246
 4916SOL    HW226385   2.044   1.985  15.797 -0.9007  0.1700  1.8522
 4917SOL     OW26386   1.951   2.116  11.741  0.2893 -0.0628  0.3534
 4917SOL    HW126387   1.933   2.036  11.691 -1.8085 -0.1121  1.1632
 4917SOL    HW226388   2.041   2.102  11.769  1.3855  3.2317 -1.5504
 4918SOL     OW26389   0.815   1.104   6.161  0.3461 -0.3694 -0.3465
 4918SOL    HW126390   0.904   1.132   6.179  0.1448 -0.8175  1.2959
 4918SOL    HW226391   0.836   1.029   6.105  0.4564 -0.2488 -0.4657
 4919SOL     OW26392   3.956   1.078   4.859  0.0434 -0.5806 -0.2570
 4919SOL    HW126393   3.941   1.173   4.850  2.7322 -0.1708 -0.3946
 4919SOL    HW226394   3.954   1.044   4.769 -0.6827 -1.6461  0.1661
 4920SOL     OW26395   2.736   3.979  13.728 -0.3840  0.5341  0.0214
 4920SOL    HW126396   2.648   3.949  13.751 -0.5858 -0.0366 -1.5490
 4920SOL    HW226397   2.747   3.947  13.639  1.8740 -1.0583  0.8598
 4921SOL     OW26398   3.627   3.299   3.191  0.7588 -0.8129 -0.3421
 4921SOL    HW126399   3.612   3.212   3.154 -0.6682 -0.6082 -0.2687
 4921SOL    HW226400   3.706   3.323   3.142  1.1223 -1.3103  0.0150
 4922SOL     OW26401   2.533   0.315   9.120  0.1431  0.2332  0.1638
 4922SOL    HW126402   2.581   0.367   9.184 -1.6951  3.0268 -0.7003
 4922SOL    HW226403   2.442   0.342   9.134  0.5266  1.4772  0.3250
 4923SOL     OW26404   3.207   2.376   8.674 -0.6577  0.4021 -0.1646
 4923SOL    HW126405   3.143   2.306   8.684 -2.1440  1.6305 -1.0700
 4923SOL    HW226406   3.177   2.441   8.737 -1.2506 -0.8432  0.8473
 4924SOL     OW26407   1.355   3.637   2.717  0.2016  0.2182 -0.7914
 4924SOL    HW126408   1.448   3.617   2.704 -0.0484 -2.1114  1.1257
 4924SOL    HW226409   1.338   3.576   2.789 -0.7763  2.6904  1.0522
 4925SOL     OW26410   1.602   0.189   2.681 -0.6802 -0.2138 -0.5782
 4925SOL    HW126411   1.597   0.129   2.756 -0.5055  0.6586  0.1211
 4925SOL    HW226412   1.517   0.166   2.643 -1.6124 -1.2704  2.1503
 4926SOL     OW26413   4.398   1.079   1.476  0.0900 -0.0834 -0.2365
 4926SOL    HW126414   4.478   1.125   1.450  0.6433 -1.8133 -1.5339
 4926SOL    HW226415   4.384   1.127   1.558  0.7960  1.1308 -0.8098
 4927SOL     OW26416   2.646   1.038   2.223  0.3027 -0.8831  0.0303
 4927SOL    HW126417   2.737   1.054   2.246 -0.9755  2.9671  2.4666
 4927SOL    HW226418   2.643   1.063   2.130 -1.0406 -0.7117  0.1138
 4928SOL     OW26419   4.372   2.191  13.545 -0.4362  0.1615  0.3136
 4928SOL    HW126420   4.333   2.123  13.600 -2.3014 -0.3332 -1.6384
 4928SOL    HW226421   4.294   2.203  13.491 -0.0692  0.5388 -0.1303
 4929SOL     OW26422   3.054   3.956   4.802  0.2698 -0.5680  0.4380
 4929SOL    HW126423   2.965   3.930   4.781 -0.1808  2.2475 -1.1292
 4929SOL    HW226424   3.032   4.048   4.812 -0.1232 -0.6720  0.5037
 4930SOL     OW26425   0.481   1.813  14.309  0.0818 -0.4726  0.5770
 4930SOL    HW126426   0.459   1.901  14.340 -0.8428 -0.2791 -0.6178
 4930SOL    HW226427   0.527   1.787  14.389  1.1255 -0.2495  0.0477
 4931SOL     OW26428   3.918   0.195   3.242  0.0407  0.6520 -0.0731
 4931SOL    HW126429   3.983   0.253   3.202  1.6474 -0.5270  0.8471
 4931SOL    HW226430   3.968   0.116   3.262 -2.1167 -0.8229 -0.5821
 4932SOL     OW26431   1.335   1.927   5.420 -0.1874  0.1312 -0.1204
 4932SOL    HW126432   1.378   1.929   5.505 -0.0591 -2.5973 -0.1092
 4932SOL    HW226433   1.265   1.865   5.443 -0.6628  0.3444 -0.9841
 4933SOL     OW26434   3.683   4.057   4.778 -0.0007 -0.2899 -0.5457
 4933SOL    HW126435   3.773   4.051   4.811  0.0818  0.4862 -0.6256
 4933SOL    HW226436   3.683   3.976   4.727  0.7416  1.1837 -2.8901
 4934SOL     OW26437   1.652   4.218  10.407  0.7902 -0.0085  0.3017
 4934SOL    HW126438   1.587   4.227  10.477  0.4054  0.6718 -0.1520
 4934SOL    HW226439   1.595   4.172  10.345 -1.9223  1.7590  1.4977
 4935SOL     OW26440   1.776   3.390   3.373  0.7716 -0.1358  0.0192
 4935SOL    HW126441   1.684   3.387   3.346  0.7807 -0.9708  0.0767
 4935SOL    HW226442   1.779   3.326   3.444  1.0313 -0.4389 -0.2653
 4936SOL     OW26443   3.247   0.613  12.951  0.0558  0.9539 -0.2482
 4936SOL    HW126444   3.270   0.521  12.940 -0.6168  1.0871 -2.7161
 4936SOL    HW226445   3.247   0.642  12.860 -0.2050 -0.7049 -0.7650
 4937SOL     OW26446   2.259   2.250   5.915 -0.1903 -0.0128 -0.1538
 4937SOL    HW126447   2.223   2.338   5.911 -0.8087 -0.3263 -1.3801
 4937SOL    HW226448   2.291   2.252   5.824 -0.2339 -0.6368 -0.1856
 4938SOL     OW26449   3.156   0.204   4.149 -0.3614 -0.3813  0.2892
 4938SOL    HW126450   3.181   0.244   4.232 -0.8524 -0.9031  0.6856
 4938SOL    HW226451   3.086   0.145   4.175 -1.7675  0.3734 -1.7095
 4939SOL     OW26452   4.456   3.186   8.598  0.2964  0.0859 -0.3979
 4939SOL    HW126453   4.387   3.184   8.532  0.0504  2.9145 -0.1857
 4939SOL    HW226454   4.461   3.279   8.616  1.7974 -0.2713  1.0499
 4940SOL     OW26455   0.174   1.502  13.455 -0.5063 -0.0896  0.6837
 4940SOL    HW126456   0.220   1.530  13.535  0.1112  1.3942 -0.2030
 4940SOL    HW226457   0.233   1.435  13.420  0.8744  0.5989  1.6321
 4941SOL     OW26458   3.266   2.645   5.828  0.5107 -0.1372 -0.2520
 4941SOL    HW126459   3.360   2.627   5.824  0.7368  1.4469 -1.8309
 4941SOL    HW226460   3.251   2.641   5.734 -2.1277 -1.1270  0.2146
 4942SOL     OW26461   4.007   1.921  10.652  0.4229 -0.0589 -0.2345
 4942SOL    HW126462   3.957   1.913  10.733  0.7018  0.0130 -0.0580
 4942SOL    HW226463   3.932   1.918  10.592 -1.3654 -0.8889  2.0439
 4943SOL     OW26464   2.358   2.874  13.572  0.4738  0.0274 -0.3112
 4943SOL    HW126465   2.418   2.805  13.545  0.5764  1.3335 -3.3987
 4943SOL    HW226466   2.396   2.944  13.518 -0.7757  2.8415  2.4465
 4944SOL     OW26467   2.690   1.173  14.280 -0.3338  0.3942 -0.2588
 4944SOL    HW126468   2.699   1.233  14.206 -3.3779  1.6065  0.3485
 4944SOL    HW226469   2.761   1.206  14.335 -0.5831 -2.3532  1.7345
 4945SOL     OW26470   3.285   1.344   4.979  0.3187  0.2866  0.9892
 4945SOL    HW126471   3.312   1.260   5.015 -1.3873  0.3056  2.2877
 4945SOL    HW226472   3.286   1.390   5.062  2.3794 -0.1615  1.2033
 4946SOL     OW26473   4.089   3.978   6.116  0.1043 -0.0137 -0.6260
 4946SOL    HW126474   4.113   4.070   6.112 -1.8223  0.4922 -0.5098
 4946SOL    HW226475   4.128   3.947   6.034 -0.3232 -1.5603 -0.2378
 4947SOL     OW26476   2.365   2.911   6.281 -0.3803  0.2268 -0.0369
 4947SOL    HW126477   2.398   2.823   6.298 -0.4636  0.3377  0.7043
 4947SOL    HW226478   2.370   2.932   6.374  0.4352  2.7242 -0.6524
 4948SOL     OW26479   2.697   0.353  11.246  0.1879  0.2551 -0.0605
 4948SOL    HW126480   2.679   0.351  11.152 -0.3362 -0.9702  0.0573
 4948SOL    HW226481   2.623   0.296  11.271 -0.7925  0.9808 -1.3258
 4949SOL     OW26482   1.081   2.882   1.827 -0.3186 -0.3429  0.1701
 4949SOL    HW126483   1.105   2.864   1.736 -0.8704  0.5761 -0.1581
 4949SOL    HW226484   1.036   2.965   1.814 -0.2624 -0.0431  1.8758
 4950SOL     OW26485   4.629   2.320  10.985 -0.3405  0.3379 -0.0062
 4950SOL    HW126486   4.563   2.283  11.042 -0.0080  0.1253  0.2404
 4950SOL    HW226487   4.575   2.321  10.906 -0.9352  0.7281  0.4117
 4951SOL     OW26488   3.528   2.375   3.640  0.3740 -0.1688  0.4895
 4951SOL    HW126489   3.577   2.456   3.657  0.0601 -0.1879  1.4952
 4951SOL    HW226490   3.586   2.303   3.666  1.4375  0.0902 -1.1960
 4952SOL     OW26491   1.403   0.581   3.763  0.2302 -0.4970  0.1996
 4952SOL    HW126492   1.466   0.523   3.805  0.9651  0.4118  0.3312
 4952SOL    HW226493   1.439   0.595   3.675 -0.7499  0.7409 -0.0098
 4953SOL     OW26494   3.910   4.106   9.481 -0.1745 -0.4660 -0.1374
 4953SOL    HW126495   3.863   4.025   9.504  2.4283 -1.0075  3.1954
 4953SOL    HW226496   3.936   4.119   9.572  1.9912  0.3688 -0.8904
 4954SOL     OW26497   0.967   3.026   6.348  0.4936  0.0501  0.3967
 4954SOL    HW126498   0.901   2.957   6.334 -1.2917  1.4031  2.1423
 4954SOL    HW226499   0.921   3.102   6.383  0.1557 -0.9824  2.1952
 4955SOL     OW26500   1.014   0.705   5.077 -0.3670  0.0039  0.5639
 4955SOL    HW126501   1.022   0.610   5.065  0.5803  0.2009 -0.3711
 4955SOL    HW226502   1.047   0.712   5.166 -0.3475 -1.2458  0.6581
 4956SOL     OW26503   0.174   2.643  11.663  0.1688 -0.0241 -0.0241
 4956SOL    HW126504   0.248   2.646  11.603 -1.7394 -0.8628 -2.4438
 4956SOL    HW226505   0.096   2.656  11.609 -1.2129 -0.0043  1.9901
 4957SOL     OW26506   2.995   3.083   1.888  0.0478  0.3074  0.6825
 4957SOL    HW126507   3.089   3.097   1.901 -0.3584  1.7882  1.9236
 4957SOL    HW226508   2.982   3.140   1.812 -2.6169 -1.3762 -0.1293
 4958SOL     OW26509   3.700   3.930   2.395  0.3361 -0.3019 -0.6538
 4958SOL    HW126510   3.784   3.914   2.438  0.0396  1.3645  0.5628
 4958SOL    HW226511   3.651   3.857   2.433  0.3032 -0.1303 -0.3619
 4959SOL     OW26512   1.302   0.910   4.675  0.0102  0.2144 -0.3861
 4959SOL    HW126513   1.290   0.849   4.748 -0.0797 -0.6984 -1.1588
 4959SOL    HW226514   1.288   0.992   4.722  0.0762 -0.1291  0.2331
 4960SOL     OW26515   3.650   1.338   1.091  0.2670  0.5800 -0.1971
 4960SOL    HW126516   3.627   1.299   1.176  2.6018 -3.3727 -1.3779
 4960SOL    HW226517   3.669   1.429   1.111  1.0942  0.7740 -1.9064
 4961SOL     OW26518   1.132   0.855   3.267  0.7178  0.4901 -0.4501
 4961SOL    HW126519   1.046   0.837   3.304  0.6547 -0.9963 -1.2716
 4961SOL    HW226520   1.114   0.870   3.174  0.8829 -2.7549 -1.0023
 4962SOL     OW26521   0.273   2.680   6.700  0.1314 -0.3774  0.7452
 4962SOL    HW126522   0.235   2.593   6.713 -0.4282 -0.3596 -0.7037
 4962SOL    HW226523   0.208   2.732   6.747 -0.3427 -1.2162  1.0217
 4963SOL     OW26524   3.284   4.355   8.217 -0.2496  0.4864 -0.1268
 4963SOL    HW126525   3.228   4.286   8.182 -0.3767  0.8829 -0.7066
 4963SOL    HW226526   3.367   4.308   8.210  0.0333  0.9143  0.3645
 4964SOL     OW26527   3.740   0.255  13.097 -0.4061 -0.2855  0.8498
 4964SOL    HW126528   3.681   0.327  13.075  1.5780  1.2748  0.6207
 4964SOL    HW226529   3.676   0.187  13.118 -1.6450  0.6430  0.0679
 4965SOL     OW26530   3.505   2.239   1.548 -0.0886  0.0789  0.3431
 4965SOL    HW126531   3.597   2.252   1.522 -0.0207 -1.8202 -0.3886
 4965SOL    HW226532   3.493   2.309   1.613 -1.6508 -1.0387  1.2433
 4966SOL     OW26533   0.313   1.961   2.850  0.0690  0.6613  0.1981
 4966SOL    HW126534   0.232   1.953   2.800 -0.8613  1.1107  1.6425
 4966SOL    HW226535   0.365   2.025   2.800  2.1038 -1.6039 -0.5769
 4967SOL     OW26536   2.105   4.576   9.131  0.3034 -0.3874  0.1943
 4967SOL    HW126537   2.177   4.524   9.168  0.5212 -0.0999  0.1761
 4967SOL    HW226538   2.040   4.561   9.199  1.9485  1.1661  2.0973
 4968SOL     OW26539   0.889   4.460   0.334 -0.2179  0.0622 -0.8059
 4968SOL    HW126540   0.896   4.445   0.428 -2.4620  0.4436 -0.5929
 4968SOL    HW226541   0.980   4.481   0.314  0.4796 -0.2192  2.0384
 4969SOL     OW26542   0.229   3.493   2.720  0.6226 -0.5951  0.5536
 4969SOL    HW126543   0.249   3.499   2.626  1.4819  1.6513  0.8854
 4969SOL    HW226544   0.176   3.413   2.720  1.5145 -1.1911  0.4697
 4970SOL     OW26545   1.000   3.370   4.726  0.4040 -0.1199 -0.1651
 4970SOL    HW126546   0.946   3.441   4.690  2.7207  1.3419 -0.7500
 4970SOL    HW226547   0.943   3.330   4.792 -0.1320  1.2255  0.1962
 4971SOL     OW26548   0.622   4.269  15.626  0.2541 -0.1813 -0.6151
 4971SOL    HW126549   0.553   4.222  15.579 -0.3989 -0.3720  0.5254
 4971SOL    HW226550   0.600   4.229  15.711  0.0918  1.8013  0.2736
 4972SOL     OW26551   0.637   4.523   6.581 -0.0076 -0.0219 -0.0559
 4972SOL    HW126552   0.551   4.498   6.546  0.1733 -1.1545  0.2901
 4972SOL    HW226553   0.637   4.453   6.647  1.5150 -1.7172 -1.8701
 4973SOL     OW26554   3.112   1.837   8.570  0.0288  0.3800 -0.1297
 4973SOL    HW126555   3.126   1.932   8.563  0.6699  0.1770 -1.5052
 4973SOL    HW226556   3.108   1.812   8.478  0.6561  0.6076 -0.2205
 4974SOL     OW26557   0.794   3.629  10.936  0.0045 -0.0915  0.2165
 4974SOL    HW126558   0.874   3.642  10.988  1.9915  0.1279 -2.8914
 4974SOL    HW226559   0.745   3.557  10.975  1.4549 -0.4762  1.3536
 4975SOL     OW26560   2.940   1.502   2.642  0.5492  0.0525 -0.3716
 4975SOL    HW126561   2.862   1.508   2.586  0.5241 -0.4431 -0.3898
 4975SOL    HW226562   2.895   1.542   2.717  0.1228  0.1084 -0.6564
 4976SOL     OW26563   2.647   1.284   7.606 -0.4673  0.4850 -0.2016
 4976SOL    HW126564   2.669   1.377   7.607  3.3101 -0.4155 -0.2587
 4976SOL    HW226565   2.732   1.247   7.629 -0.5846  1.5976  2.0502
 4977SOL     OW26566   1.050   3.451  10.080  0.5430 -0.0610  0.2397
 4977SOL    HW126567   0.988   3.380  10.098  1.9628 -1.7416 -1.3679
 4977SOL    HW226568   1.131   3.421  10.122  0.1768  0.3271  1.2178
 4978SOL     OW26569   0.656   3.579   1.837 -0.5594  0.6820  0.5963
 4978SOL    HW126570   0.615   3.546   1.917 -0.8847  0.0552  0.1747
 4978SOL    HW226571   0.746   3.550   1.855 -1.3646 -1.5468  1.0968
 4979SOL     OW26572   1.641   0.659   7.666 -0.0795  0.4954  0.3801
 4979SOL    HW126573   1.602   0.683   7.582 -0.5504  2.8373  1.2726
 4979SOL    HW226574   1.632   0.564   7.666 -0.0857  0.5123 -1.9549
 4980SOL     OW26575   1.237   3.156   7.676  0.0953  0.5923 -0.0543
 4980SOL    HW126576   1.293   3.110   7.613  1.3430  4.9388 -2.0515
 4980SOL    HW226577   1.304   3.218   7.704  0.0817  0.0168  1.2668
 4981SOL     OW26578   3.136   2.601  11.551 -0.4929  0.1236 -0.7886
 4981SOL    HW126579   3.137   2.600  11.455  0.7450 -0.5874 -0.7515
 4981SOL    HW226580   3.209   2.661  11.563 -0.7530  0.5429 -1.2591
 4982SOL     OW26581   1.092   2.267   6.258 -0.0665 -0.6630  0.0729
 4982SOL    HW126582   1.110   2.345   6.205 -0.8961  0.1922  1.0414
 4982SOL    HW226583   1.084   2.210   6.181 -0.6432 -3.4213  2.1675
 4983SOL     OW26584   0.784   3.134   5.859  0.2544  0.5981 -0.2232
 4983SOL    HW126585   0.763   3.190   5.784 -3.2642  0.1477  0.4121
 4983SOL    HW226586   0.872   3.163   5.882  0.0720 -0.1812  1.4407
 4984SOL     OW26587   1.697   2.853  14.755  0.5300  0.1778 -0.1232
 4984SOL    HW126588   1.608   2.846  14.788  0.2940  0.0637 -0.7783
 4984SOL    HW226589   1.753   2.831  14.830  0.3683  2.0023  0.5280
 4985SOL     OW26590   4.437   3.193  11.842 -0.3852 -0.1323 -0.0596
 4985SOL    HW126591   4.355   3.236  11.819 -0.4673 -1.2507 -1.8800
 4985SOL    HW226592   4.424   3.163  11.931 -0.1485  0.5313  0.2018
 4986SOL     OW26593   2.101   4.049   3.219 -0.0220 -0.0542  0.0723
 4986SOL    HW126594   2.060   3.963   3.212  1.3237 -0.6955  0.0851
 4986SOL    HW226595   2.026   4.099   3.188 -0.3260 -1.3210 -1.2367
 4987SOL     OW26596   3.488   4.107  17.509 -0.5295 -0.0335  0.5020
 4987SOL    HW126597   3.417   4.061  17.554 -2.0560  0.0635 -1.7950
 4987SOL    HW226598   3.561   4.088  17.568  0.2825  1.9762  0.1435
 4988SOL     OW26599   2.353   4.111   6.168 -0.6190 -0.0781 -0.3791
 4988SOL    HW126600   2.406   4.048   6.118  0.9188 -0.8525  2.2543
 4988SOL    HW226601   2.433   4.159   6.187 -0.5445 -0.2885 -0.1545
 4989SOL     OW26602   1.180   1.267   8.768 -0.2356  0.2647 -0.2029
 4989SOL    HW126603   1.194   1.347   8.717 -1.6748  0.4751 -0.2627
 4989SOL    HW226604   1.115   1.229   8.709  0.6944 -1.3956 -0.1676
 4990SOL     OW26605   0.946   0.535   3.573 -0.0142 -1.0692  0.4871
 4990SOL    HW126606   1.010   0.545   3.502  2.4580  2.2110  3.1335
 4990SOL    HW226607   0.873   0.581   3.532  0.6508 -0.6361 -0.2067
 4991SOL     OW26608   1.729   3.725   4.801 -0.0567  0.2053  0.1799
 4991SOL    HW126609   1.821   3.740   4.823  0.0960  0.9266 -0.9369
 4991SOL    HW226610   1.676   3.784   4.854 -1.0321  0.0179 -0.5858
 4992SOL     OW26611   0.642   4.372  13.506 -0.2815  0.1868 -0.2943
 4992SOL    HW126612   0.557   4.337  13.479  0.6459 -0.6000 -2.1790
 4992SOL    HW226613   0.694   4.351  13.429 -0.0077 -0.7532  0.1445
 4993SOL     OW26614   3.939   1.291   9.250  0.1566 -0.2230  0.3023
 4993SOL    HW126615   3.932   1.348   9.174  0.1435  1.9650  1.9425
 4993SOL    HW226616   3.892   1.339   9.319  0.9170  0.3166  0.4479
 4994SOL     OW26617   1.022   0.594   8.013  0.8826  0.0488  0.2788
 4994SOL    HW126618   0.936   0.552   8.016  0.6655  0.6259  1.8614
 4994SOL    HW226619   1.016   0.642   8.095 -0.9759 -1.8201  1.2214
 4995SOL     OW26620   1.132   1.326   2.280  0.0841  0.3724  0.1700
 4995SOL    HW126621   1.077   1.405   2.276 -0.7961 -0.2456 -0.0512
 4995SOL    HW226622   1.074   1.270   2.228 -0.1962  0.3902  0.4546
 4996SOL     OW26623   2.876   0.748  16.869  0.1349 -0.2657 -0.2115
 4996SOL    HW126624   2.945   0.813  16.854 -1.8149  1.9275  0.1943
 4996SOL    HW226625   2.820   0.771  16.795  1.4762  0.6417 -0.9382
 4997SOL     OW26626   1.564   0.800   3.021 -0.2525  0.0335 -0.6459
 4997SOL    HW126627   1.641   0.854   3.039  0.8577 -1.4895 -0.8301
 4997SOL    HW226628   1.559   0.741   3.096 -1.9096  0.9000 -0.0580
 4998SOL     OW26629   2.992   3.037   7.830 -0.2895  0.0820 -0.2763
 4998SOL    HW126630   2.924   2.976   7.860  1.3706 -0.1595  2.9351
 4998SOL    HW226631   2.963   3.047   7.739 -2.0595  1.0021  0.3824
 4999SOL     OW26632   3.982   4.329   2.464  0.0814 -0.2383 -0.4455
 4999SOL    HW126633   3.892   4.362   2.455  0.3354  0.6506  0.2599
 4999SOL    HW226634   4.010   4.330   2.372  0.4790  1.5210 -0.3091
 5000SOL     OW26635   3.530   1.716  16.704 -0.5060 -0.2098  0.1979
 5000SOL    HW126636   3.604   1.677  16.659 -0.6478 -0.6162  0.3202
 5000SOL    HW226637   3.476   1.752  16.634  0.7241  0.9157 -0.1759
 5001SOL     OW26638   2.336   1.984   9.334 -0.1624 -0.5371 -0.2741
 5001SOL    HW126639   2.367   2.002   9.245  0.0037 -0.1185 -0.1293
 5001SOL    HW226640   2.394   2.042   9.383 -0.4726  1.2271 -2.0025
 5002SOL     OW26641   1.568   0.259   0.432 -0.7712 -0.4385  0.1077
 5002SOL    HW126642   1.497   0.323   0.421 -0.7349 -0.7944 -2.2035
 5002SOL    HW226643   1.584   0.266   0.526 -0.3999  1.8301 -0.1166
 5003SOL     OW26644   2.925   2.680   4.039  0.0479 -0.5945 -0.1191
 5003SOL    HW126645   2.925   2.715   4.128 -2.9897 -1.9360  0.4284
 5003SOL    HW226646   2.837   2.708   4.012 -0.5145 -0.5767  1.7006
 5004SOL     OW26647   2.163   3.862  16.468  0.6486 -0.0358 -0.0339
 5004SOL    HW126648   2.192   3.938  16.418  2.0069 -0.7069 -0.2578
 5004SOL    HW226649   2.231   3.800  16.441 -0.3048 -1.0063 -0.1775
 5005SOL     OW26650   2.379   1.433  13.046 -0.1816  0.1961 -0.0626
 5005SOL    HW126651   2.469   1.422  13.078  0.2871  0.3960 -1.3294
 5005SOL    HW226652   2.348   1.361  13.102 -0.5264  1.5778  1.5412
 5006SOL     OW26653   1.490   0.180  12.741 -0.1440  0.5237 -0.1290
 5006SOL    HW126654   1.571   0.224  12.764  1.2805 -1.9704 -0.3434
 5006SOL    HW226655   1.449   0.252  12.693  1.0116  0.5404 -1.1141
 5007SOL     OW26656   3.657   3.788   2.836 -0.0049  0.2346  0.3717
 5007SOL    HW126657   3.655   3.856   2.903  1.6959 -1.3012  1.9814
 5007SOL    HW226658   3.701   3.835   2.766 -1.3244 -0.1972 -0.7513
 5008SOL     OW26659   0.792   0.924   5.294  0.5345  0.4274 -0.2314
 5008SOL    HW126660   0.882   0.909   5.320 -0.0127 -1.3844  0.6475
 5008SOL    HW226661   0.794   1.010   5.253  0.3801 -0.4237 -2.0243
 5009SOL     OW26662   4.432   3.386  16.569  0.0716  0.5420  0.4249
 5009SOL    HW126663   4.433   3.310  16.510 -0.4774 -0.0244  1.1328
 5009SOL    HW226664   4.479   3.455  16.522  0.2786  0.4718  0.5272
 5010SOL     OW26665   3.096   0.167  15.118 -0.1887  0.5003  0.1941
 5010SOL    HW126666   3.057   0.238  15.169 -1.8885 -1.0056  0.9843
 5010SOL    HW226667   3.083   0.100  15.185 -1.1993 -2.3873 -2.8585
 5011SOL     OW26668   4.136   1.925  11.489 -0.2018 -0.0168 -0.2349
 5011SOL    HW126669   4.145   2.019  11.471 -1.4794  0.1950  0.2472
 5011SOL    HW226670   4.064   1.893  11.435 -2.0818  1.1838  1.5587
 5012SOL     OW26671   2.115   1.735  17.064  0.4015  0.6688 -0.4973
 5012SOL    HW126672   2.063   1.815  17.072  0.9549  1.0072 -0.2242
 5012SOL    HW226673   2.095   1.701  17.152 -0.9052 -1.7674 -1.7405
 5013SOL     OW26674   1.602   1.655   8.964  0.8086 -0.1165 -0.0318
 5013SOL    HW126675   1.655   1.643   9.042  1.0690 -0.7503 -0.3013
 5013SOL    HW226676   1.535   1.587   8.979 -0.5819  1.3634  0.4710
 5014SOL     OW26677   0.296   0.440   1.913  0.1345 -0.1701  0.5914
 5014SOL    HW126678   0.326   0.350   1.908 -0.1510 -0.3132  1.3625
 5014SOL    HW226679   0.374   0.488   1.943 -0.0404  0.9726 -0.7885
 5015SOL     OW26680   4.551   3.705   1.069 -0.4770 -0.1294 -0.0563
 5015SOL    HW126681   4.546   3.779   1.009  3.2827  0.0312 -0.1862
 5015SOL    HW226682   4.605   3.741   1.139  0.3242  0.6772 -1.1010
 5016SOL     OW26683   1.934   1.778   9.030 -0.1427  0.2512  0.2379
 5016SOL    HW126684   2.014   1.830   9.038 -1.4475  1.6168  4.0574
 5016SOL    HW226685   1.937   1.716   9.103 -1.3397 -0.7914 -0.5886
 5017SOL     OW26686   0.099   1.941  10.183 -0.3342 -0.4789  0.4200
 5017SOL    HW126687   0.068   1.902  10.265  1.5281 -1.5849  0.6068
 5017SOL    HW226688   0.189   1.958  10.209 -0.4044 -2.1878  1.7429
 5018SOL     OW26689   4.128   0.465  12.729  0.2663  0.4807  0.0747
 5018SOL    HW126690   4.078   0.390  12.762 -0.1508  0.3925 -0.7410
 5018SOL    HW226691   4.050   0.512  12.699 -0.7102 -1.2996 -0.1967
 5019SOL     OW26692   2.755   0.716   8.691 -0.4474 -0.3149 -0.8141
 5019SOL    HW126693   2.773   0.797   8.642 -0.3358 -0.9581 -1.8244
 5019SOL    HW226694   2.826   0.722   8.755  0.5103 -0.5190 -1.8683
 5020SOL     OW26695   4.253   3.965  13.323 -0.7842  0.6179  0.0138
 5020SOL    HW126696   4.288   4.047  13.290 -0.8574  0.6897  0.1162
 5020SOL    HW226697   4.172   3.993  13.366 -0.9283 -1.2806  0.9705
 5021SOL     OW26698   2.611   4.153   6.939  0.5119 -0.2731  0.1803
 5021SOL    HW126699   2.706   4.157   6.933  0.6332 -1.5662  1.3583
 5021SOL    HW226700   2.594   4.062   6.963 -2.6520  0.4756  0.7929
 5022SOL     OW26701   0.087   2.033  11.054  0.1579 -0.0555  0.0597
 5022SOL    HW126702   0.006   2.025  11.004  0.3952  1.4627 -0.5864
 5022SOL    HW226703   0.142   1.969  11.009  0.7369 -0.6507  1.6151
 5023SOL     OW26704   0.547   4.170  13.122  0.2356  0.7174  0.2972
 5023SOL    HW126705   0.558   4.186  13.028 -1.3154 -0.3635 -0.0671
 5023SOL    HW226706   0.502   4.085  13.130  2.9929 -0.6888  0.7580
 5024SOL     OW26707   0.552   4.453   2.982 -0.4216  0.4505  0.2972
 5024SOL    HW126708   0.643   4.481   2.973  0.1252 -0.7488  2.0083
 5024SOL    HW226709   0.512   4.522   3.034 -2.4326  0.9302 -1.9420
 5025SOL     OW26710   4.554   2.240  11.543  0.0074  0.3330  0.1960
 5025SOL    HW126711   4.615   2.168  11.556  1.3287  1.1334 -1.5272
 5025SOL    HW226712   4.542   2.269  11.633  2.1065  1.2580  0.1751
 5026SOL     OW26713   4.022   2.831   4.875  0.2733  0.3024 -0.1014
 5026SOL    HW126714   4.096   2.889   4.888 -0.8372  1.9160 -1.0314
 5026SOL    HW226715   3.961   2.879   4.931  2.1840  1.8069  0.6670
 5027SOL     OW26716   0.143   4.483  14.809 -0.3979 -0.3527 -0.2521
 5027SOL    HW126717   0.059   4.520  14.835 -0.5523 -1.4360  0.8328
 5027SOL    HW226718   0.154   4.558  14.752  0.9180 -0.5653 -0.2824
 5028SOL     OW26719   0.970   1.360   9.097  0.3896  0.6004  0.3747
 5028SOL    HW126720   0.960   1.300   9.023  1.3041  2.2827 -1.1047
 5028SOL    HW226721   0.880   1.360   9.130 -0.2200 -1.3722 -1.2787
 5029SOL     OW26722   4.332   0.143   4.374 -0.0876 -0.0163  0.1256
 5029SOL    HW126723   4.361   0.060   4.411  0.0417 -1.4377 -3.1854
 5029SOL    HW226724   4.395   0.195   4.424  0.0997 -0.2452  0.1261
 5030SOL     OW26725   3.893   3.668   9.456  0.5163 -0.1388  0.5393
 5030SOL    HW126726   3.864   3.744   9.507 -1.1109  0.6489 -1.5590
 5030SOL    HW226727   3.815   3.640   9.409  0.3462  1.3265 -0.0658
 5031SOL     OW26728   3.389   2.254  16.796  0.0125  0.3313  0.3557
 5031SOL    HW126729   3.375   2.345  16.823 -0.0497  0.1158  1.0554
 5031SOL    HW226730   3.480   2.244  16.821 -0.4930 -2.3616  1.0908
 5032SOL     OW26731   3.305   2.648   4.544 -0.3332 -0.0944  0.6366
 5032SOL    HW126732   3.336   2.738   4.535  1.2545 -0.6747  0.2593
 5032SOL    HW226733   3.384   2.606   4.509 -0.4940  1.0821 -1.1879
 5033SOL     OW26734   0.690   1.445   9.561  0.1939  0.3950  0.0392
 5033SOL    HW126735   0.619   1.501   9.590  0.9650  0.5932  1.5398
 5033SOL    HW226736   0.648   1.362   9.584 -0.5253  0.3879 -1.2746
 5034SOL     OW26737   0.088   1.943   5.560  0.2635 -0.3300  0.2881
 5034SOL    HW126738   0.010   1.928   5.613  1.4025 -0.8601  1.8107
 5034SOL    HW226739   0.149   1.880   5.598  0.7928 -0.0077 -0.0124
 5035SOL     OW26740   0.169   2.834   3.635  0.2154  0.3163 -0.1930
 5035SOL    HW126741   0.155   2.919   3.676 -2.6021  0.1348 -0.7870
 5035SOL    HW226742   0.206   2.775   3.701  0.5522  0.2349 -0.4512
 5036SOL     OW26743   3.923   0.469   4.123  0.2206 -0.0458 -0.0433
 5036SOL    HW126744   3.863   0.468   4.049 -2.4277 -0.5512  2.0877
 5036SOL    HW226745   3.921   0.559   4.155 -0.5020  0.1605 -0.6729
 5037SOL     OW26746   0.647   4.368   6.815  0.1416 -0.2162 -0.2492
 5037SOL    HW126747   0.727   4.400   6.857  1.0422 -2.0790 -0.5463
 5037SOL    HW226748   0.623   4.303   6.881  0.0713 -0.8004 -0.8411
 5038SOL     OW26749   2.151   4.308   6.739 -0.2708  0.3072  0.3933
 5038SOL    HW126750   2.187   4.372   6.801  2.0345  0.4406 -1.0874
 5038SOL    HW226751   2.086   4.360   6.691  1.4431  0.8889 -1.2981
 5039SOL     OW26752   4.424   3.601   2.283 -0.0632 -0.4418 -0.1397
 5039SOL    HW126753   4.438   3.693   2.303  0.7770 -0.4107 -0.8950
 5039SOL    HW226754   4.504   3.573   2.238  0.0937  0.5073 -0.4527
 5040SOL     OW26755   1.008   1.164   2.116 -0.0110 -0.4513 -0.2365
 5040SOL    HW126756   1.057   1.141   2.037  1.1563  0.7529  0.1342
 5040SOL    HW226757   0.918   1.174   2.084 -0.7962 -2.7789  1.2726
 5041SOL     OW26758   0.811   1.681   6.231 -0.2697 -0.4241 -0.3808
 5041SOL    HW126759   0.878   1.707   6.294 -2.0038  2.0258  0.4662
 5041SOL    HW226760   0.821   1.586   6.236 -2.1122 -0.7353 -2.7975
 5042SOL     OW26761   4.182   4.455   3.265 -0.2548  0.3588 -0.3629
 5042SOL    HW126762   4.134   4.527   3.224 -1.2615  0.7431  1.5375
 5042SOL    HW226763   4.272   4.467   3.234 -0.7288  1.8666 -1.1675
 5043SOL     OW26764   3.643   2.001   5.045  0.5880  0.2889  0.4379
 5043SOL    HW126765   3.679   1.913   5.033  0.4900  0.3356 -0.2059
 5043SOL    HW226766   3.616   1.998   5.137  1.4098  0.7681  0.7005
 5044SOL     OW26767   3.940   2.270  16.686 -0.3589 -0.1856  0.3995
 5044SOL    HW126768   4.019   2.217  16.682  0.5806  1.2679 -0.3795
 5044SOL    HW226769   3.946   2.327  16.763  0.9905  0.8810 -0.4915
 5045SOL     OW26770   4.691   3.041   7.232  0.0426  0.1507 -0.4130
 5045SOL    HW126771   0.019   3.005   7.291 -0.2039 -2.6833 -1.8561
 5045SOL    HW226772   4.734   3.123   7.211  0.1325  0.7415  2.0615
 5046SOL     OW26773   3.099   2.205   5.324 -0.1055 -0.3732 -0.0165
 5046SOL    HW126774   3.126   2.168   5.409  0.1445 -0.5126 -0.1558
 5046SOL    HW226775   3.149   2.287   5.321 -3.3731  1.6523  0.6482
 5047SOL     OW26776   1.093   2.322   5.212  0.2698  0.0556  0.0627
 5047SOL    HW126777   1.029   2.384   5.178  0.6912  0.8837  0.7694
 5047SOL    HW226778   1.112   2.371   5.293  1.8495 -0.0219 -0.2536
 5048SOL     OW26779   1.695   1.904   5.830  0.1673  0.4181 -0.5437
 5048SOL    HW126780   1.745   1.984   5.816  1.4728 -0.1378  0.9308
 5048SOL    HW226781   1.723   1.881   5.918  0.2958  2.1742 -0.1317
 5049SOL     OW26782   0.566   1.414   4.241  0.4367  0.0151  0.2076
 5049SOL    HW126783   0.596   1.499   4.273  1.1753 -0.6117  1.1512
 5049SOL    HW226784   0.473   1.435   4.244  0.4162 -0.2829  1.4910
 5050SOL     OW26785   3.578   2.238  16.232 -0.0604 -0.0547 -0.3673
 5050SOL    HW126786   3.611   2.295  16.162 -0.8328  0.3719 -0.3778
 5050SOL    HW226787   3.543   2.305  16.291  0.1588 -0.7266  0.5345
 5051SOL     OW26788   3.029   1.506   7.877 -0.5815 -0.5498 -0.1214
 5051SOL    HW126789   3.117   1.539   7.894 -0.9490 -0.1936  1.0808
 5051SOL    HW226790   3.054   1.426   7.831 -1.1985 -0.4999 -0.5428
 5052SOL     OW26791   2.847   1.383   0.302 -0.6550  0.6310  0.8587
 5052SOL    HW126792   2.844   1.322   0.376 -1.5913 -0.7261 -0.2865
 5052SOL    HW226793   2.784   1.453   0.320 -0.3651  0.8897  0.8631
 5053SOL     OW26794   0.139   4.113  16.408 -0.6195 -0.4275  0.0482
 5053SOL    HW126795   0.078   4.148  16.343 -0.6567  2.1716  1.4841
 5053SOL    HW226796   0.079   4.070  16.469 -2.8703  0.5954 -1.4595
 5054SOL     OW26797   2.073   2.206   4.730 -0.1439  0.3613 -0.5071
 5054SOL    HW126798   2.069   2.301   4.737 -1.5003  0.2227  0.5432
 5054SOL    HW226799   2.119   2.197   4.646  1.3329  3.3372 -0.0182
 5055SOL     OW26800   3.169   4.534   5.701  0.2143 -0.1916  0.1920
 5055SOL    HW126801   3.123   4.462   5.658  1.5043 -1.2967  0.6411
 5055SOL    HW226802   3.262   4.509   5.699  0.1192 -0.5911  0.7203
 5056SOL     OW26803   2.957   1.879  11.246 -0.2510 -0.3838  0.1366
 5056SOL    HW126804   2.943   1.789  11.274 -0.6476 -0.0129  1.0992
 5056SOL    HW226805   2.880   1.934  11.260 -0.1148 -0.0673 -0.3354
 5057SOL     OW26806   4.399   2.749   8.308  0.2834  0.1988  0.0771
 5057SOL    HW126807   4.412   2.772   8.400  2.5192  3.2085 -0.9982
 5057SOL    HW226808   4.413   2.656   8.328  2.6906  0.8957  1.6110
 5058SOL     OW26809   0.612   0.307   3.449  0.1170  0.1384 -0.6907
 5058SOL    HW126810   0.563   0.246   3.395 -1.5570 -0.5539  1.6013
 5058SOL    HW226811   0.703   0.289   3.427 -0.2219 -1.2611 -0.9284
 5059SOL     OW26812   2.891   2.014   6.530 -0.2097  0.9758 -0.1033
 5059SOL    HW126813   2.914   1.950   6.463  1.6218 -0.3274  1.7897
 5059SOL    HW226814   2.942   1.975   6.601  0.5410  1.3755 -0.4280
 5060SOL     OW26815   2.032   0.890  14.631  0.7516  0.5284  0.0093
 5060SOL    HW126816   2.093   0.927  14.695  0.8079  1.1538 -0.4029
 5060SOL    HW226817   1.971   0.964  14.627 -1.6627 -1.5202 -1.2967
 5061SOL     OW26818   3.080   3.727   5.007  0.1285  0.1103 -0.3067
 5061SOL    HW126819   3.073   3.760   5.096  0.1703 -2.1155  0.5278
 5061SOL    HW226820   3.087   3.814   4.969  0.4254  0.2488  0.0694
 5062SOL     OW26821   0.997   4.528   6.846  0.0390  0.2554 -0.3713
 5062SOL    HW126822   1.025   4.593   6.910 -1.2839 -0.1064  0.5659
 5062SOL    HW226823   0.963   4.580   6.773 -3.3262  0.3099  1.2189
 5063SOL     OW26824   2.524   0.733   9.709  0.3232 -0.3560  0.0052
 5063SOL    HW126825   2.453   0.790   9.680 -0.3222  0.0197  2.2940
 5063SOL    HW226826   2.480   0.648   9.709  0.9815 -0.6995 -2.3385
 5064SOL     OW26827   4.567   1.282   2.813 -0.1702 -0.1092  0.1456
 5064SOL    HW126828   4.593   1.343   2.744 -1.9837 -0.9441 -1.2564
 5064SOL    HW226829   4.473   1.282   2.798 -0.0504  2.3573 -0.6172
 5065SOL     OW26830   2.011   3.136   2.500  0.3387  0.1684 -0.1948
 5065SOL    HW126831   2.053   3.077   2.562 -0.0254 -0.8911 -0.9597
 5065SOL    HW226832   2.091   3.183   2.475  0.2699 -0.5376 -1.7050
 5066SOL     OW26833   4.431   2.138   6.087  0.1631  0.5801 -0.1446
 5066SOL    HW126834   4.408   2.154   5.995 -0.1473  0.3633 -0.1031
 5066SOL    HW226835   4.448   2.226   6.118 -0.5009  0.0507  1.7250
 5067SOL     OW26836   0.557   3.365   7.806 -0.0599  0.0220 -0.2350
 5067SOL    HW126837   0.508   3.342   7.727  0.9413 -2.1102 -0.2507
 5067SOL    HW226838   0.633   3.411   7.770 -1.2386  1.2482 -1.1816
 5068SOL     OW26839   1.519   3.666  16.762  1.0400  0.2525 -0.1625
 5068SOL    HW126840   1.607   3.683  16.729  0.4911  1.3344 -1.0695
 5068SOL    HW226841   1.549   3.620  16.841  2.4096 -0.4728 -1.1124
 5069SOL     OW26842   1.136   1.472   8.593  0.4541 -0.3926 -0.0938
 5069SOL    HW126843   1.142   1.567   8.586  3.2398 -0.5412  0.3471
 5069SOL    HW226844   1.146   1.451   8.500  0.8272 -1.2983  0.1488
 5070SOL     OW26845   1.991   2.812   4.350 -0.3987  0.6236  0.4910
 5070SOL    HW126846   1.937   2.885   4.377 -0.7986  0.0300  1.2752
 5070SOL    HW226847   2.009   2.840   4.260  0.7819  1.4340  0.9669
 5071SOL     OW26848   2.022   0.730   1.799  0.0876 -0.0316 -0.2311
 5071SOL    HW126849   2.014   0.659   1.735 -0.8211 -0.1514  0.0156
 5071SOL    HW226850   2.068   0.798   1.750  1.5843  0.1664  1.4381
 5072SOL     OW26851   1.022   1.933   8.294  0.1054  0.1591 -0.6182
 5072SOL    HW126852   1.057   1.883   8.220 -0.6269  0.6186 -1.2669
 5072SOL    HW226853   1.008   2.023   8.264 -0.0337  0.6070  0.8179
 5073SOL     OW26854   0.377   0.514  10.151 -0.1629  0.3135  0.0385
 5073SOL    HW126855   0.422   0.573  10.212 -1.0825 -2.3675  3.3236
 5073SOL    HW226856   0.303   0.566  10.121 -0.2591  2.2530  3.6215
 5074SOL     OW26857   3.149   4.220   5.117  0.9081 -0.6415 -0.0494
 5074SOL    HW126858   3.127   4.282   5.187 -0.1116  0.0429 -0.9667
 5074SOL    HW226859   3.188   4.283   5.056  0.9976  3.1611  3.9266
 5075SOL     OW26860   3.089   4.665   4.917  0.2233 -0.1015  0.2726
 5075SOL    HW126861   3.072   4.710   4.834  0.1612 -0.9425 -0.1666
 5075SOL    HW226862   3.064   4.738   4.975  1.8360  2.8716 -2.7440
 5076SOL     OW26863   1.813   3.896   3.783  0.0582 -0.4422 -0.2381
 5076SOL    HW126864   1.769   3.977   3.812  0.0342 -0.2902 -0.7057
 5076SOL    HW226865   1.905   3.906   3.805  0.2933 -2.9290 -0.0994
 5077SOL     OW26866   0.437   3.157   6.231  0.3605  0.2390  0.1165
 5077SOL    HW126867   0.342   3.158   6.214  0.1548  1.5484  1.3214
 5077SOL    HW226868   0.472   3.100   6.163  0.4106 -0.6581  0.8997
 5078SOL     OW26869   1.378   0.751   8.350  0.4141 -0.1846  0.5222
 5078SOL    HW126870   1.444   0.742   8.419  0.0631 -0.0937  0.8638
 5078SOL    HW226871   1.365   0.657   8.336 -2.1618  0.2579  0.0955
 5079SOL     OW26872   4.103   4.326   5.116  0.3922 -0.2000  0.4923
 5079SOL    HW126873   4.010   4.349   5.116 -0.2304 -2.7355 -1.7822
 5079SOL    HW226874   4.099   4.248   5.061  1.7833 -0.5460  0.8899
 5080SOL     OW26875   1.948   3.101   1.594  0.3113  0.4071 -0.3972
 5080SOL    HW126876   1.941   3.193   1.567 -0.8023  0.6906  0.8303
 5080SOL    HW226877   2.030   3.079   1.550 -0.5531  0.1160 -1.8391
 5081SOL     OW26878   3.209   0.623   1.152  0.3504 -0.4396 -0.0779
 5081SOL    HW126879   3.304   0.632   1.157  0.2277  0.6709  0.2459
 5081SOL    HW226880   3.189   0.546   1.206  0.6986 -0.9714 -0.7062
 5082SOL     OW26881   0.347   2.362  10.994 -0.6948 -0.4573 -0.2822
 5082SOL    HW126882   0.321   2.318  10.913 -0.9359  1.9408 -1.4818
 5082SOL    HW226883   0.269   2.354  11.049  0.1438 -0.4932  0.9193
 5083SOL     OW26884   3.882   0.473   5.811  0.3262 -0.2988 -0.4355
 5083SOL    HW126885   3.919   0.405   5.867  0.7748  0.4372  0.1692
 5083SOL    HW226886   3.959   0.502   5.762  0.6051  1.1565  0.8445
 5084SOL     OW26887   2.798   1.172  12.944 -0.4033 -0.3243  0.6485
 5084SOL    HW126888   2.888   1.200  12.958  0.2262 -0.8763 -2.2571
 5084SOL    HW226889   2.751   1.216  13.015  0.1597  0.8018  0.3202
 5085SOL     OW26890   1.924   0.120   6.639 -0.4977  0.3885  0.3342
 5085SOL    HW126891   1.996   0.167   6.681  0.4220 -1.6172  1.0134
 5085SOL    HW226892   1.962   0.106   6.553  1.8835  2.0043  1.1263
 5086SOL     OW26893   3.985   1.170   5.512 -0.3192 -0.2637 -0.2008
 5086SOL    HW126894   4.077   1.188   5.497  0.4332 -3.1248  0.9591
 5086SOL    HW226895   3.989   1.181   5.607 -0.0246 -0.3108 -0.2074
 5087SOL     OW26896   4.152   2.154   1.326 -0.2510 -0.0116  0.0221
 5087SOL    HW126897   4.193   2.075   1.290  1.4089 -0.5129  3.0307
 5087SOL    HW226898   4.178   2.218   1.260 -3.5307  0.9229 -0.3826
 5088SOL     OW26899   4.535   3.346   6.922 -0.3717 -0.3655  0.4190
 5088SOL    HW126900   4.505   3.421   6.871 -0.1690 -0.2164  0.5183
 5088SOL    HW226901   4.522   3.373   7.013 -2.7477 -0.6419  0.1453
 5089SOL     OW26902   0.887   4.546  12.321  0.6216 -0.0172  0.3093
 5089SOL    HW126903   0.870   4.456  12.292  2.0149 -0.3720  0.5835
 5089SOL    HW226904   0.970   4.537  12.368  0.2581 -0.4613  0.8645
 5090SOL     OW26905   3.817   2.178   6.749 -0.0299 -0.9943 -0.1114
 5090SOL    HW126906   3.777   2.131   6.822 -0.5161  2.0847  1.5833
 5090SOL    HW226907   3.744   2.225   6.707  0.4628  0.5175  0.7198
 5091SOL     OW26908   3.068   2.141   8.862  0.1942 -0.5635 -0.0719
 5091SOL    HW126909   3.046   2.055   8.898  0.3850 -1.3485 -1.8163
 5091SOL    HW226910   3.103   2.118   8.776  1.1650 -1.5582  0.5837
 5092SOL     OW26911   0.913   1.111  12.606  1.0612  0.0282 -0.7788
 5092SOL    HW126912   0.984   1.056  12.640 -0.3904 -1.8298 -0.7549
 5092SOL    HW226913   0.953   1.195  12.587  0.4248  0.3344 -0.7522
 5093SOL     OW26914   4.453   0.189   6.437 -0.0467 -0.0448  0.1766
 5093SOL    HW126915   4.368   0.231   6.451 -1.2534 -2.9872  1.7665
 5093SOL    HW226916   4.451   0.156   6.348  2.8091 -1.9816  0.8430
 5094SOL     OW26917   1.789   1.120  11.625  0.3893  0.2685 -0.5974
 5094SOL    HW126918   1.701   1.102  11.594 -0.2495  1.6466  0.4510
 5094SOL    HW226919   1.773   1.157  11.711 -0.0494  0.7063 -0.8671
 5095SOL     OW26920   0.921   3.766   7.539 -0.2459 -0.1303 -0.1911
 5095SOL    HW126921   0.970   3.782   7.459 -1.0063  2.1202 -0.1998
 5095SOL    HW226922   0.954   3.836   7.595 -0.3560 -0.7659  0.6694
 5096SOL     OW26923   4.431   4.196   2.787  0.3076 -0.1715 -0.1302
 5096SOL    HW126924   4.378   4.196   2.707  1.3742  0.0114 -0.8325
 5096SOL    HW226925   4.368   4.237   2.847 -0.7624 -2.4507  0.3396
 5097SOL     OW26926   1.365   3.363   1.769  0.2249  0.1113 -0.2741
 5097SOL    HW126927   1.393   3.274   1.750 -0.9402 -0.4526  0.6447
 5097SOL    HW226928   1.275   3.355   1.738  0.0890  2.1638 -0.3933
 5098SOL     OW26929   3.853   3.293   9.078  0.6432 -0.2079  0.5365
 5098SOL    HW126930   3.783   3.235   9.108 -0.2217 -0.8565 -2.8051
 5098SOL    HW226931   3.853   3.258   8.989 -1.5629  1.2268 -0.0213
 5099SOL     OW26932   2.967   2.789   4.279 -0.1752  0.6776 -0.0154
 5099SOL    HW126933   2.991   2.735   4.355 -0.1377  1.6488  0.6678
 5099SOL    HW226934   2.911   2.852   4.324  0.7479  0.8953  0.8241
 5100SOL     OW26935   3.293   3.593  14.112 -0.0866 -0.2779 -0.2093
 5100SOL    HW126936   3.264   3.643  14.035 -2.0104  1.8934  1.9187
 5100SOL    HW226937   3.337   3.664  14.159  1.7825 -2.0343  0.6766
 5101SOL     OW26938   1.042   3.952   5.171 -0.1654 -1.0015 -0.4356
 5101SOL    HW126939   1.116   4.009   5.192 -0.9683  0.2133 -0.9502
 5101SOL    HW226940   0.975   4.017   5.154  0.0314 -0.6130  0.2680
 5102SOL     OW26941   4.046   2.520  15.870  0.2321 -0.1406  0.4388
 5102SOL    HW126942   3.991   2.583  15.822 -0.5997 -0.6303  0.7388
 5102SOL    HW226943   3.990   2.442  15.864 -0.3866  0.3831 -0.6810
 5103SOL     OW26944   2.218   0.079   0.154  0.3293  0.1666 -0.5675
 5103SOL    HW126945   2.203   0.016   0.225 -0.8830  1.2338  0.1364
 5103SOL    HW226946   2.300   0.046   0.117  1.4873  0.3161  1.8583
 5104SOL     OW26947   1.382   2.424  11.176  0.0528 -1.1744  0.3651
 5104SOL    HW126948   1.345   2.442  11.262  0.0457 -1.0950  0.3450
 5104SOL    HW226949   1.457   2.372  11.206 -0.0319 -0.0955  2.4425
 5105SOL     OW26950   0.263   3.723   7.625  0.0595 -0.0887 -0.6789
 5105SOL    HW126951   0.287   3.769   7.706 -2.2753 -0.9640  0.4988
 5105SOL    HW226952   0.191   3.667   7.652  0.0098  0.1640 -0.2837
 5106SOL     OW26953   0.237   0.607   7.000 -0.7773 -0.2113 -0.2531
 5106SOL    HW126954   0.284   0.651   7.072 -1.3463 -0.1697  0.0906
 5106SOL    HW226955   0.151   0.617   7.040 -0.3867  0.4802  0.4370
 5107SOL     OW26956   0.164   2.277   4.257 -0.0625  0.4826  0.0063
 5107SOL    HW126957   0.125   2.306   4.174  0.2411 -0.4209 -0.4554
 5107SOL    HW226958   0.163   2.182   4.243  2.7796  0.2752  1.0112
 5108SOL     OW26959   3.318   2.680   1.790  0.0482  0.3407  0.0386
 5108SOL    HW126960   3.350   2.766   1.764 -0.5345  0.3924 -0.5384
 5108SOL    HW226961   3.227   2.705   1.807  0.3439  1.8834 -0.6270
 5109SOL     OW26962   1.201   2.462   2.011  0.8044  0.0011 -0.2872
 5109SOL    HW126963   1.197   2.497   1.922 -0.2963 -1.7485 -0.9255
 5109SOL    HW226964   1.210   2.367   2.004 -3.3267 -0.2881 -1.7307
 5110SOL     OW26965   1.687   1.169   7.914 -0.4945 -0.1952  0.1513
 5110SOL    HW126966   1.705   1.100   7.850  0.7353 -0.1505  0.4550
 5110SOL    HW226967   1.602   1.203   7.885 -0.4938  0.8167  1.3339
 5111SOL     OW26968   0.300   1.754   1.674  0.3823 -0.4053 -0.5960
 5111SOL    HW126969   0.285   1.751   1.769 -1.3952  0.6175 -0.8322
 5111SOL    HW226970   0.375   1.696   1.663  1.2396  0.2680  1.6388
 5112SOL     OW26971   3.360   1.269   5.545 -0.4243 -0.0471  0.1565
 5112SOL    HW126972   3.345   1.314   5.462 -0.8794 -0.2884  0.1131
 5112SOL    HW226973   3.281   1.217   5.554 -1.5013  0.8389 -4.5216
 5113SOL     OW26974   3.908   2.513   2.851 -0.2522 -0.1329 -0.2830
 5113SOL    HW126975   3.922   2.521   2.945 -0.6121  2.7835 -0.4674
 5113SOL    HW226976   3.936   2.424   2.831 -1.2321 -0.3036 -0.9496
 5114SOL     OW26977   0.898   2.045   7.694 -0.0551  0.0119 -0.1503
 5114SOL    HW126978   0.987   2.028   7.663 -0.3977 -0.4903 -0.8651
 5114SOL    HW226979   0.899   2.020   7.786  0.8996  1.4728  0.2309
 5115SOL     OW26980   0.603   0.382   7.516  0.0125  1.0206 -0.3519
 5115SOL    HW126981   0.595   0.476   7.534  0.7980  1.2292 -1.0983
 5115SOL    HW226982   0.622   0.373   7.423  2.1095  0.6691  0.1047
 5116SOL     OW26983   2.164   2.788   9.001  0.1508  0.1431  0.0007
 5116SOL    HW126984   2.192   2.740   8.923 -1.9282 -1.1598  0.0749
 5116SOL    HW226985   2.075   2.756   9.008 -0.3786  1.6774  0.2922
 5117SOL     OW26986   1.071   3.761   6.407  0.2828  0.4676  0.3170
 5117SOL    HW126987   1.093   3.679   6.363  1.7421  1.4258 -0.7426
 5117SOL    HW226988   1.103   3.821   6.340 -1.4577 -0.2670 -1.1762
 5118SOL     OW26989   0.662   0.720   2.773  0.8060  0.3213 -0.2513
 5118SOL    HW126990   0.615   0.664   2.710  0.1910  1.3421 -0.6965
 5118SOL    HW226991   0.650   0.678   2.858 -3.9451  1.6647 -0.2629
 5119SOL     OW26992   4.406   1.769   6.410 -0.4949  0.2481  0.3491
 5119SOL    HW126993   4.401   1.701   6.343 -1.2429  0.1570  0.5009
 5119SOL    HW226994   4.320   1.774   6.451  0.1265  0.5917  1.5934
 5120SOL     OW26995   1.242   0.033   3.264 -0.6135  0.5081 -0.1116
 5120SOL    HW126996   1.281   4.732   3.342 -0.8289 -0.6825 -0.5901
 5120SOL    HW226997   1.243   4.698   3.201  1.1826 -1.2740  1.9629
 5121SOL     OW26998   3.054   4.001  10.689 -0.4358  0.3539  0.2702
 5121SOL    HW126999   3.099   4.086  10.690 -2.6204  1.5227 -0.0799
 5121SOL    HW227000   2.985   4.002  10.623  0.4682  1.2485 -0.6609
 5122SOL     OW27001   4.523   2.586   9.621  0.1033 -0.0567  0.1023
 5122SOL    HW127002   4.501   2.639   9.545 -1.2171 -0.5894  0.0950
 5122SOL    HW227003   4.473   2.631   9.689 -2.1358  0.3416 -1.7949
 5123SOL     OW27004   0.472   4.444   6.213 -0.1253  0.2583  0.2019
 5123SOL    HW127005   0.531   4.372   6.238  1.3666  2.0335  1.8481
 5123SOL    HW227006   0.493   4.502   6.286  1.3498 -1.3070  1.0221
 5124SOL     OW27007   2.010   3.491   0.472  0.1821  0.3428 -0.3799
 5124SOL    HW127008   2.075   3.531   0.530 -0.1640 -0.2819  0.4258
 5124SOL    HW227009   2.046   3.515   0.386  2.1305 -1.0170  0.0606
 5125SOL     OW27010   1.846   0.665   5.956  0.3543  0.0743 -0.3876
 5125SOL    HW127011   1.762   0.622   5.938  0.4301  0.4464 -1.6223
 5125SOL    HW227012   1.828   0.677   6.049 -0.0437  2.9105 -0.8483
 5126SOL     OW27013   4.396   4.324   5.912  0.0244 -0.0918  0.2443
 5126SOL    HW127014   4.411   4.279   5.829  0.1524  0.6303 -0.1158
 5126SOL    HW227015   4.487   4.335   5.941 -0.2701  1.7700  0.4468
 5127SOL     OW27016   3.688   2.118   6.212 -0.2817 -0.0449  0.0267
 5127SOL    HW127017   3.695   2.023   6.220  1.3780  0.2684  2.6428
 5127SOL    HW227018   3.679   2.138   6.306 -0.8803 -1.2182  0.2130
 5128SOL     OW27019   2.168   2.439   3.720  0.0020  0.3092  0.5669
 5128SOL    HW127020   2.167   2.535   3.724  2.6776  0.3957 -0.9406
 5128SOL    HW227021   2.141   2.422   3.810  0.6288 -0.9375  0.5186
 5129SOL     OW27022   1.167   0.096   9.583  0.1309  0.0719  0.0316
 5129SOL    HW127023   1.074   0.073   9.585 -0.3106  2.1293  3.3433
 5129SOL    HW227024   1.168   0.132   9.495  1.9094  0.7753  0.3425
 5130SOL     OW27025   3.172   3.683   0.948  0.4416  0.7714 -0.6004
 5130SOL    HW127026   3.222   3.761   0.925 -0.3890  1.0744 -1.3597
 5130SOL    HW227027   3.209   3.622   0.885 -1.1240  0.9321 -1.6726
 5131SOL     OW27028   4.052   1.323   8.068 -0.2725 -0.1349 -0.5445
 5131SOL    HW127029   4.135   1.371   8.064 -0.1282 -0.5777 -2.6088
 5131SOL    HW227030   3.996   1.385   8.117  0.6657  1.4740 -1.5233
 5132SOL     OW27031   2.222   1.769   7.240  0.1264  0.3276  0.1122
 5132SOL    HW127032   2.252   1.843   7.187  0.4650 -0.8045 -1.3091
 5132SOL    HW227033   2.128   1.789   7.237  0.4058  1.4929 -0.9804
 5133SOL     OW27034   3.599   1.038   4.579  0.5859 -0.9002 -0.2153
 5133SOL    HW127035   3.643   1.059   4.496 -0.4468 -1.5055 -0.9104
 5133SOL    HW227036   3.641   0.953   4.593  2.8617 -0.1062 -2.1189
 5134SOL     OW27037   0.587   1.790   7.858  0.2231 -0.6126 -0.5310
 5134SOL    HW127038   0.653   1.763   7.921  0.1939  1.2449  0.3152
 5134SOL    HW227039   0.612   1.732   7.786  1.8373  0.4158 -0.8168
 5135SOL     OW27040   2.924   0.781   3.036 -0.5604  0.1797  0.0542
 5135SOL    HW127041   3.007   0.805   3.079 -1.1197  0.8462  0.7436
 5135SOL    HW227042   2.858   0.829   3.086 -0.7574  1.0552 -1.0589
 5136SOL     OW27043   4.272   3.722   8.797  0.7519 -0.2065  0.3706
 5136SOL    HW127044   4.319   3.660   8.852 -0.7782 -0.8889  0.8943
 5136SOL    HW227045   4.318   3.800   8.830  0.1108  0.6740 -0.8184
 5137SOL     OW27046   4.093   1.582   9.774  0.2982 -0.6093 -0.4254
 5137SOL    HW127047   3.998   1.590   9.778  0.5649  2.2269  0.1603
 5137SOL    HW227048   4.098   1.492   9.740 -0.9968 -0.3180 -1.3639
 5138SOL     OW27049   0.060   3.372   8.696 -0.1949  0.1707  0.0128
 5138SOL    HW127050   0.017   3.297   8.735  0.4924  0.2044  0.8230
 5138SOL    HW227051   0.143   3.353   8.738  0.5590 -2.0063 -2.4108
 5139SOL     OW27052   0.751   0.920   8.892  0.3224 -0.4112 -0.4984
 5139SOL    HW127053   0.692   0.882   8.957  0.0305 -1.6268 -1.4833
 5139SOL    HW227054   0.776   0.839   8.847 -1.1055 -1.1193 -0.0426
 5140SOL     OW27055   1.444   4.262  10.563  0.5149 -0.0493 -0.2776
 5140SOL    HW127056   1.452   4.231  10.653 -0.4788  2.6239  0.7467
 5140SOL    HW227057   1.437   4.356  10.583  0.5454 -0.7262  2.9130
 5141SOL     OW27058   4.325   0.556   8.922 -0.4036 -0.0339 -0.2870
 5141SOL    HW127059   4.374   0.636   8.941  1.2491 -0.9608 -0.6639
 5141SOL    HW227060   4.238   0.575   8.957 -0.2339 -1.7647  1.0791
 5142SOL     OW27061   2.198   4.460   6.980  0.0740 -0.1143 -0.0331
 5142SOL    HW127062   2.201   4.470   7.075  3.4736  2.0037 -0.3607
 5142SOL    HW227063   2.112   4.501   6.968  0.9324  1.4574 -0.7397
 5143SOL     OW27064   2.212   3.577  11.937 -0.5192 -0.1487 -0.4430
 5143SOL    HW127065   2.243   3.626  11.861  3.4396 -1.4487  0.3359
 5143SOL    HW227066   2.293   3.548  11.980  0.3491  1.3421 -1.1000
 5144SOL     OW27067   0.691   1.572  11.131  0.3783 -0.4232 -0.1895
 5144SOL    HW127068   0.774   1.543  11.095  0.6634  0.5588 -0.3433
 5144SOL    HW227069   0.707   1.663  11.104 -0.2272 -0.4608 -0.6649
 5145SOL     OW27070   4.476   4.143  14.082 -0.2592  0.2067  0.5524
 5145SOL    HW127071   4.454   4.224  14.127  1.8976  0.3543  1.3624
 5145SOL    HW227072   4.540   4.099  14.139 -1.0374  0.8778  1.9300
 5146SOL     OW27073   4.686   1.725   6.222 -0.0977 -0.4118  0.5041
 5146SOL    HW127074   4.649   1.797   6.171  0.1521 -1.3976 -1.0716
 5146SOL    HW227075   4.647   1.747   6.307  0.1984  0.7807  0.3370
 5147SOL     OW27076   3.814   0.810   2.093 -0.4221  0.2893  0.0155
 5147SOL    HW127077   3.722   0.793   2.070 -0.7450  0.2494  1.2930
 5147SOL    HW227078   3.796   0.855   2.176  1.0531  1.6806 -0.4338
 5148SOL     OW27079   2.936   1.614   3.163 -0.3732  0.5422  0.2531
 5148SOL    HW127080   3.023   1.616   3.202 -0.1467  4.0341 -0.4740
 5148SOL    HW227081   2.947   1.661   3.080 -0.8908  0.8440  0.3534
 5149SOL     OW27082   3.739   4.048   8.544  0.2981  0.0012 -0.5192
 5149SOL    HW127083   3.796   4.106   8.594 -0.7828 -1.4393  2.3987
 5149SOL    HW227084   3.795   4.020   8.471  1.3006 -2.2627  1.1191
 5150SOL     OW27085   2.946   1.312   3.128 -0.0475  0.4955 -0.8244
 5150SOL    HW127086   2.951   1.407   3.139  1.8703  0.5016 -1.6750
 5150SOL    HW227087   2.975   1.287   3.216  1.4000  0.2342 -1.3750
 5151SOL     OW27088   4.534   0.024   7.649  0.1083  0.2093  0.1433
 5151SOL    HW127089   4.544   0.068   7.564 -0.5682 -1.3094 -0.7076
 5151SOL    HW227090   4.604   0.068   7.698  0.7557  0.1066 -0.6895
 5152SOL     OW27091   0.246   0.284   5.821  0.4122  0.2915  0.3782
 5152SOL    HW127092   0.292   0.200   5.824  0.9497  0.5930  0.6329
 5152SOL    HW227093   0.247   0.312   5.912 -0.9551 -0.6924  0.6962
 5153SOL     OW27094   4.302   1.594   4.758 -0.5554 -0.8946 -0.2969
 5153SOL    HW127095   4.325   1.525   4.696  0.2017 -0.2931 -0.6777
 5153SOL    HW227096   4.246   1.553   4.824  0.1483 -1.1785  0.1191
 5154SOL     OW27097   4.195   1.531   1.798 -0.4290 -0.5741 -0.4156
 5154SOL    HW127098   4.164   1.444   1.773  0.4292 -0.6775 -1.1228
 5154SOL    HW227099   4.206   1.568   1.710  0.3153 -1.6354 -0.7595
 5155SOL     OW27100   2.154   2.928   7.303 -0.6779 -0.2171 -0.6946
 5155SOL    HW127101   2.206   2.916   7.382  0.8811 -0.3735 -1.7567
 5155SOL    HW227102   2.186   2.852   7.255 -1.9192  0.6948 -2.9970
 5156SOL     OW27103   2.305   2.791   5.878  0.4354  0.0656  0.3023
 5156SOL    HW127104   2.289   2.761   5.789  1.4035 -0.8433  0.4332
 5156SOL    HW227105   2.260   2.876   5.880 -2.5944 -1.5214 -1.1718
 5157SOL     OW27106   3.815   4.140   8.022 -0.0816  0.0721 -0.1186
 5157SOL    HW127107   3.792   4.230   8.000  0.1244  0.3161  0.6677
 5157SOL    HW227108   3.900   4.163   8.060  1.5048 -0.5957 -3.2976
 5158SOL     OW27109   1.462   0.486   2.039  0.0971  0.0512  0.2430
 5158SOL    HW127110   1.495   0.413   1.987  0.0797  1.5717 -1.8968
 5158SOL    HW227111   1.467   0.561   1.981 -0.8804 -1.3090 -1.5846
 5159SOL     OW27112   4.488   1.502   5.734 -0.1067 -0.1787 -0.4460
 5159SOL    HW127113   4.519   1.591   5.717  2.5009 -1.3132 -1.7924
 5159SOL    HW227114   4.563   1.448   5.706  1.0233  1.6021 -0.8573
 5160SOL     OW27115   1.193   1.064   6.894  0.3437  0.1843 -0.6231
 5160SOL    HW127116   1.217   1.038   6.983 -1.0405  0.4376 -0.1725
 5160SOL    HW227117   1.149   1.148   6.907 -1.1841 -0.6323 -0.4771
 5161SOL     OW27118   2.313   4.150   9.385  0.4174  0.8196  0.0112
 5161SOL    HW127119   2.234   4.182   9.428 -1.3916 -2.3655 -0.9796
 5161SOL    HW227120   2.386   4.173   9.443  2.2773 -1.2207 -1.5042
 5162SOL     OW27121   2.005   2.475   8.463  0.2370 -0.2711 -0.1496
 5162SOL    HW127122   2.024   2.544   8.399  0.6118 -0.5658 -0.3533
 5162SOL    HW227123   1.922   2.502   8.502 -0.5520 -2.1423 -0.5122
 5163SOL     OW27124   4.064   2.855   2.261 -0.0808  0.3736 -0.3001
 5163SOL    HW127125   3.986   2.799   2.262  0.4285 -0.3652 -2.3609
 5163SOL    HW227126   4.092   2.857   2.353  0.3986 -4.0722 -0.3559
 5164SOL     OW27127   1.544   3.211   0.106  0.2873  0.6200 -0.7047
 5164SOL    HW127128   1.595   3.172   0.035 -1.3499 -0.5379 -1.2589
 5164SOL    HW227129   1.563   3.151   0.178 -1.0866  0.0234 -0.8336
 5165SOL     OW27130   2.412   3.229   3.751 -0.6958 -0.6378  0.2945
 5165SOL    HW127131   2.424   3.146   3.796 -1.4708 -1.0815 -0.3281
 5165SOL    HW227132   2.326   3.254   3.786  0.0714  2.2991  0.1195
 5166SOL     OW27133   4.737   1.414   7.441  0.4382  0.4368 -0.1724
 5166SOL    HW127134   4.683   1.493   7.445 -2.8281 -1.9507  2.7105
 5166SOL    HW227135   0.057   1.440   7.370 -0.2889  2.6570  0.0512
 5167SOL     OW27136   4.497   2.504   8.397 -0.2178  0.6905 -0.5653
 5167SOL    HW127137   4.590   2.523   8.382 -0.0738  2.4751  2.4847
 5167SOL    HW227138   4.499   2.423   8.448 -2.4575  0.1383 -1.3687
 5168SOL     OW27139   0.372   4.058   3.494  0.1635  0.0351 -0.2488
 5168SOL    HW127140   0.302   4.122   3.483  0.2761  0.6813  2.8649
 5168SOL    HW227141   0.430   4.082   3.421 -0.3152  0.4714 -0.4852
 5169SOL     OW27142   0.539   2.182  11.049  0.1683  0.2989 -0.0414
 5169SOL    HW127143   0.473   2.251  11.043  1.2859  1.3008 -0.9244
 5169SOL    HW227144   0.483   2.108  11.026  0.0687  1.0775 -2.3762
 5170SOL     OW27145   3.744   2.249  17.502  0.3501  0.1982 -0.1259
 5170SOL    HW127146   3.685   2.319  17.474 -2.2167 -2.0127 -0.2404
 5170SOL    HW227147   3.687   2.172  17.510 -1.9490  1.9195  0.1915
 5171SOL     OW27148   0.844   4.238  12.737  0.0871 -0.2134  0.5137
 5171SOL    HW127149   0.762   4.210  12.777 -0.9594  0.4415 -1.1349
 5171SOL    HW227150   0.866   4.314  12.792 -0.6935  0.4230 -0.0459
 5172SOL     OW27151   2.446   1.850  12.900 -0.2794  0.9973  0.2577
 5172SOL    HW127152   2.401   1.928  12.868 -0.3048  0.9071  0.0685
 5172SOL    HW227153   2.529   1.886  12.929  0.6307 -0.7284 -0.2108
 5173SOL     OW27154   4.089   0.563   2.661  0.4449 -0.0943  0.2668
 5173SOL    HW127155   4.106   0.655   2.681 -0.4266  0.4660 -1.4774
 5173SOL    HW227156   4.056   0.572   2.571  0.0934  3.4459  0.7497
 5174SOL     OW27157   3.422   0.946   6.462 -0.1684 -0.7420  0.0040
 5174SOL    HW127158   3.440   0.897   6.543  1.5876 -2.1476 -1.2388
 5174SOL    HW227159   3.363   0.887   6.415  0.8733 -1.6622 -0.1590
 5175SOL     OW27160   0.429   4.151   5.843 -0.5852  0.7877 -0.3948
 5175SOL    HW127161   0.480   4.205   5.783 -0.8048  1.8948  0.4247
 5175SOL    HW227162   0.475   4.068   5.834 -0.0967  0.9829  0.3469
 5176SOL     OW27163   0.880   1.553  16.520  0.1145  0.5484 -0.6651
 5176SOL    HW127164   0.896   1.528  16.611  0.5395 -0.4142 -1.0035
 5176SOL    HW227165   0.831   1.633  16.535 -1.2005 -0.1297 -1.3233
 5177SOL     OW27166   1.310   2.781   4.819  0.0682  0.7525 -0.3511
 5177SOL    HW127167   1.214   2.779   4.817  0.0146  0.3749  2.6494
 5177SOL    HW227168   1.320   2.769   4.725 -3.0450 -0.3287 -0.5351
 5178SOL     OW27169   2.689   2.164   7.897 -0.1829  0.0774 -0.5990
 5178SOL    HW127170   2.764   2.123   7.855  0.4248 -0.0696  0.6263
 5178SOL    HW227171   2.630   2.093   7.922  2.2773 -1.0550  1.8683
 5179SOL     OW27172   2.930   3.009   3.648  0.2067  0.1425  0.1463
 5179SOL    HW127173   2.932   3.042   3.558 -0.5443  2.3754  0.9466
 5179SOL    HW227174   2.888   2.924   3.637 -2.0433  1.0988  1.3464
 5180SOL     OW27175   3.982   1.424   3.713 -0.7270  0.7962 -0.3723
 5180SOL    HW127176   4.029   1.387   3.787  0.3452 -1.0942 -2.0256
 5180SOL    HW227177   3.982   1.513   3.748  0.3403  1.2082 -1.4579
 5181SOL     OW27178   1.141   4.103   1.509 -0.0746 -0.3103  0.6429
 5181SOL    HW127179   1.132   4.023   1.458 -1.4757  0.5895 -0.5065
 5181SOL    HW227180   1.088   4.164   1.458  0.9548  1.3459  1.5456
 5182SOL     OW27181   3.174   1.127  17.333 -0.4887  0.2224  0.2203
 5182SOL    HW127182   3.101   1.100  17.389  0.8673 -0.9574  1.4261
 5182SOL    HW227183   3.195   1.039  17.301  1.1169  1.9476 -3.3777
 5183SOL     OW27184   2.903   1.177   7.648  0.3464  0.4036 -0.0296
 5183SOL    HW127185   2.970   1.165   7.715 -1.2017 -2.4005  1.0043
 5183SOL    HW227186   2.917   1.093   7.604 -2.5943 -0.0844  0.0151
 5184SOL     OW27187   3.019   1.176   5.184 -0.0100 -0.0746 -0.7025
 5184SOL    HW127188   2.986   1.198   5.097  0.5258 -0.3092 -0.9652
 5184SOL    HW227189   2.985   1.090   5.208  3.7168 -1.1784  0.5855
 5185SOL     OW27190   0.395   1.848  13.258 -0.2855 -0.4222 -0.0004
 5185SOL    HW127191   0.455   1.776  13.278 -0.2786 -0.7971 -1.3437
 5185SOL    HW227192   0.335   1.853  13.333  3.0506 -1.3171  2.6930
 5186SOL     OW27193   3.335   2.020   1.641  0.0358 -0.0652 -0.1224
 5186SOL    HW127194   3.357   2.101   1.595 -0.1688  1.0325  1.7098
 5186SOL    HW227195   3.426   2.004   1.667  0.5472  0.6194 -1.4959
 5187SOL     OW27196   2.558   0.090  14.986 -0.0495 -0.2126  0.5469
 5187SOL    HW127197   2.600   0.040  15.056 -2.1933 -2.3931  0.2609
 5187SOL    HW227198   2.467   0.069  15.006 -0.1645 -1.1807 -0.9895
 5188SOL     OW27199   4.714   0.443   2.785 -0.1723  0.6415 -0.3228
 5188SOL    HW127200   0.045   0.393   2.740 -0.4904  0.4104 -0.5528
 5188SOL    HW227201   0.021   0.500   2.848 -0.8766  2.2051 -1.2254
 5189SOL     OW27202   0.692   3.629  12.138 -0.1742 -0.0156 -0.3324
 5189SOL    HW127203   0.786   3.625  12.154 -0.3585 -1.8905  0.2793
 5189SOL    HW227204   0.659   3.643  12.227  2.4755 -0.3421  0.6726
 5190SOL     OW27205   2.355   0.309  12.665  0.0086  0.5436  0.5341
 5190SOL    HW127206   2.397   0.332  12.582  2.6901  0.6221  1.9261
 5190SOL    HW227207   2.390   0.376  12.724  0.8428 -0.6573  1.3928
 5191SOL     OW27208   2.628   3.117   4.702  0.1613  0.1424 -0.0965
 5191SOL    HW127209   2.618   3.086   4.792 -0.2652 -0.9264 -0.5070
 5191SOL    HW227210   2.646   3.208   4.723 -0.4726  0.3652 -0.5162
 5192SOL     OW27211   2.616   0.392   9.425 -0.0088 -0.4385  0.6685
 5192SOL    HW127212   2.663   0.309   9.414 -0.8648 -1.0477  1.6061
 5192SOL    HW227213   2.647   0.414   9.513 -0.5760 -0.5244  0.8910
 5193SOL     OW27214   3.980   0.714   9.565 -0.1580 -0.2756  0.7622
 5193SOL    HW127215   3.932   0.636   9.590  0.2587 -1.0964 -1.0206
 5193SOL    HW227216   4.014   0.745   9.650  1.1433 -2.2139  0.9381
 5194SOL     OW27217   1.072   3.274   7.072  0.1700  0.2164 -0.0362
 5194SOL    HW127218   1.120   3.219   7.134 -0.9775  1.0123  1.5482
 5194SOL    HW227219   1.050   3.217   6.999 -0.4894  0.3811  0.0309
 5195SOL     OW27220   1.859   4.350   8.579  0.0646 -0.1976 -0.1293
 5195SOL    HW127221   1.816   4.297   8.512 -0.3799  0.1949 -0.1614
 5195SOL    HW227222   1.781   4.393   8.615  0.1630 -1.5686  1.7642
 5196SOL     OW27223   1.741   3.226   3.586  0.1280  0.2039  0.5241
 5196SOL    HW127224   1.747   3.298   3.649 -1.4035 -0.1125  1.0216
 5196SOL    HW227225   1.732   3.152   3.645 -0.1052  1.0541  1.5716
 5197SOL     OW27226   3.015   0.167  10.416 -0.0174  0.2004 -0.2166
 5197SOL    HW127227   3.039   0.258  10.400  1.0944 -0.1009 -0.2570
 5197SOL    HW227228   3.075   0.157  10.490  2.1458  0.1290 -1.9851
 5198SOL     OW27229   4.675   3.586   9.011  0.2396 -0.1846  0.5250
 5198SOL    HW127230   4.708   3.617   8.926 -2.6101  0.0482 -0.4957
 5198SOL    HW227231   4.661   3.495   8.986  2.2434 -0.4617  0.4294
 5199SOL     OW27232   3.613   1.621   4.018 -0.2315 -0.4908 -0.2449
 5199SOL    HW127233   3.647   1.676   3.947  2.9659 -4.0809 -1.5004
 5199SOL    HW227234   3.574   1.684   4.079 -0.1776 -0.3164 -0.3913
 5200SOL     OW27235   2.870   3.145   8.577  0.4941  0.0876  0.0947
 5200SOL    HW127236   2.818   3.222   8.555  2.4410  1.1810 -0.7510
 5200SOL    HW227237   2.820   3.107   8.649  0.0774 -0.0942 -0.2895
 5201SOL     OW27238   0.755   3.895  10.972  0.0845  0.0397 -0.5683
 5201SOL    HW127239   0.759   3.800  10.974  1.7744  0.1117 -0.1757
 5201SOL    HW227240   0.742   3.918  10.880  1.3726  0.9003 -0.5427
 5202SOL     OW27241   4.606   2.924   2.470 -0.3805  0.3008  0.1185
 5202SOL    HW127242   4.686   2.949   2.518 -1.2037 -0.9547  2.1421
 5202SOL    HW227243   4.652   2.884   2.396  0.8707  1.2853  0.3485
 5203SOL     OW27244   4.085   0.623   9.015  0.2241  0.4245  0.2169
 5203SOL    HW127245   4.048   0.540   9.046  2.2982 -0.0080  1.5230
 5203SOL    HW227246   4.074   0.676   9.093 -2.6056 -0.6807  0.5778
 5204SOL     OW27247   1.128   3.395  13.726  0.4279 -0.6149  0.3838
 5204SOL    HW127248   1.051   3.339  13.724  0.2537 -0.3159 -0.9134
 5204SOL    HW227249   1.096   3.485  13.737  2.9307  0.2525  0.7519
 5205SOL     OW27250   2.412   4.584   3.202 -0.3231  0.5838  0.5778
 5205SOL    HW127251   2.454   4.514   3.252 -1.0405  0.2422  0.7158
 5205SOL    HW227252   2.422   4.543   3.116 -0.0644  2.8437 -0.4441
 5206SOL     OW27253   1.177   0.071   5.292  0.2388  0.0231 -0.0409
 5206SOL    HW127254   1.110   0.106   5.350 -1.6699 -0.1756 -2.1413
 5206SOL    HW227255   1.206   0.153   5.250  1.3522 -1.3438 -1.9535
 5207SOL     OW27256   0.546   3.944   2.043 -0.1075 -0.3955 -0.4126
 5207SOL    HW127257   0.592   4.028   2.042 -0.9795  0.0784 -0.2765
 5207SOL    HW227258   0.580   3.911   1.960 -1.9005  0.1206 -1.3416
 5208SOL     OW27259   0.533   1.759   1.964  0.1100 -0.0187 -0.0132
 5208SOL    HW127260   0.517   1.747   2.058  1.1685  0.6625  0.2525
 5208SOL    HW227261   0.590   1.682   1.956 -0.2726 -0.4163  1.0450
 5209SOL     OW27262   4.546   3.360  16.802  0.1151  0.1263  0.0183
 5209SOL    HW127263   4.497   3.361  16.720  0.4464 -1.9712 -0.2064
 5209SOL    HW227264   4.560   3.266  16.816  1.9984 -0.1022 -3.3608
 5210SOL     OW27265   1.434   4.014  11.579 -0.1378 -0.0546 -0.1667
 5210SOL    HW127266   1.438   3.967  11.661 -1.8418  1.0899  0.5777
 5210SOL    HW227267   1.344   3.995  11.552 -0.3719  2.1834 -1.0082
 5211SOL     OW27268   1.440   2.509  16.649  0.3603 -0.0690  1.3626
 5211SOL    HW127269   1.465   2.599  16.670 -1.0704  1.2575 -2.4911
 5211SOL    HW227270   1.368   2.498  16.711 -0.7871 -0.2172  0.0178
 5212SOL     OW27271   0.704   4.349  10.158  0.2841  0.6576 -0.0655
 5212SOL    HW127272   0.799   4.336  10.160  0.5315  2.4673 -0.7248
 5212SOL    HW227273   0.688   4.274  10.216 -0.2058  1.9003  1.4164
 5213SOL     OW27274   2.419   2.320  10.708 -0.0588 -0.2950  0.0411
 5213SOL    HW127275   2.349   2.258  10.690  1.5586 -2.0244 -0.2537
 5213SOL    HW227276   2.467   2.331  10.625  2.8175 -2.1210  1.4578
 5214SOL     OW27277   1.261   0.910   1.320 -0.2301 -0.1717  0.1348
 5214SOL    HW127278   1.170   0.902   1.348  0.0789  0.7590  1.3801
 5214SOL    HW227279   1.290   0.969   1.389  1.0872 -2.5558  1.6436
 5215SOL     OW27280   2.023   3.490   6.728 -0.1012  0.2035 -0.3113
 5215SOL    HW127281   2.090   3.422   6.729  2.0517  2.3032 -0.4998
 5215SOL    HW227282   1.946   3.443   6.761 -2.1059  2.2756 -1.9805
 5216SOL     OW27283   1.535   0.381   1.585  0.2516 -0.1504  0.2552
 5216SOL    HW127284   1.449   0.338   1.579  0.6569 -1.1347  1.5854
 5216SOL    HW227285   1.594   0.309   1.563 -0.2671  0.3070 -2.7243
 5217SOL     OW27286   0.948   1.618   5.609  0.4444  0.3426 -0.3504
 5217SOL    HW127287   0.987   1.666   5.682  1.2304 -0.6947 -0.0908
 5217SOL    HW227288   0.888   1.691   5.593 -0.4785 -0.4612 -0.5616
 5218SOL     OW27289   4.185   0.789   4.764  0.3981 -0.0858 -0.5630
 5218SOL    HW127290   4.218   0.704   4.733  2.0346 -0.0905  1.2101
 5218SOL    HW227291   4.251   0.858   4.754 -1.1434  1.1502 -2.2757
 5219SOL     OW27292   3.457   2.646  10.894  0.2337  0.0570 -0.0931
 5219SOL    HW127293   3.378   2.602  10.863 -0.5822  0.6042  1.2076
 5219SOL    HW227294   3.458   2.634  10.989  0.1881 -0.5580 -0.1683
 5220SOL     OW27295   3.872   2.678   8.111 -0.4099  0.1055 -0.6194
 5220SOL    HW127296   3.852   2.771   8.099 -0.4256  0.1251 -0.4392
 5220SOL    HW227297   3.820   2.643   8.038  0.7692 -0.0396 -1.4038
 5221SOL     OW27298   0.672   0.946   3.882 -0.1277 -0.2995 -0.4072
 5221SOL    HW127299   0.693   0.948   3.789 -0.7081 -0.4060 -0.5430
 5221SOL    HW227300   0.717   1.026   3.910 -0.4513 -0.3736  0.3358
 5222SOL     OW27301   2.946   2.392   5.572  0.4683  0.7119  0.3388
 5222SOL    HW127302   2.941   2.332   5.646 -0.8404  1.7617  1.1129
 5222SOL    HW227303   2.865   2.444   5.575  1.2008  1.8646  0.1346
 5223SOL     OW27304   2.526   1.764   3.469 -0.1191 -0.2600  0.6783
 5223SOL    HW127305   2.595   1.746   3.532 -0.3985  0.6593  1.2467
 5223SOL    HW227306   2.517   1.674   3.436  2.1678  0.0484 -0.7352
 5224SOL     OW27307   2.150   2.915   3.209 -0.8042 -0.5162  0.7726
 5224SOL    HW127308   2.174   2.924   3.301  2.2463  0.9846 -0.2013
 5224SOL    HW227309   2.137   3.007   3.186 -1.5688 -0.4345  1.5112
 5225SOL     OW27310   2.704   2.174  12.017 -0.1064 -0.0317  0.1937
 5225SOL    HW127311   2.678   2.243  12.077 -0.6350  0.0124 -0.0895
 5225SOL    HW227312   2.783   2.217  11.985 -0.0664 -1.7940 -2.0424
 5226SOL     OW27313   1.742   3.559   8.325  0.5867 -0.1329 -0.0688
 5226SOL    HW127314   1.673   3.621   8.346  0.2015  0.3026 -2.6096
 5226SOL    HW227315   1.738   3.543   8.231  0.8782 -1.1404  0.0841
 5227SOL     OW27316   4.592   0.704   0.770  0.4599 -0.2334 -0.2634
 5227SOL    HW127317   4.655   0.729   0.702  0.0370 -0.6406 -0.8027
 5227SOL    HW227318   4.534   0.777   0.750 -0.1570 -0.0421  2.2926
 5228SOL     OW27319   3.597   0.643   6.653 -0.1788 -0.5844 -0.1435
 5228SOL    HW127320   3.538   0.706   6.696 -1.4834 -1.6464 -0.3593
 5228SOL    HW227321   3.563   0.559   6.685 -1.2349 -0.7811 -1.7772
 5229SOL     OW27322   0.971   1.572   8.167 -0.6070  0.7299  0.2026
 5229SOL    HW127323   0.962   1.619   8.250  0.6334  0.4327  0.5030
 5229SOL    HW227324   1.055   1.529   8.184 -1.0209 -0.8452 -1.7480
 5230SOL     OW27325   4.579   2.840  16.488  1.0073  0.2679  0.3403
 5230SOL    HW127326   4.599   2.775  16.556  0.3633  3.0472  3.2010
 5230SOL    HW227327   4.488   2.814  16.471  0.1358  2.6668  1.3154
 5231SOL     OW27328   4.351   3.792   2.654 -0.6726 -0.4414  0.0534
 5231SOL    HW127329   4.386   3.865   2.704 -1.2988  0.6199 -1.0367
 5231SOL    HW227330   4.295   3.742   2.713  0.2060 -1.2864  0.1742
 5232SOL     OW27331   2.842   0.294   2.434 -0.1508 -0.1926 -0.3263
 5232SOL    HW127332   2.910   0.344   2.480  0.8827 -0.5822 -1.4239
 5232SOL    HW227333   2.864   0.206   2.464  2.5337  0.3890 -0.5899
 5233SOL     OW27334   1.272   2.948  14.598  0.0587 -0.2821  0.1070
 5233SOL    HW127335   1.223   2.925  14.520  0.3127  0.6306 -0.3206
 5233SOL    HW227336   1.200   2.995  14.641 -0.9199 -2.2312  0.5887
 5234SOL     OW27337   2.272   2.114   4.232 -0.0991 -0.5312 -0.1212
 5234SOL    HW127338   2.340   2.179   4.246 -0.3401 -0.0850 -0.9937
 5234SOL    HW227339   2.268   2.107   4.136  1.2816 -1.7958 -0.0909
 5235SOL     OW27340   4.495   4.312   2.304  0.1065 -1.1764  0.4142
 5235SOL    HW127341   4.456   4.375   2.364  0.5527  0.6654 -1.2080
 5235SOL    HW227342   4.419   4.297   2.247 -0.5662 -2.1089  1.5603
 5236SOL     OW27343   1.246   4.167   5.274  0.6192  0.8287  0.0314
 5236SOL    HW127344   1.334   4.167   5.236  1.2568 -0.5706  1.4967
 5236SOL    HW227345   1.196   4.231   5.224  1.1048 -0.1326 -1.6845
 5237SOL     OW27346   0.693   0.767   5.989  0.2627 -0.3106  0.2207
 5237SOL    HW127347   0.700   0.689   6.045 -0.1480 -0.1462  0.5010
 5237SOL    HW227348   0.597   0.772   5.988  0.2395 -1.5102 -2.3856
 5238SOL     OW27349   1.964   1.941   4.102 -0.2344 -0.2418 -0.0481
 5238SOL    HW127350   1.953   1.863   4.048 -1.1606 -0.7993  0.9480
 5238SOL    HW227351   1.942   1.909   4.189  0.9614 -1.1485 -0.0826
 5239SOL     OW27352   2.115   4.342   5.481  0.6299  0.7629 -0.2411
 5239SOL    HW127353   2.032   4.374   5.446  0.2013 -0.3553 -0.2409
 5239SOL    HW227354   2.171   4.419   5.475  1.0162  0.3506 -1.8230
 5240SOL     OW27355   2.462   1.370  17.601  0.2937  0.0060  0.4421
 5240SOL    HW127356   2.505   1.383  17.685 -1.2977  4.0775  0.6696
 5240SOL    HW227357   2.405   1.447  17.593 -1.3555 -1.3645 -1.2115
 5241SOL     OW27358   1.645   3.801   7.748 -0.3874 -0.1777 -0.4904
 5241SOL    HW127359   1.594   3.724   7.721 -1.7300  0.8982 -0.9966
 5241SOL    HW227360   1.731   3.763   7.766 -1.6414 -2.6487  0.2736
 5242SOL     OW27361   3.878   3.968   6.811 -0.3452  0.5532 -0.0227
 5242SOL    HW127362   3.878   3.874   6.791 -2.2101  1.0392 -2.3700
 5242SOL    HW227363   3.946   4.009   6.758  0.5632 -0.1621  0.5964
 5243SOL     OW27364   0.713   0.675   3.473 -0.1845  0.4430  0.0919
 5243SOL    HW127365   0.654   0.743   3.506  1.9843  1.1065  2.6028
 5243SOL    HW227366   0.655   0.600   3.460  1.1650 -0.7319  0.9113
 5244SOL     OW27367   3.313   1.983   9.358  0.3749 -0.0325  0.1301
 5244SOL    HW127368   3.253   2.053   9.330  2.3215  1.2944 -0.7568
 5244SOL    HW227369   3.381   1.989   9.291  1.4170  1.5046  1.3116
 5245SOL     OW27370   2.676   0.109   5.625  0.1965 -0.2462 -0.1890
 5245SOL    HW127371   2.673   0.204   5.615 -1.4101 -0.0014  2.6155
 5245SOL    HW227372   2.770   0.090   5.633  0.2453  0.2142  0.2743
 5246SOL     OW27373   2.877   2.731   5.313  0.2941 -0.1932 -0.7238
 5246SOL    HW127374   2.812   2.699   5.249 -1.9962 -0.9083  1.9588
 5246SOL    HW227375   2.959   2.710   5.269 -0.1159 -1.0691 -1.0738
 5247SOL     OW27376   4.257   1.924   1.787  0.2810  0.2289 -0.2623
 5247SOL    HW127377   4.262   1.995   1.722 -1.3982  0.7078  0.1149
 5247SOL    HW227378   4.344   1.887   1.795  0.2953  0.5718  1.1072
 5248SOL     OW27379   0.179   2.334   8.355 -0.3470  0.5146 -0.2346
 5248SOL    HW127380   0.140   2.257   8.313  0.0385  0.2081 -0.0377
 5248SOL    HW227381   0.235   2.290   8.420 -0.5494 -0.1945 -0.5389
 5249SOL     OW27382   0.117   2.686   4.425  0.0812  0.0700  0.1253
 5249SOL    HW127383   0.160   2.612   4.381 -2.3853 -1.7115  0.7073
 5249SOL    HW227384   0.187   2.710   4.486  1.2301 -0.0945 -1.1178
 5250SOL     OW27385   0.657   0.300   8.053  0.0904 -0.0563  0.1302
 5250SOL    HW127386   0.636   0.393   8.049 -1.2149 -0.3419  0.4337
 5250SOL    HW227387   0.737   0.290   8.000  0.4787 -0.0682  0.7245
 5251SOL     OW27388   3.784   1.453  17.247 -0.5732  0.1441 -0.7343
 5251SOL    HW127389   3.733   1.385  17.290 -0.0594  0.4867  0.4183
 5251SOL    HW227390   3.851   1.445  17.315 -0.3427  2.0826 -0.7407
 5252SOL     OW27391   1.675   2.728  11.801 -0.0439  0.0865 -0.3778
 5252SOL    HW127392   1.718   2.769  11.875 -1.0888  0.8938 -0.2276
 5252SOL    HW227393   1.585   2.725  11.833  0.2617 -0.4885  0.4104
 5253SOL     OW27394   1.099   4.300   2.427  0.0759 -0.0286 -0.0280
 5253SOL    HW127395   1.114   4.387   2.464  1.3444  0.1109 -0.8478
 5253SOL    HW227396   1.175   4.253   2.460 -1.6049 -0.9519  2.5265
 5254SOL     OW27397   2.423   0.434  11.410 -0.6386 -0.1204  0.2195
 5254SOL    HW127398   2.380   0.486  11.341  0.9756 -0.5240 -1.0833
 5254SOL    HW227399   2.343   0.409  11.456  0.3538 -0.2594  1.8510
 5255SOL     OW27400   0.562   1.279   2.146 -0.3238 -0.3029  0.2966
 5255SOL    HW127401   0.568   1.227   2.226  2.3087  0.2678  0.4549
 5255SOL    HW227402   0.618   1.352   2.172 -2.0663  0.9489  0.5355
 5256SOL     OW27403   4.496   2.506   3.003  0.0799  0.0301  0.5648
 5256SOL    HW127404   4.438   2.438   2.968 -0.4359  1.0907 -0.6807
 5256SOL    HW227405   4.586   2.479   2.988 -0.2139 -0.1557 -0.8617
 5257SOL     OW27406   4.376   1.503   5.143 -0.0876 -0.3562  0.0029
 5257SOL    HW127407   4.332   1.495   5.228 -1.3107 -1.9081 -0.7529
 5257SOL    HW227408   4.456   1.451   5.149 -0.3592 -0.7410  0.2540
 5258SOL     OW27409   2.540   1.967  11.917 -0.0968 -0.4839 -0.1517
 5258SOL    HW127410   2.460   1.952  11.966  1.5552 -6.2166  0.7448
 5258SOL    HW227411   2.586   2.040  11.959  0.4466 -0.0829 -1.4261
 5259SOL     OW27412   4.693   1.004  15.504  0.0306 -0.3452  0.2839
 5259SOL    HW127413   4.667   0.953  15.427  1.4013 -0.3719 -0.1618
 5259SOL    HW227414   0.044   0.971  15.518 -0.6451 -0.3917  4.3467
 5260SOL     OW27415   3.903   0.818   6.169  0.3215  0.1270 -0.1508
 5260SOL    HW127416   3.825   0.762   6.173 -0.0345  0.6627  0.3245
 5260SOL    HW227417   3.877   0.877   6.239 -0.1581 -1.4284  0.9857
 5261SOL     OW27418   2.858   2.870   8.080 -0.7282 -0.5258  0.1516
 5261SOL    HW127419   2.785   2.876   8.142 -0.9876  0.9927 -0.2912
 5261SOL    HW227420   2.880   2.778   8.092 -4.1855 -1.6683 -2.3488
 5262SOL     OW27421   4.220   0.394   5.332  0.0798 -0.2966  0.0973
 5262SOL    HW127422   4.181   0.473   5.369  1.0483  0.4077 -0.3910
 5262SOL    HW227423   4.169   0.388   5.252 -0.7084 -1.5057  0.6797
 5263SOL     OW27424   2.063   4.537  12.005 -0.3407  0.3662 -0.0931
 5263SOL    HW127425   2.008   4.459  12.005  0.8927 -0.5093  0.1942
 5263SOL    HW227426   2.147   4.491  12.007  0.4660  1.8513  0.9377
 5264SOL     OW27427   4.127   2.884   1.146  0.7743  0.0018 -0.3395
 5264SOL    HW127428   4.196   2.949   1.160 -0.8683  1.0843  2.7373
 5264SOL    HW227429   4.060   2.938   1.107  0.4244  1.1381  1.8108
 5265SOL     OW27430   3.073   3.494  16.960  0.2570  0.1917  0.0447
 5265SOL    HW127431   3.029   3.423  17.007  0.7406 -0.4749 -0.5115
 5265SOL    HW227432   3.005   3.556  16.984  0.9198  0.8756  0.1663
 5266SOL     OW27433   4.630   3.566   0.352 -0.0682 -0.3096 -0.0841
 5266SOL    HW127434   4.568   3.573   0.425 -0.1974 -0.0801 -0.2132
 5266SOL    HW227435   4.609   3.643   0.299 -0.5375  0.7703  1.6672
 5267SOL     OW27436   4.063   3.137  12.510  0.4912  0.5595 -0.3434
 5267SOL    HW127437   4.060   3.215  12.454 -0.7061 -1.0631 -2.5319
 5267SOL    HW227438   4.158   3.126  12.509  0.5250  0.8822 -0.5350
 5268SOL     OW27439   3.516   2.128  11.957  0.2375  0.2654 -0.1937
 5268SOL    HW127440   3.523   2.218  11.990 -2.2629 -0.4057  2.0742
 5268SOL    HW227441   3.544   2.078  12.033  2.8883  1.8918 -0.0714
 5269SOL     OW27442   0.962   1.935   6.729  0.0153 -0.1490 -0.1990
 5269SOL    HW127443   1.008   1.854   6.705 -2.2188 -1.4125 -0.1631
 5269SOL    HW227444   1.038   1.993   6.725 -0.2475  0.3034  1.3646
 5270SOL     OW27445   2.985   0.091   5.151  0.0365 -0.0372 -0.0446
 5270SOL    HW127446   2.963   0.026   5.218  0.0119  2.5900  2.5514
 5270SOL    HW227447   3.071   0.123   5.181 -0.3266  1.7059 -0.8371
 5271SOL     OW27448   0.632   1.520   1.311  0.1366  0.2789 -0.1790
 5271SOL    HW127449   0.566   1.531   1.379 -1.3057  3.0717 -2.0554
 5271SOL    HW227450   0.690   1.594   1.328 -0.6391  0.9835 -0.5998
 5272SOL     OW27451   3.014   2.010  10.463 -0.1343 -0.1228 -0.2905
 5272SOL    HW127452   2.932   1.994  10.416 -0.1984 -1.6899  0.3736
 5272SOL    HW227453   3.018   2.098  10.501  1.5685  0.6049 -2.1590
 5273SOL     OW27454   2.544   0.540  15.394 -0.6666 -0.1095 -0.3487
 5273SOL    HW127455   2.571   0.449  15.376 -1.5088 -0.7398  1.5859
 5273SOL    HW227456   2.451   0.520  15.408 -0.4578 -1.7675 -1.2771
 5274SOL     OW27457   4.646   1.165  14.117 -0.2619 -0.1680 -0.1621
 5274SOL    HW127458   4.572   1.140  14.172 -1.9532  1.2810 -1.8041
 5274SOL    HW227459   4.686   1.240  14.162 -1.1586  0.8641 -1.0885
 5275SOL     OW27460   1.601   4.605   6.166  0.2821  0.0978  0.1921
 5275SOL    HW127461   1.621   4.514   6.186  0.5030  0.0127 -0.4214
 5275SOL    HW227462   1.671   4.625   6.104  1.2120  1.1601  1.5826
 5276SOL     OW27463   1.744   0.070   4.253  0.2365  0.5450 -0.8931
 5276SOL    HW127464   1.653   0.082   4.228  0.5381  0.4844 -2.0146
 5276SOL    HW227465   1.747   4.722   4.293 -0.0702  0.7556 -0.4177
 5277SOL     OW27466   2.271   2.063  12.816  0.2473  0.4703  0.2738
 5277SOL    HW127467   2.220   2.023  12.746  0.3204 -0.2731  0.6517
 5277SOL    HW227468   2.206   2.071  12.886 -1.2325 -0.6720 -0.9677
 5278SOL     OW27469   3.648   0.516  10.154  0.3244 -0.4072 -0.2437
 5278SOL    HW127470   3.568   0.569  10.147 -0.4930 -1.6830 -0.4489
 5278SOL    HW227471   3.639   0.456  10.080 -0.4041 -0.3866 -0.1758
 5279SOL     OW27472   2.372   0.106   5.075  0.0307 -0.3665  0.1941
 5279SOL    HW127473   2.304   0.173   5.063  0.7915  0.3132 -0.3808
 5279SOL    HW227474   2.333   0.052   5.006  1.4322  0.7207 -1.4662
 5280SOL     OW27475   1.542   4.382   7.077 -0.5440  0.5949 -0.2909
 5280SOL    HW127476   1.578   4.417   7.159 -0.7494 -0.1382  0.1100
 5280SOL    HW227477   1.551   4.289   7.096  3.2321  0.4966 -2.4392
 5281SOL     OW27478   0.072   4.433  15.435  0.0728  0.0358 -0.0562
 5281SOL    HW127479   0.117   4.445  15.351 -0.0212  0.7323 -0.0035
 5281SOL    HW227480   4.720   4.448  15.407 -0.5360 -0.1094  1.8333
 5282SOL     OW27481   2.137   1.688  17.329  0.5775  0.2443 -0.3734
 5282SOL    HW127482   2.047   1.694  17.361 -0.0805 -0.4985 -2.0714
 5282SOL    HW227483   2.182   1.709  17.411 -1.4607 -2.1606  1.3485
 5283SOL     OW27484   0.227   0.677   8.675  0.0759  0.1655  0.4464
 5283SOL    HW127485   0.249   0.618   8.747 -0.7494 -0.3649  0.2575
 5283SOL    HW227486   0.133   0.683   8.693  0.1817 -1.0834  1.4138
 5284SOL     OW27487   4.710   0.900   5.065 -0.0712  0.2764 -0.2952
 5284SOL    HW127488   4.696   0.958   5.140 -2.7450  0.4356 -0.9485
 5284SOL    HW227489   4.735   0.820   5.111 -0.2519  1.4076  1.7677
 5285SOL     OW27490   3.000   3.303   9.856  0.2802 -0.4986  1.2363
 5285SOL    HW127491   2.946   3.298   9.935 -2.7836 -0.5051 -0.8241
 5285SOL    HW227492   2.934   3.270   9.794  0.5289  0.1591  0.6210
 5286SOL     OW27493   3.958   3.305   8.354  0.1129 -0.3081  0.2866
 5286SOL    HW127494   3.960   3.233   8.291 -1.0285 -1.4112  1.5261
 5286SOL    HW227495   3.866   3.308   8.380 -0.4694  0.1731 -1.7978
 5287SOL     OW27496   2.964   1.888  12.039 -0.2305  0.0207 -0.6831
 5287SOL    HW127497   3.004   1.802  12.055  0.5945  0.5953  0.3067
 5287SOL    HW227498   2.878   1.868  12.076  0.1494 -1.0905 -0.4081
 5288SOL     OW27499   1.934   3.512   2.154 -0.3543 -0.2405  0.0573
 5288SOL    HW127500   1.942   3.558   2.070  3.6633 -0.4185  0.3350
 5288SOL    HW227501   1.978   3.430   2.131  0.1103  0.3308 -1.0827
 5289SOL     OW27502   3.284   3.241   3.003 -0.6703 -0.2195 -0.3688
 5289SOL    HW127503   3.251   3.156   3.032  0.8492 -0.9343 -0.7297
 5289SOL    HW227504   3.295   3.286   3.087  2.5024 -0.3885 -0.6984
 5290SOL     OW27505   2.794   2.264   5.339 -0.1223 -0.0625 -0.0227
 5290SOL    HW127506   2.883   2.269   5.374 -0.8104 -3.3336  2.1499
 5290SOL    HW227507   2.759   2.186   5.381 -1.6521 -0.1503 -1.4574
 5291SOL     OW27508   0.982   1.717  12.600 -0.2763  0.1740  0.0672
 5291SOL    HW127509   0.941   1.633  12.620  1.3574 -0.8588 -0.9278
 5291SOL    HW227510   0.943   1.780  12.661 -1.6473 -0.6331  0.0193
 5292SOL     OW27511   1.826   2.635   6.718  0.0766 -0.9103  0.1639
 5292SOL    HW127512   1.813   2.703   6.784  1.6501  1.3097 -1.8062
 5292SOL    HW227513   1.893   2.686   6.672 -2.4967 -0.2822 -2.9250
 5293SOL     OW27514   2.830   0.895  14.277 -0.6115 -0.0257 -0.3019
 5293SOL    HW127515   2.795   0.810  14.250  2.0841 -0.9042 -1.0507
 5293SOL    HW227516   2.760   0.955  14.253 -1.8547 -1.2883  0.1858
 5294SOL     OW27517   2.753   2.344   8.157 -0.1409 -0.3770 -0.0733
 5294SOL    HW127518   2.793   2.281   8.098  2.1613  1.9559 -1.0003
 5294SOL    HW227519   2.668   2.368   8.118 -0.1589 -0.8574 -0.3338
 5295SOL     OW27520   3.310   0.374  10.134 -0.6762 -0.4867 -0.6914
 5295SOL    HW127521   3.322   0.299  10.076 -1.2076  0.6247 -2.2372
 5295SOL    HW227522   3.239   0.349  10.192 -0.5811  0.2693 -0.2474
 5296SOL     OW27523   4.718   3.398   0.146  0.0380  0.3580 -0.2456
 5296SOL    HW127524   4.678   3.442   0.222 -1.1788  0.5268 -0.9702
 5296SOL    HW227525   0.043   3.464   0.118  0.4359  0.4944  0.9587
 5297SOL     OW27526   1.406   3.340   2.407 -0.4659  0.5294  0.4667
 5297SOL    HW127527   1.360   3.266   2.368  0.3441  0.5747 -0.5822
 5297SOL    HW227528   1.356   3.416   2.377  0.0629  0.6539 -0.1095
 5298SOL     OW27529   1.841   2.941   5.541 -0.5452 -0.3022 -0.5454
 5298SOL    HW127530   1.779   2.939   5.468 -2.4136 -0.3540  1.0175
 5298SOL    HW227531   1.882   3.026   5.530 -2.2438  0.2650 -2.5503
 5299SOL     OW27532   4.368   2.713   3.779  0.1778 -0.0113  1.1307
 5299SOL    HW127533   4.295   2.768   3.808 -0.7750 -0.1003 -1.0976
 5299SOL    HW227534   4.403   2.671   3.857  4.8187  0.7980 -0.5230
 5300SOL     OW27535   0.709   2.053   5.116  0.1465 -0.4260  0.0796
 5300SOL    HW127536   0.713   2.041   5.211  2.2090 -0.9095 -0.0745
 5300SOL    HW227537   0.803   2.051   5.100  0.4733  1.4812  1.5837
 5301SOL     OW27538   3.351   2.752   3.850 -0.3076  0.4942  0.0303
 5301SOL    HW127539   3.375   2.712   3.766  1.0299 -0.4553  0.8866
 5301SOL    HW227540   3.291   2.823   3.827  1.0552  1.8717  0.6528
 5302SOL     OW27541   1.416   2.373   8.318  0.3201  0.0876 -0.3424
 5302SOL    HW127542   1.453   2.377   8.230  0.2824 -0.8348 -0.3990
 5302SOL    HW227543   1.496   2.391   8.367  0.5827 -0.0147 -0.7340
 5303SOL     OW27544   2.601   3.709   8.971  0.1111  0.1491 -0.0778
 5303SOL    HW127545   2.608   3.614   8.977 -0.4186  0.1468  0.4416
 5303SOL    HW227546   2.512   3.717   9.004  1.0616  2.0519  2.0393
 5304SOL     OW27547   3.722   3.452   6.242 -0.5789  0.1145 -0.0426
 5304SOL    HW127548   3.730   3.357   6.236 -2.3684 -0.1792  2.1651
 5304SOL    HW227549   3.642   3.456   6.189 -0.9232  1.6267  0.6105
 5305SOL     OW27550   2.277   3.285   1.853 -0.1986 -0.4925  0.5721
 5305SOL    HW127551   2.203   3.296   1.913  1.2379 -3.5791  2.8536
 5305SOL    HW227552   2.316   3.372   1.863  0.8089 -0.8611 -0.1617
 5306SOL     OW27553   4.632   4.478   2.673  0.3040  0.0759  0.1555
 5306SOL    HW127554   4.540   4.485   2.645  0.7945  1.6564 -1.0794
 5306SOL    HW227555   4.675   4.479   2.587 -0.4159  0.2767 -0.2104
 5307SOL     OW27556   0.285   4.479  14.227 -0.2671 -0.3742 -0.0039
 5307SOL    HW127557   0.203   4.515  14.194 -0.1842  0.5532  0.8103
 5307SOL    HW227558   0.337   4.558  14.242  1.9470 -1.8463  0.1315
 5308SOL     OW27559   4.438   4.308   4.238 -0.4696 -0.2994  0.2053
 5308SOL    HW127560   4.474   4.255   4.167 -0.7593  0.2225 -0.3275
 5308SOL    HW227561   4.443   4.398   4.204  0.5962 -0.0569  0.9643
 5309SOL     OW27562   3.339   0.900   7.758 -0.6528  0.1546 -0.3253
 5309SOL    HW127563   3.311   0.810   7.740 -0.8197  0.7451 -3.0412
 5309SOL    HW227564   3.357   0.891   7.852 -1.7173  0.3861 -0.1075
 5310SOL     OW27565   1.768   3.642   2.301 -0.1601 -0.0514 -0.1137
 5310SOL    HW127566   1.817   3.583   2.243 -0.0172 -1.9373  1.9465
 5310SOL    HW227567   1.774   3.723   2.249 -0.7347 -0.9230 -1.5246
 5311SOL     OW27568   0.315   4.404  16.128  0.4313  0.7972 -0.5411
 5311SOL    HW127569   0.290   4.472  16.066  0.0792  1.0558 -0.1232
 5311SOL    HW227570   0.395   4.442  16.164  1.4973 -2.3563  0.4161
 5312SOL     OW27571   1.851   3.490  16.551 -0.0487 -0.3734 -0.7344
 5312SOL    HW127572   1.934   3.452  16.580 -0.5518 -1.4413 -0.6621
 5312SOL    HW227573   1.854   3.577  16.590 -1.4339 -1.0272  0.8708
 5313SOL     OW27574   4.184   3.969   5.842  0.2367 -0.0616 -0.3431
 5313SOL    HW127575   4.109   3.957   5.784 -0.3264  2.1201 -0.0811
 5313SOL    HW227576   4.238   4.027   5.787 -1.1062 -0.2110 -1.8164
 5314SOL     OW27577   3.982   0.627   1.202 -0.7947 -0.2012  0.0613
 5314SOL    HW127578   4.048   0.675   1.252  0.1827 -1.9187  0.4153
 5314SOL    HW227579   3.999   0.541   1.240 -0.8963 -0.0189  0.5241
 5315SOL     OW27580   3.782   2.298   7.691 -0.1747  0.2262  0.2826
 5315SOL    HW127581   3.854   2.360   7.701  1.6950 -2.0931  1.2705
 5315SOL    HW227582   3.709   2.356   7.669 -0.1725  0.3250  0.5362
 5316SOL     OW27583   3.103   1.569   8.609 -0.4829 -0.3228  0.2519
 5316SOL    HW127584   3.183   1.518   8.626  1.4575  2.9163  0.7407
 5316SOL    HW227585   3.128   1.660   8.623  0.7011 -0.8689  1.7096
 5317SOL     OW27586   0.581   2.957   2.076  0.1571  0.8216  0.0459
 5317SOL    HW127587   0.492   2.980   2.050  0.1979 -0.5773 -1.3107
 5317SOL    HW227588   0.585   2.982   2.168  0.5055 -2.1556  0.8399
 5318SOL     OW27589   2.188   0.982  10.045  0.8685 -0.1127 -0.2405
 5318SOL    HW127590   2.172   0.955  10.136  0.9306 -1.6654 -0.6914
 5318SOL    HW227591   2.209   0.900  10.000 -0.3694 -1.0841  0.9629
 5319SOL     OW27592   4.429   3.227   2.161  0.0590  0.2298 -0.2324
 5319SOL    HW127593   4.444   3.166   2.089  0.0060 -0.3556  0.2407
 5319SOL    HW227594   4.359   3.283   2.128 -0.1320  0.6511  0.8840
 5320SOL     OW27595   3.125   1.785  12.662  0.1413  0.1508  0.1248
 5320SOL    HW127596   3.110   1.694  12.686  1.3824  0.2982  1.4207
 5320SOL    HW227597   3.061   1.795  12.591 -0.3861  0.2498  0.6199
 5321SOL     OW27598   1.921   2.954   8.243  0.7886  0.0951 -0.0441
 5321SOL    HW127599   1.977   3.021   8.204  1.2633 -0.8372 -0.9462
 5321SOL    HW227600   1.844   2.962   8.187  0.5566 -0.9998  0.1260
 5322SOL     OW27601   0.040   1.756   2.188 -0.6604 -0.2616 -0.2197
 5322SOL    HW127602   0.128   1.725   2.169  0.6909  2.0401  2.3946
 5322SOL    HW227603   4.737   1.680   2.229  0.9693 -1.5172 -0.9293
 5323SOL     OW27604   4.512   3.649   2.914  0.1059  0.7558 -0.1365
 5323SOL    HW127605   4.465   3.726   2.949 -1.4529 -0.6041  0.7441
 5323SOL    HW227606   4.486   3.581   2.975 -0.2643 -0.3298 -1.5073
 5324SOL     OW27607   3.346   1.727  10.469 -0.2649 -0.5643  0.0898
 5324SOL    HW127608   3.304   1.735  10.383 -0.1061  0.9894  0.1606
 5324SOL    HW227609   3.290   1.787  10.517  0.5766 -0.7868  1.3629
 5325SOL     OW27610   3.074   1.590  13.820 -0.3294  0.2640  0.1460
 5325SOL    HW127611   3.050   1.562  13.908  0.7892 -2.4879 -0.4223
 5325SOL    HW227612   3.089   1.683  13.839  3.2109 -0.2275 -0.2451
 5326SOL     OW27613   4.286   0.182   3.540 -0.4471  0.4330 -0.0187
 5326SOL    HW127614   4.221   0.252   3.550  1.0840  2.2206 -2.2832
 5326SOL    HW227615   4.330   0.188   3.624  0.9191 -0.3247 -0.6854
 5327SOL     OW27616   0.190   3.035   9.767  0.3978 -0.0477 -0.3772
 5327SOL    HW127617   0.233   2.953   9.744 -1.1247 -1.5161  1.9958
 5327SOL    HW227618   0.104   2.997   9.786 -0.1551  1.3345 -0.1052
 5328SOL     OW27619   1.484   3.399   5.991  0.2103  0.0432  0.1214
 5328SOL    HW127620   1.439   3.466   6.042  0.2858  0.4511 -0.3527
 5328SOL    HW227621   1.572   3.411   6.028  0.1989  1.5974 -0.3615
 5329SOL     OW27622   2.853   3.518  10.825 -0.6144 -0.3391  0.4015
 5329SOL    HW127623   2.895   3.604  10.829  1.1011 -1.1758  0.2531
 5329SOL    HW227624   2.896   3.478  10.900 -0.3448 -2.8314 -1.0642
 5330SOL     OW27625   1.755   1.622   8.732 -0.0040  0.3605 -0.2674
 5330SOL    HW127626   1.708   1.639   8.814  0.3543  2.2788 -0.4467
 5330SOL    HW227627   1.815   1.550   8.750  2.1804  1.5675 -2.7056
 5331SOL     OW27628   1.369   1.242   7.098 -0.2421 -0.3815 -0.4355
 5331SOL    HW127629   1.460   1.268   7.113  0.2328 -2.9930  1.1899
 5331SOL    HW227630   1.354   1.152   7.128 -0.0119 -1.0818 -2.4174
 5332SOL     OW27631   2.770   1.357   2.220  0.1609  0.5025 -0.1884
 5332SOL    HW127632   2.780   1.447   2.188 -0.6679  0.0551 -1.7368
 5332SOL    HW227633   2.736   1.313   2.142 -0.0120  0.1960  0.0644
 5333SOL     OW27634   3.444   2.567   6.117  0.6482 -0.3662 -0.0465
 5333SOL    HW127635   3.492   2.646   6.143 -0.9674  0.6472 -0.2045
 5333SOL    HW227636   3.359   2.604   6.095  0.3543 -1.6528 -1.0932
 5334SOL     OW27637   3.615   1.922   4.672  0.0211  0.1651  0.2902
 5334SOL    HW127638   3.674   1.881   4.735  0.2060  2.1191  1.3952
 5334SOL    HW227639   3.547   1.952   4.732 -1.8638 -1.9539 -0.7784
 5335SOL     OW27640   1.024   0.926  16.422 -0.5994  0.1011  0.0648
 5335SOL    HW127641   0.932   0.917  16.445 -0.5507  0.8835  0.5848
 5335SOL    HW227642   1.032   0.844  16.373  2.2029 -0.0418  0.7225
 5336SOL     OW27643   1.248   1.041  16.503 -0.4790  0.0069  0.5264
 5336SOL    HW127644   1.237   1.125  16.458 -1.6678 -0.4612 -0.0679
 5336SOL    HW227645   1.161   1.002  16.488 -0.8552  1.2038 -0.3968
 5337SOL     OW27646   0.875   0.107   8.767  0.1778  0.5217  0.5213
 5337SOL    HW127647   0.839   0.087   8.680  1.8754 -0.0411 -0.0525
 5337SOL    HW227648   0.832   0.042   8.821  0.9581  2.3086  3.2868
 5338SOL     OW27649   2.501   1.172   1.586 -0.4192  0.0245  0.6091
 5338SOL    HW127650   2.449   1.170   1.506  1.8348 -1.1511 -0.8426
 5338SOL    HW227651   2.588   1.184   1.548 -1.3508 -1.7590 -2.0761
 5339SOL     OW27652   3.108   2.061  16.285 -0.3844 -0.1717  0.1191
 5339SOL    HW127653   3.101   2.028  16.375 -0.9652 -2.2161 -0.6797
 5339SOL    HW227654   3.025   2.043  16.240 -0.5416  2.4591 -0.6440
 5340SOL     OW27655   4.192   4.571   4.490 -0.1206 -0.7629 -0.6638
 5340SOL    HW127656   4.274   4.567   4.540 -1.0698 -0.0144  0.9495
 5340SOL    HW227657   4.169   4.479   4.486 -0.4058 -0.7389  0.4658
 5341SOL     OW27658   3.122   1.079   4.600 -0.1314 -0.2547 -0.0146
 5341SOL    HW127659   3.187   1.148   4.601  1.6348 -1.9390  0.7533
 5341SOL    HW227660   3.047   1.127   4.637  0.7484  0.2969  1.0481
 5342SOL     OW27661   4.365   1.619   9.888 -0.0082  0.9402 -0.8627
 5342SOL    HW127662   4.423   1.680   9.844  2.4734 -0.3327  0.6687
 5342SOL    HW227663   4.287   1.672   9.873  0.4990  1.1932 -2.5710
 5343SOL     OW27664   0.102   3.573   0.699 -0.1286  0.3477 -0.0760
 5343SOL    HW127665   0.052   3.652   0.679  1.0328  1.0051 -0.3535
 5343SOL    HW227666   0.123   3.536   0.613 -2.9249 -0.8280 -0.2626
 5344SOL     OW27667   3.096   0.136   6.288  0.3151  0.2557 -0.5468
 5344SOL    HW127668   3.187   0.125   6.260  0.6620  1.4263  0.0742
 5344SOL    HW227669   3.061   0.201   6.226  1.1999 -0.1282 -1.4443
 5345SOL     OW27670   0.742   0.433   2.898 -0.8112 -0.0627  0.7617
 5345SOL    HW127671   0.790   0.353   2.879 -0.7344 -0.2065  1.5684
 5345SOL    HW227672   0.657   0.416   2.857 -1.8122  3.6306  1.3360
 5346SOL     OW27673   4.211   3.022   4.933 -0.4456  0.7880  0.2882
 5346SOL    HW127674   4.247   3.103   4.898  0.2545 -0.2716 -1.4397
 5346SOL    HW227675   4.220   3.036   5.027  1.0440 -1.2726  0.4662
 5347SOL     OW27676   3.956   4.463   4.109 -0.1080  0.2850  0.2246
 5347SOL    HW127677   4.046   4.496   4.112  0.0332 -0.0287 -0.7120
 5347SOL    HW227678   3.941   4.447   4.016  1.2127  2.8664 -0.4225
 5348SOL     OW27679   1.847   3.610   7.809 -0.5974  0.1789  0.4675
 5348SOL    HW127680   1.938   3.635   7.795 -1.0602  1.3555 -0.4353
 5348SOL    HW227681   1.848   3.524   7.768  4.7924  1.9839 -3.2125
 5349SOL     OW27682   3.955   2.055   8.587 -0.7885 -0.3065 -0.3013
 5349SOL    HW127683   3.933   2.148   8.594  0.0939 -0.0297 -1.2084
 5349SOL    HW227684   3.869   2.030   8.553 -0.8367  1.5465 -1.5216
 5350SOL     OW27685   3.065   1.255   8.446 -0.6838 -0.2807 -0.3671
 5350SOL    HW127686   3.037   1.323   8.507 -0.4181 -0.5787  0.0874
 5350SOL    HW227687   3.094   1.196   8.515 -0.6668  0.8419  0.5759
 5351SOL     OW27688   0.635   4.357  13.820  0.4425 -0.2745 -0.4475
 5351SOL    HW127689   0.577   4.281  13.829  1.5555 -0.9744  0.9194
 5351SOL    HW227690   0.574   4.429  13.837  0.0720 -0.2533 -1.8865
 5352SOL     OW27691   1.379   1.513   9.049 -0.0250  0.2138 -0.5358
 5352SOL    HW127692   1.356   1.583   9.110  0.3761  1.7311 -2.1378
 5352SOL    HW227693   1.360   1.432   9.096 -3.4099  0.7085 -1.0298
 5353SOL     OW27694   3.995   2.331  17.349  0.1447  0.6635  0.1017
 5353SOL    HW127695   3.953   2.319  17.264 -2.4093  0.5751  1.3529
 5353SOL    HW227696   3.929   2.297  17.411  0.7615 -0.2598  0.2513
 5354SOL     OW27697   3.074   0.126   3.623  0.1280 -0.1534  0.1763
 5354SOL    HW127698   3.030   0.046   3.652  0.1251  0.5609  2.1267
 5354SOL    HW227699   3.094   0.169   3.706 -1.3509 -1.6396  1.3063
 5355SOL     OW27700   2.627   4.585  17.074 -0.3083 -0.1107 -0.3744
 5355SOL    HW127701   2.534   4.565  17.087 -0.0577 -2.3324 -2.0333
 5355SOL    HW227702   2.629   4.649  17.003 -1.4839 -0.1769 -0.4743
 5356SOL     OW27703   4.389   1.283   3.080  0.8325  0.5560  0.1088
 5356SOL    HW127704   4.298   1.252   3.084  0.9376  0.3881  1.2183
 5356SOL    HW227705   4.382   1.353   3.145 -3.1323  0.3302 -0.0778
 5357SOL     OW27706   2.640   3.178   7.539 -0.5231 -0.1083  0.3145
 5357SOL    HW127707   2.719   3.163   7.485 -0.8428 -2.0125  0.3675
 5357SOL    HW227708   2.682   3.210   7.618 -0.6928  1.3263 -0.1838
 5358SOL     OW27709   0.726   3.668   2.631 -0.1874  0.2863 -0.4109
 5358SOL    HW127710   0.791   3.697   2.695 -0.2272 -2.8776  1.0885
 5358SOL    HW227711   0.726   3.575   2.655 -0.6549  0.0423 -1.3515
 5359SOL     OW27712   3.589   0.200   6.269  0.0823 -0.1876 -0.4472
 5359SOL    HW127713   3.570   0.291   6.246 -0.8375 -0.9585 -2.7186
 5359SOL    HW227714   3.684   0.204   6.262  0.1650  0.4602  0.9897
 5360SOL     OW27715   0.009   1.194   1.883  0.2288 -0.0413  0.0017
 5360SOL    HW127716   4.731   1.280   1.923  0.5315  0.0538 -0.0857
 5360SOL    HW227717   0.018   1.138   1.960  0.8177  1.2644  0.8756
 5361SOL     OW27718   4.485   1.487   7.295 -0.1555 -0.0722  0.3579
 5361SOL    HW127719   4.549   1.442   7.240 -0.4435 -0.4260  0.3127
 5361SOL    HW227720   4.413   1.423   7.302 -0.3610  0.2338  1.0490
 5362SOL     OW27721   2.590   4.140   9.175 -0.5567 -0.0623 -0.3290
 5362SOL    HW127722   2.534   4.164   9.101 -1.0663 -0.9051 -0.2140
 5362SOL    HW227723   2.645   4.218   9.177  0.5435 -0.9126  1.9674
 5363SOL     OW27724   4.455   3.266   0.196  0.1713  0.6476 -0.9022
 5363SOL    HW127725   4.393   3.335   0.217 -0.3019 -0.1795  0.4515
 5363SOL    HW227726   4.537   3.313   0.180  1.4049 -0.7454  1.2683
 5364SOL     OW27727   0.697   3.662   6.410  0.0472 -1.0387 -0.1635
 5364SOL    HW127728   0.657   3.608   6.478  1.5802 -1.5525  0.3213
 5364SOL    HW227729   0.738   3.731   6.463  0.5977 -0.7879 -0.9256
 5365SOL     OW27730   3.951   3.759   1.186  0.5224 -0.2965 -0.4681
 5365SOL    HW127731   4.032   3.795   1.221  1.7272 -2.7774 -0.7639
 5365SOL    HW227732   3.931   3.689   1.248 -1.5102  0.4000 -0.3323
 5366SOL     OW27733   4.125   1.232   9.451  0.1428  0.3511 -0.1228
 5366SOL    HW127734   4.056   1.230   9.385  0.1030 -1.3134 -0.0321
 5366SOL    HW227735   4.081   1.264   9.530  1.6124  1.5117  0.2321
 5367SOL     OW27736   0.631   1.952   6.380  0.1668  0.2940  0.3491
 5367SOL    HW127737   0.649   2.006   6.457 -1.2111  0.0658  0.8278
 5367SOL    HW227738   0.696   1.989   6.320 -0.5716  1.2025  0.0955
 5368SOL     OW27739   1.316   3.423  12.589  0.4383  0.2013 -0.3603
 5368SOL    HW127740   1.309   3.463  12.675  2.0652  1.0358 -0.6220
 5368SOL    HW227741   1.293   3.496  12.531 -1.2273 -1.6472 -2.0592
 5369SOL     OW27742   3.279   1.993   2.142 -0.1649  0.5864 -0.3657
 5369SOL    HW127743   3.246   2.073   2.101 -0.8976 -0.2762 -1.4656
 5369SOL    HW227744   3.311   1.952   2.061  1.8923 -1.1765  1.3112
 5370SOL     OW27745   2.236   1.584  11.253 -0.0506 -0.3465  0.1229
 5370SOL    HW127746   2.297   1.643  11.210 -3.0464  3.6821  1.4027
 5370SOL    HW227747   2.246   1.603  11.346  1.6614  0.2474 -0.1939
 5371SOL     OW27748   3.157   1.992   7.897 -0.3845  0.2415  0.2040
 5371SOL    HW127749   3.204   2.070   7.868  1.8241 -1.3343 -0.5322
 5371SOL    HW227750   3.162   1.993   7.992  0.3606 -0.4295  0.1732
 5372SOL     OW27751   3.430   0.772   6.059 -0.0132  0.6906 -0.0398
 5372SOL    HW127752   3.430   0.723   5.977  2.2098  2.4309 -1.0884
 5372SOL    HW227753   3.338   0.752   6.077  0.4815 -1.2843  0.2705
 5373SOL     OW27754   2.724   1.546   6.825  0.3638 -0.1565 -0.1043
 5373SOL    HW127755   2.747   1.453   6.829 -1.2196 -0.4199  2.1810
 5373SOL    HW227756   2.735   1.575   6.915  0.4151 -0.8477  0.1141
 5374SOL     OW27757   1.903   3.147   6.986  0.6266 -0.2290  0.1226
 5374SOL    HW127758   1.962   3.220   7.003 -0.3958  0.5296  0.4237
 5374SOL    HW227759   1.911   3.111   6.898 -0.5514  1.4728 -0.6777
 5375SOL     OW27760   0.439   4.154   2.566 -0.2124  0.3443 -0.2234
 5375SOL    HW127761   0.439   4.067   2.605 -0.0309  1.3430  1.9708
 5375SOL    HW227762   0.448   4.211   2.642 -0.2146  0.8497 -0.6010
 5376SOL     OW27763   0.314   2.768   9.224  0.5344  0.2270  0.1326
 5376SOL    HW127764   0.234   2.716   9.234 -0.5826  1.6989 -1.2604
 5376SOL    HW227765   0.298   2.828   9.296 -0.0295  0.9709 -0.6135
 5377SOL     OW27766   3.959   0.621   6.891  0.0936 -0.4477 -0.2518
 5377SOL    HW127767   3.884   0.664   6.932  1.3324  1.2350  0.2349
 5377SOL    HW227768   3.990   0.690   6.833 -0.8347  0.0023 -0.2100
 5378SOL     OW27769   3.714   3.614   6.964 -0.4225 -0.5690  1.0252
 5378SOL    HW127770   3.808   3.624   6.983  0.3746  0.6577 -3.6383
 5378SOL    HW227771   3.687   3.705   6.955  0.4469 -0.5002 -1.0025
 5379SOL     OW27772   1.475   2.181   2.719 -0.4271  0.3735  0.4649
 5379SOL    HW127773   1.560   2.210   2.687 -1.0723  0.6548 -1.0054
 5379SOL    HW227774   1.412   2.219   2.658  0.2993  1.6320  0.4913
 5380SOL     OW27775   3.197   4.483   2.983  0.0536 -0.2721  0.2197
 5380SOL    HW127776   3.123   4.430   2.953 -0.5371 -0.7811  2.6293
 5380SOL    HW227777   3.160   4.507   3.068  0.6815  0.3021  0.3261
 5381SOL     OW27778   2.553   3.661  14.960 -0.1819 -0.1459 -0.0892
 5381SOL    HW127779   2.467   3.640  14.995  0.4632 -0.2194  1.4618
 5381SOL    HW227780   2.533   3.686  14.869 -3.0146  0.7118  0.7702
 5382SOL     OW27781   2.630   2.026  12.619 -0.0444  0.4284  0.5603
 5382SOL    HW127782   2.592   1.969  12.687 -0.2933 -1.4592 -1.1799
 5382SOL    HW227783   2.543   2.044  12.584  0.3195 -1.0218 -1.0673
 5383SOL     OW27784   1.034   2.857   2.713 -0.0351  0.1768 -0.1508
 5383SOL    HW127785   1.019   2.929   2.773  1.2224 -1.7812  2.5267
 5383SOL    HW227786   0.942   2.832   2.706  0.0306 -0.4211  1.0758
 5384SOL     OW27787   1.523   1.518   2.392  0.0852 -0.4112  0.2010
 5384SOL    HW127788   1.467   1.519   2.315  0.2272  1.2301  0.1154
 5384SOL    HW227789   1.462   1.511   2.465 -1.0310  2.5342 -0.4536
 5385SOL     OW27790   0.485   0.425  11.995 -0.0048  0.0495  0.1123
 5385SOL    HW127791   0.505   0.331  12.000  0.4995  0.1808  0.6080
 5385SOL    HW227792   0.481   0.437  11.900  2.9293  0.4245  0.0244
 5386SOL     OW27793   2.105   0.669  13.574 -0.1316  0.0234 -0.3359
 5386SOL    HW127794   2.126   0.592  13.522 -1.5771  0.5513 -1.7012
 5386SOL    HW227795   2.072   0.727  13.506 -2.0548 -1.0436 -0.3188
 5387SOL     OW27796   1.749   2.677   0.999  0.1934  0.1638 -0.0767
 5387SOL    HW127797   1.674   2.735   0.983  1.0307  1.4792  0.7342
 5387SOL    HW227798   1.751   2.636   1.086  0.2231  0.5329  0.1014
 5388SOL     OW27799   3.451   4.230   8.020 -0.2866  0.3379 -0.0607
 5388SOL    HW127800   3.473   4.192   7.935  2.0683  1.7278 -0.0571
 5388SOL    HW227801   3.375   4.280   7.991 -0.9393  1.1395  3.0170
 5389SOL     OW27802   1.788   0.416   7.371  0.6397 -0.5151  0.3148
 5389SOL    HW127803   1.719   0.467   7.329  0.5704 -0.7183  0.1781
 5389SOL    HW227804   1.751   0.328   7.386 -1.1152  0.1991  0.1646
 5390SOL     OW27805   0.969   2.943  11.495  0.0134 -0.1398 -0.5203
 5390SOL    HW127806   1.036   2.999  11.533 -1.0665 -0.2071  1.5032
 5390SOL    HW227807   1.007   2.915  11.412 -0.2930 -0.6002 -0.5074
 5391SOL     OW27808   2.342   3.532  15.697 -0.0995 -0.0339  0.0423
 5391SOL    HW127809   2.265   3.559  15.747 -3.7443 -1.8039 -4.6245
 5391SOL    HW227810   2.379   3.613  15.663 -0.8175 -0.1693 -1.0574
 5392SOL     OW27811   0.836   2.714   1.523  0.6998 -0.1232 -0.4244
 5392SOL    HW127812   0.814   2.645   1.461 -0.3844 -0.0575 -0.1256
 5392SOL    HW227813   0.804   2.674   1.604 -0.0425  1.3397  0.0121
 5393SOL     OW27814   1.788   4.128  14.746 -0.0808  0.5854  0.6103
 5393SOL    HW127815   1.835   4.050  14.716 -0.3916 -0.5318  3.0253
 5393SOL    HW227816   1.850   4.201  14.745 -1.0985  1.4373 -1.4113
 5394SOL     OW27817   2.313   0.683   1.526 -0.6802 -0.3092 -0.0044
 5394SOL    HW127818   2.355   0.651   1.605  0.4071  0.3456 -0.3158
 5394SOL    HW227819   2.225   0.646   1.520 -0.7163 -0.2143 -0.0631
 5395SOL     OW27820   0.691   2.673  17.490  0.5319  0.3006 -0.2786
 5395SOL    HW127821   0.660   2.667  17.581  2.8212 -1.1162  0.3843
 5395SOL    HW227822   0.760   2.740  17.498 -0.3166  0.9366  1.7469
 5396SOL     OW27823   4.512   0.162   9.031  0.0585 -0.3129  0.5072
 5396SOL    HW127824   4.427   0.120   9.038  0.0698 -0.4302 -0.0564
 5396SOL    HW227825   4.507   0.234   9.094 -1.8249  1.6567 -1.8603
 5397SOL     OW27826   0.737   2.806   6.334 -0.2289 -0.4404  0.2535
 5397SOL    HW127827   0.644   2.816   6.315  0.2886  0.9664 -1.4873
 5397SOL    HW227828   0.765   2.753   6.259  1.3667 -1.0268  1.2630
 5398SOL     OW27829   4.555   0.010   1.258  0.2738  0.5427  0.7639
 5398SOL    HW127830   4.484   4.737   1.195  0.9637 -0.1928  0.1143
 5398SOL    HW227831   4.567   0.104   1.245  0.7174  0.3748 -0.0632
 5399SOL     OW27832   2.888   1.249  11.949 -0.5208 -0.3607 -0.3072
 5399SOL    HW127833   2.838   1.174  11.917  0.5979 -1.4096  0.4265
 5399SOL    HW227834   2.834   1.318  11.909 -2.0966 -3.0653 -2.9139
 5400SOL     OW27835   0.648   0.941   1.242 -0.6972 -0.5207 -0.7022
 5400SOL    HW127836   0.619   0.913   1.329 -0.0577  0.9480 -0.0172
 5400SOL    HW227837   0.581   1.007   1.224  1.4073  2.3425  2.0003
 5401SOL     OW27838   2.248   0.062   2.393 -0.0806  0.6886  0.5104
 5401SOL    HW127839   2.288   0.148   2.403 -0.0143  0.8584 -1.2386
 5401SOL    HW227840   2.242   0.055   2.488 -1.1246 -1.1934  0.3203
 5402SOL     OW27841   0.292   1.783   9.725 -0.2293  0.2310 -0.3283
 5402SOL    HW127842   0.199   1.760   9.719  0.1496 -1.5695  0.9430
 5402SOL    HW227843   0.302   1.784   9.820 -2.7812 -2.5747 -0.0349
 5403SOL     OW27844   0.135   3.526   9.819 -0.2571  0.1366 -0.1994
 5403SOL    HW127845   0.214   3.501   9.867 -0.3366  1.4196  0.6098
 5403SOL    HW227846   0.074   3.565   9.881 -1.4777 -0.2276 -1.1778
 5404SOL     OW27847   4.040   4.092   5.005 -0.0943 -0.2775 -0.5475
 5404SOL    HW127848   4.134   4.077   5.006  0.0184  0.3834 -0.9877
 5404SOL    HW227849   4.005   4.014   5.048  2.0192 -0.3163  1.0997
 5405SOL     OW27850   0.912   1.520   6.597  0.0809  0.3423 -0.0299
 5405SOL    HW127851   1.003   1.496   6.618 -0.1218  1.8820  2.5520
 5405SOL    HW227852   0.935   1.588   6.534  1.9277  0.3505  0.6317
 5406SOL     OW27853   3.193   3.962   2.520  0.5518 -0.5586 -0.0781
 5406SOL    HW127854   3.163   3.920   2.601 -0.6461  2.1698  0.8641
 5406SOL    HW227855   3.149   4.046   2.531  1.5250  0.0409 -0.7441
 5407SOL     OW27856   3.671   2.704  11.564  0.0579  0.5118  0.5460
 5407SOL    HW127857   3.595   2.701  11.622 -0.7898  1.1430 -0.5186
 5407SOL    HW227858   3.671   2.789  11.520  1.1663 -0.9742 -2.3603
 5408SOL     OW27859   1.707   3.275   5.125  0.1073  0.5207  0.5453
 5408SOL    HW127860   1.654   3.353   5.109  1.5955  1.3970 -0.1834
 5408SOL    HW227861   1.647   3.230   5.183  1.3482 -1.8913 -0.0317
 5409SOL     OW27862   1.819   4.434   1.860  0.4413  0.2668  0.1940
 5409SOL    HW127863   1.901   4.428   1.910  0.9171 -0.8757 -0.7123
 5409SOL    HW227864   1.823   4.509   1.801  2.5230 -1.8144 -2.2955
 5410SOL     OW27865   1.176   1.746   0.398  0.5162  0.4913  0.0636
 5410SOL    HW127866   1.201   1.713   0.311  1.4460 -3.1850  1.7038
 5410SOL    HW227867   1.117   1.809   0.358  0.2478  0.5028  0.4778
 5411SOL     OW27868   3.470   3.943   7.071  0.5861 -0.2322 -0.0449
 5411SOL    HW127869   3.562   3.917   7.069  0.5872 -0.2283 -0.0464
 5411SOL    HW227870   3.431   3.866   7.030 -0.7285  0.3953  0.0231
 5412SOL     OW27871   0.840   3.000   2.384  0.2288  0.5051 -0.0713
 5412SOL    HW127872   0.895   2.926   2.359 -1.0180 -0.4318 -0.0590
 5412SOL    HW227873   0.890   3.068   2.338 -1.2891  0.6019 -1.6078
 5413SOL     OW27874   1.167   1.597   5.907  0.0457 -0.2250 -0.1548
 5413SOL    HW127875   1.113   1.676   5.901  0.9882  0.3994 -0.3718
 5413SOL    HW227876   1.113   1.527   5.943  2.1181 -1.5784  0.3421
 5414SOL     OW27877   0.409   1.072   1.194  0.2794  0.4469 -0.3858
 5414SOL    HW127878   0.420   1.114   1.279  1.7967 -0.7968  0.0334
 5414SOL    HW227879   0.360   1.131   1.137 -3.3886 -0.3058  2.0015
 5415SOL     OW27880   1.103   1.328  12.529 -0.1768 -0.1216 -0.0227
 5415SOL    HW127881   1.169   1.343  12.596  1.4750  1.2529 -1.9713
 5415SOL    HW227882   1.035   1.386  12.562  1.1792  1.7076 -0.4995
 5416SOL     OW27883   1.044   0.121  10.397 -0.3815  0.1849 -0.0866
 5416SOL    HW127884   1.096   0.186  10.349  2.4126 -1.7928  0.2776
 5416SOL    HW227885   1.037   0.155  10.486 -0.2284  0.4585 -0.1812
 5417SOL     OW27886   4.215   1.617  16.396 -0.2814  0.2328  0.4887
 5417SOL    HW127887   4.295   1.573  16.424 -1.8171 -1.2587  2.5643
 5417SOL    HW227888   4.226   1.625  16.301 -0.8691 -0.5612  0.3580
 5418SOL     OW27889   2.129   1.888  11.462 -0.0736 -0.0000  0.0680
 5418SOL    HW127890   2.034   1.896  11.464 -0.0585 -0.1203  0.9550
 5418SOL    HW227891   2.150   1.956  11.526 -0.3995 -0.8808  1.1027
 5419SOL     OW27892   0.446   2.718   7.920  0.3797  0.4840  0.3441
 5419SOL    HW127893   0.449   2.755   7.832 -1.2899  0.8916  0.4584
 5419SOL    HW227894   0.470   2.627   7.907  1.8447  0.4773  3.0153
 5420SOL     OW27895   2.826   3.936   6.193 -0.1268 -0.0568  0.0693
 5420SOL    HW127896   2.869   3.851   6.186  0.1112 -0.2430  3.8442
 5420SOL    HW227897   2.802   3.938   6.285  0.0787 -2.5521  0.1558
 5421SOL     OW27898   0.422   2.573   3.310  0.4382 -0.0793  0.1858
 5421SOL    HW127899   0.424   2.536   3.398  2.0054 -1.5716 -0.4794
 5421SOL    HW227900   0.335   2.549   3.278  1.4936 -1.9763 -1.2724
 5422SOL     OW27901   4.700   4.549   1.396 -1.1542 -0.8923 -0.5490
 5422SOL    HW127902   4.660   4.617   1.343 -1.2714 -0.0816  0.5778
 5422SOL    HW227903   0.023   4.515   1.330  1.1532 -1.9909  2.1068
 5423SOL     OW27904   0.832   4.127   8.173  0.0518 -0.5974 -0.5884
 5423SOL    HW127905   0.890   4.062   8.213  2.9574  1.5867 -1.1521
 5423SOL    HW227906   0.778   4.152   8.248  0.8524  0.8218 -0.4637
 5424SOL     OW27907   4.137   3.437   5.030  0.0094  0.3536  0.2109
 5424SOL    HW127908   4.095   3.448   4.945 -1.1556 -0.7054  0.6517
 5424SOL    HW227909   4.221   3.481   5.016  0.4194 -0.7005 -0.6969
 5425SOL     OW27910   1.219   0.262  16.409  0.4346  0.2097  0.0093
 5425SOL    HW127911   1.257   0.343  16.442 -3.2763  1.0486  2.1353
 5425SOL    HW227912   1.192   0.286  16.321 -0.0067  1.3295  0.4593
 5426SOL     OW27913   4.648   2.561   3.603 -0.4503 -0.1117 -0.3326
 5426SOL    HW127914   4.588   2.598   3.538 -1.5444 -1.7798 -0.2506
 5426SOL    HW227915   4.608   2.478   3.629  0.1815  0.7722  3.3841
 5427SOL     OW27916   1.866   2.431   5.690 -0.3306 -0.4626 -0.0565
 5427SOL    HW127917   1.826   2.516   5.671  0.7273  0.3682  1.4706
 5427SOL    HW227918   1.850   2.387   5.606 -0.7362  0.4833 -0.4805
 5428SOL     OW27919   1.195   0.611   2.667 -0.2469  0.4256 -0.3215
 5428SOL    HW127920   1.118   0.598   2.722  1.2299 -1.3710  1.3359
 5428SOL    HW227921   1.171   0.694   2.627 -1.3353  0.0897 -0.3691
 5429SOL     OW27922   4.181   3.495   6.624 -0.2597  0.1572 -0.0462
 5429SOL    HW127923   4.088   3.503   6.604 -0.1201  2.4451  0.1484
 5429SOL    HW227924   4.206   3.437   6.552  0.9262  0.7047 -0.0884
 5430SOL     OW27925   3.358   2.024   0.567  0.2505 -0.0587  0.6848
 5430SOL    HW127926   3.304   1.965   0.619  3.2811 -1.4467  2.2913
 5430SOL    HW227927   3.386   1.967   0.495 -1.6573 -0.6563  0.4314
 5431SOL     OW27928   2.317   1.707  11.486 -0.5589 -0.2489 -0.4001
 5431SOL    HW127929   2.288   1.667  11.568  0.7445  0.8170  0.5765
 5431SOL    HW227930   2.251   1.777  11.486 -0.5210 -0.2229  0.5701
 5432SOL     OW27931   1.406   2.693  11.118  0.1224  0.3617 -0.2298
 5432SOL    HW127932   1.423   2.609  11.075 -2.2532 -0.7530  1.0082
 5432SOL    HW227933   1.323   2.668  11.159  0.6040  1.3348  1.3454
 5433SOL     OW27934   0.106   3.771   0.329  0.0012  0.0561 -0.4027
 5433SOL    HW127935   0.104   3.775   0.425  1.6200  1.4078 -0.4312
 5433SOL    HW227936   0.014   3.787   0.307  0.2676  1.9997 -0.0627
 5434SOL     OW27937   4.358   2.890  12.424 -0.2102  0.1858  0.3815
 5434SOL    HW127938   4.391   2.866  12.338 -1.3596 -1.0879  0.2960
 5434SOL    HW227939   4.442   2.905  12.469 -0.2340 -1.8621  1.0796
 5435SOL     OW27940   0.058   4.108  16.909 -0.3306 -0.3144 -0.3499
 5435SOL    HW127941   0.034   4.201  16.915 -1.7034 -0.7212  0.4628
 5435SOL    HW227942   0.136   4.115  16.964 -0.1032  0.3576 -0.7552
 5436SOL     OW27943   3.143   4.032   3.922  0.2506  1.0387 -0.1602
 5436SOL    HW127944   3.164   4.076   3.840  2.5537 -1.5036 -0.9516
 5436SOL    HW227945   3.222   3.980   3.937  1.0736  1.7923 -1.8482
 5437SOL     OW27946   3.885   4.733   6.301 -0.6237  0.0168 -0.1084
 5437SOL    HW127947   3.904   0.082   6.266 -2.0976  0.7716  1.0023
 5437SOL    HW227948   3.803   4.700   6.266 -0.7401  1.1583 -0.9005
 5438SOL     OW27949   0.748   0.058   3.835 -0.5360  0.2825  0.0853
 5438SOL    HW127950   0.723   0.040   3.925  2.4654 -1.6237  0.5441
 5438SOL    HW227951   0.805   0.134   3.844 -0.7377  0.4010  0.3500
 5439SOL     OW27952   2.354   1.814   2.336 -0.0330  0.1147  0.0916
 5439SOL    HW127953   2.356   1.762   2.256  1.3506 -2.5965  1.8754
 5439SOL    HW227954   2.359   1.758   2.413 -1.8459 -1.3028 -0.8090
 5440SOL     OW27955   1.110   0.591   4.136 -0.3486  0.1601 -0.0022
 5440SOL    HW127956   1.025   0.570   4.098  0.2000 -0.0478 -1.1337
 5440SOL    HW227957   1.154   0.650   4.075  0.2461  1.1068  1.3434
 5441SOL     OW27958   4.623   3.421  11.284 -0.0520  0.5654 -0.0958
 5441SOL    HW127959   4.572   3.500  11.264  0.3976  1.1231  0.9087
 5441SOL    HW227960   4.625   3.377  11.199  0.5403  2.2663 -0.9624
 5442SOL     OW27961   1.408   3.107   1.755  0.1204 -0.1733 -0.1830
 5442SOL    HW127962   1.492   3.103   1.799  0.4293 -1.6130 -0.8964
 5442SOL    HW227963   1.351   3.071   1.823 -1.4045  0.3647 -1.1729
 5443SOL     OW27964   2.087   1.031   9.363  0.2290 -0.0611 -0.4365
 5443SOL    HW127965   2.100   1.049   9.456 -1.3841 -2.2566  0.2235
 5443SOL    HW227966   2.149   1.098   9.337  0.8219 -0.8865 -1.1339
 5444SOL     OW27967   0.450   4.538   8.314 -0.5772  0.3648  0.2898
 5444SOL    HW127968   0.369   4.585   8.297 -1.0496 -1.1767 -1.7125
 5444SOL    HW227969   0.419   4.453   8.283  1.3240  0.2885 -1.3690
 5445SOL     OW27970   1.604   3.029  15.068  0.3391 -0.2422  0.3224
 5445SOL    HW127971   1.532   3.080  15.104  1.6696  1.0900  1.1290
 5445SOL    HW227972   1.563   2.982  14.996  1.6499 -0.9926  0.0581
 5446SOL     OW27973   4.232   3.365   6.372 -0.0228  0.5098  0.1727
 5446SOL    HW127974   4.295   3.300   6.340 -1.3096 -0.7632  0.2537
 5446SOL    HW227975   4.148   3.322   6.360 -1.0562  2.4654  0.4078
 5447SOL     OW27976   4.685   2.902   9.797  0.5068 -0.1134  0.4617
 5447SOL    HW127977   4.617   2.849   9.840  1.4124  0.7040  2.8870
 5447SOL    HW227978   4.678   2.877   9.705 -1.5392  0.8000  0.3848
 5448SOL     OW27979   2.307   2.644  14.821  0.3000 -0.1049  0.0125
 5448SOL    HW127980   2.276   2.726  14.784  0.7442 -0.4201 -1.0696
 5448SOL    HW227981   2.298   2.579  14.751 -0.2315 -0.4813  0.4293
 5449SOL     OW27982   3.605   0.062   3.499  0.0809  0.6473  0.0974
 5449SOL    HW127983   3.531   0.019   3.543  0.5399 -1.3765 -1.1390
 5449SOL    HW227984   3.647   0.083   3.583 -1.3371  0.1086  0.9445
 5450SOL     OW27985   0.722   1.321   1.174 -0.6080  0.6349  0.4290
 5450SOL    HW127986   0.811   1.346   1.198 -0.8808  0.4757  1.5891
 5450SOL    HW227987   0.676   1.383   1.231 -1.0637 -0.3589  1.1464
 5451SOL     OW27988   4.047   2.754   6.869 -0.5864  0.0923  0.1163
 5451SOL    HW127989   4.036   2.841   6.831  0.5432 -0.1118 -0.6977
 5451SOL    HW227990   4.140   2.754   6.891  0.4040 -0.4356 -4.0711
 5452SOL     OW27991   0.346   2.214   4.725 -0.1009  0.2293 -0.2703
 5452SOL    HW127992   0.403   2.139   4.739  0.8679  0.9635 -0.2491
 5452SOL    HW227993   0.281   2.169   4.672  1.2216 -0.9888 -0.8652
 5453SOL     OW27994   0.579   1.860  14.870 -0.6108 -0.1952 -0.0324
 5453SOL    HW127995   0.510   1.795  14.856 -0.6121 -0.5101  1.5137
 5453SOL    HW227996   0.587   1.851  14.965  2.0619  0.6208 -0.1770
 5454SOL     OW27997   3.638   3.148   2.963 -0.3553 -0.2026  0.0991
 5454SOL    HW127998   3.644   3.234   2.922 -1.4981 -1.5896 -2.9901
 5454SOL    HW227999   3.586   3.100   2.898  1.2620 -1.2159 -0.4532
 5455SOL     OW28000   1.981   1.321   7.710  0.7452  0.1107 -0.0815
 5455SOL    HW128001   1.944   1.313   7.798 -2.4919  2.1057 -1.2246
 5455SOL    HW228002   1.979   1.230   7.682  2.5352 -0.5945  2.0949
 5456SOL     OW28003   0.920   1.305   2.632  0.4384 -0.1489 -0.1367
 5456SOL    HW128004   0.843   1.334   2.583 -0.8035 -2.4328  0.4270
 5456SOL    HW228005   0.902   1.361   2.708 -0.5885  0.1473 -0.5925
 5457SOL     OW28006   3.163   3.683   8.143 -0.2970  0.5323  0.1668
 5457SOL    HW128007   3.113   3.622   8.089 -0.7722  0.7306  0.3764
 5457SOL    HW228008   3.160   3.758   8.085  0.9808 -1.3121 -2.2709
 5458SOL     OW28009   4.687   4.266   7.991  0.1393 -0.4815 -0.1910
 5458SOL    HW128010   4.662   4.277   8.082  2.9482 -1.2468  0.6486
 5458SOL    HW228011   4.599   4.279   7.954  0.6570  0.4523 -1.1043
 5459SOL     OW28012   2.439   3.118   5.231  0.6073  0.1623 -0.1207
 5459SOL    HW128013   2.371   3.101   5.296 -0.8443  1.5099 -1.2684
 5459SOL    HW228014   2.443   3.214   5.235  0.7204  0.1563 -0.1131
 5460SOL     OW28015   0.966   4.236  10.157  0.0734  0.4812  0.1218
 5460SOL    HW128016   1.014   4.195  10.229  1.8421  0.0515 -1.2926
 5460SOL    HW228017   0.949   4.159  10.102 -1.4027  1.4754 -0.8086
 5461SOL     OW28018   4.412   1.887   7.857 -0.0660 -0.1632  0.5586
 5461SOL    HW128019   4.337   1.845   7.900  0.1820  0.2465  1.3915
 5461SOL    HW228020   4.456   1.813   7.816  0.1330  0.5049 -0.4361
 5462SOL     OW28021   3.408   0.051   5.592 -0.4364 -0.1508  0.3906
 5462SOL    HW128022   3.437   0.135   5.627  0.0935 -0.6586  1.1633
 5462SOL    HW228023   3.459   4.727   5.645  0.7689  1.1107  0.7064
 5463SOL     OW28024   3.530   4.285   6.561  0.0277 -0.4673  0.5655
 5463SOL    HW128025   3.564   4.315   6.477  0.1066 -3.0884 -0.3412
 5463SOL    HW228026   3.608   4.247   6.602 -0.8257 -1.2831  1.4427
 5464SOL     OW28027   3.444   2.857   3.584  0.4164 -0.0834  0.0293
 5464SOL    HW128028   3.448   2.797   3.510 -0.6930 -0.7369  0.5031
 5464SOL    HW228029   3.352   2.880   3.594  0.4930  0.6710 -0.9449
 5465SOL     OW28030   3.242   0.851  10.044  0.8573  0.8870  0.0039
 5465SOL    HW128031   3.170   0.836   9.984  1.3254  2.0030 -0.8345
 5465SOL    HW228032   3.288   0.910   9.985  1.6433 -1.0366 -1.2914
 5466SOL     OW28033   1.367   2.412   7.944  0.4955 -0.4223  0.8309
 5466SOL    HW128034   1.364   2.492   7.890 -1.5014 -2.2000 -1.7171
 5466SOL    HW228035   1.461   2.397   7.958  0.4719 -1.0825  0.3060
 5467SOL     OW28036   2.501   2.166   9.415 -0.2182 -0.2145  0.1940
 5467SOL    HW128037   2.554   2.220   9.473  0.6358 -0.8141 -0.0220
 5467SOL    HW228038   2.479   2.236   9.354  1.1558  0.0365 -0.0127
 5468SOL     OW28039   3.193   3.653   6.155 -0.1806  0.4595 -0.7386
 5468SOL    HW128040   3.142   3.692   6.227  0.7363  0.5216 -0.1256
 5468SOL    HW228041   3.257   3.723   6.146 -1.7774  2.0585  0.3087
 5469SOL     OW28042   0.533   0.978   6.952  0.5047  0.2596 -0.6113
 5469SOL    HW128043   0.515   1.012   7.039 -2.3720  1.2370 -1.5966
 5469SOL    HW228044   0.526   0.887   6.982  0.5754  0.5225  0.1965
 5470SOL     OW28045   4.368   2.941   3.592  0.4249 -0.2967  0.0245
 5470SOL    HW128046   4.406   2.864   3.634 -1.8776  0.1472  2.9169
 5470SOL    HW228047   4.308   2.977   3.657 -1.1087 -1.4785 -0.7281
 5471SOL     OW28048   3.795   1.036   0.360  0.1466 -0.4690  0.1307
 5471SOL    HW128049   3.826   1.043   0.270  1.1941 -1.4444  0.4087
 5471SOL    HW228050   3.724   1.099   0.364  1.6054  1.2419 -0.8193
 5472SOL     OW28051   1.175   3.022  14.927 -0.1087  0.4001  0.5293
 5472SOL    HW128052   1.134   3.019  14.841  0.6222  2.0806  0.1103
 5472SOL    HW228053   1.109   3.041  14.994 -0.0505  1.6889  0.2332
 5473SOL     OW28054   1.346   1.485   2.188 -0.0420 -0.3246  0.1118
 5473SOL    HW128055   1.308   1.407   2.228 -1.7319  0.3233 -0.1973
 5473SOL    HW228056   1.277   1.549   2.207 -0.5168  0.1909 -3.3356
 5474SOL     OW28057   0.217   1.229   8.134  0.0737 -0.7721  0.3564
 5474SOL    HW128058   0.231   1.238   8.040  0.6377 -0.0967  0.5089
 5474SOL    HW228059   0.170   1.311   8.149 -0.9767 -1.6567  2.0476
 5475SOL     OW28060   4.404   2.991   4.222 -0.2814 -0.1843  0.1965
 5475SOL    HW128061   4.491   2.959   4.196 -0.1202  0.1465  0.3277
 5475SOL    HW228062   4.367   3.008   4.135  0.6704  0.4660 -0.0897
 5476SOL     OW28063   2.463   1.530   5.810 -0.4835 -0.0407 -0.2094
 5476SOL    HW128064   2.396   1.532   5.742 -0.5406 -1.4688 -0.1957
 5476SOL    HW228065   2.406   1.492   5.876  1.4954  2.0163  2.6967
 5477SOL     OW28066   0.769   3.755   4.627 -0.3522 -0.0593 -0.4571
 5477SOL    HW128067   0.759   3.755   4.532  0.7614 -1.2015 -0.5782
 5477SOL    HW228068   0.688   3.709   4.647 -0.9931  0.4257 -1.9507
 5478SOL     OW28069   4.598   1.226  15.944 -0.1184 -0.6817 -0.0289
 5478SOL    HW128070   4.651   1.165  15.894  1.8146  0.9532  0.0480
 5478SOL    HW228071   4.618   1.203  16.035 -1.3152  0.0757  0.4247
 5479SOL     OW28072   3.274   0.739  16.913 -0.1808  0.0214 -0.1838
 5479SOL    HW128073   3.324   0.768  16.836 -1.7618 -1.5479 -1.8127
 5479SOL    HW228074   3.230   0.666  16.869 -1.3622 -0.1212  1.2363
 5480SOL     OW28075   2.336   1.329   1.704  0.4447 -0.2168 -0.1284
 5480SOL    HW128076   2.376   1.375   1.778  0.6033 -0.6466  0.0518
 5480SOL    HW228077   2.408   1.276   1.669 -1.4351 -1.4310 -2.1722
 5481SOL     OW28078   4.562   0.740  16.075 -0.6325  0.7367 -0.0480
 5481SOL    HW128079   4.473   0.771  16.093 -1.2979 -1.8124  1.0763
 5481SOL    HW228080   4.591   0.767  16.162  1.3648  0.4973 -0.6397
 5482SOL     OW28081   4.737   1.241   6.823 -0.8836  0.1016  0.4312
 5482SOL    HW128082   4.690   1.157   6.824 -0.7601  0.0182 -0.2799
 5482SOL    HW228083   0.063   1.236   6.893 -2.3683  2.1026  1.9348
 5483SOL     OW28084   4.215   3.858  11.686  0.2493 -0.5126 -0.2464
 5483SOL    HW128085   4.148   3.804  11.643 -1.3243  1.2560 -0.0234
 5483SOL    HW228086   4.228   3.819  11.772 -1.4308  2.8629  1.5237
 5484SOL     OW28087   4.706   0.711   8.743 -0.0599  0.0502  0.7655
 5484SOL    HW128088   4.619   0.705   8.702  0.3539 -3.1210  0.3487
 5484SOL    HW228089   4.676   0.735   8.831 -1.4496 -1.4718  0.7130
 5485SOL     OW28090   1.242   1.854   3.285 -0.1111 -0.0192  0.1818
 5485SOL    HW128091   1.156   1.864   3.244  0.8309  1.3986 -1.4529
 5485SOL    HW228092   1.235   1.773   3.336  0.8748 -0.6052 -0.6255
 5486SOL     OW28093   0.907   0.165   0.929  0.4586  0.1336  0.1837
 5486SOL    HW128094   0.963   0.088   0.928  1.0968  0.5992 -0.0633
 5486SOL    HW228095   0.854   0.136   0.855  2.0367  0.6291 -1.1544
 5487SOL     OW28096   4.319   1.445   5.414 -0.3809  1.1414  0.0600
 5487SOL    HW128097   4.286   1.531   5.442 -0.3235  0.7347  1.3772
 5487SOL    HW228098   4.237   1.396   5.422 -0.3772  1.2516  0.8663
 5488SOL     OW28099   3.357   3.633   4.978 -0.1070 -0.6755 -0.1323
 5488SOL    HW128100   3.425   3.700   4.965 -1.6555  0.9616  0.2158
 5488SOL    HW228101   3.277   3.684   4.989  0.4550 -0.2817  2.1677
 5489SOL     OW28102   1.120   1.161   2.733 -0.2338 -0.2121 -0.5494
 5489SOL    HW128103   1.167   1.154   2.650 -0.1738 -0.7584 -0.4669
 5489SOL    HW228104   1.038   1.205   2.709 -0.1092  0.3782  0.1116
 5490SOL     OW28105   4.097   1.340  14.568  0.4959  0.3534 -0.1349
 5490SOL    HW128106   4.035   1.391  14.516 -0.5885 -1.1082 -0.2907
 5490SOL    HW228107   4.145   1.411  14.610 -0.9819  0.5131  1.2764
 5491SOL     OW28108   3.954   3.663   0.332  0.1697 -0.6459 -0.3332
 5491SOL    HW128109   4.044   3.682   0.305 -0.5400  0.3644 -1.9852
 5491SOL    HW228110   3.966   3.633   0.422  1.2273 -0.1110 -0.2977
 5492SOL     OW28111   3.783   1.872   3.466 -0.4167  0.5560 -0.2162
 5492SOL    HW128112   3.828   1.814   3.405 -2.3618 -0.2143 -0.9230
 5492SOL    HW228113   3.709   1.814   3.486 -0.4564  0.0934 -1.6783
 5493SOL     OW28114   1.120   2.178   2.370 -0.3757  0.4054 -0.4665
 5493SOL    HW128115   1.043   2.209   2.322 -0.2224 -0.0293 -0.9907
 5493SOL    HW228116   1.101   2.084   2.372  0.1127  0.2903 -1.1454
 5494SOL     OW28117   2.782   3.437  16.515  0.8377 -1.0901 -0.4138
 5494SOL    HW128118   2.697   3.410  16.480  0.2035  2.1936 -1.4070
 5494SOL    HW228119   2.808   3.476  16.432  0.8591 -1.1102 -0.4162
 5495SOL     OW28120   3.058   1.771   4.056  0.4494  0.1793 -0.0084
 5495SOL    HW128121   2.968   1.790   4.080  0.8285  0.1276  1.4802
 5495SOL    HW228122   3.076   1.715   4.131  2.1858  0.0630 -0.5132
 5496SOL     OW28123   2.340   2.728   3.152 -0.0853 -0.0173  0.1464
 5496SOL    HW128124   2.290   2.808   3.167 -0.8548 -0.6372  0.9286
 5496SOL    HW228125   2.427   2.768   3.149 -0.0925  0.0029  0.2152
 5497SOL     OW28126   3.713   2.602  12.327 -0.1715 -0.1336  0.4136
 5497SOL    HW128127   3.624   2.579  12.354 -0.9360  1.4388 -0.8057
 5497SOL    HW228128   3.749   2.514  12.312  1.2456  0.2417  1.6995
 5498SOL     OW28129   3.360   2.728   7.963 -0.0798 -0.0313 -0.0537
 5498SOL    HW128130   3.269   2.755   7.977 -0.7062 -2.4846  0.7148
 5498SOL    HW228131   3.408   2.809   7.945 -1.0069  0.6189  0.3796
 5499SOL     OW28132   3.200   3.182   5.738 -0.9835 -0.1405 -0.5282
 5499SOL    HW128133   3.144   3.249   5.779 -3.8947 -2.5201 -0.6078
 5499SOL    HW228134   3.145   3.105   5.730 -2.3074  0.7865 -0.3839
 5500SOL     OW28135   3.370   3.491   8.166 -0.2117  0.3492  0.5776
 5500SOL    HW128136   3.321   3.426   8.216 -1.7443 -0.1001 -1.4897
 5500SOL    HW228137   3.309   3.564   8.173  1.9568  2.0763  1.4869
 5501SOL     OW28138   1.129   4.114   2.850  0.1956 -0.5168  0.0049
 5501SOL    HW128139   1.097   4.185   2.907 -1.2780 -0.1114 -1.3323
 5501SOL    HW228140   1.222   4.130   2.866 -0.1682  1.7439 -0.0085
 5502SOL     OW28141   1.996   3.700  15.417 -0.5624  0.0438 -0.6772
 5502SOL    HW128142   1.940   3.634  15.376 -1.4535 -1.1429  2.4511
 5502SOL    HW228143   2.062   3.639  15.450 -0.1378  1.8480  1.7716
 5503SOL     OW28144   4.290   3.899   0.276  0.4900 -0.2998 -0.1488
 5503SOL    HW128145   4.245   3.978   0.246  0.2203 -0.4486 -0.1366
 5503SOL    HW228146   4.250   3.892   0.363  0.8246 -1.2358 -0.0716
 5504SOL     OW28147   1.805   0.276   3.970  0.0310 -0.0469 -0.2676
 5504SOL    HW128148   1.846   0.297   4.054  0.2967  0.1631 -0.4475
 5504SOL    HW228149   1.777   0.365   3.951 -0.6228 -0.1815  0.0605
 5505SOL     OW28150   2.331   1.559  10.221 -0.0546  0.1529 -0.1619
 5505SOL    HW128151   2.343   1.464  10.227  0.3337  0.2215  0.1276
 5505SOL    HW228152   2.393   1.586  10.289  0.7013  1.1728 -1.2704
 5506SOL     OW28153   1.657   3.247   8.347  0.0287  0.2127  0.5217
 5506SOL    HW128154   1.688   3.322   8.397 -1.6064  0.2767  1.4389
 5506SOL    HW228155   1.563   3.263   8.339  0.0320 -0.8530 -1.5871
 5507SOL     OW28156   4.505   4.701  14.659  0.1155 -0.1931  0.3165
 5507SOL    HW128157   4.597   4.708  14.686 -0.7461  0.4196  3.0556
 5507SOL    HW228158   4.460   0.047  14.666 -1.4645 -1.1087  1.2905
 5508SOL     OW28159   2.250   4.210   2.001  0.0250 -0.0768 -0.6001
 5508SOL    HW128160   2.300   4.179   2.076 -2.1102  1.8165  1.5753
 5508SOL    HW228161   2.305   4.200   1.923  1.2972  0.1189  0.2678
 5509SOL     OW28162   0.456   3.079   8.627  0.3422  0.6363 -1.2563
 5509SOL    HW128163   0.490   3.080   8.537  0.8294  1.2730 -1.0607
 5509SOL    HW228164   0.424   2.989   8.633 -0.5632  1.1569  1.5277
 5510SOL     OW28165   3.269   3.970   5.116  0.2559 -0.0632  0.1943
 5510SOL    HW128166   3.226   4.055   5.122  1.2417  0.3664  1.1504
 5510SOL    HW228167   3.199   3.923   5.162 -1.1199  2.0684  0.2406
 5511SOL     OW28168   3.246   1.065   5.293  0.0103 -0.3879  0.0677
 5511SOL    HW128169   3.178   1.122   5.258  0.6890  0.7273  0.5574
 5511SOL    HW228170   3.225   0.983   5.249 -2.3075 -0.1454  0.7268
 5512SOL     OW28171   1.559   4.002  14.528  0.6551 -0.0265 -0.5816
 5512SOL    HW128172   1.591   3.968  14.445  0.3002 -0.6993 -0.4405
 5512SOL    HW228173   1.624   3.957  14.582  0.4609  0.5331  0.1179
 5513SOL     OW28174   2.116   4.503   6.094 -0.1911  0.1568  0.6262
 5513SOL    HW128175   2.207   4.531   6.103 -0.3793  0.8626  0.3216
 5513SOL    HW228176   2.126   4.416   6.056  1.1249 -0.4207  2.3532
 5514SOL     OW28177   2.060   1.225   5.568 -0.3516  0.2558 -0.1490
 5514SOL    HW128178   2.061   1.318   5.543 -1.6331  0.6301  1.1863
 5514SOL    HW228179   1.968   1.206   5.547 -0.3966 -0.8875  1.1556
 5515SOL     OW28180   2.244   2.508  14.572  0.0204  0.1422 -0.5492
 5515SOL    HW128181   2.166   2.563  14.565  0.3393  0.1471 -4.0311
 5515SOL    HW228182   2.262   2.487  14.481 -0.2290 -0.9241 -0.3623
 5516SOL     OW28183   4.535   3.102  15.243  0.4261 -0.6310 -0.3799
 5516SOL    HW128184   4.492   3.048  15.308 -1.6069 -0.9868 -2.0068
 5516SOL    HW228185   4.469   3.162  15.207 -0.6404 -1.8687 -0.4691
 5517SOL     OW28186   1.806   2.868   9.537 -0.5521 -0.2284  0.8268
 5517SOL    HW128187   1.820   2.840   9.446  0.1332  1.7262  0.3182
 5517SOL    HW228188   1.764   2.790   9.572 -3.2661  0.8784  0.0585
 5518SOL     OW28189   3.236   2.120   0.854  0.1605 -0.4077  0.0509
 5518SOL    HW128190   3.193   2.194   0.813  0.1185  1.2041  3.0213
 5518SOL    HW228191   3.190   2.044   0.817 -1.3747 -0.1954  1.5475
 5519SOL     OW28192   1.072   3.326  12.741 -0.1590  0.3785  0.2666
 5519SOL    HW128193   1.155   3.328  12.692 -1.2596 -0.9475 -1.6119
 5519SOL    HW228194   1.005   3.328  12.674 -0.2308  1.2312  0.3701
 5520SOL     OW28195   1.459   2.060   8.175 -0.4070  0.5866  0.1307
 5520SOL    HW128196   1.399   2.132   8.194  0.8395  1.8330 -0.6706
 5520SOL    HW228197   1.424   2.036   8.089 -1.8988 -0.5280  1.0400
 5521SOL     OW28198   3.952   2.098  12.352 -0.0132 -0.0496  0.1219
 5521SOL    HW128199   4.038   2.085  12.392  0.1367  0.0543 -0.1715
 5521SOL    HW228200   3.899   2.057  12.421  0.2537 -1.4300 -0.4949
 5522SOL     OW28201   1.137   3.554   2.530  0.1712  0.2789  0.3943
 5522SOL    HW128202   1.107   3.470   2.563  0.8624 -0.5411 -1.0647
 5522SOL    HW228203   1.205   3.577   2.594  0.0141 -3.1868  1.8120
 5523SOL     OW28204   2.163   3.266   3.852 -0.3578  0.0491 -0.0940
 5523SOL    HW128205   2.187   3.336   3.911  2.4486 -0.6807 -0.3653
 5523SOL    HW228206   2.070   3.261   3.874 -0.7332 -2.7862 -2.2488
 5524SOL     OW28207   4.343   3.852   3.288  0.0194  0.0729 -0.2706
 5524SOL    HW128208   4.262   3.811   3.258 -1.1138 -0.2291  3.3070
 5524SOL    HW228209   4.310   3.941   3.302  0.4474  0.4302 -1.4485
 5525SOL     OW28210   4.003   1.480  17.077  0.1945 -0.8149 -0.7760
 5525SOL    HW128211   3.923   1.460  17.124  1.7041 -0.4148  1.9358
 5525SOL    HW228212   4.063   1.499  17.149 -1.7686  0.4471  0.5167
 5526SOL     OW28213   0.574   3.802   3.510 -0.0389  0.8295  0.2334
 5526SOL    HW128214   0.553   3.767   3.424  1.2223  0.9989 -0.1427
 5526SOL    HW228215   0.521   3.882   3.515 -0.1890  0.7280  0.2923
 5527SOL     OW28216   0.429   1.947   0.683 -0.3124 -0.3474 -0.3883
 5527SOL    HW128217   0.433   1.866   0.633 -2.3523 -0.1446 -0.9009
 5527SOL    HW228218   0.334   1.948   0.699  0.2007 -0.0119  2.5482
 5528SOL     OW28219   3.261   0.368   7.687  0.3034 -0.2776 -0.3000
 5528SOL    HW128220   3.307   0.285   7.699  0.3510 -0.2734 -0.4486
 5528SOL    HW228221   3.174   0.362   7.727  1.7257 -0.3604  2.7335
 5529SOL     OW28222   4.236   0.447   6.962 -0.1742 -0.5691  0.0135
 5529SOL    HW128223   4.231   0.352   6.960  2.2550 -0.7074  0.1412
 5529SOL    HW228224   4.175   0.481   7.027 -0.0509 -1.3008  0.5048
 5530SOL     OW28225   0.887   4.244   3.149  0.2117 -0.5283 -0.4175
 5530SOL    HW128226   0.820   4.212   3.089  1.6930 -0.1695 -2.2551
 5530SOL    HW228227   0.831   4.299   3.204  0.3431 -1.1114  0.3014
 5531SOL     OW28228   2.731   4.398   9.544  0.1133 -0.0355 -0.0047
 5531SOL    HW128229   2.771   4.399   9.631  0.3428 -0.4793 -0.1050
 5531SOL    HW228230   2.676   4.476   9.544  0.7895  0.4476  2.2222
 5532SOL     OW28231   2.596   1.362   0.101 -0.1710  0.2556 -0.2240
 5532SOL    HW128232   2.652   1.303   0.151 -1.2201  1.0681  1.9325
 5532SOL    HW228233   2.579   1.416   0.178 -3.5272  0.7491 -1.3130
 5533SOL     OW28234   3.801   4.664  12.876 -0.6159 -0.4141  0.7624
 5533SOL    HW128235   3.889   4.646  12.842 -0.8088 -0.2974  0.1893
 5533SOL    HW228236   3.818   0.011  12.916  1.0779 -1.5510  2.4146
 5534SOL     OW28237   4.723   3.204   0.929  0.2182 -0.1749 -0.1858
 5534SOL    HW128238   4.717   3.288   0.974 -1.9610 -0.0316 -0.7661
 5534SOL    HW228239   4.705   3.221   0.836 -0.5166 -0.1137 -0.0322
 5535SOL     OW28240   0.263   4.175   4.506 -0.2886 -0.4443 -0.1637
 5535SOL    HW128241   0.297   4.264   4.498  0.3120 -0.4659  2.2162
 5535SOL    HW228242   0.170   4.189   4.489 -0.1047 -1.3605 -1.9398
 5536SOL     OW28243   4.386   4.675   3.873 -0.1929 -0.5898  0.6782
 5536SOL    HW128244   4.401   0.024   3.837  0.4201 -0.8898  0.2159
 5536SOL    HW228245   4.318   4.642   3.814 -0.9113  0.1653  1.0754
 5537SOL     OW28246   1.182   2.395   8.451  0.1185  0.2297  0.0135
 5537SOL    HW128247   1.256   2.374   8.395  0.2268 -0.2989  0.3564
 5537SOL    HW228248   1.181   2.328   8.519 -2.2142  2.0799  1.8142
 5538SOL     OW28249   4.690   3.198   0.641  0.4320 -0.5609 -0.0113
 5538SOL    HW128250   0.009   3.229   0.570 -1.3020  2.5381 -0.0320
 5538SOL    HW228251   4.607   3.241   0.621 -0.7506 -3.8867 -2.1985
 5539SOL     OW28252   2.825   3.337   3.124 -0.2461  0.2761 -0.0298
 5539SOL    HW128253   2.887   3.380   3.183  0.6641 -2.1174  0.7422
 5539SOL    HW228254   2.877   3.340   3.044 -0.9578  0.1641 -0.4959
 5540SOL     OW28255   2.587   4.491   4.790 -0.0332 -0.3918 -0.0518
 5540SOL    HW128256   2.557   4.581   4.777 -0.5584 -0.4096  1.0671
 5540SOL    HW228257   2.681   4.485   4.771  0.1136  1.3435  0.1368
 5541SOL     OW28258   4.247   3.493   5.435 -0.4091  0.3146  0.2030
 5541SOL    HW128259   4.275   3.511   5.525  1.0316 -0.9615  0.0037
 5541SOL    HW228260   4.300   3.557   5.387 -0.9269  0.0263 -0.7345
 5542SOL     OW28261   0.176   1.027   7.143  0.4132 -0.0088 -0.4990
 5542SOL    HW128262   0.103   1.031   7.205 -0.8937  0.0425 -2.0576
 5542SOL    HW228263   0.140   0.970   7.075  1.1487  1.0442 -1.7666
 5543SOL     OW28264   3.759   1.954   2.316  0.0238  0.6535 -0.1797
 5543SOL    HW128265   3.800   1.943   2.402 -0.7994  0.8163  0.2364
 5543SOL    HW228266   3.822   2.009   2.270  0.0309  0.6040 -0.2287
 5544SOL     OW28267   0.497   2.998   4.733 -0.0773  0.3612 -0.0093
 5544SOL    HW128268   0.579   2.955   4.756  0.5322  0.6993 -1.5791
 5544SOL    HW228269   0.439   2.951   4.793 -0.4776  1.7722  0.7097
 5545SOL     OW28270   4.598   3.261   4.466 -0.1167 -0.4244  0.3784
 5545SOL    HW128271   4.573   3.178   4.508 -1.3386 -0.5935 -0.6739
 5545SOL    HW228272   4.664   3.231   4.403  0.4037 -0.5063  0.9696
 5546SOL     OW28273   2.057   3.628   4.178  0.1094 -0.0545  0.5921
 5546SOL    HW128274   2.041   3.573   4.254 -1.7396  1.7210  1.5009
 5546SOL    HW228275   2.063   3.716   4.216  0.8782  0.6868 -1.2345
 5547SOL     OW28276   1.660   2.399  10.644 -0.5878  0.0558  0.2747
 5547SOL    HW128277   1.573   2.430  10.668 -0.6047  1.4717 -1.6469
 5547SOL    HW228278   1.723   2.467  10.667 -0.3089 -0.1930  0.2507
 5548SOL     OW28279   3.176   4.542  10.581 -0.4144  0.5500 -0.0420
 5548SOL    HW128280   3.227   4.495  10.648  0.4348  0.2793 -0.8799
 5548SOL    HW228281   3.220   4.510  10.502  0.6801 -1.4274  1.3500
 5549SOL     OW28282   4.002   3.206   2.203 -0.1195  0.2214 -0.0172
 5549SOL    HW128283   4.005   3.161   2.118 -2.7831  2.2342 -1.1722
 5549SOL    HW228284   4.031   3.133   2.259  1.3170  0.3504 -0.5948
 5550SOL     OW28285   0.837   1.410   6.265  0.1384 -0.3870  0.1818
 5550SOL    HW128286   0.791   1.406   6.348  0.8485  0.9317  0.6402
 5550SOL    HW228287   0.812   1.321   6.240 -0.8382 -0.2663  0.7476
 5551SOL     OW28288   3.348   0.605   7.742  0.7157  0.5303  0.2480
 5551SOL    HW128289   3.431   0.610   7.789  0.9653 -0.4307 -0.0859
 5551SOL    HW228290   3.327   0.512   7.729 -0.6186  0.7349  0.9350
 5552SOL     OW28291   1.474   2.261   7.351  0.0534  0.8886 -0.0414
 5552SOL    HW128292   1.552   2.248   7.404  0.2229 -0.6731 -0.6541
 5552SOL    HW228293   1.438   2.341   7.388  2.3322  1.7327  0.3505
 5553SOL     OW28294   1.688   0.461   6.907 -0.2782 -0.7199  0.0289
 5553SOL    HW128295   1.668   0.378   6.863  0.8991 -1.6331  1.1782
 5553SOL    HW228296   1.744   0.502   6.842 -0.4449 -0.4722  0.0431
 5554SOL     OW28297   4.329   3.672   0.775 -0.4853  0.6262  0.3125
 5554SOL    HW128298   4.278   3.657   0.854 -1.2584  0.8464 -0.1371
 5554SOL    HW228299   4.377   3.754   0.791  0.1776  0.2645  0.1613
 5555SOL     OW28300   4.398   2.041  15.654  0.1714 -0.1583  0.6106
 5555SOL    HW128301   4.409   2.066  15.746  1.2411  0.2330  0.3763
 5555SOL    HW228302   4.423   1.948  15.654 -1.2250 -0.5297 -1.1344
 5556SOL     OW28303   2.693   1.848   3.193  0.5341 -0.1210  0.1951
 5556SOL    HW128304   2.627   1.782   3.173 -0.0484  0.4694  0.1427
 5556SOL    HW228305   2.726   1.821   3.279  0.3670 -0.7693  0.0506
 5557SOL     OW28306   3.328   2.804   1.040  0.0896  0.7859 -0.2757
 5557SOL    HW128307   3.334   2.832   0.949 -0.8926  0.5198 -0.4201
 5557SOL    HW228308   3.251   2.746   1.038  2.1629 -2.0621  2.6075
 5558SOL     OW28309   0.841   1.902   2.959  0.2402 -0.0217  0.4292
 5558SOL    HW128310   0.782   1.869   3.027 -2.9996  0.4757 -2.1123
 5558SOL    HW228311   0.780   1.958   2.909  0.5637  1.4823  1.7341
 5559SOL     OW28312   3.185   3.474   6.918  0.3255  0.2343  0.3338
 5559SOL    HW128313   3.180   3.469   6.822  0.2553  1.2639  0.2803
 5559SOL    HW228314   3.106   3.526   6.925 -0.3975 -0.6968 -0.8371
 5560SOL     OW28315   0.463   4.562   3.850 -0.3320  0.4851 -0.2608
 5560SOL    HW128316   0.368   4.556   3.852 -0.3425  0.3404 -1.0951
 5560SOL    HW228317   0.485   4.534   3.938  0.1069 -2.5185 -1.3335
 5561SOL     OW28318   1.282   0.298   3.276  0.2010 -0.2576 -0.0458
 5561SOL    HW128319   1.274   0.203   3.266 -1.0394 -0.1596  0.0136
 5561SOL    HW228320   1.341   0.324   3.206 -0.3147 -0.0306 -0.3978
 5562SOL     OW28321   0.367   1.096  15.516 -0.2233 -0.0064  0.6748
 5562SOL    HW128322   0.345   1.130  15.429 -0.0874 -2.3870 -0.2684
 5562SOL    HW228323   0.459   1.120  15.522 -0.4562  1.1677 -0.3426
 5563SOL     OW28324   2.810   2.971   6.601  0.5575  0.3796  0.3791
 5563SOL    HW128325   2.762   3.041   6.557  1.2995 -0.7084 -2.1604
 5563SOL    HW228326   2.903   2.993   6.593  0.7105 -0.0935  0.8238
 5564SOL     OW28327   3.492   4.073   1.778  0.3235 -0.5271 -0.3407
 5564SOL    HW128328   3.492   3.980   1.803  1.7385 -0.5651 -0.4368
 5564SOL    HW228329   3.531   4.105   1.859  1.0863 -0.1143 -0.8737
 5565SOL     OW28330   1.541   1.537   6.168 -0.0021  0.5911  0.2591
 5565SOL    HW128331   1.627   1.577   6.160  0.4901 -0.6645 -0.8164
 5565SOL    HW228332   1.505   1.562   6.083  2.4615 -0.6465 -1.1497
 5566SOL     OW28333   3.972   3.533   7.082 -0.4696  0.4719 -0.0912
 5566SOL    HW128334   4.005   3.456   7.035  3.0066  1.4701  0.7275
 5566SOL    HW228335   4.015   3.608   7.040  0.4379 -0.0146 -0.0376
 5567SOL     OW28336   4.043   0.492   7.128 -0.4197 -0.2457  0.1661
 5567SOL    HW128337   4.016   0.528   7.043 -1.5785  0.3980  0.8225
 5567SOL    HW228338   3.958   0.487   7.172  1.1299  1.4203  3.3032
 5568SOL     OW28339   4.023   3.214   1.586 -0.4590 -0.1597 -0.2009
 5568SOL    HW128340   4.015   3.294   1.534  0.2147 -1.4821 -2.3285
 5568SOL    HW228341   4.048   3.257   1.668  2.2074 -0.2591 -0.9445
 5569SOL     OW28342   4.352   0.459   3.919  0.3330  0.1189  0.0277
 5569SOL    HW128343   4.329   0.418   4.002  1.4480 -0.5017  0.0344
 5569SOL    HW228344   4.266   0.445   3.880  0.1194  0.0240  0.5396
 5570SOL     OW28345   1.002   2.441  12.172  0.0706  0.3057 -0.2641
 5570SOL    HW128346   0.922   2.491  12.153 -1.0227 -0.8411  1.3124
 5570SOL    HW228347   1.037   2.496  12.242 -0.5202 -0.4197  0.6076
 5571SOL     OW28348   4.142   2.929   6.655 -0.2062  0.3466  0.0784
 5571SOL    HW128349   4.071   2.935   6.592  0.0159  0.8048 -0.1292
 5571SOL    HW228350   4.188   2.852   6.623 -0.7607  1.6030 -3.7213
 5572SOL     OW28351   0.796   2.538   3.765  0.2149  0.4844  0.6092
 5572SOL    HW128352   0.834   2.452   3.781 -2.1236 -0.4048  1.3581
 5572SOL    HW228353   0.828   2.547   3.676  0.2812 -1.3076  0.4548
 5573SOL     OW28354   4.213   0.140   5.607  0.3097  0.2052  0.3411
 5573SOL    HW128355   4.303   0.140   5.575  0.0883 -0.3499 -0.2831
 5573SOL    HW228356   4.188   0.230   5.585 -0.5122 -0.7523 -2.5879
 5574SOL     OW28357   2.988   2.090   4.670  0.2338 -0.1070 -0.0196
 5574SOL    HW128358   3.077   2.067   4.641  0.3709  0.4414 -0.0493
 5574SOL    HW228359   3.007   2.161   4.732 -0.1458 -0.3535  0.3745
 5575SOL     OW28360   0.270   2.384   2.680 -0.0354 -0.3496  0.4993
 5575SOL    HW128361   0.333   2.398   2.609  1.1069 -2.4263  1.1048
 5575SOL    HW228362   0.316   2.342   2.752 -1.9060 -0.2973  1.7260
 5576SOL     OW28363   2.498   1.765  13.367 -0.2936 -0.0085  0.5021
 5576SOL    HW128364   2.420   1.813  13.339 -0.4998  0.5784  2.0935
 5576SOL    HW228365   2.567   1.831  13.359  1.1509 -1.4036  1.4040
 5577SOL     OW28366   0.749   3.960   5.798  0.2128  0.2637 -0.4089
 5577SOL    HW128367   0.793   3.925   5.876 -0.6116 -0.9097 -0.4616
 5577SOL    HW228368   0.822   3.985   5.742 -1.3552  0.8288 -2.1891
 5578SOL     OW28369   3.547   4.085  14.639 -0.1811  0.5210  0.4585
 5578SOL    HW128370   3.584   4.101  14.552  1.5095 -2.5606  0.6208
 5578SOL    HW228371   3.456   4.101  14.615 -0.2257 -3.1856 -1.9532
 5579SOL     OW28372   3.414   1.857   8.353 -0.3111 -0.2640  0.0274
 5579SOL    HW128373   3.360   1.929   8.322  0.3648 -0.3224 -1.2852
 5579SOL    HW228374   3.497   1.886   8.315  0.8591 -1.5418  1.6010
 5580SOL     OW28375   4.220   4.216   7.399 -0.0432  0.9000  1.1490
 5580SOL    HW128376   4.182   4.288   7.449 -2.0041  1.6401 -1.3546
 5580SOL    HW228377   4.308   4.215   7.436 -0.1617  2.6039  1.4861
 5581SOL     OW28378   3.435   2.388   2.837  0.5745  0.6923 -0.0015
 5581SOL    HW128379   3.501   2.456   2.821  0.0522  1.2149  0.0547
 5581SOL    HW228380   3.377   2.431   2.900 -0.4816  0.6151 -0.9002
 5582SOL     OW28381   0.382   0.822  10.108 -0.1793 -0.4689  0.2523
 5582SOL    HW128382   0.441   0.819  10.033 -2.8609  0.3928 -1.8972
 5582SOL    HW228383   0.303   0.786  10.068 -1.3959  0.8305  1.4661
 5583SOL     OW28384   2.119   2.177   7.582 -0.1738  0.5198 -1.0693
 5583SOL    HW128385   2.091   2.097   7.627 -0.6561  0.1448 -2.0136
 5583SOL    HW228386   2.088   2.254   7.630  2.0542 -0.6893  2.2256
 5584SOL     OW28387   1.709   4.139   9.193  0.2577  0.4970  0.1820
 5584SOL    HW128388   1.727   4.055   9.235 -1.3641  0.1641  0.2211
 5584SOL    HW228389   1.785   4.192   9.217 -0.6236  0.6245  2.6441
 5585SOL     OW28390   1.894   3.004  15.079 -0.1550 -0.2306  0.1713
 5585SOL    HW128391   1.808   3.041  15.058 -0.6433 -0.9799  0.8514
 5585SOL    HW228392   1.876   2.914  15.054 -0.0341 -0.5750  1.3277
 5586SOL     OW28393   0.427   0.387   2.314 -0.0117  0.4481 -0.2671
 5586SOL    HW128394   0.501   0.394   2.375  0.6382  0.2787 -1.0285
 5586SOL    HW228395   0.354   0.426   2.361  0.7511 -0.6037  1.7960
 5587SOL     OW28396   0.923   0.536   3.873 -0.2664 -0.4690 -0.0464
 5587SOL    HW128397   0.913   0.563   3.782 -2.7653 -0.8977  0.0972
 5587SOL    HW228398   1.018   0.522   3.875 -0.2121 -0.3222 -1.4677
 5588SOL     OW28399   0.806   3.343  11.310 -0.0281 -0.1705  0.5580
 5588SOL    HW128400   0.750   3.320  11.235 -1.8907  1.2568  1.4991
 5588SOL    HW228401   0.838   3.429  11.281 -0.4214 -0.1105  0.2956
 5589SOL     OW28402   2.357   0.395   4.096 -0.5969 -0.1069  0.4342
 5589SOL    HW128403   2.413   0.464   4.063 -0.4775 -1.7112 -2.7255
 5589SOL    HW228404   2.368   0.325   4.031 -0.5136  1.7304 -1.5128
 5590SOL     OW28405   3.050   3.180   6.414 -0.3130  0.1613 -0.3261
 5590SOL    HW128406   3.045   3.202   6.507  1.0607  0.8232 -0.4074
 5590SOL    HW228407   3.138   3.210   6.393  0.8229 -1.9966  1.2542
 5591SOL     OW28408   2.791   3.527   5.924  0.3665  0.2539  0.0872
 5591SOL    HW128409   2.720   3.477   5.963  1.6010 -0.3093  1.6033
 5591SOL    HW228410   2.738   3.596   5.884  0.7960 -0.0772 -1.0394
 5592SOL     OW28411   0.423   1.364   8.336  0.1277 -0.0804  0.1460
 5592SOL    HW128412   0.355   1.298   8.347 -0.0448 -0.1312 -1.1714
 5592SOL    HW228413   0.473   1.367   8.417 -0.6402  2.6148  0.5163
 5593SOL     OW28414   3.066   1.650   5.507 -0.0809 -0.0406  0.0523
 5593SOL    HW128415   3.072   1.622   5.598  0.8160 -0.1482 -0.0361
 5593SOL    HW228416   3.030   1.566   5.478  0.4541 -0.4315  0.5235
 5594SOL     OW28417   2.270   0.582   6.433  0.3028 -0.0098 -0.3248
 5594SOL    HW128418   2.286   0.500   6.479 -1.2986  0.7500  1.6200
 5594SOL    HW228419   2.232   0.631   6.506  3.7621  2.0513  0.0767
 5595SOL     OW28420   1.413   1.211  11.862  0.6804 -0.1377 -0.3593
 5595SOL    HW128421   1.505   1.238  11.865  1.0966 -1.6501  0.1802
 5595SOL    HW228422   1.382   1.269  11.932 -0.1314  0.1923 -0.9881
 5596SOL     OW28423   0.900   3.504   3.042 -0.7399  0.1322 -0.4224
 5596SOL    HW128424   0.846   3.567   2.994 -0.8006 -1.6214 -2.6192
 5596SOL    HW228425   0.965   3.560   3.086 -2.4095  0.5318  1.5191
 5597SOL     OW28426   4.647   3.454   5.968 -0.2039  0.1749  0.0979
 5597SOL    HW128427   4.639   3.419   6.056  3.0444 -0.6195  0.0735
 5597SOL    HW228428   4.711   3.397   5.924  1.9046  2.7300 -0.1194
 5598SOL     OW28429   4.212   0.311   2.456 -0.2070  0.5004  0.1865
 5598SOL    HW128430   4.133   0.280   2.500  1.5910 -1.8111  1.8324
 5598SOL    HW228431   4.184   0.314   2.365 -0.1083  1.1013  0.1718
 5599SOL     OW28432   4.524   2.895  12.212 -0.0104  0.2444  0.5466
 5599SOL    HW128433   4.590   2.939  12.266  1.6212 -1.0948 -0.3428
 5599SOL    HW228434   4.569   2.881  12.128 -0.0358 -0.6044  0.6755
 5600SOL     OW28435   2.710   1.047  17.696  0.0076  0.5277 -0.1256
 5600SOL    HW128436   2.756   0.973  17.656  0.5079  0.2728  0.9005
 5600SOL    HW228437   2.647   1.074  17.629 -0.4806  0.1094  0.1729
 5601SOL     OW28438   1.619   3.317   7.547 -0.1974  0.1262  0.4417
 5601SOL    HW128439   1.554   3.329   7.478  1.6906  1.7941 -1.0120
 5601SOL    HW228440   1.568   3.311   7.629 -2.1133  0.0425 -0.7601
 5602SOL     OW28441   4.152   2.225  10.164 -0.3927 -0.1106 -0.7056
 5602SOL    HW128442   4.060   2.207  10.186  0.1950 -1.8018  0.3326
 5602SOL    HW228443   4.146   2.320  10.154 -1.9887 -0.1024  0.1680
 5603SOL     OW28444   1.495   4.419   8.058 -0.0909 -0.0140  0.6890
 5603SOL    HW128445   1.489   4.323   8.061 -1.5838 -0.0129 -2.5587
 5603SOL    HW228446   1.471   4.442   8.147 -1.3164 -1.5466  0.7632
 5604SOL     OW28447   1.336   4.078   3.316 -0.4627  0.1148  0.1283
 5604SOL    HW128448   1.243   4.100   3.326 -0.3221  0.8317 -0.1861
 5604SOL    HW228449   1.343   4.038   3.403  0.6912  3.3355  1.5210
 5605SOL     OW28450   2.266   1.165   4.282 -0.1249 -0.3538 -0.0708
 5605SOL    HW128451   2.179   1.205   4.276 -0.6597 -1.3030  1.2697
 5605SOL    HW228452   2.323   1.241   4.268 -1.5373  0.9140  1.0396
 5606SOL     OW28453   3.369   4.598   8.142  0.0651 -0.4348 -0.2039
 5606SOL    HW128454   3.298   4.644   8.186 -0.9813 -2.2761  0.0507
 5606SOL    HW228455   3.345   4.505   8.152 -2.2942  0.2130  0.1165
 5607SOL     OW28456   3.446   4.514   6.685 -0.6527  0.1914  0.0374
 5607SOL    HW128457   3.439   4.515   6.590  2.4560  0.4928 -0.1798
 5607SOL    HW228458   3.451   4.418   6.693  0.2613  0.2440  0.0786
 5608SOL     OW28459   1.677   1.173   6.786  0.1051 -0.1973  0.5416
 5608SOL    HW128460   1.768   1.180   6.813  1.2630 -2.8002 -2.6711
 5608SOL    HW228461   1.697   1.165   6.693  2.1401  1.3224  0.8639
 5609SOL     OW28462   3.904   0.548   8.414  0.4171 -0.0898 -0.6568
 5609SOL    HW128463   3.901   0.642   8.431  1.5641 -0.2721  0.5122
 5609SOL    HW228464   3.959   0.546   8.336  2.2237  0.4179  0.6036
 5610SOL     OW28465   3.842   2.576   3.137  0.2990 -0.3080  0.1431
 5610SOL    HW128466   3.747   2.579   3.148  0.3808 -0.5189  0.8488
 5610SOL    HW228467   3.871   2.492   3.171 -1.8278 -0.8593  0.5932
 5611SOL     OW28468   2.222   3.529   3.967 -0.3474  0.2946  0.0015
 5611SOL    HW128469   2.158   3.563   4.030 -2.9519  1.2372 -3.1542
 5611SOL    HW228470   2.198   3.575   3.886 -0.7605  1.1504  0.6139
 5612SOL     OW28471   0.258   1.185   8.487 -0.3270 -0.0809  0.4850
 5612SOL    HW128472   0.244   1.137   8.569  0.6747 -0.6527  0.3136
 5612SOL    HW228473   0.266   1.107   8.433  2.3389 -0.8016  1.9339
 5613SOL     OW28474   0.136   1.116   5.191  0.0868 -0.2988 -1.3319
 5613SOL    HW128475   0.144   1.123   5.095  1.5826 -0.9262 -1.2511
 5613SOL    HW228476   0.221   1.132   5.232  0.0068 -2.9299 -0.1115
 5614SOL     OW28477   0.917   1.346   1.510 -0.2988  0.2294  0.1524
 5614SOL    HW128478   0.920   1.403   1.587 -0.3545  0.0984  0.2532
 5614SOL    HW228479   0.853   1.278   1.534  1.2521 -1.3482 -0.1694
 5615SOL     OW28480   1.505   3.447   3.017  0.4166 -0.5772 -0.9191
 5615SOL    HW128481   1.583   3.468   3.068 -0.6564  1.8725 -0.2705
 5615SOL    HW228482   1.537   3.474   2.931  0.1866  0.0484 -0.8081
 5616SOL     OW28483   2.733   0.977   5.942 -0.8127  0.3801  0.0907
 5616SOL    HW128484   2.727   1.050   6.003 -1.1190 -0.3007  0.8681
 5616SOL    HW228485   2.649   0.990   5.898 -0.4084  1.3364 -0.3839
 5617SOL     OW28486   3.783   4.096   8.974  0.2830 -0.1204 -0.4728
 5617SOL    HW128487   3.700   4.117   9.017  0.3737 -2.1727  0.6905
 5617SOL    HW228488   3.762   4.015   8.927  0.6819 -0.2853 -0.3556
 5618SOL     OW28489   4.562   1.532  10.034 -0.0833 -0.2326 -0.1767
 5618SOL    HW128490   4.483   1.552   9.984  0.1064 -2.4176 -1.3507
 5618SOL    HW228491   4.583   1.623  10.055  2.1190 -0.5960 -0.7844
 5619SOL     OW28492   2.246   1.181   0.744 -0.8116  0.1708 -0.1157
 5619SOL    HW128493   2.238   1.133   0.662  2.0604  0.5110 -0.6036
 5619SOL    HW228494   2.341   1.195   0.747 -0.5446 -2.0298  2.2360
 5620SOL     OW28495   0.327   4.130   6.854 -0.2797  0.6269  0.2651
 5620SOL    HW128496   0.294   4.047   6.887 -1.7003  1.9227  2.1239
 5620SOL    HW228497   0.396   4.140   6.919 -0.9030  0.9752  0.8760
 5621SOL     OW28498   3.293   4.092   5.756 -0.0450 -0.8175  0.7636
 5621SOL    HW128499   3.249   4.012   5.783 -1.8753 -0.4485 -1.1507
 5621SOL    HW228500   3.225   4.137   5.706  2.8358  2.5328 -0.1630
 5622SOL     OW28501   0.660   4.255   4.349 -0.7459  0.4333  0.1770
 5622SOL    HW128502   0.730   4.320   4.350 -1.5142  1.2704  0.1921
 5622SOL    HW228503   0.674   4.207   4.430 -1.9603 -0.4923 -0.1585
 5623SOL     OW28504   0.211   0.863   6.383 -1.0415 -0.0490  0.2577
 5623SOL    HW128505   0.211   0.864   6.479  2.2674  1.2258  0.2512
 5623SOL    HW228506   0.275   0.792   6.376  0.7279  1.4022  1.8215
 5624SOL     OW28507   4.373   4.261   4.501  0.3183 -0.5610  0.0210
 5624SOL    HW128508   4.384   4.348   4.539  0.8124 -0.4355 -0.4040
 5624SOL    HW228509   4.363   4.279   4.407 -2.7443  1.0230  0.6457
 5625SOL     OW28510   3.385   4.325  14.230 -0.4161 -0.2324 -0.0622
 5625SOL    HW128511   3.448   4.386  14.191 -0.0409  0.0236  0.9539
 5625SOL    HW228512   3.319   4.384  14.267  1.2167  1.5160  0.0342
 5626SOL     OW28513   3.206   3.583   9.017  0.8205  0.5007  0.5047
 5626SOL    HW128514   3.193   3.617   8.929 -1.7367 -1.9683 -0.0615
 5626SOL    HW228515   3.234   3.497   8.987 -0.0111  1.1895 -2.2030
 5627SOL     OW28516   0.666   3.966   4.233  0.0634  0.1960  0.2058
 5627SOL    HW128517   0.588   4.014   4.262 -0.7223 -0.8815 -0.1340
 5627SOL    HW228518   0.733   4.014   4.282  0.0603  0.4857 -0.0718
 5628SOL     OW28519   1.350   3.876   6.880 -0.0312  0.3061  0.0785
 5628SOL    HW128520   1.303   3.829   6.812  1.1312 -0.4934 -0.1702
 5628SOL    HW228521   1.439   3.885   6.844 -0.6491  0.7110 -1.3272
 5629SOL     OW28522   4.368   2.905   6.165 -0.1334  0.1327  0.0492
 5629SOL    HW128523   4.278   2.889   6.192 -0.2747  2.9202  1.2845
 5629SOL    HW228524   4.397   2.819   6.195 -0.7686 -0.5760 -1.3968
 5630SOL     OW28525   0.936   2.092  14.514 -0.6518  0.0031  0.4010
 5630SOL    HW128526   1.029   2.079  14.497 -0.5285  1.1065  0.2379
 5630SOL    HW228527   0.935   2.181  14.549 -2.0760  0.0876  0.1418
 5631SOL     OW28528   1.385   3.064  16.528 -0.4653  0.2514  0.1464
 5631SOL    HW128529   1.436   3.144  16.529 -2.2291  1.3913 -1.6697
 5631SOL    HW228530   1.421   3.023  16.450  0.8411  1.1694  0.2668
 5632SOL     OW28531   0.223   1.656   6.956 -0.0408  0.4842 -0.1600
 5632SOL    HW128532   0.296   1.676   7.015  2.0069 -1.7061 -1.9587
 5632SOL    HW228533   0.252   1.694   6.873 -0.5895  0.9388 -0.1487
 5633SOL     OW28534   1.467   2.331  12.556  0.2179  0.3366  0.1185
 5633SOL    HW128535   1.457   2.271  12.482  0.7801  0.0626  0.2596
 5633SOL    HW228536   1.473   2.264  12.624 -2.7392 -1.1451 -1.1055
 5634SOL     OW28537   2.168   4.451  11.666 -0.3941  0.3414  0.6640
 5634SOL    HW128538   2.251   4.430  11.708  0.4377  0.2323 -1.0171
 5634SOL    HW228539   2.159   4.385  11.597  0.0346 -0.0354  0.9675
 5635SOL     OW28540   3.728   2.671  10.691  0.4548 -0.1554 -0.2556
 5635SOL    HW128541   3.694   2.695  10.605 -1.2408  0.6149  0.6167
 5635SOL    HW228542   3.796   2.738  10.697  0.1745 -0.0534  1.9141
 5636SOL     OW28543   4.538   1.555  17.155 -0.3229 -0.0397  0.1212
 5636SOL    HW128544   4.444   1.556  17.170 -0.4945  1.6886 -0.9956
 5636SOL    HW228545   4.552   1.468  17.117  1.4351  0.2154  0.1502
 5637SOL     OW28546   0.423   2.423   7.929  0.0833  0.2256 -0.3057
 5637SOL    HW128547   0.409   2.456   8.018 -2.3868 -0.8524 -0.2933
 5637SOL    HW228548   0.346   2.369   7.913  1.1297 -1.6645  1.0072
 5638SOL     OW28549   2.000   1.499   5.895  0.1972  0.1937 -0.2439
 5638SOL    HW128550   2.038   1.511   5.982 -0.6859  3.5185 -0.3224
 5638SOL    HW228551   1.992   1.404   5.903  0.4614  0.2287  0.4678
 5639SOL     OW28552   2.968   0.826  16.143 -0.5182  0.2361  0.7054
 5639SOL    HW128553   2.933   0.753  16.093 -1.5520  0.9333  0.4161
 5639SOL    HW228554   2.905   0.850  16.211 -1.0771 -0.1830  0.3362
 5640SOL     OW28555   3.944   1.529   2.305  0.5325 -0.2254  0.0712
 5640SOL    HW128556   3.973   1.620   2.315  0.2139  0.1118 -1.9884
 5640SOL    HW228557   3.957   1.476   2.384 -1.2882 -2.4738 -1.1518
 5641SOL     OW28558   2.964   3.436  11.093 -0.2719 -0.0960 -0.2703
 5641SOL    HW128559   2.890   3.380  11.069  1.2448 -1.7017 -1.2040
 5641SOL    HW228560   2.940   3.473  11.178  4.0997  0.4604  0.6972
 5642SOL     OW28561   1.324   1.115   4.295  0.0286 -0.1753 -0.0976
 5642SOL    HW128562   1.394   1.064   4.252  1.1403  2.7892 -1.7624
 5642SOL    HW228563   1.278   1.163   4.226 -1.9007 -1.6367  0.1738
 5643SOL     OW28564   1.447   1.157   6.293 -0.2428 -0.2803  0.2644
 5643SOL    HW128565   1.436   1.223   6.225 -0.2964 -0.8847 -0.3177
 5643SOL    HW228566   1.355   1.132   6.308 -0.6433  0.9495 -0.2201
 5644SOL     OW28567   3.946   3.845   2.463 -0.7344 -0.1488 -0.2917
 5644SOL    HW128568   3.990   3.761   2.473 -1.9703 -0.8701 -0.9150
 5644SOL    HW228569   3.985   3.884   2.385  0.9661 -0.8215  0.2352
 5645SOL     OW28570   4.721   3.074   8.628  0.7645 -0.0836  0.1291
 5645SOL    HW128571   4.635   3.080   8.587  1.3451  1.5292 -0.8794
 5645SOL    HW228572   4.685   3.097   8.713 -0.2150  0.9157 -0.5517
 5646SOL     OW28573   3.272   3.112   7.804  0.1999 -0.2646  0.1920
 5646SOL    HW128574   3.274   3.165   7.724 -0.5873 -0.6495 -0.0856
 5646SOL    HW228575   3.177   3.114   7.816  0.1095  2.7880 -0.9596
 5647SOL     OW28576   0.183   4.517   3.864 -0.2666 -0.0199  0.5097
 5647SOL    HW128577   0.164   4.461   3.939 -0.9617  0.4611  0.6985
 5647SOL    HW228578   0.172   4.457   3.791 -0.0690 -0.8328  1.1480
 5648SOL     OW28579   3.273   3.410  12.809  0.2759  0.1091 -0.4642
 5648SOL    HW128580   3.346   3.348  12.821 -0.1246 -0.3314 -0.3024
 5648SOL    HW228581   3.320   3.487  12.840 -1.1545  0.1083  1.6662
 5649SOL     OW28582   2.902   3.236   1.675 -0.4029 -0.0944 -0.0346
 5649SOL    HW128583   2.929   3.317   1.719 -1.4835 -0.0346  0.5311
 5649SOL    HW228584   2.901   3.252   1.581  3.2674  0.6391  0.0463
 5650SOL     OW28585   1.504   0.614   3.537 -0.1193  0.5577 -0.6639
 5650SOL    HW128586   1.440   0.649   3.475 -0.0886  1.8490  0.0359
 5650SOL    HW228587   1.546   0.699   3.556 -1.8610  0.8442  1.8810
 5651SOL     OW28588   4.457   1.133   9.650  0.1585 -0.1001  0.0626
 5651SOL    HW128589   4.468   1.187   9.571  1.0731  0.4778  0.5832
 5651SOL    HW228590   4.391   1.069   9.625 -0.3313  0.9084 -1.2731
 5652SOL     OW28591   2.041   0.278   8.766 -0.0585  0.6893  0.3786
 5652SOL    HW128592   2.092   0.197   8.758 -2.6661 -0.8236 -0.7140
 5652SOL    HW228593   2.047   0.304   8.674 -0.3862  2.1165  0.7583
 5653SOL     OW28594   2.484   2.040   6.157 -0.1461  0.4213  0.2255
 5653SOL    HW128595   2.562   2.029   6.102 -0.5790 -2.5895  0.2471
 5653SOL    HW228596   2.520   2.071   6.240 -0.5454 -1.2262  1.0178
 5654SOL     OW28597   3.452   2.492   8.086  0.0904  0.1331  0.7288
 5654SOL    HW128598   3.421   2.577   8.055 -0.5804  0.4634  2.2924
 5654SOL    HW228599   3.542   2.513   8.110  0.0629 -0.1509  1.0942
 5655SOL     OW28600   1.516   0.458   6.292  0.6147  0.0466  0.3701
 5655SOL    HW128601   1.548   0.404   6.364  2.9148  0.3286 -0.4693
 5655SOL    HW228602   1.504   0.547   6.326 -1.8872 -0.1397  0.0410
 5656SOL     OW28603   4.577   2.848   1.598 -0.3168  0.0962 -0.2398
 5656SOL    HW128604   4.591   2.753   1.601  0.3871  0.1416 -2.0630
 5656SOL    HW228605   4.554   2.866   1.689 -1.3533 -1.1195 -0.2628
 5657SOL     OW28606   3.462   2.602  11.154 -0.4578  0.2275 -0.3592
 5657SOL    HW128607   3.479   2.662  11.226  2.0246  0.0906 -0.8441
 5657SOL    HW228608   3.531   2.537  11.159 -0.5972  0.0026 -1.3251
 5658SOL     OW28609   2.955   0.148   6.027 -0.8439  0.1013  0.0500
 5658SOL    HW128610   3.026   0.187   5.977  0.0126 -0.3263  0.9153
 5658SOL    HW228611   2.957   0.058   5.993 -1.4012 -0.1717  0.7325
 5659SOL     OW28612   0.574   0.129   2.484  0.4073  0.3169  0.1917
 5659SOL    HW128613   0.542   0.071   2.554  0.7306  3.0654  2.6435
 5659SOL    HW228614   0.533   0.086   2.409  1.6478  3.7449 -2.4397
 5660SOL     OW28615   1.090   0.108   2.433 -0.5295  0.0750 -0.0353
 5660SOL    HW128616   1.084   0.029   2.380 -1.0915 -1.2524  2.0131
 5660SOL    HW228617   1.000   0.137   2.417 -0.9719 -1.3817 -0.1382
 5661SOL     OW28618   1.457   0.498  13.673 -0.3310  0.2768  0.6502
 5661SOL    HW128619   1.461   0.444  13.752  1.1465 -0.4416  0.0872
 5661SOL    HW228620   1.488   0.433  13.611 -1.5153  0.9348 -0.6311
 5662SOL     OW28621   0.505   0.028   8.752 -0.3988 -1.2788  0.0413
 5662SOL    HW128622   0.469   4.721   8.675  1.0451 -1.0644 -0.7634
 5662SOL    HW228623   0.585   4.715   8.763  0.5771  0.5346  1.2482
 5663SOL     OW28624   3.412   3.003   7.541 -0.0597  0.7552 -0.1650
 5663SOL    HW128625   3.407   3.084   7.591 -2.0217  0.5689 -0.0722
 5663SOL    HW228626   3.317   2.991   7.534 -0.2196  1.9652 -0.0243
 5664SOL     OW28627   2.689   2.660  14.169 -0.0600 -0.0445  0.1226
 5664SOL    HW128628   2.696   2.653  14.074 -1.2445 -1.3984  0.1280
 5664SOL    HW228629   2.654   2.574  14.195 -0.1292 -0.2587 -0.6855
 5665SOL     OW28630   4.725   4.024   3.847  0.0303 -0.1807  0.2033
 5665SOL    HW128631   4.637   4.050   3.820 -1.4201 -4.0485  1.0963
 5665SOL    HW228632   0.031   4.043   3.764 -0.1928 -0.7596 -0.0518
 5666SOL     OW28633   0.475   3.999   4.443 -0.4518  0.1104 -0.1384
 5666SOL    HW128634   0.438   3.915   4.469 -0.9293  0.8305  1.4586
 5666SOL    HW228635   0.407   4.056   4.479  1.3938  0.4243  2.8145
 5667SOL     OW28636   1.690   4.335   8.344 -0.6487 -0.6532 -0.2699
 5667SOL    HW128637   1.623   4.379   8.397 -0.6605  1.2911 -1.8767
 5667SOL    HW228638   1.745   4.410   8.322  0.2739 -0.9297  1.1182
 5668SOL     OW28639   0.670   3.443   8.495 -0.2574 -0.4210 -0.2882
 5668SOL    HW128640   0.610   3.504   8.538  0.7535 -0.9255  1.8648
 5668SOL    HW228641   0.612   3.387   8.443  0.6174 -1.6998  0.1285
 5669SOL     OW28642   4.503   3.883  13.419  0.4579  0.7940 -0.2646
 5669SOL    HW128643   4.537   3.900  13.331 -1.8308 -0.1972 -1.3341
 5669SOL    HW228644   4.412   3.897  13.392  0.2021  1.1775  0.7778
 5670SOL     OW28645   0.042   0.827   7.372  0.2814 -0.1476 -0.8207
 5670SOL    HW128646   0.034   0.901   7.432 -1.7614 -0.4104 -0.7644
 5670SOL    HW228647   0.109   0.774   7.415 -0.4378 -0.1529  0.2760
 5671SOL     OW28648   2.936   1.440   7.191 -0.4640  0.2685  0.2894
 5671SOL    HW128649   2.862   1.415   7.246  1.6092 -1.5601  2.2654
 5671SOL    HW228650   2.975   1.517   7.234  0.2682  0.2870 -0.4026
 5672SOL     OW28651   1.314   0.087  16.625  0.0659  0.1265 -0.3699
 5672SOL    HW128652   1.254   0.121  16.691 -1.8459 -0.5743 -1.7552
 5672SOL    HW228653   1.290   0.139  16.549  0.4082 -1.7084 -1.7274
 5673SOL     OW28654   4.233   0.679   2.900 -0.2614 -0.8189 -0.2167
 5673SOL    HW128655   4.202   0.671   2.990 -1.3757  3.1987 -0.2342
 5673SOL    HW228656   4.201   0.769   2.890 -0.2612 -0.4857  3.0034
 5674SOL     OW28657   1.538   1.060  11.563 -0.4903  0.1712 -0.0920
 5674SOL    HW128658   1.502   1.108  11.489 -1.4128 -0.8729 -0.3062
 5674SOL    HW228659   1.493   0.977  11.550 -0.5337  0.4671 -1.7657
 5675SOL     OW28660   1.506   2.641  13.632  0.6428 -0.0404  0.2331
 5675SOL    HW128661   1.425   2.590  13.644 -1.1888  3.1895  1.5830
 5675SOL    HW228662   1.519   2.638  13.537  0.3127 -0.1946  0.1913
 5676SOL     OW28663   0.806   2.725   2.634  0.4018 -0.0725 -0.2165
 5676SOL    HW128664   0.782   2.715   2.542 -0.1628 -1.1739  0.0539
 5676SOL    HW228665   0.809   2.636   2.668 -0.9200  0.0874  0.3088
 5677SOL     OW28666   2.144   3.182  13.056 -0.0786  0.4285  0.5272
 5677SOL    HW128667   2.211   3.142  13.113 -1.1178 -2.8345 -0.5470
 5677SOL    HW228668   2.151   3.271  13.089  2.7846 -0.3236  2.0439
 5678SOL     OW28669   2.801   2.373   7.734  0.1684  0.2780  0.6117
 5678SOL    HW128670   2.757   2.306   7.787  0.5928  0.3793  1.0932
 5678SOL    HW228671   2.760   2.361   7.648  0.4647  2.5822  0.1602
 5679SOL     OW28672   1.593   1.900  14.654 -0.8303  0.1124 -0.5871
 5679SOL    HW128673   1.631   1.986  14.634 -3.9906  1.8392  0.9102
 5679SOL    HW228674   1.533   1.890  14.580 -2.1624 -0.3128  0.5580
 5680SOL     OW28675   3.205   1.795   5.289 -0.3377 -0.5794 -0.1303
 5680SOL    HW128676   3.149   1.755   5.356  2.2628  1.8974  3.5114
 5680SOL    HW228677   3.250   1.860   5.343  0.6293 -1.8062  0.5394
 5681SOL     OW28678   4.642   2.067  10.803 -0.0583 -0.2631  0.1815
 5681SOL    HW128679   4.563   2.082  10.752  0.9558  1.1358 -0.9963
 5681SOL    HW228680   4.705   2.032  10.739  0.3848 -0.5471  0.7681
 5682SOL     OW28681   1.257   1.584   1.495 -0.2779 -0.2775  0.5856
 5682SOL    HW128682   1.291   1.667   1.463 -1.7205  0.5293  1.1659
 5682SOL    HW228683   1.275   1.529   1.419 -0.5097  0.0484  0.2952
 5683SOL     OW28684   2.743   2.744   8.795  0.0804 -0.0809 -0.2790
 5683SOL    HW128685   2.711   2.794   8.720  1.9741 -0.2598 -1.2149
 5683SOL    HW228686   2.832   2.723   8.764  1.8654  2.7679  2.9638
 5684SOL     OW28687   4.701   0.034   5.343 -0.3428  0.3495 -0.4750
 5684SOL    HW128688   0.028   0.008   5.278  2.2807  2.1015  1.4467
 5684SOL    HW228689   4.733   0.122   5.363 -2.0205  0.6003  1.0536
 5685SOL     OW28690   2.696   1.652  15.120 -0.9659 -0.6914  0.2746
 5685SOL    HW128691   2.710   1.743  15.148 -2.6841 -0.0261 -0.9987
 5685SOL    HW228692   2.745   1.595  15.179 -0.7044 -1.8726 -1.1077
 5686SOL     OW28693   2.194   1.517   6.427  0.0097  0.3769 -0.4170
 5686SOL    HW128694   2.174   1.475   6.344 -2.9731 -0.6039  0.7954
 5686SOL    HW228695   2.156   1.452   6.487  0.5535  0.5210  0.0894
 5687SOL     OW28696   2.446   3.484   3.005  1.1244 -0.0304 -0.3289
 5687SOL    HW128697   2.409   3.403   3.039  1.1261  1.4394  3.2251
 5687SOL    HW228698   2.392   3.552   3.044  1.7602 -1.2866  2.7538
 5688SOL     OW28699   0.761   4.367   5.302  0.5640  0.6826  0.3230
 5688SOL    HW128700   0.709   4.290   5.326 -0.2055  0.8998 -0.6390
 5688SOL    HW228701   0.704   4.440   5.326  0.0756  0.8306 -1.3102
 5689SOL     OW28702   3.358   3.860  11.866  0.1874  0.1751 -0.6690
 5689SOL    HW128703   3.385   3.891  11.953 -0.9329 -1.1932  0.1657
 5689SOL    HW228704   3.285   3.802  11.886  0.3383  0.2842  0.2396
 5690SOL     OW28705   1.377   3.297   0.296  0.5837  0.2470  0.3709
 5690SOL    HW128706   1.310   3.297   0.228  0.4682  1.9048  0.4948
 5690SOL    HW228707   1.450   3.259   0.246  0.2837  1.6459 -1.1237
 5691SOL     OW28708   0.128   4.616   4.711  0.2894  0.3573 -0.3367
 5691SOL    HW128709   0.200   4.611   4.773  0.6885 -0.0311 -0.8357
 5691SOL    HW228710   0.061   4.571   4.763  1.7455 -0.6017  0.7201
 5692SOL     OW28711   3.676   0.490   3.964 -0.0187  0.2846 -0.2117
 5692SOL    HW128712   3.629   0.438   4.029  1.6976  1.0406  1.6292
 5692SOL    HW228713   3.617   0.495   3.889  0.7408 -1.7560 -0.9531
 5693SOL     OW28714   3.669   3.261   9.370 -0.2643 -0.0828 -0.0216
 5693SOL    HW128715   3.701   3.291   9.456 -1.1641 -2.5906  1.1836
 5693SOL    HW228716   3.651   3.348   9.334  0.0622  0.5885  1.4034
 5694SOL     OW28717   1.684   3.948  11.127 -0.7816  0.1542 -0.3287
 5694SOL    HW128718   1.653   3.964  11.216 -1.0724  1.1945 -0.6077
 5694SOL    HW228719   1.637   3.870  11.098  0.3887 -0.2649 -1.0684
 5695SOL     OW28720   1.379   1.098   8.033 -0.2030 -0.2506 -0.0981
 5695SOL    HW128721   1.373   1.008   8.064  0.7945 -0.7840 -1.4535
 5695SOL    HW228722   1.382   1.084   7.938  1.7959 -1.2332  0.1120
 5696SOL     OW28723   4.665   2.903   0.453  0.5288  0.2300  0.1012
 5696SOL    HW128724   4.709   2.835   0.401  0.3473  0.6793 -0.6544
 5696SOL    HW228725   4.685   2.977   0.395  0.0637 -1.2903 -1.9897
 5697SOL     OW28726   2.657   2.221   2.425 -0.2041  0.1792 -0.1629
 5697SOL    HW128727   2.597   2.269   2.483 -0.1994 -3.2135  2.6158
 5697SOL    HW228728   2.599   2.164   2.374 -0.0580  0.2439 -0.3987
 5698SOL     OW28729   1.285   0.730   2.953 -0.0941 -0.6935  0.0800
 5698SOL    HW128730   1.286   0.811   2.901  1.2339 -0.3218  0.6848
 5698SOL    HW228731   1.377   0.735   2.981  0.6942 -1.5786 -2.3574
 5699SOL     OW28732   2.575   3.544   1.691 -0.1856 -0.8614  0.1584
 5699SOL    HW128733   2.497   3.535   1.746  0.6742 -3.1888  0.9900
 5699SOL    HW228734   2.538   3.603   1.625 -0.9149 -1.4007  0.0760
 5700SOL     OW28735   1.757   2.064   2.510  0.7829  0.1246  0.8503
 5700SOL    HW128736   1.841   2.102   2.486  0.9569 -1.2023 -0.6340
 5700SOL    HW228737   1.782   1.974   2.532 -0.4507 -0.6362 -0.8905
 5701SOL     OW28738   4.632   4.448   9.656 -0.1379 -0.1183  0.3978
 5701SOL    HW128739   4.698   4.409   9.714  0.1534  0.4126  0.4233
 5701SOL    HW228740   4.607   4.376   9.598 -0.5401 -0.8647  1.4912
 5702SOL     OW28741   0.380   4.096   0.177  0.7692  0.0389 -0.4337
 5702SOL    HW128742   0.320   4.086   0.251  0.3300  1.4223 -0.5890
 5702SOL    HW228743   0.393   4.191   0.184  1.6101 -0.2667  2.0196
 5703SOL     OW28744   4.680   3.588  16.746 -0.2057 -0.1987 -0.6055
 5703SOL    HW128745   4.646   3.629  16.825  0.7629 -1.8642  0.6725
 5703SOL    HW228746   4.640   3.503  16.760  1.5081 -0.7593  0.8207
 5704SOL     OW28747   2.747   1.651   8.867  0.2762  0.2577  0.1174
 5704SOL    HW128748   2.837   1.620   8.855  0.7622  1.5375  0.4096
 5704SOL    HW228749   2.750   1.731   8.814  1.1384 -0.9742 -1.6733
 5705SOL     OW28750   2.248   3.720   7.996 -0.5903  0.2238  0.1111
 5705SOL    HW128751   2.205   3.686   7.917 -0.3231 -0.1159  0.1121
 5705SOL    HW228752   2.334   3.679   7.997 -1.2583 -1.1826  0.6817
 5706SOL     OW28753   1.245   1.816   5.058 -0.0050 -0.0866 -0.0914
 5706SOL    HW128754   1.243   1.730   5.099 -0.7648 -0.1436 -0.2439
 5706SOL    HW228755   1.217   1.870   5.132 -0.1513 -0.9092  0.4471
 5707SOL     OW28756   4.457   0.653   7.028  0.3644 -0.4928  0.6702
 5707SOL    HW128757   4.537   0.608   7.054 -0.4495 -0.9507  2.3417
 5707SOL    HW228758   4.397   0.580   7.013 -1.7088  1.3790 -0.3827
 5708SOL     OW28759   2.870   1.717   5.163 -0.1205  0.1263  0.0736
 5708SOL    HW128760   2.935   1.771   5.119  0.5196 -1.1372 -0.5420
 5708SOL    HW228761   2.913   1.638   5.131  2.8364  0.6786  2.6430
 5709SOL     OW28762   2.826   3.264   4.876 -0.2312  0.3310 -0.8630
 5709SOL    HW128763   2.903   3.322   4.877  0.8534 -1.1413  0.3997
 5709SOL    HW228764   2.762   3.318   4.922  1.6034  1.3472  0.5168
 5710SOL     OW28765   1.791   0.350   0.111  0.1254  0.1751 -0.2668
 5710SOL    HW128766   1.784   0.284   0.179  0.9040  1.1007  0.7051
 5710SOL    HW228767   1.722   0.412   0.133 -1.8455 -2.0234 -0.3211
 5711SOL     OW28768   0.574   4.469   4.102  0.5640  0.5049  0.6846
 5711SOL    HW128769   0.668   4.483   4.113  1.1669 -0.8612 -2.7312
 5711SOL    HW228770   0.544   4.473   4.193 -0.7584  2.1681  0.1976
 5712SOL     OW28771   0.863   1.284  17.167  0.3012  0.3004 -0.1120
 5712SOL    HW128772   0.819   1.199  17.170  0.2691  0.3637  1.6060
 5712SOL    HW228773   0.914   1.277  17.248 -0.5087 -4.0276  0.0300
 5713SOL     OW28774   2.573   0.594   6.396  0.0566  0.4939  0.2017
 5713SOL    HW128775   2.618   0.620   6.476  1.0776 -0.0927 -0.1850
 5713SOL    HW228776   2.478   0.586   6.409  0.1207  0.5927  0.7186
 5714SOL     OW28777   1.086   3.102  10.244 -0.4287  0.3955  0.6548
 5714SOL    HW128778   1.064   3.071  10.332  0.3247  0.7816  0.9731
 5714SOL    HW228779   1.011   3.157  10.223  0.7913  1.6574 -0.4387
 5715SOL     OW28780   2.545   4.508   1.755  0.8561  0.2813  0.1477
 5715SOL    HW128781   2.485   4.533   1.685  0.1804  2.5120  1.5115
 5715SOL    HW228782   2.603   4.583   1.763  1.6454 -0.2020 -1.0723
 5716SOL     OW28783   2.080   0.196   9.115 -0.0686 -0.7309  0.1594
 5716SOL    HW128784   2.073   0.126   9.050 -1.9274 -2.8882  2.6514
 5716SOL    HW228785   1.992   0.233   9.123  0.9700  1.8808 -0.5432
 5717SOL     OW28786   0.699   3.609   5.809  0.3692  0.4837 -0.0979
 5717SOL    HW128787   0.732   3.682   5.860  0.9989  1.8659 -2.4759
 5717SOL    HW228788   0.611   3.608   5.848  0.6785  1.4718  0.5993
 5718SOL     OW28789   3.548   1.078  16.649  0.6370 -0.3048  0.0402
 5718SOL    HW128790   3.458   1.067  16.681  1.0264  0.5988  1.4043
 5718SOL    HW228791   3.565   1.171  16.659 -2.0759  0.0645  1.1526
 5719SOL     OW28792   3.086   0.834   1.024  0.2539 -0.1715 -0.0801
 5719SOL    HW128793   3.174   0.859   1.055  0.6578 -1.8579  0.1714
 5719SOL    HW228794   3.084   0.749   1.068 -3.3882  0.4948  1.0044
 5720SOL     OW28795   1.617   4.544   7.835  0.2147 -0.0035  0.7129
 5720SOL    HW128796   1.580   4.497   7.760 -0.7885 -1.5068  2.1709
 5720SOL    HW228797   1.580   4.506   7.914 -0.1179  1.6869  1.3601
 5721SOL     OW28798   2.157   1.842   6.741  0.0531 -0.2507  0.5502
 5721SOL    HW128799   2.251   1.837   6.758  0.3954 -0.7218 -1.4721
 5721SOL    HW228800   2.130   1.757   6.775  1.3719 -1.6411 -1.8296
 5722SOL     OW28801   1.440   4.074   5.793  0.8669 -0.2629  0.4775
 5722SOL    HW128802   1.421   4.100   5.703 -0.3001  0.5956  0.9749
 5722SOL    HW228803   1.451   4.163   5.826  1.9088  0.3255 -1.5172
 5723SOL     OW28804   3.925   4.599  10.816  0.0185 -0.3953 -0.3696
 5723SOL    HW128805   4.005   4.560  10.780 -0.2671  0.1110 -1.5618
 5723SOL    HW228806   3.933   4.566  10.905  1.5044  1.1439  0.0777
 5724SOL     OW28807   4.706   1.143   8.763 -0.0645  0.2627 -0.2412
 5724SOL    HW128808   0.059   1.116   8.753 -0.8241 -3.6619  3.3147
 5724SOL    HW228809   4.659   1.070   8.724  0.5525 -0.5960  0.6226
 5725SOL     OW28810   3.520   1.263   9.834 -0.6760 -0.1343  0.4298
 5725SOL    HW128811   3.535   1.266   9.739 -0.0232 -0.7890  0.5163
 5725SOL    HW228812   3.594   1.312   9.868  2.1756 -0.4848 -5.2670
 5726SOL     OW28813   3.022   2.636   4.513 -0.4170 -0.1507  0.2757
 5726SOL    HW128814   3.058   2.549   4.531  1.5967  0.7119  0.3563
 5726SOL    HW228815   3.105   2.680   4.531 -0.7773  1.0958 -1.1049
 5727SOL     OW28816   1.170   0.476   6.436 -0.0132  0.0787  0.2095
 5727SOL    HW128817   1.130   0.507   6.517  2.9436  2.1851  0.8715
 5727SOL    HW228818   1.225   0.408   6.474  1.1398  0.8811 -0.0219
 5728SOL     OW28819   4.028   2.727   3.264 -0.4840 -0.0463  0.4240
 5728SOL    HW128820   3.963   2.668   3.225  0.7409  1.2572 -3.5327
 5728SOL    HW228821   4.116   2.699   3.241  0.0324  3.1247 -1.4102
 5729SOL     OW28822   2.682   2.502   3.355  0.4449 -0.2270 -0.1416
 5729SOL    HW128823   2.620   2.457   3.297 -0.1285 -1.0922  1.1554
 5729SOL    HW228824   2.726   2.425   3.390 -0.1349  0.0082  1.1084
 5730SOL     OW28825   0.288   2.924  15.784 -0.0506  0.2503  0.1653
 5730SOL    HW128826   0.352   2.852  15.783 -1.3790 -0.8855 -2.1004
 5730SOL    HW228827   0.214   2.878  15.825  1.1474 -0.4720  1.5529
 5731SOL     OW28828   2.594   0.294   4.542  0.6386 -0.8210  0.4188
 5731SOL    HW128829   2.603   0.380   4.582 -0.0999 -0.8883  0.7275
 5731SOL    HW228830   2.641   0.306   4.460 -0.6327 -2.4196 -0.5268
 5732SOL     OW28831   2.804   1.513   0.689 -0.4620  0.2476 -0.1941
 5732SOL    HW128832   2.819   1.441   0.628  2.9179 -0.1080  1.0380
 5732SOL    HW228833   2.847   1.469   0.763  0.4675 -0.2729 -1.0535
 5733SOL     OW28834   0.445   1.416   4.810  0.5674 -0.5419  1.0790
 5733SOL    HW128835   0.441   1.321   4.797 -0.3594 -0.3753  0.2065
 5733SOL    HW228836   0.354   1.440   4.824  0.9873  1.2369  0.7548
 5734SOL     OW28837   2.079   2.608   1.222  0.6756 -0.0828  0.3839
 5734SOL    HW128838   2.091   2.703   1.212 -0.6771  0.2463  1.8655
 5734SOL    HW228839   2.141   2.591   1.293  0.2961 -0.7105  0.5624
 5735SOL     OW28840   2.920   3.719   4.315  0.5349  0.2391  0.0864
 5735SOL    HW128841   2.919   3.812   4.293 -0.3196 -0.1559 -1.5399
 5735SOL    HW228842   3.006   3.681   4.301  0.1908  0.3814 -2.3279
 5736SOL     OW28843   1.040   2.528   2.207 -0.4663  0.1643  0.7672
 5736SOL    HW128844   0.989   2.568   2.137 -0.4038 -1.9627 -0.4721
 5736SOL    HW228845   1.121   2.509   2.160 -0.5554  0.4292  0.5112
 5737SOL     OW28846   1.639   2.976   5.884  0.2571 -0.2367  0.1991
 5737SOL    HW128847   1.655   3.029   5.806  2.2211  0.1186  0.8557
 5737SOL    HW228848   1.609   2.895   5.843  0.1864 -0.3980  0.5697
 5738SOL     OW28849   2.981   2.170   7.595  0.1996  0.9638 -0.3826
 5738SOL    HW128850   2.986   2.256   7.554  0.0458  2.8180  3.4556
 5738SOL    HW228851   3.010   2.111   7.525 -0.5396  0.8337 -0.5783
 5739SOL     OW28852   4.540   1.624  16.042  0.2847 -0.4780 -0.1899
 5739SOL    HW128853   4.456   1.583  16.022 -0.6048  1.0260  0.4227
 5739SOL    HW228854   4.594   1.578  15.978  0.7219 -0.6965  0.3356
 5740SOL     OW28855   0.249   2.097   1.772  0.4079  0.3500 -0.8954
 5740SOL    HW128856   0.271   2.074   1.682  2.8528 -0.4680 -0.1112
 5740SOL    HW228857   0.227   2.011   1.806  0.1995  0.3375 -1.0647
 5741SOL     OW28858   2.894   1.211   6.523 -0.1277  0.3193  0.0552
 5741SOL    HW128859   2.804   1.195   6.497 -1.1062  2.9492  1.8051
 5741SOL    HW228860   2.930   1.123   6.513  3.1932  1.9149 -2.3493
 5742SOL     OW28861   3.581   0.043   9.874  0.3676 -0.4238 -0.3371
 5742SOL    HW128862   3.640   4.710   9.847  0.9200 -0.9822  2.3400
 5742SOL    HW228863   3.508   0.025   9.816  1.8153 -2.2698 -1.6011
 5743SOL     OW28864   0.809   1.164   5.161  0.2113 -0.2483  0.0764
 5743SOL    HW128865   0.869   1.224   5.117 -1.0681  0.3224 -0.8872
 5743SOL    HW228866   0.728   1.191   5.119 -0.2270 -1.0064  0.4258
 5744SOL     OW28867   0.208   3.914  15.853  0.0011 -0.0630  0.8697
 5744SOL    HW128868   0.222   4.009  15.861 -0.2241  0.0537 -0.0485
 5744SOL    HW228869   0.290   3.874  15.881 -0.3926  0.0612  2.1917
 5745SOL     OW28870   1.629   4.319   6.138 -0.1090  0.2259 -0.4576
 5745SOL    HW128871   1.711   4.326   6.187 -0.3078  0.9211 -0.2293
 5745SOL    HW228872   1.645   4.233   6.098  0.8894 -0.5151  1.5233
 5746SOL     OW28873   2.759   3.904  13.446  0.1936 -0.2686  0.1435
 5746SOL    HW128874   2.753   3.966  13.374 -1.7489 -0.6182 -0.0038
 5746SOL    HW228875   2.666   3.887  13.460  0.1019  1.3038  1.4618
 5747SOL     OW28876   3.463   2.241   1.935  0.2454 -0.1659 -0.0515
 5747SOL    HW128877   3.468   2.299   1.859  1.2377  0.1654  0.2696
 5747SOL    HW228878   3.370   2.221   1.945 -0.3399  2.6912  0.3596
 5748SOL     OW28879   1.684   3.613  11.163  0.1778 -0.0287  0.0678
 5748SOL    HW128880   1.663   3.520  11.161  0.7389 -0.1726  0.6213
 5748SOL    HW228881   1.664   3.642  11.252  1.6679  0.0622  0.3805
 5749SOL     OW28882   0.702   4.255   2.712  0.2393  0.9359  0.3284
 5749SOL    HW128883   0.706   4.175   2.660 -1.2042  1.0034  0.1226
 5749SOL    HW228884   0.793   4.273   2.737  0.0103  1.4264  0.7976
 5750SOL     OW28885   4.020   0.040   7.027  0.0070 -0.5513 -0.3918
 5750SOL    HW128886   4.071   4.708   7.067  0.1241 -0.0677  0.3115
 5750SOL    HW228887   3.932   0.004   7.024 -0.2313 -0.0819  1.1997
 5751SOL     OW28888   3.654   1.430   2.211  0.7200 -0.4798  0.0301
 5751SOL    HW128889   3.598   1.492   2.258 -0.0518 -0.7749 -0.4931
 5751SOL    HW228890   3.722   1.489   2.178  1.8645 -0.6371  2.0923
 5752SOL     OW28891   1.203   2.407  10.214 -0.0092  0.3204 -0.0707
 5752SOL    HW128892   1.236   2.430  10.127 -0.5083  1.6471  0.0799
 5752SOL    HW228893   1.288   2.403  10.258  0.1291 -0.3425 -0.4091
 5753SOL     OW28894   2.497   1.958   7.939 -0.1224  0.0616 -0.1746
 5753SOL    HW128895   2.435   1.894   7.974  0.2728  0.5909  1.4791
 5753SOL    HW228896   2.459   2.011   7.869 -1.3283 -1.5058 -0.7277
 5754SOL     OW28897   0.549   0.444   1.756 -0.1358  0.4801  0.1398
 5754SOL    HW128898   0.624   0.428   1.813  0.1053  0.1633 -0.2610
 5754SOL    HW228899   0.510   0.358   1.735 -0.9421  1.1969 -1.3389
 5755SOL     OW28900   1.927   0.642   4.822 -0.1642  0.4375 -0.6241
 5755SOL    HW128901   2.002   0.583   4.829  0.0732  0.7009 -0.9279
 5755SOL    HW228902   1.967   0.717   4.778  1.1233 -0.4358 -0.9453
 5756SOL     OW28903   2.654   0.188  16.642 -0.1740  0.3427 -0.3819
 5756SOL    HW128904   2.611   0.109  16.611 -2.4258  1.1546  0.6916
 5756SOL    HW228905   2.666   0.163  16.734 -0.3538  0.5756 -0.2959
 5757SOL     OW28906   3.110   1.554   8.917 -0.3981 -0.0904 -0.2481
 5757SOL    HW128907   3.146   1.466   8.900 -0.7839 -0.3130  0.0945
 5757SOL    HW228908   3.060   1.538   8.997 -0.8875  0.2896 -0.4761
 5758SOL     OW28909   2.393   1.112   0.010  0.0764 -0.4557 -0.3427
 5758SOL    HW128910   2.390   1.196  17.714 -1.0571  0.5040  1.4632
 5758SOL    HW228911   2.389   1.149   0.098 -0.7256  3.3503 -1.9947
 5759SOL     OW28912   0.727   0.511   9.139 -0.3577 -0.1245 -0.6701
 5759SOL    HW128913   0.817   0.498   9.170 -0.2561  0.1266 -0.8595
 5759SOL    HW228914   0.745   0.551   9.054 -1.7857  1.3074 -0.3016
 5760SOL     OW28915   4.668   0.092   3.021  0.1729 -0.4400 -0.8078
 5760SOL    HW128916   0.019   0.126   3.034 -0.4363  0.7957  0.1454
 5760SOL    HW228917   4.627   0.169   2.982 -0.4498 -0.9878 -1.2235
 5761SOL     OW28918   1.492   1.043   2.482  0.6101 -0.3666  0.1884
 5761SOL    HW128919   1.560   1.109   2.496  0.1020  0.6342 -2.0754
 5761SOL    HW228920   1.539   0.960   2.477  0.0301 -0.7247  0.6573
 5762SOL     OW28921   1.052   0.299   9.770 -0.1146  0.4643 -0.5995
 5762SOL    HW128922   1.115   0.230   9.748 -0.4583  0.0845 -0.3946
 5762SOL    HW228923   1.073   0.306   9.863  0.4748  1.6794 -0.8261
 5763SOL     OW28924   1.417   1.842   4.298  0.4517  0.5773  0.0700
 5763SOL    HW128925   1.386   1.932   4.288  1.0495  0.8682  0.9094
 5763SOL    HW228926   1.419   1.833   4.393 -0.0627 -1.9727 -0.1451
 5764SOL     OW28927   0.556   3.366   9.138  0.2437 -0.5022 -0.3341
 5764SOL    HW128928   0.637   3.323   9.168  1.1367  1.8537  0.6035
 5764SOL    HW228929   0.522   3.399   9.221 -0.3218 -2.1398  0.0894
 5765SOL     OW28930   0.244   4.106   2.895 -0.3152  0.1898 -0.4062
 5765SOL    HW128931   0.304   4.181   2.889  0.7152 -0.7441 -1.8187
 5765SOL    HW228932   0.163   4.148   2.866 -0.2094  1.6175  1.3942
 5766SOL     OW28933   2.575   1.943   8.232 -0.3177  0.3465 -0.2665
 5766SOL    HW128934   2.579   1.943   8.136 -4.6875 -1.7307 -0.4563
 5766SOL    HW228935   2.568   1.848   8.242 -0.5585  0.2116 -1.6988
 5767SOL     OW28936   3.729   4.111  15.330  0.3789  0.4884  0.3200
 5767SOL    HW128937   3.781   4.168  15.388  0.5448  0.8365 -0.1775
 5767SOL    HW228938   3.763   4.145  15.247  1.3146 -0.4938  0.2955
 5768SOL     OW28939   0.238   3.746   3.723  0.0550 -0.3438 -0.0243
 5768SOL    HW128940   0.270   3.737   3.634 -2.1088  0.3388 -0.8795
 5768SOL    HW228941   0.254   3.835   3.755  2.5227 -0.6566 -0.3807
 5769SOL     OW28942   2.621   4.458   5.374 -0.7986 -0.6293 -0.4359
 5769SOL    HW128943   2.635   4.418   5.288  1.8350  0.3660 -0.4540
 5769SOL    HW228944   2.577   4.540   5.355 -1.6445 -1.2140 -0.9924
 5770SOL     OW28945   1.215   3.967   8.811  0.3597 -0.3023  0.3885
 5770SOL    HW128946   1.127   3.941   8.781 -0.7438  1.4320  2.1186
 5770SOL    HW228947   1.218   3.925   8.897 -1.7070 -2.0049 -0.3501
 5771SOL     OW28948   1.061   1.828   0.162 -0.0337  0.1957 -0.0616
 5771SOL    HW128949   0.985   1.793   0.115 -0.2138 -2.0234  1.8996
 5771SOL    HW228950   1.023   1.898   0.216 -0.8019  0.0997 -0.4757
 5772SOL     OW28951   0.010   1.282  10.981  0.1959 -0.0560 -0.7061
 5772SOL    HW128952   0.101   1.281  11.010 -0.2279 -0.6514  0.6095
 5772SOL    HW228953   4.700   1.264  11.062  1.6973  0.5331  0.3134
 5773SOL     OW28954   4.728   3.614   8.172  0.3229 -0.0378  0.1966
 5773SOL    HW128955   0.027   3.551   8.110 -0.5983 -0.9915  0.6309
 5773SOL    HW228956   0.063   3.666   8.207  1.0407 -1.5324  0.8906
 5774SOL     OW28957   3.853   0.259   6.229  0.4907  0.1972 -0.0466
 5774SOL    HW128958   3.845   0.331   6.291  1.1277  0.9619 -0.8502
 5774SOL    HW228959   3.946   0.274   6.208  0.3871 -1.4496 -1.7396
 5775SOL     OW28960   1.381   2.311   3.998 -0.1264  0.3526  0.5062
 5775SOL    HW128961   1.320   2.255   3.950  0.7373  0.8027 -1.1253
 5775SOL    HW228962   1.417   2.254   4.065  1.6688 -1.3425 -1.9308
 5776SOL     OW28963   1.265   2.917   8.490 -0.0096 -0.1095  0.0046
 5776SOL    HW128964   1.218   2.927   8.407 -0.6262  2.0489  0.6326
 5776SOL    HW228965   1.320   2.841   8.470  0.4794 -0.0048  0.9418
 5777SOL     OW28966   1.890   1.039   8.354 -0.2563  0.4656  0.1715
 5777SOL    HW128967   1.825   1.109   8.358  1.9285  2.4291  0.9071
 5777SOL    HW228968   1.870   0.994   8.436  2.3118  1.0317  1.1161
 5778SOL     OW28969   3.051   0.244   3.886  0.0648  0.0186 -0.2302
 5778SOL    HW128970   3.092   0.243   3.972 -0.9220  2.0374  0.2672
 5778SOL    HW228971   2.962   0.266   3.913  0.2221 -1.1612  1.2627
 5779SOL     OW28972   0.102   3.118   6.526 -0.5542  0.5758  1.0249
 5779SOL    HW128973   0.026   3.165   6.560 -1.2593  0.5754 -0.5397
 5779SOL    HW228974   0.088   3.116   6.431  2.9470 -3.0235  0.5822
 5780SOL     OW28975   1.670   3.508  13.281  0.7225  0.2650 -0.1013
 5780SOL    HW128976   1.696   3.460  13.202 -3.0702 -1.8652 -0.0732
 5780SOL    HW228977   1.723   3.586  13.266  4.9726 -2.3746  1.0110
 5781SOL     OW28978   4.515   0.263   5.937  0.6632  0.0672  0.0813
 5781SOL    HW128979   4.590   0.261   5.879  0.5119  5.5228 -0.2598
 5781SOL    HW228980   4.470   0.190   5.895 -0.6537  0.9302 -0.0281
 5782SOL     OW28981   2.995   3.577   7.940 -0.1241  1.3404 -0.1834
 5782SOL    HW128982   2.987   3.615   7.853  0.0306 -0.3722 -0.9423
 5782SOL    HW228983   2.976   3.485   7.924 -0.4179  1.6133 -1.3260
 5783SOL     OW28984   1.881   4.463   1.268  0.0123  0.4668 -0.5927
 5783SOL    HW128985   1.789   4.471   1.243  0.3694  0.7160 -1.8363
 5783SOL    HW228986   1.892   4.516   1.347  0.9833  0.6468 -0.8469
 5784SOL     OW28987   2.284   0.898  14.505 -0.1882 -0.5827 -0.3651
 5784SOL    HW128988   2.202   0.876  14.549 -0.4851  0.4834 -0.3904
 5784SOL    HW228989   2.276   0.823  14.447  0.5908 -1.4169  0.6035
 5785SOL     OW28990   3.606   4.515  17.208 -0.3112 -0.9397 -0.7102
 5785SOL    HW128991   3.668   4.449  17.176  0.9124  0.1949 -0.7054
 5785SOL    HW228992   3.554   4.467  17.271 -0.1068  0.6481  0.6835
 5786SOL     OW28993   0.908   3.882   3.323  0.2640 -0.9240 -0.7047
 5786SOL    HW128994   0.867   3.803   3.358 -0.2982  0.5585  1.9452
 5786SOL    HW228995   0.960   3.907   3.399 -2.0051 -0.1136  0.5753
 5787SOL     OW28996   4.425   0.104   8.337 -0.0722 -0.0038  0.1694
 5787SOL    HW128997   4.358   0.157   8.382  2.0597  1.4907  1.5919
 5787SOL    HW228998   4.448   0.045   8.408  0.3077 -1.9801 -1.6095
 5788SOL     OW28999   0.021   3.658   8.752  0.4234 -0.3358 -0.8941
 5788SOL    HW129000   0.010   3.593   8.682 -0.3509  0.8589 -1.8756
 5788SOL    HW229001   4.705   3.730   8.721 -1.7798 -1.5112  0.2190
 5789SOL     OW29002   0.651   3.572   7.236  0.2725  0.1511 -0.1449
 5789SOL    HW129003   0.746   3.566   7.228  0.3884  1.2471  0.5233
 5789SOL    HW229004   0.637   3.645   7.175  3.1361  0.1106 -0.8737
 5790SOL     OW29005   3.935   0.167   1.361  0.8732 -0.4943 -0.6149
 5790SOL    HW129006   3.859   0.158   1.418  0.3227 -0.4555 -1.3471
 5790SOL    HW229007   3.992   0.100   1.399  1.9710  0.2252 -1.0052
 5791SOL     OW29008   1.887   3.165  13.306  0.3343  0.3825  0.1693
 5791SOL    HW129009   1.829   3.240  13.292 -0.6916 -0.4173  0.0925
 5791SOL    HW229010   1.914   3.146  13.216  1.9981  2.3011  0.2721
 5792SOL     OW29011   0.593   1.242   6.779  0.2447  0.0738  0.0332
 5792SOL    HW129012   0.653   1.315   6.797 -1.8419  1.5611  0.9706
 5792SOL    HW229013   0.627   1.165   6.824  0.1216 -0.6728 -1.1451
 5793SOL     OW29014   4.530   3.561   3.931  0.4193 -0.5086 -0.2687
 5793SOL    HW129015   4.588   3.485   3.923  2.2246  0.8197  0.1957
 5793SOL    HW229016   4.595   3.627   3.908 -0.4758  0.3553 -0.3440
 5794SOL     OW29017   0.183   4.251   4.783 -0.1152 -0.1119  0.5034
 5794SOL    HW129018   0.098   4.247   4.740  0.0478 -0.5999  0.2231
 5794SOL    HW229019   0.174   4.186   4.853  0.6302 -0.1463  0.5714
 5795SOL     OW29020   3.374   3.408   3.228  0.1626  0.3611 -0.0362
 5795SOL    HW129021   3.461   3.377   3.203  0.2764 -1.0629  2.1717
 5795SOL    HW229022   3.397   3.499   3.248 -1.0266  0.5689  0.3954
 5796SOL     OW29023   1.285   1.265   0.696 -0.6318  0.4058  0.0493
 5796SOL    HW129024   1.287   1.342   0.753 -1.3498  0.1854  0.3729
 5796SOL    HW229025   1.189   1.266   0.692 -0.6392 -0.0558  0.1379
 5797SOL     OW29026   3.329   1.241  15.085 -0.1507  0.5375  0.1678
 5797SOL    HW129027   3.389   1.313  15.066  1.9445 -0.7918  1.7092
 5797SOL    HW229028   3.357   1.193  15.162 -0.2725 -0.6434 -0.5201
 5798SOL     OW29029   3.971   3.474  15.931  0.1648  0.4673 -0.2866
 5798SOL    HW129030   4.041   3.411  15.919  1.3566  1.5680  0.9453
 5798SOL    HW229031   3.900   3.424  15.971  1.4775  0.1613  1.6496
 5799SOL     OW29032   2.047   2.059  16.359  0.8075 -0.0995 -0.2490
 5799SOL    HW129033   2.057   1.991  16.292 -1.8837  2.2617 -3.0690
 5799SOL    HW229034   2.068   2.013  16.440  2.2017 -2.1538 -1.7370
 5800SOL     OW29035   1.862   4.690   3.719  0.2073  0.6417  0.6556
 5800SOL    HW129036   1.895   4.710   3.807  0.1887 -1.9916  1.2612
 5800SOL    HW229037   1.812   0.030   3.695 -2.7237 -0.7176  2.3009
 5801SOL     OW29038   1.966   0.388   5.921 -0.3001 -0.5831  0.0672
 5801SOL    HW129039   2.025   0.393   5.845 -0.2234 -0.1668  0.1525
 5801SOL    HW229040   1.913   0.467   5.912 -0.2759 -0.4087  1.4615
 5802SOL     OW29041   0.114   2.018   8.639 -0.0261  0.2351  0.3367
 5802SOL    HW129042   0.162   1.936   8.642 -0.9666 -0.2243  3.7074
 5802SOL    HW229043   0.176   2.091   8.644 -0.8001  0.9973 -1.1752
 5803SOL     OW29044   1.259   0.275   9.975 -0.2106 -0.0603  0.4330
 5803SOL    HW129045   1.305   0.359   9.984 -1.9603  0.7838  1.5494
 5803SOL    HW229046   1.309   0.235   9.905  0.2704 -0.9564  1.3019
 5804SOL     OW29047   3.459   3.645   3.157 -0.3592 -0.3359 -0.8057
 5804SOL    HW129048   3.500   3.720   3.201  0.2523 -0.4386 -1.2067
 5804SOL    HW229049   3.443   3.687   3.072  0.0095 -1.1942 -1.2928
 5805SOL     OW29050   4.400   2.371   9.021  0.5747 -0.1780 -0.3903
 5805SOL    HW129051   4.462   2.299   9.015  3.7629  2.7051 -1.7485
 5805SOL    HW229052   4.326   2.339   9.073  0.7933 -0.7727 -0.4435
 5806SOL     OW29053   3.635   4.064   2.024 -0.2533  0.1152  0.0395
 5806SOL    HW129054   3.692   4.085   2.099 -2.1955 -0.5768  1.7146
 5806SOL    HW229055   3.692   3.993   1.996  2.0473  1.0497  2.2283
 5807SOL     OW29056   1.407   2.192  10.966  0.5037  0.1444 -0.1113
 5807SOL    HW129057   1.456   2.133  11.022 -1.2345 -1.2432 -0.0455
 5807SOL    HW229058   1.474   2.218  10.902  0.5061  2.5286  0.8575
 5808SOL     OW29059   3.421   1.031  16.015  0.3747 -0.1021 -0.3859
 5808SOL    HW129060   3.470   1.089  16.073 -0.9706 -0.2686  0.8980
 5808SOL    HW229061   3.329   1.035  16.039  0.3600  0.4742 -0.5455
 5809SOL     OW29062   3.085   2.426   7.783 -0.3232  0.3932  0.2689
 5809SOL    HW129063   2.996   2.391   7.781  0.1044 -0.7512  0.6708
 5809SOL    HW229064   3.112   2.429   7.875 -0.7478  1.5027  0.3578
 5810SOL     OW29065   0.776   3.229   3.018 -0.2090  0.5695  0.4073
 5810SOL    HW129066   0.745   3.176   3.091  0.4618 -1.6316 -0.9264
 5810SOL    HW229067   0.703   3.292   3.020 -2.2002 -1.7694  1.6069
 5811SOL     OW29068   1.689   0.684  11.228  0.4580 -0.5281 -0.2042
 5811SOL    HW129069   1.633   0.608  11.211 -0.3983  0.0906 -0.1472
 5811SOL    HW229070   1.630   0.759  11.231  1.2048  0.0742 -0.4877
 5812SOL     OW29071   4.527   2.022  10.169 -0.0622  0.1091  0.0329
 5812SOL    HW129072   4.580   2.101  10.160  1.2480 -0.6774  0.9811
 5812SOL    HW229073   4.442   2.065  10.180 -0.1101 -0.1446  0.6556
 5813SOL     OW29074   2.047   2.917   7.763  0.4164  0.1875  0.1231
 5813SOL    HW129075   2.100   2.996   7.779 -0.2534  0.4201  1.1902
 5813SOL    HW229076   2.123   2.865   7.735  0.1811  0.2251 -0.5913
 5814SOL     OW29077   2.374   3.287   3.228  0.3788  0.1158  0.0802
 5814SOL    HW129078   2.440   3.340   3.273 -0.2107 -1.2948  2.6301
 5814SOL    HW229079   2.317   3.267   3.303 -0.6885  1.2284 -0.4456
 5815SOL     OW29080   2.155   3.336  17.147 -0.1545 -0.1733 -0.1118
 5815SOL    HW129081   2.070   3.303  17.120 -0.2402  0.4817 -0.6079
 5815SOL    HW229082   2.133   3.416  17.194 -1.3934 -1.6444  1.8056
 5816SOL     OW29083   4.500   3.015   5.952  0.5781  0.5374 -0.0836
 5816SOL    HW129084   4.507   2.938   5.896  0.1443  0.5252 -0.1213
 5816SOL    HW229085   4.461   2.975   6.030  0.7680 -0.7574 -0.6450
 5817SOL     OW29086   2.373   0.589   2.907 -0.0329  0.6096 -0.4973
 5817SOL    HW129087   2.433   0.576   2.834  0.8915 -2.0471  0.7358
 5817SOL    HW229088   2.409   0.670   2.942 -1.1815  0.6555  0.6260
 5818SOL     OW29089   1.082   4.489   2.648 -0.2687 -0.2150  0.6067
 5818SOL    HW129090   1.100   4.536   2.729 -0.7431  2.4609 -0.8349
 5818SOL    HW229091   1.014   4.433   2.686 -0.8215 -1.3173 -1.9716
 5819SOL     OW29092   1.204   3.228  15.777  0.0253 -0.1365 -0.3853
 5819SOL    HW129093   1.181   3.199  15.688 -1.1562 -1.6293  0.4248
 5819SOL    HW229094   1.159   3.174  15.841 -0.8727 -0.1084 -0.9915
 5820SOL     OW29095   0.016   4.513   2.432 -0.0121  0.0639 -0.0638
 5820SOL    HW129096   0.107   4.510   2.462  0.2952  0.2217 -0.9722
 5820SOL    HW229097   0.027   4.523   2.337 -1.9821 -1.0496 -0.4109
 5821SOL     OW29098   4.707   0.249   5.730 -0.5537 -0.0571 -0.4034
 5821SOL    HW129099   0.063   0.230   5.739 -0.6417 -1.0481 -1.6231
 5821SOL    HW229100   4.685   0.193   5.657 -2.1241  0.0927 -0.0514
 5822SOL     OW29101   0.623   3.471  13.662 -0.2145  0.3186 -0.2400
 5822SOL    HW129102   0.706   3.506  13.628 -1.1161  2.0237 -0.6492
 5822SOL    HW229103   0.622   3.489  13.756 -1.8284  0.5646 -0.3179
 5823SOL     OW29104   3.533   1.983  17.095 -0.2710 -0.0382  0.2460
 5823SOL    HW129105   3.550   1.928  17.171 -0.3312 -0.3312  0.0441
 5823SOL    HW229106   3.482   2.058  17.128  1.0996  1.2893 -0.6363
 5824SOL     OW29107   4.693   2.318   8.783  0.6985 -0.2238 -0.0060
 5824SOL    HW129108   0.003   2.398   8.802 -0.8279  0.9644 -1.1553
 5824SOL    HW229109   4.723   2.264   8.856  0.3858 -1.7031 -0.9828
 5825SOL     OW29110   3.013   4.462   2.146  0.0673 -0.0477 -0.0165
 5825SOL    HW129111   2.963   4.403   2.202 -0.5586  1.8232  1.3630
 5825SOL    HW229112   3.095   4.417   2.125  0.3376 -0.0373  0.9924
 5826SOL     OW29113   0.378   3.249  12.893 -0.4716 -1.1065 -0.1188
 5826SOL    HW129114   0.423   3.236  12.810  0.5810  1.4722  0.0602
 5826SOL    HW229115   0.293   3.242  12.849  0.0502 -0.4201 -1.2551
 5827SOL     OW29116   4.036   3.196   2.833  0.2579  0.5245  0.1637
 5827SOL    HW129117   3.994   3.254   2.770 -0.9455 -0.2978  0.2164
 5827SOL    HW229118   4.128   3.221   2.819  0.9366 -0.7789  2.2014
 5828SOL     OW29119   1.037   4.085   1.765  0.7969 -0.4125  0.3864
 5828SOL    HW129120   0.952   4.106   1.725  1.3494  0.9616 -0.0828
 5828SOL    HW229121   1.082   4.042   1.693  2.3995  1.5230  0.2188
 5829SOL     OW29122   2.959   0.808   2.616  0.7128  0.4343 -0.1365
 5829SOL    HW129123   2.897   0.854   2.673  1.6089  3.8406 -1.8919
 5829SOL    HW229124   3.043   0.808   2.663  0.0562  1.7141  1.0539
 5830SOL     OW29125   2.962   2.347  12.347  0.3798 -0.0908  0.4767
 5830SOL    HW129126   3.016   2.324  12.423  1.7690  1.2112 -0.1304
 5830SOL    HW229127   2.919   2.266  12.320  1.6307 -0.4885 -0.3040
 5831SOL     OW29128   4.722   0.361   2.443  0.6317 -0.9165  0.4250
 5831SOL    HW129129   4.649   0.418   2.468 -0.1890 -0.8807 -2.0205
 5831SOL    HW229130   4.690   0.272   2.451 -0.1050 -0.9055 -2.3668
 5832SOL     OW29131   0.938   2.272   2.194  0.1871 -0.6784  0.1747
 5832SOL    HW129132   0.969   2.362   2.203  0.2040 -0.6615 -0.0697
 5832SOL    HW229133   0.986   2.242   2.117  0.3259 -1.6463  0.6426
 5833SOL     OW29134   1.326   3.534  13.896  0.0944  0.1860  0.1426
 5833SOL    HW129135   1.272   3.577  13.963  1.2021 -0.3541  1.3835
 5833SOL    HW229136   1.262   3.497  13.835  2.0533 -2.1708 -0.4590
 5834SOL     OW29137   1.803   1.319  14.257 -0.2019 -0.0949  0.1483
 5834SOL    HW129138   1.724   1.322  14.311 -0.4615 -2.5726 -0.0814
 5834SOL    HW229139   1.824   1.230  14.284  1.0423  0.2632  0.3668
 5835SOL     OW29140   2.058   1.482  11.078 -0.4733 -0.5192  0.4667
 5835SOL    HW129141   2.091   1.492  11.167 -1.2072  0.2156  0.6517
 5835SOL    HW229142   1.970   1.519  11.086 -0.2284 -0.7679  4.2982
 5836SOL     OW29143   4.475   1.412   5.995  0.2860 -0.0366 -0.2257
 5836SOL    HW129144   4.439   1.440   5.910 -1.1032 -2.0631 -0.3145
 5836SOL    HW229145   4.540   1.352   5.959  0.8352  2.6353 -3.6576
 5837SOL     OW29146   1.957   0.194   2.496  0.3303 -0.7579 -0.6237
 5837SOL    HW129147   1.937   0.106   2.464  1.4305 -1.3072  0.2405
 5837SOL    HW229148   1.966   0.235   2.410 -0.4226  2.2695  0.7446
 5838SOL     OW29149   1.561   0.559  12.621 -0.4323  0.3280  0.0756
 5838SOL    HW129150   1.484   0.503  12.611  0.4632 -1.3616  2.6450
 5838SOL    HW229151   1.571   0.554  12.716  0.9525  1.5000 -0.0166
 5839SOL     OW29152   4.199   2.884   0.423  0.4831  0.4636  0.1035
 5839SOL    HW129153   4.283   2.838   0.417 -0.3712 -1.2264  1.1494
 5839SOL    HW229154   4.174   2.873   0.331  1.0355  1.8421 -0.2146
 5840SOL     OW29155   2.814   0.345   1.320 -0.4798  0.4021 -0.6954
 5840SOL    HW129156   2.833   0.333   1.227 -0.1670  1.0536 -0.7187
 5840SOL    HW229157   2.718   0.344   1.316 -0.6016  0.4559  1.7001
 5841SOL     OW29158   3.684   1.232  15.258  0.1307 -0.1236  0.2189
 5841SOL    HW129159   3.650   1.269  15.176 -0.9587  0.4448  0.9301
 5841SOL    HW229160   3.607   1.177  15.272  0.6536 -0.7308  0.6986
 5842SOL     OW29161   1.504   1.750  15.588  0.8493 -0.6706 -0.2621
 5842SOL    HW129162   1.425   1.699  15.606 -0.4536  1.3585 -0.1846
 5842SOL    HW229163   1.472   1.797  15.511 -0.1421 -0.7146  0.1266
 5843SOL     OW29164   4.204   4.609  12.203 -0.3771 -0.0258 -0.0078
 5843SOL    HW129165   4.137   4.563  12.152  0.2829 -2.2421  1.1283
 5843SOL    HW229166   4.266   4.539  12.221 -0.7985  0.0133  1.5916
 5844SOL     OW29167   2.761   2.278  14.156 -0.3018 -0.1066  0.2191
 5844SOL    HW129168   2.821   2.311  14.223  0.7365  0.6112 -1.0526
 5844SOL    HW229169   2.690   2.342  14.167 -0.3728 -0.2123  0.3824
 5845SOL     OW29170   1.861   0.182   0.678 -0.4479  0.6637  0.4812
 5845SOL    HW129171   1.840   0.257   0.623 -1.7940  0.5224  0.7952
 5845SOL    HW229172   1.804   0.113   0.643  0.2869  0.2005  0.1927
 5846SOL     OW29173   1.754   4.578  16.712  0.4156  0.0213  0.1352
 5846SOL    HW129174   1.755   4.572  16.617 -0.4468 -2.1717  0.2646
 5846SOL    HW229175   1.724   4.491  16.736 -0.6406  0.6369  1.0167
 5847SOL     OW29176   1.738   2.694   3.061  0.7564 -0.0496  0.2766
 5847SOL    HW129177   1.705   2.607   3.037  0.5144 -0.5956  2.6386
 5847SOL    HW229178   1.723   2.735   2.976 -0.2505 -1.9575 -0.4613
 5848SOL     OW29179   3.410   3.811  14.240  0.3329 -0.0034  0.2329
 5848SOL    HW129180   3.419   3.904  14.220 -2.5368  0.2722  0.2035
 5848SOL    HW229181   3.501   3.798  14.266  1.0294  0.9383 -1.7318
 5849SOL     OW29182   2.688   4.378   7.334  0.7121  0.1509  0.4087
 5849SOL    HW129183   2.733   4.461   7.350  0.9525  0.1446 -0.2056
 5849SOL    HW229184   2.647   4.385   7.247  0.5347  0.3026  0.5057
 5850SOL     OW29185   3.873   4.419   4.502  0.3806  0.4299 -0.5943
 5850SOL    HW129186   3.810   4.388   4.567  0.8826  1.4856  0.3909
 5850SOL    HW229187   3.809   4.432   4.432 -0.5379 -1.2956 -0.0615
 5851SOL     OW29188   0.742   3.477   4.690 -0.0894 -0.9139 -0.4309
 5851SOL    HW129189   0.652   3.474   4.722  0.0266 -1.7236 -0.1757
 5851SOL    HW229190   0.733   3.425   4.610 -0.5332 -0.7921 -0.4570
 5852SOL     OW29191   2.653   0.481   1.880  0.2840  0.0928 -0.2503
 5852SOL    HW129192   2.722   0.416   1.859  0.3202 -0.1043  0.4879
 5852SOL    HW229193   2.670   0.553   1.819 -1.9408  0.8365  0.0501
 5853SOL     OW29194   3.960   2.850  14.976 -0.5044  0.2841  0.2171
 5853SOL    HW129195   4.005   2.767  14.960  0.9311  1.4320 -1.7232
 5853SOL    HW229196   4.031   2.913  14.961  0.9929 -1.3578  0.5020
 5854SOL     OW29197   2.422   1.288   6.365 -0.3173 -0.8728  0.3406
 5854SOL    HW129198   2.332   1.302   6.334  1.0610  1.0121 -2.7265
 5854SOL    HW229199   2.407   1.226   6.436  0.4565 -1.5242 -0.0687
 5855SOL     OW29200   0.915   3.858  12.269  0.7535 -0.2875 -0.3911
 5855SOL    HW129201   0.904   3.838  12.362  1.3902 -1.0141 -0.4714
 5855SOL    HW229202   0.958   3.777  12.243 -1.2530 -0.7842 -2.1793
 5856SOL     OW29203   1.551   3.803  15.059 -0.0924 -0.0894 -0.1760
 5856SOL    HW129204   1.590   3.860  14.992  1.1018 -1.3899 -0.5724
 5856SOL    HW229205   1.512   3.873  15.111  3.2812  1.4499  0.2596
 5857SOL     OW29206   2.389   0.477   9.789 -0.1983 -0.4003 -0.2723
 5857SOL    HW129207   2.421   0.397   9.747 -1.0601  0.7933 -3.2369
 5857SOL    HW229208   2.426   0.470   9.877  1.3604 -1.3824 -1.0125
 5858SOL     OW29209   0.049   0.251  14.503 -0.5111  0.0990  0.0029
 5858SOL    HW129210   0.069   0.247  14.596 -0.3586  0.2584 -0.0230
 5858SOL    HW229211   4.704   0.297  14.495  0.4980  1.3670 -3.1019
 5859SOL     OW29212   4.227   4.663   3.045  0.3146  0.1442 -0.5724
 5859SOL    HW129213   4.259   4.713   3.120 -0.3973 -1.7693  1.0204
 5859SOL    HW229214   4.294   4.690   2.982 -0.6282  1.4492 -0.9992
 5860SOL     OW29215   2.865   1.265   0.558 -0.0737 -0.2304  0.3306
 5860SOL    HW129216   2.953   1.229   0.546 -0.6210 -1.5708  0.2962
 5860SOL    HW229217   2.823   1.188   0.597 -1.3225  1.2950  1.9568
 5861SOL     OW29218   1.834   0.519   1.358  0.2240 -0.1745  0.3017
 5861SOL    HW129219   1.774   0.546   1.289  0.2142 -0.0445  0.3624
 5861SOL    HW229220   1.848   0.428   1.329 -1.4737 -1.4790  3.5799
 5862SOL     OW29221   1.355   3.831  12.666  0.0354 -0.7294 -0.1142
 5862SOL    HW129222   1.271   3.824  12.711  1.1973 -1.9569  1.8924
 5862SOL    HW229223   1.397   3.850  12.750 -0.6562  1.4653 -0.2799
 5863SOL     OW29224   0.123   1.995   6.725 -0.1304  0.2206  1.1217
 5863SOL    HW129225   0.166   1.910   6.712  0.9227  1.1730 -1.7245
 5863SOL    HW229226   0.196   2.055   6.741 -0.3693  0.8504 -0.2035
 5864SOL     OW29227   0.140   2.782   6.003  0.2467  0.1372  0.3407
 5864SOL    HW129228   0.078   2.855   6.008  1.0583  0.9081 -0.9669
 5864SOL    HW229229   0.145   2.773   5.908 -0.8380  0.4632  0.2484
 5865SOL     OW29230   3.976   3.808   2.912  0.3309  0.2314 -0.6541
 5865SOL    HW129231   4.052   3.865   2.924  0.0516  0.4395  0.1719
 5865SOL    HW229232   3.908   3.867   2.880 -0.7292 -0.9526 -0.5973
 5866SOL     OW29233   3.207   4.329   4.325  0.4910 -0.6214  0.0621
 5866SOL    HW129234   3.301   4.312   4.336  0.3923  0.1359  2.2062
 5866SOL    HW229235   3.168   4.241   4.320  1.2047 -1.1094  2.9430
 5867SOL     OW29236   3.510   0.461   4.179  0.0478 -0.8988 -0.2262
 5867SOL    HW129237   3.560   0.501   4.250 -2.5395 -1.3286  1.8324
 5867SOL    HW229238   3.436   0.522   4.182  1.0455  0.1681  2.5856
 5868SOL     OW29239   4.126   3.119  11.263 -0.5623 -0.0477 -0.2522
 5868SOL    HW129240   4.122   3.137  11.357 -2.5176 -1.7571 -0.0138
 5868SOL    HW229241   4.202   3.174  11.241 -0.3119 -0.2052  0.2250
 5869SOL     OW29242   1.637   2.431   1.735 -0.0944  0.3925 -0.0995
 5869SOL    HW129243   1.558   2.453   1.783  0.8180  0.2693  1.4574
 5869SOL    HW229244   1.694   2.481   1.794  2.0770 -1.9862 -0.1602
 5870SOL     OW29245   0.931   1.919   7.124  0.3246 -0.2318  0.1903
 5870SOL    HW129246   1.011   1.885   7.083 -0.3865 -0.6070 -0.8930
 5870SOL    HW229247   0.956   1.997   7.173  1.8290  0.1515 -1.1808
 5871SOL     OW29248   3.694   3.391   8.400  0.4315  0.3270  0.6613
 5871SOL    HW129249   3.678   3.387   8.305  0.1886 -3.3933  0.8699
 5871SOL    HW229250   3.685   3.486   8.408  0.5779  0.2459  1.7554
 5872SOL     OW29251   2.055   1.225  16.738 -0.2587  0.4021  0.2070
 5872SOL    HW129252   2.015   1.140  16.756 -1.6640  0.9819 -0.2073
 5872SOL    HW229253   2.044   1.280  16.816  0.1125  1.6784 -0.6332
 5873SOL     OW29254   3.942   4.449  17.560 -0.2746  0.4040  0.1902
 5873SOL    HW129255   3.904   4.512  17.498  0.3047 -0.6967 -1.2805
 5873SOL    HW229256   3.867   4.390  17.555  0.0648  0.0984 -1.4532
 5874SOL     OW29257   2.760   3.973  12.258 -0.0066 -0.0099 -0.2781
 5874SOL    HW129258   2.693   4.023  12.212 -1.7637 -1.3539  0.8061
 5874SOL    HW229259   2.765   4.024  12.339  0.0582 -1.4804  0.6487
 5875SOL     OW29260   3.827   1.530   9.799  0.5584 -0.7298  0.3382
 5875SOL    HW129261   3.794   1.457   9.850  1.6988 -1.6678 -0.2752
 5875SOL    HW229262   3.741   1.559   9.768  0.8591  0.5682  0.7328
 5876SOL     OW29263   0.956   1.915  12.824  0.5760  0.1900 -0.5752
 5876SOL    HW129264   1.047   1.886  12.833 -0.3200 -2.1965  0.8790
 5876SOL    HW229265   0.902   1.841  12.854  1.5610 -1.1605 -2.0961
 5877SOL     OW29266   3.010   3.463   5.571  0.0590 -0.1858 -0.4346
 5877SOL    HW129267   2.963   3.515   5.636 -0.1348  0.3484 -1.0069
 5877SOL    HW229268   2.953   3.386   5.566  1.1809 -1.1717  1.8242
 5878SOL     OW29269   1.395   3.049   7.490  0.1628  0.0698 -0.0506
 5878SOL    HW129270   1.392   2.976   7.429 -1.8141 -1.1043  1.4267
 5878SOL    HW229271   1.458   3.104   7.444 -0.3660  0.5273 -0.2339
 5879SOL     OW29272   3.418   3.038   2.834  0.0637 -0.8769  0.3761
 5879SOL    HW129273   3.349   2.972   2.830 -0.8905  0.1368 -0.0809
 5879SOL    HW229274   3.371   3.094   2.896  1.1191  0.4667 -0.0359
 5880SOL     OW29275   4.290   3.352  10.709  0.1305  0.3096  0.2468
 5880SOL    HW129276   4.371   3.312  10.678  0.0875  0.5617 -0.1868
 5880SOL    HW229277   4.239   3.270  10.711 -2.3450  1.8661  0.9270
 5881SOL     OW29278   2.653   2.332   7.518  0.0450 -0.0729  0.2867
 5881SOL    HW129279   2.677   2.240   7.503  1.0471 -0.0121  1.4944
 5881SOL    HW229280   2.623   2.357   7.431  0.2428 -1.2238 -0.1121
 5882SOL     OW29281   1.699   3.560   8.043 -0.7955  0.0848  0.1315
 5882SOL    HW129282   1.619   3.602   8.012  0.3131  2.6526  0.7773
 5882SOL    HW229283   1.754   3.554   7.965  1.6973  2.0689  1.7206
 5883SOL     OW29284   0.106   0.369   9.858 -0.3753 -0.2360  0.3519
 5883SOL    HW129285   0.172   0.409   9.801 -0.7777  3.1191  2.2135
 5883SOL    HW229286   0.089   0.439   9.920  1.2567  1.8457 -1.5474
 5884SOL     OW29287   3.998   3.764   8.731 -0.1142  0.1641 -0.3893
 5884SOL    HW129288   3.956   3.679   8.745  0.4437 -0.0929 -0.2893
 5884SOL    HW229289   4.086   3.738   8.759  0.0935  0.1710 -1.0265
 5885SOL     OW29290   0.487   4.079  14.808 -0.0304  0.3017 -0.4219
 5885SOL    HW129291   0.574   4.115  14.790 -0.3506  0.9094 -0.7642
 5885SOL    HW229292   0.441   4.151  14.764 -0.1888 -1.5338 -3.2351
 5886SOL     OW29293   3.965   1.663   4.138 -0.4564 -0.1580  0.0748
 5886SOL    HW129294   3.954   1.633   4.228 -2.6797 -0.7701 -0.4030
 5886SOL    HW229295   3.920   1.597   4.085 -0.3692  0.2452 -0.5027
 5887SOL     OW29296   2.003   1.972  15.512  0.1092  0.4233 -0.0955
 5887SOL    HW129297   2.081   1.998  15.463  1.1610 -0.1669  1.2805
 5887SOL    HW229298   2.033   1.883  15.528 -0.3043  0.6042  1.7302
 5888SOL     OW29299   2.804   2.182   7.219  0.0994  0.8315  0.0310
 5888SOL    HW129300   2.841   2.270   7.216 -1.5252  1.5558  1.2199
 5888SOL    HW229301   2.861   2.142   7.153 -1.3495 -1.0864 -0.0698
 5889SOL     OW29302   1.045   1.798   1.054  0.0290  0.6978 -0.2090
 5889SOL    HW129303   0.958   1.799   1.015 -0.9488 -0.3321  1.9763
 5889SOL    HW229304   1.083   1.739   0.989 -0.4516  1.4194 -1.1440
 5890SOL     OW29305   4.012   2.900  11.100  0.2309  0.1782 -0.1999
 5890SOL    HW129306   3.932   2.908  11.152  0.3513 -0.4276  0.0786
 5890SOL    HW229307   4.058   2.978  11.130  2.0834 -0.5116 -1.2225
 5891SOL     OW29308   1.862   3.529   5.345 -0.2931 -0.3907  0.3342
 5891SOL    HW129309   1.779   3.482   5.355 -0.8003 -0.0434 -2.1388
 5891SOL    HW229310   1.843   3.605   5.290  1.1222 -0.8814 -0.8404
 5892SOL     OW29311   3.023   2.528   8.810  0.1322  0.0247 -0.0207
 5892SOL    HW129312   3.034   2.591   8.881 -1.2260 -0.4142  0.5713
 5892SOL    HW229313   2.964   2.459   8.841  0.8709  0.3174  2.0800
 5893SOL     OW29314   4.026   4.167   1.806 -0.3847 -0.1168 -0.3002
 5893SOL    HW129315   3.947   4.215   1.782 -1.1174 -1.3118 -0.2427
 5893SOL    HW229316   4.076   4.244   1.833 -0.6157 -0.0286 -0.1299
 5894SOL     OW29317   3.449   0.511   2.211  0.0996  0.3700 -0.3160
 5894SOL    HW129318   3.469   0.605   2.204 -0.3583  0.5794  1.3096
 5894SOL    HW229319   3.524   0.487   2.265 -2.4935 -2.5764  1.9828
 5895SOL     OW29320   1.966   0.157   4.413  0.4060 -0.6691  0.0949
 5895SOL    HW129321   2.025   0.220   4.373 -1.4612  0.4709 -0.8682
 5895SOL    HW229322   1.898   0.155   4.345 -0.4161  0.9518  0.8679
 5896SOL     OW29323   4.371   3.212  10.964 -0.6106  0.0534  0.6600
 5896SOL    HW129324   4.343   3.218  11.055 -2.3540 -1.1222  0.1944
 5896SOL    HW229325   4.286   3.197  10.922 -1.4708  0.6567  2.1926
 5897SOL     OW29326   1.258   1.666  17.346 -0.6397  0.1113  0.0732
 5897SOL    HW129327   1.204   1.702  17.416  1.2509 -1.2108  2.2055
 5897SOL    HW229328   1.236   1.573  17.354  1.8347 -0.3404  1.5112
 5898SOL     OW29329   3.656   2.751   8.589 -0.2338 -0.3635  0.3273
 5898SOL    HW129330   3.565   2.732   8.567  1.4210 -2.4379 -4.6729
 5898SOL    HW229331   3.692   2.705   8.513  0.3568 -0.6244  0.7664
 5899SOL     OW29332   3.558   4.219   5.008  0.2450 -0.0898 -0.5218
 5899SOL    HW129333   3.485   4.281   5.005 -0.3599 -0.7757  0.0750
 5899SOL    HW229334   3.594   4.223   4.919 -1.0947  3.3937 -0.9347
 5900SOL     OW29335   0.125   3.391  16.604  0.0418  0.1521  0.0231
 5900SOL    HW129336   0.099   3.396  16.512 -0.3154  0.2551  0.1326
 5900SOL    HW229337   0.044   3.392  16.654  1.6443  1.5384  2.5703
 5901SOL     OW29338   0.986   2.821   3.959 -0.3549 -0.9272  0.1406
 5901SOL    HW129339   1.060   2.766   3.982  0.6574  0.6125  0.5657
 5901SOL    HW229340   1.013   2.862   3.877  3.9156  1.7568  2.9275
 5902SOL     OW29341   0.102   2.384  11.124  0.3303  0.0639  0.1417
 5902SOL    HW129342   0.073   2.310  11.178 -0.9903 -0.3464 -1.1261
 5902SOL    HW229343   0.029   2.372  11.064  0.0617  0.8392  0.3076
 5903SOL     OW29344   2.026   0.976   5.027  0.4228  0.4701 -0.4603
 5903SOL    HW129345   1.957   1.036   5.054  0.5014  0.9075 -1.2079
 5903SOL    HW229346   1.975   0.914   4.975  0.6153  0.4362 -0.6091
 5904SOL     OW29347   2.370   2.582  13.504 -0.0621  0.2445  0.3828
 5904SOL    HW129348   2.291   2.534  13.529 -0.9260  0.8797 -1.1274
 5904SOL    HW229349   2.433   2.511  13.518  0.2434  0.4940  0.2923
 5905SOL     OW29350   2.326   2.085   7.769 -0.0213 -0.1823  0.4131
 5905SOL    HW129351   2.302   2.171   7.733 -2.2127 -2.0745 -2.7198
 5905SOL    HW229352   2.294   2.024   7.703 -1.0110 -1.7285  2.3453
 5906SOL     OW29353   1.330   3.129  10.401 -0.1090 -0.2240  0.2802
 5906SOL    HW129354   1.252   3.139  10.347 -0.3303  0.2771  0.6887
 5906SOL    HW229355   1.398   3.164  10.344  0.3304  1.3712  1.7966
 5907SOL     OW29356   4.116   4.601   1.961  0.3942 -0.0331  0.0165
 5907SOL    HW129357   4.128   4.671   1.896  2.1247  0.6418  1.0764
 5907SOL    HW229358   4.108   4.656   2.038 -0.4442 -2.5125  1.6893
 5908SOL     OW29359   1.427   1.164   3.655 -0.5630  0.2638 -0.0746
 5908SOL    HW129360   1.390   1.102   3.592 -2.0686  1.3480 -0.2549
 5908SOL    HW229361   1.435   1.108   3.733  1.0740 -0.5666 -0.8359
 5909SOL     OW29362   0.149   1.190  15.850 -0.1817  0.4194 -0.5337
 5909SOL    HW129363   0.078   1.144  15.805  0.2530  0.6375 -1.4371
 5909SOL    HW229364   0.211   1.117  15.858  1.2313  1.6377 -0.2718
 5910SOL     OW29365   0.307   1.512   6.126  0.3199 -0.2791 -0.3580
 5910SOL    HW129366   0.331   1.494   6.217 -4.3875  0.7017  1.0701
 5910SOL    HW229367   0.219   1.477   6.112  0.8973 -1.9850  0.2772
 5911SOL     OW29368   1.764   4.002   2.727 -0.3352 -0.5877  0.3390
 5911SOL    HW129369   1.718   3.926   2.691  1.2745 -0.3259 -2.2410
 5911SOL    HW229370   1.824   3.962   2.790  0.4713  1.2253  0.7068
 5912SOL     OW29371   1.983   0.304  11.676 -0.7834 -0.3033  0.4645
 5912SOL    HW129372   1.914   0.292  11.740  2.3773 -0.4882  3.8292
 5912SOL    HW229373   1.939   0.378  11.633 -0.1911 -0.8574 -1.0964
 5913SOL     OW29374   2.881   0.029   8.444 -0.1486  0.0155 -0.3765
 5913SOL    HW129375   2.965   0.042   8.400 -0.2127  0.7334 -0.2850
 5913SOL    HW229376   2.877   4.671   8.440  0.6466  0.0973 -3.2609
 5914SOL     OW29377   1.550   2.091   2.283  0.0235 -0.2159  0.9650
 5914SOL    HW129378   1.495   2.169   2.273  0.4651 -0.2626 -1.8728
 5914SOL    HW229379   1.603   2.099   2.362 -0.1863  0.8653  0.9961
 5915SOL     OW29380   0.837   2.434  11.089  0.5315  0.5949  0.2421
 5915SOL    HW129381   0.816   2.371  11.021  1.9306 -0.3405  0.6865
 5915SOL    HW229382   0.880   2.504  11.040 -1.1281  1.3299 -0.1413
 5916SOL     OW29383   0.484   4.135   1.121  0.5700 -0.4625 -0.9007
 5916SOL    HW129384   0.566   4.108   1.081  1.1438  1.9557 -1.3346
 5916SOL    HW229385   0.484   4.227   1.098 -1.8027 -0.1855  0.1975
 5917SOL     OW29386   3.581   1.925   5.306  0.6087  0.0950 -0.7743
 5917SOL    HW129387   3.542   1.988   5.367 -0.5627 -1.2049 -0.1935
 5917SOL    HW229388   3.654   1.896   5.361 -0.0930 -2.2183 -1.0865
 5918SOL     OW29389   3.016   4.396   9.304 -0.2705  0.4107  0.3540
 5918SOL    HW129390   3.023   4.353   9.389  2.9307  1.1208  0.4343
 5918SOL    HW229391   3.006   4.320   9.245  1.5026  0.5678 -0.1634
 5919SOL     OW29392   3.552   3.752   8.646  0.2296 -0.0059  0.5207
 5919SOL    HW129393   3.519   3.711   8.567  0.0016 -0.4882  0.8688
 5919SOL    HW229394   3.509   3.837   8.637  0.1031  0.1754  2.7178
 5920SOL     OW29395   2.253   3.378   7.940  0.2432 -0.4600 -0.8446
 5920SOL    HW129396   2.300   3.363   7.858  0.7625  0.1301 -0.6507
 5920SOL    HW229397   2.295   3.452   7.982 -1.4374 -0.3603  0.6455
 5921SOL     OW29398   1.886   2.936   7.170 -0.1572 -0.0405 -0.3910
 5921SOL    HW129399   1.918   2.985   7.095 -0.0449 -0.1439 -0.4113
 5921SOL    HW229400   1.947   2.968   7.237  0.1188 -1.9041  0.2391
 5922SOL     OW29401   0.640   1.610   7.670  0.1158  0.1954  0.1854
 5922SOL    HW129402   0.691   1.617   7.589  1.5052  1.8506  1.1989
 5922SOL    HW229403   0.607   1.522   7.652  1.3176  0.1759 -1.9547
 5923SOL     OW29404   3.025   0.398  10.695  0.3725 -0.4933 -0.1301
 5923SOL    HW129405   3.073   0.368  10.773  1.3618  0.7039 -0.2794
 5923SOL    HW229406   3.098   0.442  10.651 -0.2858  1.5213  0.8140
 5924SOL     OW29407   0.211   3.921   1.088  0.2626  0.1401  0.0543
 5924SOL    HW129408   0.208   3.826   1.100 -1.8322 -0.0811 -2.1569
 5924SOL    HW229409   0.282   3.937   1.150  1.2541 -0.2395 -0.9911
 5925SOL     OW29410   0.372   0.691   4.855 -0.5000  0.6203 -0.0811
 5925SOL    HW129411   0.312   0.697   4.781 -0.1533  0.0274 -0.4167
 5925SOL    HW229412   0.400   0.782   4.863  2.5220 -0.3372  0.3174
 5926SOL     OW29413   2.697   1.369   3.007  0.2146 -0.4966  0.1395
 5926SOL    HW129414   2.789   1.362   3.031  0.6364  1.5427 -0.8784
 5926SOL    HW229415   2.657   1.321   3.080 -0.7530 -3.5688 -2.4332
 5927SOL     OW29416   0.065   1.597   1.840  0.3835  0.1308  0.0327
 5927SOL    HW129417   0.006   1.532   1.878 -1.0104  2.2030  1.3933
 5927SOL    HW229418   0.078   1.567   1.751 -2.5878  2.0131 -1.0266
 5928SOL     OW29419   1.872   3.970   6.532  0.7702 -0.0993 -0.3925
 5928SOL    HW129420   1.890   4.050   6.481 -1.4431 -0.8853 -2.4148
 5928SOL    HW229421   1.869   4.004   6.621 -0.6574 -0.1401 -0.4246
 5929SOL     OW29422   4.556   0.399   9.826  0.2148  0.0627 -0.5321
 5929SOL    HW129423   4.551   0.352   9.909  0.3936 -0.5052 -0.8489
 5929SOL    HW229424   4.649   0.422   9.820  0.3788 -1.3415 -2.9398
 5930SOL     OW29425   3.862   2.814   6.292 -0.8499  0.5413  0.3106
 5930SOL    HW129426   3.773   2.849   6.297 -0.6667  1.0736 -0.0818
 5930SOL    HW229427   3.850   2.750   6.222  0.5864 -0.4493  0.9695
 5931SOL     OW29428   2.571   2.912   5.876  0.9319  0.1528  0.5631
 5931SOL    HW129429   2.499   2.927   5.815  2.2140 -2.8153 -1.6909
 5931SOL    HW229430   2.577   2.816   5.881 -0.5176  0.1496  2.0782
 5932SOL     OW29431   3.501   3.525   3.626  0.6740 -0.3909 -0.2321
 5932SOL    HW129432   3.525   3.445   3.579 -1.5615 -0.5961 -0.9885
 5932SOL    HW229433   3.501   3.494   3.717 -1.4670 -0.1878 -0.1753
 5933SOL     OW29434   3.002   0.472   2.556  0.2477  0.3833  0.0068
 5933SOL    HW129435   3.005   0.563   2.586 -2.0869  0.3514  0.3804
 5933SOL    HW229436   3.074   0.470   2.493 -0.3822  1.3365 -0.7386
 5934SOL     OW29437   1.180   4.073  17.190 -0.7099  0.3693 -0.1605
 5934SOL    HW129438   1.262   4.121  17.188 -0.2004 -0.4259  0.9403
 5934SOL    HW229439   1.121   4.147  17.197 -2.3340 -0.8358 -1.1423
 5935SOL     OW29440   0.856   2.604  12.399 -0.1748  0.4475 -0.0630
 5935SOL    HW129441   0.821   2.643  12.479 -1.0713  0.4290 -0.4416
 5935SOL    HW229442   0.946   2.585  12.424 -0.4119  0.7553  0.9947
 5936SOL     OW29443   3.696   1.949  16.722 -0.0293  0.3070 -0.4537
 5936SOL    HW129444   3.662   1.978  16.637 -0.3241 -2.1684 -1.1583
 5936SOL    HW229445   3.760   1.885  16.691 -2.3886 -2.4243  0.3657
 5937SOL     OW29446   1.037   2.797   2.327 -0.5931  0.1326 -0.2189
 5937SOL    HW129447   1.054   2.731   2.260 -2.0822 -0.6455  0.1830
 5937SOL    HW229448   1.104   2.863   2.307 -1.7639  2.2889  3.0085
 5938SOL     OW29449   0.333   2.643   4.088 -0.2569 -0.2274  0.1494
 5938SOL    HW129450   0.356   2.574   4.150 -2.3349  0.1965  1.3922
 5938SOL    HW229451   0.336   2.719   4.147  0.3452 -2.2396  2.6924
 5939SOL     OW29452   2.438   4.712   5.499 -0.0788 -0.2163  0.0411
 5939SOL    HW129453   2.502   0.039   5.529 -0.1398 -0.7765  1.3983
 5939SOL    HW229454   2.463   4.632   5.545  1.8227  1.3643  1.7309
 5940SOL     OW29455   4.360   1.897   5.879 -0.0018  0.2576 -0.4116
 5940SOL    HW129456   4.319   1.840   5.944 -0.3579  1.1942  0.1860
 5940SOL    HW229457   4.292   1.964   5.872 -0.1960  0.0098 -0.8909
 5941SOL     OW29458   0.286   3.464  10.287 -0.0452  0.0676 -0.4106
 5941SOL    HW129459   0.326   3.415  10.359  0.5701  1.7981  0.4181
 5941SOL    HW229460   0.218   3.518  10.328 -1.0973 -2.0549  0.6614
 5942SOL     OW29461   2.374   4.166   9.752 -0.3352  0.4216  0.2308
 5942SOL    HW129462   2.376   4.207   9.839  0.0137 -2.1140  1.4084
 5942SOL    HW229463   2.379   4.240   9.692  0.6985 -1.2066 -1.6836
 5943SOL     OW29464   2.245   1.145  16.490  0.4889 -0.2398  0.5186
 5943SOL    HW129465   2.275   1.109  16.406  1.2451  1.8126 -0.0812
 5943SOL    HW229466   2.216   1.067  16.538 -3.5558 -0.1536 -1.8192
 5944SOL     OW29467   0.854   4.342   2.040  0.4542 -0.1693 -0.1542
 5944SOL    HW129468   0.840   4.351   1.946  1.9440 -1.9460 -0.5495
 5944SOL    HW229469   0.770   4.306   2.068  0.6082 -0.9823 -0.7412
 5945SOL     OW29470   3.085   1.772   4.949  0.1412  0.0721 -0.0258
 5945SOL    HW129471   3.114   1.717   4.876 -3.3858  0.6615 -1.8419
 5945SOL    HW229472   3.164   1.769   5.002 -0.9864 -0.2304  1.6218
 5946SOL     OW29473   3.402   2.084   7.232 -0.0486 -0.2088 -0.2894
 5946SOL    HW129474   3.496   2.095   7.214 -0.0494 -1.6972 -1.2509
 5946SOL    HW229475   3.410   2.044   7.318  0.3960 -0.6707 -0.5430
 5947SOL     OW29476   3.261   3.242   3.394  0.2113  0.2633 -0.0659
 5947SOL    HW129477   3.268   3.156   3.353 -4.2905  0.2331 -0.7538
 5947SOL    HW229478   3.307   3.304   3.337 -1.3462  0.6294 -0.9257
 5948SOL     OW29479   3.863   2.633   5.759  0.2792  0.3091  0.3728
 5948SOL    HW129480   3.910   2.627   5.676 -2.0211 -1.4061 -0.8250
 5948SOL    HW229481   3.859   2.543   5.790  0.3271 -0.3178 -1.4326
 5949SOL     OW29482   3.651   0.252   8.530 -0.0089 -0.3541 -0.6574
 5949SOL    HW129483   3.694   0.314   8.589 -0.1813  2.1410 -3.1391
 5949SOL    HW229484   3.677   0.293   8.447 -0.6473  1.0275 -0.1748
 5950SOL     OW29485   0.332   1.265   5.612  0.2234  0.2887  0.5522
 5950SOL    HW129486   0.334   1.277   5.708 -0.9164 -0.9422  0.7211
 5950SOL    HW229487   0.346   1.171   5.606 -1.7353  0.0073  0.3966
 5951SOL     OW29488   4.526   2.545   6.630  0.6798  0.2547 -0.9033
 5951SOL    HW129489   4.499   2.455   6.646  2.6822 -0.2625 -0.3652
 5951SOL    HW229490   4.486   2.600   6.697 -1.6286 -0.4595 -1.6928
 5952SOL     OW29491   3.680   0.683   2.808 -0.5118  0.3112 -0.3345
 5952SOL    HW129492   3.720   0.599   2.785  1.0659  0.7129  0.9429
 5952SOL    HW229493   3.592   0.648   2.813  0.1532 -1.5032 -1.1284
 5953SOL     OW29494   0.684   2.595  12.998  0.9893 -0.3748  0.4684
 5953SOL    HW129495   0.640   2.594  12.914  1.8120  0.1929  0.0220
 5953SOL    HW229496   0.754   2.659  12.979  1.0772 -0.5422  0.2326
 5954SOL     OW29497   3.819   1.792  16.071  0.0936 -0.0279  0.1119
 5954SOL    HW129498   3.774   1.740  16.004  0.2132  0.2165 -0.1572
 5954SOL    HW229499   3.760   1.865  16.090  1.5170  1.1137  0.1620
 5955SOL     OW29500   0.302   0.824   9.207  0.2192  0.0404  0.5642
 5955SOL    HW129501   0.224   0.871   9.175  0.0562 -1.6342 -1.4894
 5955SOL    HW229502   0.278   0.744   9.161  0.9634 -1.2280  2.4155
 5956SOL     OW29503   2.886   1.483   6.404 -0.0854 -0.0802 -0.1428
 5956SOL    HW129504   2.813   1.440   6.448  0.4166  0.4836  1.2281
 5956SOL    HW229505   2.941   1.405   6.395 -0.3074 -0.2736  0.2081
 5957SOL     OW29506   2.668   4.311   8.867  0.5121  0.1953  0.4638
 5957SOL    HW129507   2.624   4.275   8.790  0.9189  1.9012 -0.5806
 5957SOL    HW229508   2.615   4.286   8.942 -3.4139 -1.4778 -2.9072
 5958SOL     OW29509   3.379   2.642   1.463 -0.2068  0.0913 -0.2259
 5958SOL    HW129510   3.406   2.601   1.545 -2.9243 -2.0800 -0.4149
 5958SOL    HW229511   3.390   2.570   1.400 -3.3412 -2.2898  1.9391
 5959SOL     OW29512   2.422   3.440   4.306  0.2763 -0.1748 -0.2624
 5959SOL    HW129513   2.351   3.376   4.308 -1.0510  1.3534  0.3386
 5959SOL    HW229514   2.499   3.382   4.305  0.5407  0.1453  0.8896
 5960SOL     OW29515   0.996   1.459   9.441  0.1166  0.4897 -0.3483
 5960SOL    HW129516   0.999   1.534   9.500 -1.2064  0.1768  0.1170
 5960SOL    HW229517   1.029   1.506   9.364  1.9082  1.5043  1.0472
 5961SOL     OW29518   3.746   1.116   4.366 -0.4236  0.5552 -0.1617
 5961SOL    HW129519   3.759   1.026   4.336 -0.7448 -0.0732  1.5703
 5961SOL    HW229520   3.696   1.156   4.294  0.4115  0.4150 -0.8128
 5962SOL     OW29521   0.110   4.112   6.419 -0.3951  0.1262 -0.0733
 5962SOL    HW129522   0.104   4.055   6.496  1.5426  1.7265  1.2454
 5962SOL    HW229523   0.200   4.143   6.427  0.6793 -2.7972 -0.5848
 5963SOL     OW29524   2.681   4.257   2.841 -0.1186 -0.2366 -0.3290
 5963SOL    HW129525   2.612   4.273   2.905  0.9988 -2.4161  1.4169
 5963SOL    HW229526   2.632   4.250   2.759  0.5122  0.7327 -0.7811
 5964SOL     OW29527   0.403   2.080   5.424  0.3068 -0.1239 -0.1384
 5964SOL    HW129528   0.308   2.087   5.424  0.2202 -1.0891  0.9816
 5964SOL    HW229529   0.415   1.991   5.390 -0.2792 -0.0595 -0.4963
 5965SOL     OW29530   3.572   2.004   1.774  0.8287  0.2300 -0.3137
 5965SOL    HW129531   3.563   2.067   1.846  1.0214  1.2159 -1.1532
 5965SOL    HW229532   3.655   2.022   1.731  1.1731  2.0385  1.1177
 5966SOL     OW29533   4.439   4.713   1.501 -0.3214 -0.3725 -0.4667
 5966SOL    HW129534   4.495   0.026   1.560  0.5281 -0.9767 -0.7547
 5966SOL    HW229535   4.490   4.709   1.420 -1.2185 -0.4979 -1.0303
 5967SOL     OW29536   3.235   1.138  10.196  0.1867 -0.0322 -0.3630
 5967SOL    HW129537   3.164   1.075  10.184 -1.3427  0.9314  3.4076
 5967SOL    HW229538   3.314   1.085  10.183 -1.3000 -2.2451 -0.2897
 5968SOL     OW29539   2.696   1.948   6.002 -0.0360  0.1246  0.2381
 5968SOL    HW129540   2.630   1.919   5.939 -1.6822  0.1078  1.9810
 5968SOL    HW229541   2.772   1.897   5.975  1.0722  1.6466  0.4375
 5969SOL     OW29542   0.685   2.398   4.243 -0.0267  0.7599 -0.2168
 5969SOL    HW129543   0.647   2.476   4.283  0.9368  0.9492  0.3226
 5969SOL    HW229544   0.778   2.419   4.232 -0.1896  1.4055 -0.3503
 5970SOL     OW29545   3.286   2.025   5.748 -0.6134  0.3868  0.4314
 5970SOL    HW129546   3.204   2.020   5.699 -0.2750  0.6155 -0.1691
 5970SOL    HW229547   3.289   2.110   5.792  0.0646  0.8409 -0.4912
 5971SOL     OW29548   4.281   1.731  14.398 -0.2749 -0.0796 -0.0280
 5971SOL    HW129549   4.255   1.681  14.475  1.0385  1.1219  1.2082
 5971SOL    HW229550   4.212   1.797  14.399 -1.3509 -1.2023 -0.8577
 5972SOL     OW29551   4.057   3.189   3.120 -0.1548  0.2801  0.0310
 5972SOL    HW129552   3.995   3.117   3.120  1.0441 -0.7517 -2.7624
 5972SOL    HW229553   4.049   3.220   3.029  0.9320  0.9835  0.1704
 5973SOL     OW29554   2.384   4.173  11.913 -0.5293 -0.1330  0.3652
 5973SOL    HW129555   2.420   4.242  11.857  0.4685 -0.2138  0.8963
 5973SOL    HW229556   2.464   4.127  11.941 -0.9723 -1.8560 -1.1749
 5974SOL     OW29557   2.762   0.447   5.010 -0.1459 -0.0686 -0.1316
 5974SOL    HW129558   2.712   0.369   4.988 -2.1634  1.1979 -0.0528
 5974SOL    HW229559   2.716   0.507   4.952  0.1338 -0.9968 -1.2998
 5975SOL     OW29560   3.496   3.940  17.271 -0.1924 -0.1735 -0.1675
 5975SOL    HW129561   3.478   3.873  17.336  1.1905 -1.9439 -1.6164
 5975SOL    HW229562   3.486   4.026  17.312  2.9318 -1.0548  2.4672
 5976SOL     OW29563   2.131   0.705   3.006  0.1319  0.1009 -0.2307
 5976SOL    HW129564   2.208   0.661   2.969  0.9364  0.7438  0.6804
 5976SOL    HW229565   2.142   0.796   2.978  2.6124 -0.4569 -1.1299
 5977SOL     OW29566   3.159   1.690   2.410 -0.3939  0.0287 -0.1862
 5977SOL    HW129567   3.196   1.679   2.323  0.0810  2.3467 -0.2832
 5977SOL    HW229568   3.076   1.643   2.412  0.2725 -1.2073 -1.6652
 5978SOL     OW29569   2.506   2.353  13.558 -0.4237 -0.0549 -0.2154
 5978SOL    HW129570   2.582   2.302  13.586 -0.2955  0.3319  0.1316
 5978SOL    HW229571   2.456   2.279  13.521  3.6216 -2.1592 -1.4412
 5979SOL     OW29572   2.650   3.819  11.865 -0.2793  0.5931  0.1754
 5979SOL    HW129573   2.648   3.910  11.835 -0.1693  0.1044 -1.3203
 5979SOL    HW229574   2.651   3.827  11.960  0.7597 -1.9881  0.3656
 5980SOL     OW29575   4.325   4.054   5.219  0.1693  0.9882  0.2005
 5980SOL    HW129576   4.302   4.137   5.259  0.3442  1.5423 -0.8406
 5980SOL    HW229577   4.412   4.068   5.183 -0.5388  0.3089 -1.8230
 5981SOL     OW29578   4.339   0.746   5.869 -0.1721 -0.0185 -0.2585
 5981SOL    HW129579   4.273   0.763   5.801 -0.4243  1.1714  0.2934
 5981SOL    HW229580   4.303   0.786   5.948 -0.4555 -0.4727 -0.1519
 5982SOL     OW29581   2.321   1.465   5.070 -0.5487 -0.2686 -0.2770
 5982SOL    HW129582   2.325   1.371   5.048  0.2447 -0.2402 -0.2647
 5982SOL    HW229583   2.329   1.515   4.989 -2.6320  0.4249 -0.0404
 5983SOL     OW29584   1.670   0.486   9.328 -0.6115 -0.2382  0.1452
 5983SOL    HW129585   1.674   0.478   9.233 -1.4693 -0.4993  0.1297
 5983SOL    HW229586   1.764   0.495   9.346 -0.8829  0.2487  1.3286
 5984SOL     OW29587   2.102   2.627   6.408  0.2331 -0.5209  0.2464
 5984SOL    HW129588   2.175   2.568   6.426 -0.2269 -0.5244  2.0464
 5984SOL    HW229589   2.127   2.657   6.320  2.5049  0.2896  1.1745
 5985SOL     OW29590   1.617   1.273  13.593 -0.6759  0.4914  0.0622
 5985SOL    HW129591   1.620   1.182  13.563 -1.7695  0.0143  1.4184
 5985SOL    HW229592   1.564   1.256  13.671  2.0734 -0.8250  1.6614
 5986SOL     OW29593   0.361   1.021  15.799  0.3191 -0.1510  0.1471
 5986SOL    HW129594   0.379   1.093  15.740 -1.9311  0.1114 -0.1882
 5986SOL    HW229595   0.437   0.962  15.791  1.2464  0.9753  0.6763
 5987SOL     OW29596   2.392   0.954   7.681 -0.1401  0.0936 -0.5716
 5987SOL    HW129597   2.327   1.003   7.630  0.8145  1.5487 -0.3888
 5987SOL    HW229598   2.473   0.959   7.631 -1.0241  3.3700 -1.6687
 5988SOL     OW29599   3.089   1.838   4.432 -0.3626  0.1129  0.1902
 5988SOL    HW129600   3.014   1.826   4.490  1.2831  1.8592  2.6707
 5988SOL    HW229601   3.088   1.933   4.417  1.2220 -0.0392 -0.8690
 5989SOL     OW29602   4.675   4.101  13.617  0.3188  0.5123 -0.2703
 5989SOL    HW129603   4.668   4.133  13.707 -0.9060 -1.8603  0.4657
 5989SOL    HW229604   4.586   4.121  13.588 -0.2819 -2.8535 -0.7573
 5990SOL     OW29605   1.642   0.598   2.222 -0.5663 -0.0434 -0.2068
 5990SOL    HW129606   1.640   0.687   2.187 -1.0343 -1.2304 -3.1448
 5990SOL    HW229607   1.555   0.571   2.192 -1.2327  3.0894 -1.0117
 5991SOL     OW29608   1.787   0.880   4.919 -0.1170 -0.1872  0.6700
 5991SOL    HW129609   1.783   0.882   4.823 -2.9405 -3.3670  0.7283
 5991SOL    HW229610   1.711   0.934   4.940 -1.4255 -2.0736  0.6902
 5992SOL     OW29611   1.821   2.742  14.973  0.7033  0.5004  0.2427
 5992SOL    HW129612   1.784   2.693  15.046 -0.0672  3.2295  1.6751
 5992SOL    HW229613   1.847   2.682  14.903  2.0590  0.9451  0.3507
 5993SOL     OW29614   3.622   4.448   2.100 -0.7092 -0.0296  0.1959
 5993SOL    HW129615   3.654   4.494   2.178  1.1216 -2.6854  1.0090
 5993SOL    HW229616   3.577   4.374   2.140  1.6481 -1.6338 -0.1451
 5994SOL     OW29617   1.850   0.893   8.597 -0.3966  0.4605 -0.0625
 5994SOL    HW129618   1.809   0.896   8.684 -0.6745  0.1565 -0.1862
 5994SOL    HW229619   1.936   0.855   8.614 -0.8577 -0.5452 -0.0111
 5995SOL     OW29620   3.682   3.055  14.182 -0.1467  0.2400 -0.1031
 5995SOL    HW129621   3.765   3.009  14.173 -0.0258  0.4349  0.0234
 5995SOL    HW229622   3.621   2.996  14.226 -1.1586  1.3719  0.0202
 5996SOL     OW29623   3.890   3.224   5.890 -0.5650 -0.9042  0.3347
 5996SOL    HW129624   3.799   3.252   5.886 -0.4855 -0.3380  2.3598
 5996SOL    HW229625   3.880   3.140   5.935  0.2272 -1.7085 -1.0195
 5997SOL     OW29626   2.471   2.923   3.592  0.0389  0.2305  0.1993
 5997SOL    HW129627   2.547   2.873   3.563 -0.2345 -1.6121  2.7005
 5997SOL    HW229628   2.467   2.885   3.679 -3.3027  1.6225  0.6509
 5998SOL     OW29629   3.876   2.736   0.778  0.1387 -0.4447  0.1931
 5998SOL    HW129630   3.916   2.735   0.691 -1.2630 -2.8472 -0.4510
 5998SOL    HW229631   3.949   2.695   0.824 -2.1836 -1.3919  3.0160
 5999SOL     OW29632   1.821   1.172   4.405  0.2893 -0.4423  0.3577
 5999SOL    HW129633   1.803   1.078   4.400  0.0256 -0.3659 -0.0985
 5999SOL    HW229634   1.747   1.203   4.353  0.6495 -1.6685 -0.8880
 6000SOL     OW29635   2.551   2.649   3.531 -0.2526  0.0479 -0.0777
 6000SOL    HW129636   2.586   2.604   3.455 -2.0340 -1.7047  0.1488
 6000SOL    HW229637   2.467   2.605   3.538 -0.4279  0.5935  1.2963
 6001SOL     OW29638   1.029   0.278   3.131 -0.2950 -0.3056 -0.2958
 6001SOL    HW129639   1.099   0.255   3.193 -1.0098 -0.7699  0.3403
 6001SOL    HW229640   1.083   0.333   3.075 -0.8551  0.7581  0.1993
 6002SOL     OW29641   3.078   0.697  17.157  0.0475 -0.1495 -0.0634
 6002SOL    HW129642   3.108   0.786  17.175  1.6520 -0.4287 -1.3198
 6002SOL    HW229643   3.122   0.670  17.076  1.0106 -1.8753  1.0563
 6003SOL     OW29644   3.072   2.591  14.965 -0.2546  0.2943  0.3138
 6003SOL    HW129645   3.035   2.605  14.878 -0.1272 -0.1671  0.1868
 6003SOL    HW229646   2.991   2.611  15.012 -1.1030 -1.0109 -0.5861
 6004SOL     OW29647   1.931   2.406  14.321  0.2651  0.3413  0.0013
 6004SOL    HW129648   1.953   2.399  14.228 -1.3129 -0.8396 -0.2732
 6004SOL    HW229649   1.976   2.488  14.340  0.0415  0.2611  0.8525
 6005SOL     OW29650   1.953   1.459   5.200  0.2138 -0.1244  0.6612
 6005SOL    HW129651   2.041   1.474   5.234 -0.1160  0.6661  1.1596
 6005SOL    HW229652   1.907   1.485   5.279 -1.5542 -0.2279 -0.3380
 6006SOL     OW29653   1.828   0.957   2.972  0.2298  0.1906 -0.3174
 6006SOL    HW129654   1.813   1.037   2.922  1.0793  1.7155  1.8578
 6006SOL    HW229655   1.923   0.964   2.961 -0.2484  0.0984 -4.6133
 6007SOL     OW29656   1.036   0.094   3.916 -0.2160 -0.1088  0.2617
 6007SOL    HW129657   1.101   0.118   3.850 -2.4969  1.1115 -1.5632
 6007SOL    HW229658   1.022   0.006   3.881  1.2023 -1.1076  2.2484
 6008SOL     OW29659   3.703   2.969  11.229 -0.4892 -0.2338 -0.3020
 6008SOL    HW129660   3.742   2.953  11.315  1.0073 -2.5121 -1.4196
 6008SOL    HW229661   3.715   3.063  11.217 -1.2512 -0.2481 -1.1808
 6009SOL     OW29662   0.013   1.830  10.398 -0.4898  0.0750  0.0533
 6009SOL    HW129663   0.067   1.812  10.475 -0.0229 -1.2894 -0.6124
 6009SOL    HW229664   4.700   1.750  10.392  0.1170 -0.3518  0.5491
 6010SOL     OW29665   0.326   1.538   0.304  0.0570  0.1637 -0.4324
 6010SOL    HW129666   0.291   1.514   0.218  0.0843 -2.0034  0.1572
 6010SOL    HW229667   0.282   1.472   0.357 -1.5014  1.2473 -0.3707
 6011SOL     OW29668   3.440   3.330  15.765  0.3797  0.1602 -0.2243
 6011SOL    HW129669   3.358   3.381  15.765  1.0622  1.2554 -0.4053
 6011SOL    HW229670   3.435   3.285  15.681  1.6756  0.0653 -0.2497
 6012SOL     OW29671   3.326   3.324   5.246  0.1822 -0.3387 -0.3539
 6012SOL    HW129672   3.231   3.335   5.248  0.0853 -0.6223 -3.4995
 6012SOL    HW229673   3.353   3.415   5.254 -0.7599  0.0567 -1.6530
 6013SOL     OW29674   1.377   3.189   6.274  0.6544  0.5668  0.1824
 6013SOL    HW129675   1.317   3.260   6.252 -1.0404 -1.1714 -0.8820
 6013SOL    HW229676   1.408   3.149   6.192 -1.0217  0.8209 -0.5846
 6014SOL     OW29677   3.811   1.888   1.931 -0.2165 -0.3217 -0.0759
 6014SOL    HW129678   3.881   1.822   1.927 -0.2876 -0.2178 -3.2632
 6014SOL    HW229679   3.839   1.943   1.858 -0.5439  1.5186  1.2158
 6015SOL     OW29680   3.731   3.570   4.524  0.0058  0.5237 -0.7565
 6015SOL    HW129681   3.676   3.649   4.523  0.7686  1.0652  0.0136
 6015SOL    HW229682   3.747   3.553   4.431 -3.6535 -1.5393 -1.0315
 6016SOL     OW29683   0.277   0.412  16.713  0.0191  0.7412 -0.1051
 6016SOL    HW129684   0.340   0.424  16.784 -0.1976  0.2275  0.1787
 6016SOL    HW229685   0.337   0.376  16.647 -0.2277  2.3144 -1.1766
 6017SOL     OW29686   2.591   2.018  14.631  0.1403  0.0859 -0.1301
 6017SOL    HW129687   2.604   2.016  14.536 -0.4050 -1.5882 -0.1605
 6017SOL    HW229688   2.632   1.940  14.668  2.4477 -0.4720 -3.7992
 6018SOL     OW29689   2.435   2.713   8.485  0.3525 -0.0736  0.2259
 6018SOL    HW129690   2.493   2.781   8.521  1.0711 -0.5025 -0.1309
 6018SOL    HW229691   2.502   2.645   8.486 -0.0894 -0.5172 -0.7463
 6019SOL     OW29692   0.945   1.835   5.235 -0.3901  0.0719 -0.1247
 6019SOL    HW129693   0.893   1.787   5.170 -0.7346  0.4459 -0.1281
 6019SOL    HW229694   0.954   1.920   5.191 -1.0303  0.0927 -0.2172
 6020SOL     OW29695   1.987   1.517  16.907 -0.5047  0.0704 -0.3711
 6020SOL    HW129696   2.042   1.496  16.982  0.6218  3.0042 -0.3852
 6020SOL    HW229697   2.026   1.591  16.861 -3.0204  1.4838 -0.2659
 6021SOL     OW29698   1.774   1.834   2.947  0.3884 -0.3790  0.2110
 6021SOL    HW129699   1.679   1.823   2.949  0.3539 -0.1071  0.0432
 6021SOL    HW229700   1.796   1.924   2.922  0.6473 -0.7238 -0.8180
 6022SOL     OW29701   2.063   2.184   2.042 -0.2305 -0.1148  0.1445
 6022SOL    HW129702   1.990   2.194   1.982 -0.7767  1.7378  1.0884
 6022SOL    HW229703   2.037   2.106   2.090 -3.1987 -1.0376 -2.9744
 6023SOL     OW29704   1.441   4.649   4.551  1.0164  0.0160  0.6121
 6023SOL    HW129705   1.489   4.604   4.482 -0.0023  0.3877 -0.3379
 6023SOL    HW229706   1.471   4.602   4.629 -0.5546 -1.2098  0.4910
 6024SOL     OW29707   0.563   0.019   6.400 -0.8571 -0.3787 -0.4172
 6024SOL    HW129708   0.599   0.078   6.466  1.1228  0.5724 -2.3350
 6024SOL    HW229709   0.516   4.691   6.451 -2.5506  0.3687 -1.0055
 6025SOL     OW29710   1.894   0.834   9.292  0.4619 -0.4198  0.5321
 6025SOL    HW129711   1.822   0.874   9.340 -0.9203 -1.6792 -0.4764
 6025SOL    HW229712   1.976   0.879   9.314  0.9885  0.2375 -2.7005
 6026SOL     OW29713   2.060   1.848   5.868 -0.4976  0.2333 -1.0408
 6026SOL    HW129714   2.118   1.905   5.919 -2.4257 -1.0271  2.5643
 6026SOL    HW229715   2.068   1.893   5.784  1.4530  2.3136  0.2405
 6027SOL     OW29716   0.211   2.154   9.832 -0.8545 -0.1143  0.0471
 6027SOL    HW129717   0.273   2.204   9.885 -0.8805  0.0964 -0.1192
 6027SOL    HW229718   0.221   2.184   9.742 -0.6019  0.2000  0.1787
 6028SOL     OW29719   2.948   0.295   2.116  0.2365 -0.8382  0.0282
 6028SOL    HW129720   2.887   0.233   2.156 -0.2516 -0.6032 -0.3450
 6028SOL    HW229721   3.004   0.326   2.186  0.1939  1.6208 -1.0120
 6029SOL     OW29722   1.675   4.397   5.671 -0.2907  0.1779  0.3413
 6029SOL    HW129723   1.633   4.362   5.750 -1.5143  2.7229  0.7918
 6029SOL    HW229724   1.765   4.396   5.703  0.1191  0.6439 -0.8154
 6030SOL     OW29725   1.170   1.483   4.680 -0.1447  0.0230  0.1246
 6030SOL    HW129726   1.097   1.533   4.644  1.3763 -0.6778 -3.9791
 6030SOL    HW229727   1.239   1.510   4.619  0.4668 -1.2261  0.2685
 6031SOL     OW29728   0.246   3.413   7.242  0.3348 -0.4392 -0.0511
 6031SOL    HW129729   0.336   3.403   7.210  0.3497 -0.4383 -0.0095
 6031SOL    HW229730   0.191   3.353   7.192 -2.1983  0.0688  2.1389
 6032SOL     OW29731   1.725   1.728  15.744  0.5748  0.8839  0.3487
 6032SOL    HW129732   1.801   1.753  15.692  0.0519  0.3671 -0.6828
 6032SOL    HW229733   1.654   1.733  15.679  0.1643 -0.7677  0.6645
 6033SOL     OW29734   0.391   0.687   2.107 -0.1224 -0.3771 -0.1029
 6033SOL    HW129735   0.420   0.697   2.016  3.4025  0.6284  1.1142
 6033SOL    HW229736   0.474   0.689   2.156 -0.0173 -3.1587 -0.1764
 6034SOL     OW29737   2.051   0.104   5.304 -0.0765 -0.3653  0.3321
 6034SOL    HW129738   1.989   0.083   5.235  0.3879  0.8677 -0.4662
 6034SOL    HW229739   2.079   0.014   5.318  2.0940  0.3597  0.6701
 6035SOL     OW29740   2.857   3.008  16.074 -0.3282  0.4833  0.1152
 6035SOL    HW129741   2.934   3.014  16.130 -0.8786  1.7301  0.7266
 6035SOL    HW229742   2.787   3.026  16.137  0.3719  0.2055  0.9765
 6036SOL     OW29743   2.389   0.861   8.817 -0.0567 -0.5168 -0.8126
 6036SOL    HW129744   2.395   0.801   8.742 -1.7803 -3.5769  1.5237
 6036SOL    HW229745   2.462   0.911   8.781 -0.7263  0.0389 -1.4262
 6037SOL     OW29746   3.382   0.660  10.792  0.1311 -0.1831  0.1192
 6037SOL    HW129747   3.293   0.666  10.758  0.6629  2.4998 -0.7592
 6037SOL    HW229748   3.400   0.748  10.823 -1.6779  0.3941 -0.5300
 6038SOL     OW29749   3.151   3.338   7.345  0.4616 -0.7808 -0.0672
 6038SOL    HW129750   3.142   3.362   7.253 -3.0054 -0.5354  0.3296
 6038SOL    HW229751   3.070   3.379   7.376  1.4062  1.0134  0.0231
 6039SOL     OW29752   2.214   4.373   4.542 -0.4000  0.2649 -0.4567
 6039SOL    HW129753   2.309   4.385   4.550 -0.4783  0.8698 -0.4235
 6039SOL    HW229754   2.187   4.461   4.516  2.0423  1.3087  0.4930
 6040SOL     OW29755   1.096   1.369   0.976  0.0998 -0.1463  0.0084
 6040SOL    HW129756   1.042   1.320   0.913  3.0058 -0.2743 -2.3814
 6040SOL    HW229757   1.108   1.305   1.047  0.5871 -0.9822 -0.8224
 6041SOL     OW29758   4.457   4.105   3.795 -0.3462  0.1164  0.8210
 6041SOL    HW129759   4.402   4.183   3.806  0.9492  0.7822  2.6009
 6041SOL    HW229760   4.434   4.071   3.709 -0.1793  1.9783  0.0396
 6042SOL     OW29761   4.318   1.477   3.248 -0.0294  0.0148  0.2186
 6042SOL    HW129762   4.368   1.558   3.256 -1.4260  0.8595  0.3987
 6042SOL    HW229763   4.306   1.449   3.339 -1.0201  0.7045  0.3002
 6043SOL     OW29764   3.126   0.847  11.779 -0.1035  0.4326 -0.7186
 6043SOL    HW129765   3.071   0.872  11.853  0.6087  1.7100 -0.6218
 6043SOL    HW229766   3.210   0.868  11.820 -1.2659 -0.3319  2.0396
 6044SOL     OW29767   3.271   1.304   7.714  0.0447 -0.1519  0.4577
 6044SOL    HW129768   3.259   1.362   7.639 -1.5398 -0.7692  0.2211
 6044SOL    HW229769   3.364   1.292   7.731 -0.0917 -0.8144  0.7575
 6045SOL     OW29770   2.722   0.573   3.194 -0.5867 -0.6462  0.2570
 6045SOL    HW129771   2.765   0.501   3.147 -0.7975 -1.0665  0.7018
 6045SOL    HW229772   2.693   0.631   3.123 -0.5139 -0.9917 -0.0559
 6046SOL     OW29773   3.051   1.231   4.231  0.1223 -0.1895  0.5405
 6046SOL    HW129774   2.963   1.247   4.264  0.2526  0.9576  0.3204
 6046SOL    HW229775   3.099   1.288   4.290 -0.6556  1.2279 -0.1856
 6047SOL     OW29776   2.774   0.563   3.469  0.2937  0.7481 -0.5869
 6047SOL    HW129777   2.862   0.530   3.450  0.6017  0.9331  0.5244
 6047SOL    HW229778   2.748   0.578   3.378 -0.3091  0.4428 -0.4623
 6048SOL     OW29779   4.392   3.252   1.663 -0.0694  0.1293  0.2918
 6048SOL    HW129780   4.356   3.238   1.751  1.5225 -2.3815  0.5378
 6048SOL    HW229781   4.420   3.341   1.683 -0.2989  0.1243  0.6551
 6049SOL     OW29782   2.841   3.631  16.963 -0.1247 -0.8119  0.3834
 6049SOL    HW129783   2.828   3.621  16.869  0.0330  2.1924  0.0671
 6049SOL    HW229784   2.763   3.677  16.995  1.2877  1.4331  0.5832
 6050SOL     OW29785   1.306   4.564   3.053  0.5757 -0.1344 -0.2051
 6050SOL    HW129786   1.400   4.565   3.036  0.1736 -2.6548 -2.7817
 6050SOL    HW229787   1.299   4.480   3.099 -0.8567 -0.6663 -1.3716
 6051SOL     OW29788   3.240   3.121   0.338 -0.7615  0.0239  0.0523
 6051SOL    HW129789   3.226   3.047   0.279 -0.3861 -0.2476  0.3063
 6051SOL    HW229790   3.333   3.135   0.322 -0.6859 -0.9796 -0.3683
 6052SOL     OW29791   3.088   2.941   6.912  0.2421 -0.3950  0.3609
 6052SOL    HW129792   3.105   3.016   6.970  1.0346 -1.2231  1.2028
 6052SOL    HW229793   3.176   2.918   6.880  0.0070  1.9924 -1.9828
 6053SOL     OW29794   2.159   1.062  15.781 -0.4150 -0.1495  0.3208
 6053SOL    HW129795   2.096   0.991  15.771 -0.9881  0.6870 -1.9795
 6053SOL    HW229796   2.108   1.132  15.739  0.9484 -0.3600 -1.6818
 6054SOL     OW29797   2.788   1.570   2.077  0.7320  0.0415 -0.0449
 6054SOL    HW129798   2.862   1.629   2.067  1.3798 -0.3830  2.1324
 6054SOL    HW229799   2.751   1.582   1.990  0.5905  3.3986  0.4689
 6055SOL     OW29800   2.354   1.669   8.304  0.3970 -1.1536  0.1611
 6055SOL    HW129801   2.359   1.663   8.209 -0.0049  1.5591 -0.0335
 6055SOL    HW229802   2.446   1.664   8.328  0.3240  1.3807  0.9367
 6056SOL     OW29803   0.402   3.584   4.536  0.1182 -0.6626 -0.4136
 6056SOL    HW129804   0.400   3.588   4.441  0.2728 -1.1705 -0.4371
 6056SOL    HW229805   0.400   3.489   4.533  0.1515 -0.7108  0.8901
 6057SOL     OW29806   1.859   1.835   0.714  0.1713 -0.0174  0.1695
 6057SOL    HW129807   1.922   1.769   0.743 -0.0952 -0.2067  0.3113
 6057SOL    HW229808   1.912   1.880   0.648 -1.2020  0.2737 -0.7363
 6058SOL     OW29809   4.143   1.522  15.622 -0.0385  0.1854 -0.0295
 6058SOL    HW129810   4.126   1.603  15.575  2.9212  1.4438  1.0853
 6058SOL    HW229811   4.224   1.538  15.670  0.4654 -1.5477 -0.3004
 6059SOL     OW29812   2.131   3.766   8.215 -0.4111 -0.1995 -0.1606
 6059SOL    HW129813   2.159   3.759   8.123  0.0881 -1.1243  0.0583
 6059SOL    HW229814   2.158   3.857   8.228  2.1988 -1.1591  1.2289
 6060SOL     OW29815   1.743   2.827   7.867  0.7180 -0.8094  0.0863
 6060SOL    HW129816   1.773   2.757   7.926  1.3692 -0.8279 -0.2658
 6060SOL    HW229817   1.777   2.909   7.903 -3.6545  0.6990  0.7908
 6061SOL     OW29818   1.218   3.987  12.490 -0.6264 -0.2305  0.0271
 6061SOL    HW129819   1.254   3.946  12.568  1.7034  1.3666 -0.2341
 6061SOL    HW229820   1.155   4.051  12.522  2.6901  1.3148  3.4412
 6062SOL     OW29821   4.608   2.565   3.884  0.2505 -0.9866  0.7345
 6062SOL    HW129822   4.596   2.642   3.940 -0.8346 -0.9024  0.3850
 6062SOL    HW229823   4.639   2.596   3.799  0.3004 -2.5864  0.1629
 6063SOL     OW29824   0.933   2.747   5.606 -0.4793 -0.3732  0.5732
 6063SOL    HW129825   0.971   2.756   5.693 -0.2696 -0.9116  0.5312
 6063SOL    HW229826   0.908   2.838   5.586 -1.6859 -0.9959 -0.7936
 6064SOL     OW29827   2.611   1.296   4.576 -0.6723  0.5268  0.3073
 6064SOL    HW129828   2.602   1.222   4.636 -0.6590  0.9072  0.7793
 6064SOL    HW229829   2.529   1.344   4.588 -1.7112 -1.2642  0.4672
 6065SOL     OW29830   1.164   4.241   5.732  0.1012 -0.3382  0.5479
 6065SOL    HW129831   1.255   4.246   5.703 -0.1598  2.3900  0.1820
 6065SOL    HW229832   1.117   4.317   5.697  3.2160  0.8303 -1.0888
 6066SOL     OW29833   2.968   2.818   1.630  0.2468 -0.0431 -0.5760
 6066SOL    HW129834   2.994   2.858   1.713  2.2545 -0.1956 -1.1360
 6066SOL    HW229835   2.936   2.732   1.657  0.7257  0.4779  1.6154
 6067SOL     OW29836   2.788   1.957  10.332 -0.5669 -0.0481 -0.1761
 6067SOL    HW129837   2.804   1.866  10.310 -0.8523 -0.2467  0.4367
 6067SOL    HW229838   2.698   1.953  10.364 -0.4745  0.4473  0.1543
 6068SOL     OW29839   1.474   1.607   3.203  0.3433  0.1366  0.5128
 6068SOL    HW129840   1.451   1.666   3.131  1.5636  1.7762  1.4697
 6068SOL    HW229841   1.410   1.541   3.177  1.0018 -0.8438  1.3932
 6069SOL     OW29842   1.127   1.930   4.834 -0.3198  0.0207  0.1798
 6069SOL    HW129843   1.177   1.880   4.898  2.7807  0.4173 -1.9544
 6069SOL    HW229844   1.195   1.976   4.786  1.0549 -0.9739  1.1963
 6070SOL     OW29845   2.773   1.457   4.915  0.1400  0.4692  0.2433
 6070SOL    HW129846   2.837   1.455   4.844  2.3083  1.4821  2.1659
 6070SOL    HW229847   2.831   1.472   4.990 -1.1470 -1.3653  1.5885
 6071SOL     OW29848   3.535   4.373   8.359 -0.3229 -0.6381  0.5299
 6071SOL    HW129849   3.508   4.281   8.357  0.2869 -0.7731 -1.0865
 6071SOL    HW229850   3.451   4.416   8.379  0.3932  1.8222 -1.9066
 6072SOL     OW29851   1.276   0.506   4.801 -0.6003 -0.1264  0.3020
 6072SOL    HW129852   1.355   0.520   4.749 -0.1595  1.4207  1.3973
 6072SOL    HW229853   1.307   0.431   4.851 -2.5617 -0.0990  1.5639
 6073SOL     OW29854   4.285   1.017   4.415  0.5706 -0.2331 -0.1252
 6073SOL    HW129855   4.249   0.928   4.408 -0.8466  0.2552  0.9371
 6073SOL    HW229856   4.321   1.007   4.503 -0.8144 -0.4140  0.4184
 6074SOL     OW29857   2.672   0.909   9.357 -0.3928  0.2573 -0.5026
 6074SOL    HW129858   2.719   0.911   9.274  1.9266 -0.1599  0.7984
 6074SOL    HW229859   2.589   0.871   9.328  0.9005 -3.1047  0.1665
 6075SOL     OW29860   1.845   1.677   6.234  0.3397 -0.0791 -0.5966
 6075SOL    HW129861   1.855   1.748   6.171 -1.6671 -1.0026 -1.9737
 6075SOL    HW229862   1.913   1.698   6.298  0.4720 -0.3394 -0.6503
 6076SOL     OW29863   1.312   1.395   4.448 -0.0021 -0.2741 -0.4425
 6076SOL    HW129864   1.367   1.318   4.441 -0.9447 -0.8609 -1.3566
 6076SOL    HW229865   1.226   1.369   4.415 -0.3908  1.6573 -0.9572
 6077SOL     OW29866   4.562   3.754   6.205 -0.5391 -0.8058 -0.2765
 6077SOL    HW129867   4.610   3.836   6.205 -3.5359  0.9545 -2.5373
 6077SOL    HW229868   4.529   3.756   6.116  0.6698  1.7201 -0.6676
 6078SOL     OW29869   3.855   4.371  12.666  0.3245 -0.2740  0.0242
 6078SOL    HW129870   3.885   4.284  12.693 -0.9241  0.1780  2.9668
 6078SOL    HW229871   3.930   4.428  12.685 -0.2232 -0.4859  2.9358
 6079SOL     OW29872   2.725   3.605   4.454 -0.1000  0.0719 -0.2024
 6079SOL    HW129873   2.774   3.567   4.381 -1.7751  0.8520 -1.7376
 6079SOL    HW229874   2.750   3.555   4.531  1.1487  0.0330 -0.6271
 6080SOL     OW29875   0.381   4.062   4.747  0.4298 -0.4989 -0.3916
 6080SOL    HW129876   0.314   4.126   4.724  1.2607 -0.5165 -2.7866
 6080SOL    HW229877   0.377   3.999   4.676  0.2143  0.3628 -1.1414
 6081SOL     OW29878   3.352   0.901   3.821  0.0168 -0.2443  0.4243
 6081SOL    HW129879   3.282   0.962   3.797  0.7192  0.2916 -0.2674
 6081SOL    HW229880   3.424   0.960   3.846 -0.4929  0.6611 -0.2337
 6082SOL     OW29881   2.653   3.073   1.681  0.0887 -0.8161  0.0386
 6082SOL    HW129882   2.730   3.122   1.710  0.3642 -1.9757  1.2115
 6082SOL    HW229883   2.577   3.119   1.717  0.9190 -0.5269  1.3993
 6083SOL     OW29884   3.886   1.540   4.380 -0.4668  0.0458  0.1748
 6083SOL    HW129885   3.856   1.473   4.442 -2.8384 -0.4290 -1.4810
 6083SOL    HW229886   3.817   1.602   4.405  1.1650  2.3565 -1.0914
 6084SOL     OW29887   2.733   2.883   1.516  0.1989  0.1377 -0.6111
 6084SOL    HW129888   2.814   2.852   1.557 -0.5945 -0.8515  0.1953
 6084SOL    HW229889   2.703   2.948   1.580 -0.0553 -0.8932  0.3068
 6085SOL     OW29890   2.459   2.663   2.848  0.6220 -0.5612  0.0071
 6085SOL    HW129891   2.520   2.702   2.911 -0.3150  1.1001 -0.1222
 6085SOL    HW229892   2.409   2.740   2.821 -0.4888 -2.2462 -2.7756
 6086SOL     OW29893   2.115   1.179  14.187 -0.2924 -0.0913  0.2567
 6086SOL    HW129894   2.108   1.085  14.169  2.7632 -0.1920 -0.4165
 6086SOL    HW229895   2.177   1.202  14.118 -0.2226 -0.5522  0.1658
 6087SOL     OW29896   1.692   2.449   2.221 -0.2802  0.2956 -0.1072
 6087SOL    HW129897   1.732   2.367   2.193 -1.5201  0.2462 -1.7640
 6087SOL    HW229898   1.747   2.512   2.175 -1.0727  0.7679 -0.4196
 6088SOL     OW29899   0.371   2.228   6.327 -0.1928  0.1223  0.3251
 6088SOL    HW129900   0.411   2.225   6.414 -0.5426 -1.2169  0.4382
 6088SOL    HW229901   0.420   2.302   6.291  1.7580 -0.1823  2.3050
 6089SOL     OW29902   0.914   3.070   5.550 -0.3753  0.0896 -0.2278
 6089SOL    HW129903   0.916   3.163   5.526 -1.0608 -0.2657 -1.6354
 6089SOL    HW229904   0.992   3.062   5.606 -0.0595  0.9121 -0.5539
 6090SOL     OW29905   1.501   3.467   3.369  0.0119 -0.3843 -0.2175
 6090SOL    HW129906   1.492   3.459   3.464  0.7198  3.6731  0.1618
 6090SOL    HW229907   1.469   3.379   3.348 -0.4376 -0.1499 -0.5185
 6091SOL     OW29908   1.990   4.522   3.169 -0.2379  0.1019  0.6509
 6091SOL    HW129909   1.953   4.448   3.122 -1.8187  0.6519  1.0437
 6091SOL    HW229910   2.029   4.569   3.096 -0.5738 -1.4635 -0.5283
 6092SOL     OW29911   1.516   3.543   9.283  1.0388 -0.2506 -0.0145
 6092SOL    HW129912   1.502   3.537   9.189  0.4482 -0.7289  0.1036
 6092SOL    HW229913   1.463   3.619   9.307  1.0582 -1.0821  2.6670
 6093SOL     OW29914   3.344   2.996  10.052 -0.7947  0.0224  0.1738
 6093SOL    HW129915   3.284   3.006  10.126 -1.0499 -2.0030  0.2482
 6093SOL    HW229916   3.323   3.067   9.991  0.8172  3.3189  3.4429
 6094SOL     OW29917   1.337   1.193   5.782  0.2548 -0.0130  0.3749
 6094SOL    HW129918   1.253   1.161   5.815 -0.1096 -0.7677 -1.2818
 6094SOL    HW229919   1.311   1.276   5.742  0.9997 -1.4640 -3.1304
 6095SOL     OW29920   1.771   3.742  16.685  0.3048 -0.8082  0.3368
 6095SOL    HW129921   1.770   3.817  16.745  0.6237  0.1557 -0.8565
 6095SOL    HW229922   1.820   3.776  16.610 -0.8405 -0.3142 -0.1823
 6096SOL     OW29923   0.212   1.247   7.582  0.0560  0.4283  0.2555
 6096SOL    HW129924   0.241   1.245   7.491 -0.3796 -2.1184  0.1944
 6096SOL    HW229925   0.150   1.317   7.562 -0.9149 -1.1654 -2.2671
 6097SOL     OW29926   4.260   1.288   4.589 -0.0021 -0.6350  0.0088
 6097SOL    HW129927   4.236   1.260   4.677 -0.0943 -2.2993 -0.5601
 6097SOL    HW229928   4.340   1.237   4.585 -0.6460 -1.7934  1.6873
 6098SOL     OW29929   0.207   2.403  14.202  0.2743  0.0786 -0.3776
 6098SOL    HW129930   0.163   2.474  14.250 -1.5918 -1.1617 -0.2635
 6098SOL    HW229931   0.298   2.430  14.203  0.6898 -1.2843 -2.2334
 6099SOL     OW29932   1.836   2.087   2.865 -0.1790 -0.7123  0.1928
 6099SOL    HW129933   1.864   2.175   2.841  1.4027 -1.4990 -0.8554
 6099SOL    HW229934   1.762   2.100   2.924  0.2747 -0.1798  0.6438
 6100SOL     OW29935   2.341   2.606  12.545  0.1556 -0.4797  0.1702
 6100SOL    HW129936   2.419   2.653  12.573  0.5628 -0.7042 -0.5724
 6100SOL    HW229937   2.295   2.672  12.493  0.4798 -0.7125 -0.4090
 6101SOL     OW29938   0.710   1.235   0.024 -0.0364 -0.0038  0.0850
 6101SOL    HW129939   0.727   1.187  17.692 -2.5616  2.1407 -1.6828
 6101SOL    HW229940   0.667   1.166   0.074  1.2414 -1.2137 -0.4589
 6102SOL     OW29941   4.425   1.484   2.436  0.0631 -0.4390  0.2172
 6102SOL    HW129942   4.367   1.415   2.468  1.0205 -1.5512 -0.3837
 6102SOL    HW229943   4.372   1.561   2.418 -1.9171 -1.3971  2.0354
 6103SOL     OW29944   1.520   3.169   5.271 -0.0470  0.1146  0.1638
 6103SOL    HW129945   1.508   3.147   5.363  0.4613  0.6472  0.3572
 6103SOL    HW229946   1.507   3.084   5.229  0.4305  0.7936 -1.3633
 6104SOL     OW29947   2.414   1.459   0.538 -0.0038 -0.1526 -0.1549
 6104SOL    HW129948   2.335   1.493   0.496  0.0202  0.0898 -0.0032
 6104SOL    HW229949   2.408   1.365   0.521  2.1965 -0.5129  1.0391
 6105SOL     OW29950   0.874   3.589  17.032 -0.0434  1.0035 -0.9015
 6105SOL    HW129951   0.815   3.516  17.052  2.3389 -0.3908  0.9595
 6105SOL    HW229952   0.932   3.598  17.107 -0.1511  0.4345 -0.7528
 6106SOL     OW29953   4.675   4.276   5.831  0.5164 -0.1456 -0.0780
 6106SOL    HW129954   0.006   4.216   5.861  1.1662  1.1707  1.0460
 6106SOL    HW229955   4.652   4.231   5.749  0.0046  0.2011 -0.1232
 6107SOL     OW29956   0.028   0.374   0.337  0.4755 -0.5699 -0.2393
 6107SOL    HW129957   0.031   0.351   0.245 -0.5034  0.4984 -0.5323
 6107SOL    HW229958   4.676   0.361   0.368  0.5902  0.6929  0.6449
 6108SOL     OW29959   2.867   4.484   8.457 -0.1342  0.5359  0.3858
 6108SOL    HW129960   2.802   4.425   8.418  0.5617  1.2007 -1.7999
 6108SOL    HW229961   2.890   4.450   8.543  0.6544  0.3072  0.0876
 6109SOL     OW29962   3.945   3.606   5.183 -0.0736  0.2585 -0.3001
 6109SOL    HW129963   3.947   3.701   5.174  2.3155  0.2933  0.4786
 6109SOL    HW229964   4.019   3.576   5.130  0.2094 -1.3371  0.9947
 6110SOL     OW29965   1.351   3.243   3.049  0.2400 -0.2594 -0.2263
 6110SOL    HW129966   1.396   3.327   3.049 -0.8150  0.3016  2.6602
 6110SOL    HW229967   1.258   3.260   3.034 -0.0371 -0.4613  1.2713
 6111SOL     OW29968   2.329   1.687  15.356 -0.2059 -0.2526  0.7282
 6111SOL    HW129969   2.238   1.696  15.385 -0.0490 -0.8578  1.4074
 6111SOL    HW229970   2.378   1.745  15.414  0.9994 -0.1812 -0.3622
 6112SOL     OW29971   3.240   1.563   0.783 -0.5656  0.2840  0.4818
 6112SOL    HW129972   3.201   1.476   0.788  0.3717 -0.1789 -0.4072
 6112SOL    HW229973   3.245   1.571   0.688 -0.6623  2.0533  0.6221
 6113SOL     OW29974   3.540   3.619   9.796 -0.0193  0.6455 -0.3465
 6113SOL    HW129975   3.450   3.641   9.823  0.2666  0.3071  0.8807
 6113SOL    HW229976   3.555   3.527   9.817 -0.5798  0.4816 -0.6361
 6114SOL     OW29977   2.330   0.648  11.254 -0.0214  0.0266 -0.1970
 6114SOL    HW129978   2.418   0.661  11.289 -1.5777  0.5197  3.5107
 6114SOL    HW229979   2.340   0.649  11.159 -0.4445 -0.4252 -0.2452
 6115SOL     OW29980   2.968   0.066  13.004  0.9399 -0.2952 -0.5061
 6115SOL    HW129981   2.950   4.718  12.965 -0.5168 -0.1284 -0.1991
 6115SOL    HW229982   2.913   0.117  12.946  0.4297 -0.3730 -0.0917
 6116SOL     OW29983   3.713   4.485   5.504  0.1452 -0.0000 -0.2296
 6116SOL    HW129984   3.670   4.553   5.453  0.7088  1.2968  1.0396
 6116SOL    HW229985   3.733   4.529   5.586  1.0437 -2.5550  0.9302
 6117SOL     OW29986   1.890   0.011   9.518 -0.2256 -0.0207 -0.2154
 6117SOL    HW129987   1.819   0.075   9.520 -0.9856 -0.8607 -0.3946
 6117SOL    HW229988   1.878   4.710   9.605  0.7923  2.8091  1.2169
 6118SOL     OW29989   4.562   0.750   8.985 -0.1236  0.0536 -0.1802
 6118SOL    HW129990   4.547   0.804   9.062  0.8203 -2.5462  1.8339
 6118SOL    HW229991   4.607   0.672   9.019 -1.0361 -0.3644  0.0665
 6119SOL     OW29992   0.748   0.751   4.128 -0.3648  0.0610  0.1043
 6119SOL    HW129993   0.833   0.780   4.160  1.0970 -1.0677 -2.8399
 6119SOL    HW229994   0.729   0.811   4.055 -1.4655 -0.4985 -0.0728
 6120SOL     OW29995   4.404   0.510   8.343 -0.6451  0.3043 -0.5138
 6120SOL    HW129996   4.404   0.569   8.418  0.3137 -0.5373  0.1423
 6120SOL    HW229997   4.355   0.444   8.391 -1.6578  1.4793  0.0799
 6121SOL     OW29998   3.571   1.177   3.317 -0.5488  0.0983  0.6894
 6121SOL    HW129999   3.594   1.240   3.386  1.6530  1.6121 -1.4035
 6121SOL    HW230000   3.643   1.114   3.316 -0.3707  0.3268 -1.3181
 6122SOL     OW30001   4.619   3.637   3.534  0.0405  0.5911 -0.4387
 6122SOL    HW130002   4.657   3.658   3.620  1.2730 -1.7918 -0.3951
 6122SOL    HW230003   4.530   3.615   3.561  0.3001 -0.3802 -0.3493
 6123SOL     OW30004   1.227   2.303   2.602  0.1527 -0.4121  0.0043
 6123SOL    HW130005   1.194   2.297   2.512  1.4256 -1.7062 -0.3740
 6123SOL    HW230006   1.152   2.282   2.658 -1.1427 -0.5470 -1.7895
 6124SOL     OW30007   2.355   0.478   5.350 -0.3884  0.1257  0.3151
 6124SOL    HW130008   2.398   0.476   5.436  0.5677 -1.6011 -0.2029
 6124SOL    HW230009   2.397   0.406   5.302 -0.8629 -0.3126  0.5592
 6125SOL     OW30010   2.143   0.150   9.421  0.0359  0.7594  0.4466
 6125SOL    HW130011   2.070   0.088   9.432 -1.0111  2.2203  1.7504
 6125SOL    HW230012   2.123   0.182   9.333  0.6379  0.0941  0.0656
 6126SOL     OW30013   1.623   3.271  12.498  0.3418  0.3983 -0.1621
 6126SOL    HW130014   1.678   3.342  12.464  0.0526  0.1826 -1.0782
 6126SOL    HW230015   1.541   3.318  12.515  0.4981 -0.6472  3.5250
 6127SOL     OW30016   2.406   4.663   3.964  0.1851 -0.2059 -0.2466
 6127SOL    HW130017   2.442   4.679   3.877  1.4867 -0.4722  0.2394
 6127SOL    HW230018   2.314   4.658   3.937 -0.0523  0.4547  0.4282
 6128SOL     OW30019   4.410   2.595   1.040  0.1458 -0.3067 -0.1755
 6128SOL    HW130020   4.465   2.673   1.047  0.2798 -0.4243  0.1049
 6128SOL    HW230021   4.452   2.558   0.963 -0.9762 -1.2776 -0.3177
 6129SOL     OW30022   1.401   0.954  15.112 -0.5321 -0.1838  0.1061
 6129SOL    HW130023   1.351   0.909  15.044 -0.9749 -1.5713  1.3679
 6129SOL    HW230024   1.483   0.984  15.070 -0.7419  3.1351  2.0255
 6130SOL     OW30025   0.006   4.448   7.358  0.0857 -0.3594 -0.6646
 6130SOL    HW130026   0.016   4.445   7.263 -1.0311  4.8925 -0.9308
 6130SOL    HW230027   4.657   4.409   7.363  0.4090 -1.0646 -0.4121
 6131SOL     OW30028   0.484   3.326   6.023  0.0940  0.4231 -0.2828
 6131SOL    HW130029   0.484   3.252   6.084  3.8888 -0.5869 -1.5590
 6131SOL    HW230030   0.492   3.274   5.943  0.8440 -0.9830  0.7002
 6132SOL     OW30031   4.465   0.004   5.786  0.0294 -1.1469  0.1579
 6132SOL    HW130032   4.537   0.017   5.724 -0.0484  1.4277  0.6082
 6132SOL    HW230033   4.492   4.669   5.842  0.2587 -1.0086  0.2304
 6133SOL     OW30034   0.681   2.739   4.247  0.7995 -0.1395 -0.0198
 6133SOL    HW130035   0.703   2.762   4.157  2.1784  0.4345  0.4652
 6133SOL    HW230036   0.618   2.810   4.259  0.5609 -0.5220  1.0683
 6134SOL     OW30037   1.985   2.406   6.141  0.0960 -0.4302  0.1255
 6134SOL    HW130038   2.071   2.447   6.148  0.1579 -0.9224  2.2349
 6134SOL    HW230039   1.945   2.470   6.082  0.0569  1.5061  2.2410
 6135SOL     OW30040   2.746   2.799   3.589 -0.1241 -0.0336 -0.3261
 6135SOL    HW130041   2.673   2.741   3.568  0.2455 -0.8002  0.5206
 6135SOL    HW230042   2.802   2.741   3.641  0.9994 -0.1564 -1.6658
 6136SOL     OW30043   4.605   4.024   4.810  0.4249  0.2163  0.7587
 6136SOL    HW130044   4.587   3.992   4.721  0.3238  0.9437  0.5204
 6136SOL    HW230045   4.696   3.995   4.814 -0.3561 -2.0077  2.6376
 6137SOL     OW30046   2.053   2.154   5.171  0.5378  0.0292  0.1125
 6137SOL    HW130047   1.959   2.174   5.175  0.4264 -0.4152 -0.2765
 6137SOL    HW230048   2.065   2.100   5.092 -0.7067  0.3873 -0.3301
 6138SOL     OW30049   0.779   4.099   6.795  0.0397 -0.5103 -0.2081
 6138SOL    HW130050   0.844   4.128   6.859 -0.9447  2.9509 -0.7845
 6138SOL    HW230051   0.757   4.185   6.759 -2.2563 -1.2439 -0.4949
 6139SOL     OW30052   2.994   0.507   8.180  0.0886 -0.4549  0.5088
 6139SOL    HW130053   3.083   0.497   8.146  0.2498 -0.2594  0.8712
 6139SOL    HW230054   2.959   0.418   8.166  0.6595 -0.6630  0.4141
 6140SOL     OW30055   3.159   1.472   4.026  0.1470  0.0686 -0.1874
 6140SOL    HW130056   3.215   1.509   4.094  2.6630  1.1990 -2.8863
 6140SOL    HW230057   3.180   1.379   4.034  1.3900  0.5209  1.6938
 6141SOL     OW30058   1.217   3.034   2.941  0.3715 -0.0809 -0.8705
 6141SOL    HW130059   1.150   3.102   2.952  1.2081  0.4008  1.3033
 6141SOL    HW230060   1.291   3.093   2.956 -0.1078  0.2530  0.1411
 6142SOL     OW30061   1.536   1.321  14.347 -0.1041 -0.1159 -0.0655
 6142SOL    HW130062   1.446   1.345  14.323 -0.7566 -0.1182  2.3157
 6142SOL    HW230063   1.538   1.342  14.441 -1.4856  0.5114 -0.1841
 6143SOL     OW30064   0.674   0.303   6.131 -0.4121  0.0221  0.8378
 6143SOL    HW130065   0.617   0.226   6.143 -0.7021  0.2777  1.1065
 6143SOL    HW230066   0.653   0.341   6.046 -2.4825 -0.5387  1.0955
 6144SOL     OW30067   2.361   1.585   2.161  0.0687 -0.2694 -0.2503
 6144SOL    HW130068   2.297   1.548   2.101  1.1821 -0.0567 -1.5732
 6144SOL    HW230069   2.355   1.509   2.220 -1.5532  0.7187  0.8323
 6145SOL     OW30070   3.821   2.011   1.652 -0.7371  0.7611  0.1244
 6145SOL    HW130071   3.873   1.991   1.574 -0.4247  0.1115  0.5020
 6145SOL    HW230072   3.842   2.103   1.665 -0.9725  0.6205  1.4267
 6146SOL     OW30073   1.256   2.764   4.536  0.0329 -0.5915  0.3935
 6146SOL    HW130074   1.327   2.705   4.511 -1.2822 -2.9240  2.1629
 6146SOL    HW230075   1.269   2.841   4.480 -2.5345 -0.5499 -0.1539
 6147SOL     OW30076   1.376   0.892   8.849 -0.0888 -0.1657 -0.0128
 6147SOL    HW130077   1.462   0.862   8.877  0.3006 -0.3136 -1.3763
 6147SOL    HW230078   1.369   0.983   8.879 -0.3196 -0.4858  0.9191
 6148SOL     OW30079   3.130   2.901   6.372 -0.0616 -0.3457 -0.6139
 6148SOL    HW130080   3.111   2.992   6.351  1.5758  0.6042  2.1400
 6148SOL    HW230081   3.046   2.856   6.361 -0.1184 -0.3914  0.0601
 6149SOL     OW30082   0.318   3.835   4.575  0.5297  1.1120  0.0259
 6149SOL    HW130083   0.238   3.854   4.526  0.8819  1.8645 -0.2567
 6149SOL    HW230084   0.333   3.740   4.572 -0.8372  0.8416  2.2901
 6150SOL     OW30085   4.446   4.675   2.855  0.4954  0.1662  0.2369
 6150SOL    HW130086   4.515   4.707   2.913  2.3217 -1.9767 -0.7521
 6150SOL    HW230087   4.496   4.602   2.818 -1.0596 -0.3206 -0.8980
 6151SOL     OW30088   4.088   3.616   2.513  0.5572 -0.1719 -0.2075
 6151SOL    HW130089   4.085   3.634   2.607 -1.3583 -3.0789  0.2793
 6151SOL    HW230090   4.166   3.563   2.499  0.4648  0.0020 -1.4585
 6152SOL     OW30091   2.191   1.292   7.296  0.1265  0.0349  0.3633
 6152SOL    HW130092   2.136   1.345   7.354  0.6842  0.0005  0.9163
 6152SOL    HW230093   2.130   1.222   7.274  1.6987 -0.9926 -0.7185
 6153SOL     OW30094   2.930   2.254   1.982  0.0609 -0.1655 -0.5646
 6153SOL    HW130095   2.897   2.241   2.071  0.3074 -1.0639 -0.5996
 6153SOL    HW230096   2.857   2.311   1.956  0.6742  0.9437  0.1261
 6154SOL     OW30097   1.864   2.542  15.149 -0.0483 -0.5899 -0.1460
 6154SOL    HW130098   1.924   2.472  15.123  0.5190 -0.8886  1.9765
 6154SOL    HW230099   1.903   2.592  15.220 -0.8252 -0.0250 -0.1216
 6155SOL     OW30100   3.609   2.309   3.948 -0.0589 -0.0359 -0.5419
 6155SOL    HW130101   3.522   2.283   3.916  1.4970 -2.6323 -2.6516
 6155SOL    HW230102   3.656   2.285   3.868  0.4259 -1.1311  0.0682
 6156SOL     OW30103   1.030   4.446   5.582  0.1279 -0.0569  0.3158
 6156SOL    HW130104   1.110   4.476   5.626 -0.3521  2.9350 -0.8085
 6156SOL    HW230105   1.013   4.507   5.510 -0.6803 -2.1752 -1.2847
 6157SOL     OW30106   0.275   2.626   5.016  0.5383 -0.0083  0.3178
 6157SOL    HW130107   0.219   2.584   4.951  3.6179 -2.3399 -0.8542
 6157SOL    HW230108   0.247   2.589   5.100 -0.4226 -0.5911 -0.2609
 6158SOL     OW30109   1.813   1.795   2.574 -0.3289 -0.1349  0.3180
 6158SOL    HW130110   1.854   1.736   2.637 -1.3717 -1.6298 -0.3981
 6158SOL    HW230111   1.785   1.738   2.502 -1.3749 -0.9492  1.3713
 6159SOL     OW30112   3.022   0.059   3.108  0.0789  0.1499 -1.1209
 6159SOL    HW130113   3.010   0.028   3.197  0.6608  0.4540 -0.9330
 6159SOL    HW230114   2.973   0.141   3.106  0.1108  0.2319  2.3038
 6160SOL     OW30115   2.397   1.546  15.135 -0.5873  0.2609  0.1596
 6160SOL    HW130116   2.365   1.610  15.198  0.4865  0.6593  0.3081
 6160SOL    HW230117   2.492   1.562  15.136 -0.6375  0.3874  2.2752
 6161SOL     OW30118   2.260   2.693   7.815 -0.2917 -0.3869 -0.3151
 6161SOL    HW130119   2.345   2.717   7.779  0.3438 -2.2025 -0.0369
 6161SOL    HW230120   2.272   2.700   7.910  2.0227 -1.5321 -0.5335
 6162SOL     OW30121   2.049   3.847   2.015  0.1394  0.6116  0.1757
 6162SOL    HW130122   2.047   3.876   1.923  0.3103  1.5637  0.4715
 6162SOL    HW230123   2.079   3.757   2.000 -0.3384  0.3410  0.8379
 6163SOL     OW30124   0.661   2.013   8.039  0.1765 -0.7523  0.0072
 6163SOL    HW130125   0.588   2.057   8.083 -0.4836  0.5639 -2.4085
 6163SOL    HW230126   0.614   1.969   7.969  3.2453 -3.4003 -0.4095
 6164SOL     OW30127   2.042   0.284   5.511  0.2780 -0.4571 -0.2415
 6164SOL    HW130128   1.988   0.233   5.571 -0.8188 -0.8337 -1.5823
 6164SOL    HW230129   2.029   0.241   5.427 -0.9569 -1.2482  0.3685
 6165SOL     OW30130   2.853   1.951   4.960  0.2745 -0.7265 -0.3812
 6165SOL    HW130131   2.933   1.898   4.953  0.5155  0.0152 -3.3803
 6165SOL    HW230132   2.885   2.035   4.992  1.1906 -1.6618  1.1674
 6166SOL     OW30133   3.088   3.805   8.554  0.6151  0.3263 -0.3066
 6166SOL    HW130134   3.099   3.710   8.541  0.1045  0.0030  1.6605
 6166SOL    HW230135   2.994   3.814   8.569  0.9927 -0.4083  2.5346
 6167SOL     OW30136   4.101   4.388  11.288  0.2885 -0.5964  0.2542
 6167SOL    HW130137   4.013   4.353  11.280  0.6560 -0.5073 -4.2310
 6167SOL    HW230138   4.103   4.417  11.379  0.4159  2.8644 -0.8453
 6168SOL     OW30139   0.448   1.131   3.156  0.0225 -0.0855 -0.1587
 6168SOL    HW130140   0.451   1.130   3.251 -2.6397  2.3195 -0.0525
 6168SOL    HW230141   0.400   1.214   3.154 -1.3575 -0.8785  0.1330
 6169SOL     OW30142   1.135   0.057   4.992 -0.1523 -0.6427 -0.6781
 6169SOL    HW130143   1.087   0.086   5.070  3.9618  0.1231  1.5692
 6169SOL    HW230144   1.075   4.728   4.958 -0.8061  0.1521 -1.0793
 6170SOL     OW30145   4.033   1.918   4.192  0.0992  0.2255  0.0120
 6170SOL    HW130146   4.012   1.828   4.167  1.5179 -0.2676  0.5616
 6170SOL    HW230147   4.125   1.924   4.168 -0.5042 -0.3873 -2.4219
 6171SOL     OW30148   2.590   0.870  10.027  0.8009  0.3060  0.2092
 6171SOL    HW130149   2.573   0.951   9.978 -2.1989 -1.1281 -1.1184
 6171SOL    HW230150   2.535   0.811   9.976 -0.8599 -0.3490  2.7880
 6172SOL     OW30151   3.317   0.113   3.085 -0.1257 -0.0290 -0.4558
 6172SOL    HW130152   3.307   0.105   3.180 -3.3893  1.3624 -0.6749
 6172SOL    HW230153   3.227   0.094   3.058  0.3315  0.7414 -2.4869
 6173SOL     OW30154   4.404   2.911   3.307 -0.5494  0.1250  0.0345
 6173SOL    HW130155   4.400   3.003   3.281 -3.3552 -0.6014 -2.0286
 6173SOL    HW230156   4.379   2.918   3.399  4.1801 -3.0079  1.5358
 6174SOL     OW30157   1.121   3.063   2.140 -0.0410  0.2062 -0.0939
 6174SOL    HW130158   1.153   3.150   2.115  1.2588  0.0227  0.9349
 6174SOL    HW230159   1.026   3.075   2.140 -0.1062 -0.3186  0.6435
 6175SOL     OW30160   4.588   3.795   6.836 -0.1318  0.1501 -0.3192
 6175SOL    HW130161   4.524   3.725   6.846  0.5635 -0.4897 -0.3897
 6175SOL    HW230162   4.669   3.754   6.865  0.6904  1.2754 -1.0141
 6176SOL     OW30163   0.186   1.736   8.012 -0.2320 -0.3548 -0.2146
 6176SOL    HW130164   0.242   1.670   8.053  0.3620  1.3524  1.7137
 6176SOL    HW230165   0.248   1.808   8.005 -1.2281  0.6265  1.1510
 6177SOL     OW30166   3.032   2.516   1.384  0.5082 -0.1453 -0.3863
 6177SOL    HW130167   3.001   2.602   1.354  0.8421  0.6068  1.3528
 6177SOL    HW230168   3.123   2.529   1.356  0.4882 -0.0456 -0.4060
 6178SOL     OW30169   1.767   4.316   4.365 -0.3783 -0.4478 -0.4576
 6178SOL    HW130170   1.691   4.282   4.319 -1.5973  1.4398  0.1643
 6178SOL    HW230171   1.841   4.257   4.350  1.8056  2.2186 -0.2476
 6179SOL     OW30172   1.424   4.534   4.250 -0.5800  0.1032  0.2295
 6179SOL    HW130173   1.369   4.505   4.178 -1.1392  1.3629  0.1368
 6179SOL    HW230174   1.434   4.627   4.226  0.0182  0.0820  0.3992
 6180SOL     OW30175   0.328   3.658   7.014 -0.1580  0.5872 -0.3562
 6180SOL    HW130176   0.345   3.736   7.067  2.4782 -0.1395 -0.1325
 6180SOL    HW230177   0.264   3.609   7.066  2.5055 -0.8049  1.6267
 6181SOL     OW30178   3.975   1.651   7.771 -0.2177 -0.3503 -0.1361
 6181SOL    HW130179   4.005   1.658   7.680 -0.5987  0.0287 -0.2319
 6181SOL    HW230180   3.953   1.740   7.800 -1.9334 -0.6368 -0.5983
 6182SOL     OW30181   1.475   3.722   6.497  0.2180 -0.4426  0.0587
 6182SOL    HW130182   1.525   3.803   6.505 -2.5858  1.4610 -1.5017
 6182SOL    HW230183   1.471   3.715   6.401 -1.1776  1.7724 -0.0497
 6183SOL     OW30184   0.999   3.604  12.217 -0.2861  0.2559  0.0450
 6183SOL    HW130185   1.023   3.515  12.239  0.0579  0.3881  0.2076
 6183SOL    HW230186   1.074   3.621  12.160 -0.3561  2.0615  0.4884
 6184SOL     OW30187   0.930   1.717   8.479 -0.2551 -0.1003  0.5595
 6184SOL    HW130188   1.012   1.734   8.526 -0.9795  0.7874  1.4959
 6184SOL    HW230189   0.941   1.767   8.397 -0.4913 -0.4521  0.3166
 6185SOL     OW30190   3.627   3.097   3.959 -0.3657 -0.8675  0.0260
 6185SOL    HW130191   3.649   3.011   3.996  2.4715 -0.6260 -1.1374
 6185SOL    HW230192   3.653   3.078   3.869 -2.7359  0.1589 -0.8701
 6186SOL     OW30193   3.781   3.594   9.114  0.1063  0.3336  0.5575
 6186SOL    HW130194   3.708   3.612   9.055  2.5488  2.6524 -1.7447
 6186SOL    HW230195   3.788   3.499   9.106 -0.9136  0.3272 -0.2660
 6187SOL     OW30196   3.947   0.913   7.497  0.6314 -0.1575 -0.0368
 6187SOL    HW130197   3.885   0.845   7.525 -1.1611  1.1587 -0.7513
 6187SOL    HW230198   4.007   0.863   7.442 -0.3072  0.2355 -1.4295
 6188SOL     OW30199   4.353   1.477   3.727 -0.2948 -0.4015 -0.6353
 6188SOL    HW130200   4.363   1.462   3.821 -4.0377  1.6956  0.0849
 6188SOL    HW230201   4.434   1.438   3.694 -0.9417  0.2671 -3.0203
 6189SOL     OW30202   1.222   3.767   4.277  0.7420  0.2539 -0.0799
 6189SOL    HW130203   1.286   3.744   4.211  1.2401  1.1111  0.1002
 6189SOL    HW230204   1.139   3.721   4.264  1.0654 -0.0914 -0.9196
 6190SOL     OW30205   0.224   1.743   8.423 -0.3171  0.1565  0.2587
 6190SOL    HW130206   0.183   1.698   8.496 -1.4047  0.6812 -0.0273
 6190SOL    HW230207   0.292   1.785   8.477  0.7845  0.7240 -1.5467
 6191SOL     OW30208   2.743   1.015  10.522 -0.0656  0.2698  0.3385
 6191SOL    HW130209   2.729   0.955  10.595 -1.5224  0.8786  0.5417
 6191SOL    HW230210   2.665   1.070  10.521 -1.2357 -1.3806  0.9981
 6192SOL     OW30211   4.233   1.313   7.310 -0.1816  0.5602  0.0045
 6192SOL    HW130212   4.143   1.293   7.284 -0.3412  0.9393  0.2764
 6192SOL    HW230213   4.222   1.307   7.404 -0.3353 -0.6486 -0.0915
 6193SOL     OW30214   1.649   4.125   7.162 -0.3766 -0.1699  0.1683
 6193SOL    HW130215   1.660   4.046   7.108 -0.9173  0.9814 -1.6511
 6193SOL    HW230216   1.641   4.085   7.248  1.0617 -2.4507 -0.7268
 6194SOL     OW30217   1.234   1.127   2.495 -0.2011  0.7142  0.3963
 6194SOL    HW130218   1.316   1.082   2.477  0.1791  1.4971  0.1797
 6194SOL    HW230219   1.224   1.185   2.420  1.9902  2.6296  1.5805
 6195SOL     OW30220   1.569   2.680   6.991 -0.4207 -0.2357 -0.2005
 6195SOL    HW130221   1.642   2.743   6.991  0.3821 -1.1726 -1.0044
 6195SOL    HW230222   1.596   2.602   7.040  0.3543 -0.3388 -0.7812
 6196SOL     OW30223   0.787   4.575   2.988 -0.3334  0.8170  0.3280
 6196SOL    HW130224   0.813   4.640   2.922  0.9905  0.2649  0.3038
 6196SOL    HW230225   0.824   4.615   3.067 -0.1308  0.2102  0.5423
 6197SOL     OW30226   2.098   3.627  15.830  0.7531 -0.3819  0.4241
 6197SOL    HW130227   2.058   3.700  15.781  2.7631  0.3293 -0.1570
 6197SOL    HW230228   2.032   3.609  15.897 -0.0196 -1.7465 -0.7186
 6198SOL     OW30229   4.068   2.931   5.410  0.1860  0.1459  0.5712
 6198SOL    HW130230   3.984   2.964   5.378  1.0551  0.4198 -1.4006
 6198SOL    HW230231   4.038   2.918   5.500  0.1398 -2.6609  0.1388
 6199SOL     OW30232   2.116   4.470   9.740 -0.0612  0.0710  0.0391
 6199SOL    HW130233   2.162   4.476   9.823  1.0698  2.4980 -0.7534
 6199SOL    HW230234   2.179   4.435   9.676  0.9195 -3.5616  3.0126
 6200SOL     OW30235   3.996   4.481   6.285 -0.3565  0.0515 -0.4442
 6200SOL    HW130236   4.074   4.537   6.288  0.4117 -1.0500  0.0263
 6200SOL    HW230237   3.934   4.551   6.262  1.8219  2.7619  1.8677
 6201SOL     OW30238   1.999   0.899   0.792 -0.3828  0.2512  0.6124
 6201SOL    HW130239   2.008   0.923   0.885 -0.1992  0.2558  0.5933
 6201SOL    HW230240   2.085   0.858   0.782 -0.0884  1.4608 -1.6405
 6202SOL     OW30241   0.666   2.777   5.915  0.8333 -0.0101  0.0824
 6202SOL    HW130242   0.600   2.769   5.984 -1.4781 -0.9381 -2.2133
 6202SOL    HW230243   0.737   2.731   5.960 -0.1046 -1.1328  0.4248
 6203SOL     OW30244   0.622   0.835  17.520 -0.7912 -0.1321  0.7221
 6203SOL    HW130245   0.690   0.768  17.528  0.9380  1.5897  0.5833
 6203SOL    HW230246   0.554   0.781  17.480 -2.8766  0.9206  2.9022
 6204SOL     OW30247   2.024   2.717   0.963  0.3752  0.3732  0.4802
 6204SOL    HW130248   1.931   2.726   0.984  0.0497  0.8209 -1.1714
 6204SOL    HW230249   2.041   2.647   1.026  0.0899 -0.1508 -0.0274
 6205SOL     OW30250   4.480   1.161  12.593 -0.1336 -0.2368 -0.4405
 6205SOL    HW130251   4.490   1.256  12.583 -1.3396 -0.1497 -0.8353
 6205SOL    HW230252   4.434   1.152  12.676  3.0979  0.5770  1.4410
 6206SOL     OW30253   4.628   1.499  13.777 -0.4007 -0.8205  0.0849
 6206SOL    HW130254   4.554   1.495  13.717  0.4249 -1.2840 -0.9095
 6206SOL    HW230255   4.667   1.584  13.755  1.3679 -1.4443  0.8239
 6207SOL     OW30256   2.916   2.633   8.578 -0.0264 -0.2519 -0.0038
 6207SOL    HW130257   2.910   2.548   8.533  0.6993 -0.4611  0.2940
 6207SOL    HW230258   2.953   2.595   8.657 -0.2020  1.3871  0.8580
 6208SOL     OW30259   0.020   3.041   1.474 -0.5815 -0.0855  0.0770
 6208SOL    HW130260   4.702   2.993   1.535 -1.7828  1.9442  0.5922
 6208SOL    HW230261   0.029   3.118   1.530 -1.1148  0.6251 -0.8112
 6209SOL     OW30262   2.885   0.741   6.299 -0.2625 -0.5322 -0.4318
 6209SOL    HW130263   2.862   0.649   6.307 -1.4703 -0.3407 -1.7200
 6209SOL    HW230264   2.809   0.801   6.296 -0.0522 -0.2658 -0.4596
 6210SOL     OW30265   3.406   0.396   9.180 -0.6237 -0.8025  0.0560
 6210SOL    HW130266   3.466   0.371   9.109 -0.5557 -0.1341 -0.1298
 6210SOL    HW230267   3.328   0.410   9.126 -0.1094 -1.6166 -0.8836
 6211SOL     OW30268   0.819   3.652   3.488 -0.1415 -0.0338  0.0437
 6211SOL    HW130269   0.806   3.582   3.424  1.1904  0.8573 -1.1980
 6211SOL    HW230270   0.728   3.680   3.499  0.0024 -1.1410  4.1231
 6212SOL     OW30271   1.178   0.146   4.336 -0.2936 -0.3908 -0.3143
 6212SOL    HW130272   1.191   0.238   4.312 -0.3931 -0.2122  0.3142
 6212SOL    HW230273   1.166   0.161   4.430  0.2728  1.6603 -0.5649
 6213SOL     OW30274   2.621   2.825   5.437 -0.3334 -0.4208 -0.1838
 6213SOL    HW130275   2.691   2.771   5.402  0.7788  0.6369  0.4155
 6213SOL    HW230276   2.645   2.911   5.404 -1.4229  0.0390  0.2084
 6214SOL     OW30277   1.900   2.194  15.361  0.1676  0.0852  0.6641
 6214SOL    HW130278   1.895   2.116  15.417 -1.9876 -0.5701 -0.4452
 6214SOL    HW230279   1.890   2.266  15.423 -3.2940 -0.1986  0.4039
 6215SOL     OW30280   4.375   2.243   4.337 -0.1432  0.0988 -0.1676
 6215SOL    HW130281   4.292   2.237   4.384  1.4864 -1.5512  2.5086
 6215SOL    HW230282   4.419   2.171   4.383  0.5563  0.6281 -0.0025
 6216SOL     OW30283   0.116   2.307   1.374  0.0820  0.1130 -0.2603
 6216SOL    HW130284   0.125   2.400   1.353  0.1034 -0.0229 -0.8447
 6216SOL    HW230285   0.206   2.280   1.392  0.4213  1.2367 -0.3066
 6217SOL     OW30286   0.846   4.503  14.974 -0.9953  1.0099 -0.2732
 6217SOL    HW130287   0.865   4.578  15.030 -0.2324  0.7767 -0.2239
 6217SOL    HW230288   0.766   4.474  15.018 -0.9462 -2.5749 -2.5582
 6218SOL     OW30289   2.216   2.020   6.014 -0.4107 -0.1957  0.0020
 6218SOL    HW130290   2.227   2.101   5.964 -2.3712 -0.8711 -1.5091
 6218SOL    HW230291   2.295   2.032   6.067  1.1722 -0.3419 -2.3132
 6219SOL     OW30292   0.995   3.347   3.570 -0.1425 -0.2231 -0.0945
 6219SOL    HW130293   1.016   3.259   3.601 -0.4136 -0.2351  0.0543
 6219SOL    HW230294   0.918   3.327   3.517 -0.0024 -2.7777  0.6790
 6220SOL     OW30295   0.831   2.576   9.028 -0.1241 -0.6095  0.2799
 6220SOL    HW130296   0.805   2.585   8.937  2.3667  1.0306 -0.2644
 6220SOL    HW230297   0.924   2.555   9.020  0.0824  1.0919 -1.6608
 6221SOL     OW30298   1.058   0.182   7.404  0.3440  0.0310  0.9306
 6221SOL    HW130299   1.094   0.136   7.479 -0.2724 -2.2010 -0.1459
 6221SOL    HW230300   1.132   0.238   7.381  1.3989 -1.0256  1.7744
 6222SOL     OW30301   4.586   3.292   3.761 -0.6500 -0.1268  0.4401
 6222SOL    HW130302   4.548   3.239   3.831 -1.8296 -1.5365 -1.2801
 6222SOL    HW230303   4.576   3.232   3.687  1.9794 -0.4647  0.3560
 6223SOL     OW30304   1.488   1.985   3.424 -0.6854 -0.0827 -0.2120
 6223SOL    HW130305   1.522   2.002   3.336 -1.7665  3.6877  0.1023
 6223SOL    HW230306   1.396   1.979   3.397 -0.3004  3.5191 -2.2395
 6224SOL     OW30307   0.921   2.078   7.985  0.2180  0.2084  0.0922
 6224SOL    HW130308   0.833   2.063   8.017 -0.3681  1.2690 -1.0323
 6224SOL    HW230309   0.941   2.164   8.024  1.2626 -0.1248  0.2926
 6225SOL     OW30310   2.250   2.912   0.956  0.1649  0.4453 -0.1579
 6225SOL    HW130311   2.175   2.853   0.954 -0.0657  0.8006 -1.5207
 6225SOL    HW230312   2.306   2.867   0.892  0.2438  1.7093 -0.9669
 6226SOL     OW30313   2.070   1.769   9.725  0.0824 -0.3761  0.2972
 6226SOL    HW130314   2.002   1.713   9.687 -0.7159  0.1617  0.9160
 6226SOL    HW230315   2.136   1.770   9.656  1.8289 -0.0268  1.9744
 6227SOL     OW30316   4.636   2.972  11.087 -0.2363  0.1012  0.0713
 6227SOL    HW130317   4.649   2.880  11.107 -0.9293 -0.3387 -1.5249
 6227SOL    HW230318   4.627   3.008  11.175 -0.4814  0.5317 -0.1284
 6228SOL     OW30319   1.035   1.230  17.612 -0.2443  0.0333 -0.2888
 6228SOL    HW130320   0.971   1.260  17.547 -2.7291  0.2453  2.2978
 6228SOL    HW230321   1.002   1.151  17.654 -0.4113  0.8148  1.0547
 6229SOL     OW30322   0.036   0.306   5.384 -0.5551  0.2805 -0.0678
 6229SOL    HW130323   0.103   0.345   5.440 -0.3072 -0.8068  0.3938
 6229SOL    HW230324   4.695   0.359   5.395 -0.8798 -0.1170 -0.4922
 6230SOL     OW30325   2.133   4.679   2.997  0.5193 -0.0200  0.2258
 6230SOL    HW130326   2.136   4.645   2.908 -2.3497  1.0860 -0.2813
 6230SOL    HW230327   2.181   0.024   3.003 -2.0691  1.5608 -1.0790
 6231SOL     OW30328   3.662   3.142   4.928  0.0925  0.1178  0.2811
 6231SOL    HW130329   3.674   3.196   5.006  0.4453 -0.4413  0.6196
 6231SOL    HW230330   3.743   3.159   4.881  0.9065 -2.9400  0.6039
 6232SOL     OW30331   1.863   3.148   8.507  0.2697 -0.7495  0.1129
 6232SOL    HW130332   1.793   3.089   8.535  0.5098 -0.0037  2.3275
 6232SOL    HW230333   1.823   3.167   8.423  0.3048 -1.2188 -0.0075
 6233SOL     OW30334   0.001   3.794   3.027  0.3157 -0.1249 -0.2595
 6233SOL    HW130335   4.655   3.752   3.010 -0.8187  1.3202  1.8698
 6233SOL    HW230336   0.069   3.769   2.965 -1.9369 -0.0063 -2.7743
 6234SOL     OW30337   1.734   0.927   4.387  0.4193  0.2917 -0.1892
 6234SOL    HW130338   1.658   0.918   4.330  0.2466 -1.1013  0.2614
 6234SOL    HW230339   1.705   0.883   4.466  1.7353 -0.3400 -0.0534
 6235SOL     OW30340   3.372   0.212   4.578  0.1656  0.1065 -0.1701
 6235SOL    HW130341   3.463   0.205   4.550  0.7504  1.0738  1.5273
 6235SOL    HW230342   3.383   0.281   4.642  0.9701  1.1616 -1.4582
 6236SOL     OW30343   2.218   4.037   8.927  0.0462  0.6542 -0.3048
 6236SOL    HW130344   2.190   4.073   8.843  0.4287  0.3988 -0.5393
 6236SOL    HW230345   2.134   4.031   8.973 -0.0286 -0.7727 -0.6291
 6237SOL     OW30346   3.930   1.788   3.237  0.2899  0.2897  0.9888
 6237SOL    HW130347   3.920   1.723   3.168 -0.0739  0.5024  0.8423
 6237SOL    HW230348   3.982   1.857   3.196 -0.1291 -0.2555 -0.4576
 6238SOL     OW30349   1.828   2.804   6.920  0.2358 -0.3984 -0.1175
 6238SOL    HW130350   1.878   2.759   6.988 -0.0678  1.1969  1.1614
 6238SOL    HW230351   1.874   2.888   6.916 -2.2090  0.9668  0.5075
 6239SOL     OW30352   3.396   4.073  14.301  0.4237 -0.0406  0.1977
 6239SOL    HW130353   3.367   4.107  14.385  0.8812 -1.2168  0.8305
 6239SOL    HW230354   3.402   4.154  14.250  3.4780 -0.4026 -0.0538
 6240SOL     OW30355   2.762   2.855  12.665 -0.2348 -0.2990 -0.4847
 6240SOL    HW130356   2.830   2.922  12.673  1.2967 -1.7309 -1.5088
 6240SOL    HW230357   2.691   2.892  12.613  0.0423 -1.1068 -1.4307
 6241SOL     OW30358   2.920   4.208   9.150  0.1502  0.1130 -0.4639
 6241SOL    HW130359   2.889   4.165   9.070  2.3728 -0.4263 -1.0267
 6241SOL    HW230360   2.957   4.131   9.193  1.2834  0.9839  0.1266
 6242SOL     OW30361   3.352   3.229   4.498 -0.1454 -0.2179  0.2497
 6242SOL    HW130362   3.398   3.232   4.583  1.7519 -0.4646 -0.7686
 6242SOL    HW230363   3.423   3.209   4.437  0.5056  0.5184  0.7507
 6243SOL     OW30364   3.266   3.524  13.681 -0.2281  0.3508 -0.5094
 6243SOL    HW130365   3.329   3.469  13.728  0.9973  0.9853 -1.4138
 6243SOL    HW230366   3.240   3.589  13.747 -0.4866  0.4396 -0.7009
 6244SOL     OW30367   3.817   2.971   7.485  0.1705  0.4903  0.3747
 6244SOL    HW130368   3.772   3.055   7.501 -0.3294  0.1022  1.0344
 6244SOL    HW230369   3.901   2.980   7.529  0.1877 -1.4334  0.7421
 6245SOL     OW30370   3.526   3.684   4.316  0.2543 -0.3714  0.7341
 6245SOL    HW130371   3.545   3.630   4.240 -0.0627 -0.7376  0.9184
 6245SOL    HW230372   3.585   3.759   4.318  1.7362 -1.4798 -1.8801
 6246SOL     OW30373   2.573   1.196   3.191 -0.0209  0.2473 -0.2509
 6246SOL    HW130374   2.593   1.195   3.284  0.7573 -1.1854 -0.4272
 6246SOL    HW230375   2.621   1.117   3.165  0.2260  0.1309  0.5743
 6247SOL     OW30376   0.050   4.179   8.483 -0.5327 -0.6405 -0.2951
 6247SOL    HW130377   0.063   4.202   8.575  0.4623 -0.5100 -0.4601
 6247SOL    HW230378   0.123   4.116   8.473 -0.2864 -0.4262  0.1527
 6248SOL     OW30379   3.113   0.527  12.017  0.1340  0.5072 -0.3526
 6248SOL    HW130380   3.061   0.594  12.061  1.3388  0.8979  0.4911
 6248SOL    HW230381   3.202   0.538  12.050 -1.6465  0.7718  4.4883
 6249SOL     OW30382   2.569   2.664  11.444  0.1076 -0.4278  0.5702
 6249SOL    HW130383   2.622   2.584  11.447  1.9766  0.7578 -0.6030
 6249SOL    HW230384   2.486   2.634  11.408 -0.6378  1.0844  1.0467
 6250SOL     OW30385   2.306   3.491   8.983  0.0048  0.2692  0.4664
 6250SOL    HW130386   2.318   3.567   9.041  0.4617  1.0636 -0.6622
 6250SOL    HW230387   2.254   3.523   8.910 -0.2922 -0.4663  0.3641
 6251SOL     OW30388   3.828   4.351   5.112  0.5597 -0.1875  0.4408
 6251SOL    HW130389   3.758   4.291   5.086  1.1119  0.0040 -1.5001
 6251SOL    HW230390   3.804   4.436   5.076 -1.0505 -0.9522 -0.2347
 6252SOL     OW30391   4.392   2.553   2.313 -0.2741 -0.2626 -0.4012
 6252SOL    HW130392   4.441   2.540   2.393  2.1704 -1.4869 -2.1152
 6252SOL    HW230393   4.304   2.519   2.330 -1.5080  2.7651 -0.7788
 6253SOL     OW30394   2.290   0.429   5.984  0.1493  0.5259 -0.1195
 6253SOL    HW130395   2.290   0.467   5.897 -1.3418  1.4283  0.2601
 6253SOL    HW230396   2.215   0.466   6.031 -0.2121 -0.0184 -0.2650
 6254SOL     OW30397   2.198   0.152  13.736  0.5513 -0.0596 -0.0400
 6254SOL    HW130398   2.201   0.233  13.787  0.5753 -1.9781  3.0200
 6254SOL    HW230399   2.232   0.184  13.653 -1.3257  0.5671 -0.5791
 6255SOL     OW30400   0.320   0.205   3.597 -0.6712  0.4263  0.0176
 6255SOL    HW130401   0.396   0.154   3.623 -1.0336 -0.5864 -0.8654
 6255SOL    HW230402   0.268   0.125   3.587  0.3601  0.0388 -2.2280
 6256SOL     OW30403   4.631   1.184   9.020  0.2386 -0.5225 -0.9231
 6256SOL    HW130404   4.546   1.228   9.025  0.3707 -0.4945  1.2538
 6256SOL    HW230405   4.660   1.198   8.930  1.0371  0.5365 -0.5048
 6257SOL     OW30406   1.224   1.907   3.670  0.3703  0.5511 -0.5892
 6257SOL    HW130407   1.202   1.829   3.722 -1.4239  3.0692  2.3821
 6257SOL    HW230408   1.184   1.866   3.594 -1.5167  2.0673 -0.3934
 6258SOL     OW30409   1.902   4.566  12.856 -0.0910 -0.2553 -0.1288
 6258SOL    HW130410   1.944   4.502  12.914 -2.3818 -1.1734  0.5228
 6258SOL    HW230411   1.948   4.542  12.776  0.8718  1.8644 -0.2186
 6259SOL     OW30412   0.979   4.058   7.396 -0.0681 -0.6880  0.0865
 6259SOL    HW130413   0.975   4.090   7.306  0.9174 -0.7571  0.0195
 6259SOL    HW230414   0.919   3.983   7.393 -0.8708  0.0353 -2.1287
 6260SOL     OW30415   3.371   0.612   2.830 -0.4583 -0.3768  0.0394
 6260SOL    HW130416   3.349   0.694   2.874  0.3711  0.5332 -1.2350
 6260SOL    HW230417   3.373   0.550   2.903  0.5687  0.7336  0.9501
 6261SOL     OW30418   1.993   4.319  14.725 -0.2278 -0.0513 -0.0373
 6261SOL    HW130419   2.004   4.406  14.762  0.9474 -0.1007 -0.2642
 6261SOL    HW230420   2.086   4.295  14.724  0.1116  1.2576  0.5112
 6262SOL     OW30421   1.883   1.694  17.387 -0.2575  0.1565 -0.6970
 6262SOL    HW130422   1.806   1.750  17.386  0.5917  1.2415 -3.2024
 6262SOL    HW230423   1.835   1.616  17.359  0.0736  0.9048 -3.2635
 6263SOL     OW30424   3.636   1.334   3.047 -0.2832 -0.5218 -0.3279
 6263SOL    HW130425   3.695   1.408   3.032 -1.4140  1.0404  2.9214
 6263SOL    HW230426   3.587   1.339   2.965 -2.8372 -0.6339  1.1604
 6264SOL     OW30427   4.449   3.586   0.553 -0.0135 -0.2645 -0.2699
 6264SOL    HW130428   4.395   3.626   0.621  0.2946 -0.3695  0.0355
 6264SOL    HW230429   4.448   3.492   0.572 -0.7501 -0.2105 -0.0322
 6265SOL     OW30430   0.294   4.622   5.364 -0.2111 -0.1598  0.3887
 6265SOL    HW130431   0.226   4.623   5.297 -1.0548 -0.2910  1.2527
 6265SOL    HW230432   0.310   4.717   5.367 -1.9894  0.1870 -0.6609
 6266SOL     OW30433   2.423   1.946   6.777 -0.3274 -0.2338 -0.0955
 6266SOL    HW130434   2.517   1.959   6.789 -0.1783 -1.9375  0.5185
 6266SOL    HW230435   2.426   1.912   6.688  0.0616  0.1534 -0.2321
 6267SOL     OW30436   3.085   1.941  16.527  0.2525  0.0073 -0.3959
 6267SOL    HW130437   3.066   1.859  16.482  0.8596  0.0190 -0.6670
 6267SOL    HW230438   3.015   1.940  16.593 -0.4037  2.0956 -1.0464
 6268SOL     OW30439   3.627   2.800   7.837  0.4230 -0.3126  0.0789
 6268SOL    HW130440   3.582   2.860   7.777  2.2469  0.5253 -0.4544
 6268SOL    HW230441   3.689   2.865   7.872 -0.8792  0.7252  0.4776
 6269SOL     OW30442   2.930   2.532   4.995  0.0582 -0.5066 -0.2197
 6269SOL    HW130443   2.959   2.564   4.909  0.1588  0.2948  0.1164
 6269SOL    HW230444   2.991   2.571   5.057 -0.0017  1.0016 -1.1108
 6270SOL     OW30445   2.986   2.999   5.405 -0.0996 -0.6354 -0.7531
 6270SOL    HW130446   2.927   2.929   5.378  0.0806 -0.8008 -0.7231
 6270SOL    HW230447   2.966   3.058   5.333  1.6217  0.5023 -0.2910
 6271SOL     OW30448   0.234   1.692   3.778  0.5591 -0.2925 -0.1125
 6271SOL    HW130449   0.142   1.670   3.798  0.5306 -0.1550 -0.0911
 6271SOL    HW230450   0.227   1.744   3.697  0.4727 -0.3251 -0.1266
 6272SOL     OW30451   1.027   3.767  16.719  0.2625 -0.1755 -0.0498
 6272SOL    HW130452   0.958   3.774  16.653  1.3885  0.4218 -1.1540
 6272SOL    HW230453   1.112   3.788  16.681 -0.8894  3.8359 -0.4716
 6273SOL     OW30454   3.809   1.040  10.606  0.2247  0.1378 -0.7942
 6273SOL    HW130455   3.875   1.103  10.577 -0.9498  1.4698 -0.5590
 6273SOL    HW230456   3.812   0.967  10.544 -2.2178 -0.2361 -0.4541
 6274SOL     OW30457   3.403   4.374   9.533 -0.5558 -0.1422  0.1830
 6274SOL    HW130458   3.388   4.281   9.546  0.4604  0.0361  2.5351
 6274SOL    HW230459   3.498   4.377   9.545 -0.8046  3.0112  1.4394
 6275SOL     OW30460   1.938   0.354  16.855 -0.0141 -0.3887 -0.1288
 6275SOL    HW130461   1.905   0.414  16.788 -1.4888 -0.7374  0.2748
 6275SOL    HW230462   1.883   0.277  16.839 -1.4687  0.4088  0.9633
 6276SOL     OW30463   2.794   1.977  14.122  0.4817  0.2225  0.4812
 6276SOL    HW130464   2.775   2.069  14.136 -0.9689  0.1009 -0.6667
 6276SOL    HW230465   2.717   1.943  14.075  1.4902  1.5324 -2.1341
 6277SOL     OW30466   3.029   3.380   2.895 -0.7907 -0.6155 -0.0221
 6277SOL    HW130467   2.999   3.310   2.837  0.0050 -1.3981  0.5117
 6277SOL    HW230468   3.121   3.359   2.909 -0.2186  0.4670 -2.0772
 6278SOL     OW30469   4.654   2.498   4.433 -0.7344 -0.1000  0.1953
 6278SOL    HW130470   4.703   2.579   4.421 -0.8882  0.2453  2.0008
 6278SOL    HW230471   4.580   2.526   4.487  1.0275  1.8925  1.5559
 6279SOL     OW30472   3.894   4.245  14.468  0.1455  0.0100 -0.2778
 6279SOL    HW130473   3.899   4.149  14.466 -1.2110 -0.1042  1.2945
 6279SOL    HW230474   3.965   4.271  14.526 -0.5773 -0.8802  1.0070
 6280SOL     OW30475   2.245   4.679   7.724  0.1961  0.0618 -0.9028
 6280SOL    HW130476   2.270   0.029   7.695 -0.7318  0.7433  0.3441
 6280SOL    HW230477   2.254   4.686   7.820  2.7591  1.3650 -1.2437
 6281SOL     OW30478   1.357   0.053  14.011 -0.1975  0.1668 -0.5050
 6281SOL    HW130479   1.275   0.073  13.966  1.2463 -0.1889 -3.3123
 6281SOL    HW230480   1.428   0.078  13.952  0.4024 -0.5611 -0.0948
 6282SOL     OW30481   1.000   4.119   0.136 -0.3218 -0.0219  0.3891
 6282SOL    HW130482   0.913   4.107   0.098  0.2751  0.3406 -1.1080
 6282SOL    HW230483   1.004   4.215   0.136 -0.9401  0.0020  0.5133
 6283SOL     OW30484   4.019   1.699   3.839 -0.1357 -0.5179  0.7867
 6283SOL    HW130485   4.102   1.730   3.803 -0.7943 -0.5708 -0.7745
 6283SOL    HW230486   4.034   1.678   3.931  0.7853  2.9455  1.3944
 6284SOL     OW30487   2.614   2.927  15.080 -0.1745 -0.0682  0.0449
 6284SOL    HW130488   2.667   2.911  15.159 -0.5242  0.0431  0.3043
 6284SOL    HW230489   2.549   2.856  15.085  3.3782 -3.3043  0.3312
 6285SOL     OW30490   0.124   3.401   4.323 -0.0716 -0.0746  0.2138
 6285SOL    HW130491   0.211   3.430   4.294  1.2128 -1.3273  2.7971
 6285SOL    HW230492   0.070   3.473   4.355  0.3805 -0.0856  1.0114
 6286SOL     OW30493   1.345   0.798   2.283 -0.3808  0.0366 -0.4448
 6286SOL    HW130494   1.334   0.893   2.282  0.8780  0.1869  2.1226
 6286SOL    HW230495   1.409   0.779   2.351  0.8880 -0.7701 -1.8492
 6287SOL     OW30496   3.096   0.982   6.640  1.2062  0.1972 -0.5024
 6287SOL    HW130497   3.111   1.076   6.626 -0.8142  0.6014 -0.0543
 6287SOL    HW230498   3.010   0.983   6.683  1.1333 -3.2129 -0.5915
 6288SOL     OW30499   0.150   2.737   5.318 -0.0694 -0.7311 -0.0269
 6288SOL    HW130500   0.060   2.765   5.298  0.1821 -1.0438 -1.5388
 6288SOL    HW230501   0.201   2.803   5.273 -3.2272  1.2886 -0.6972
 6289SOL     OW30502   4.509   1.665   7.737  0.3744  0.4361 -0.0388
 6289SOL    HW130503   4.599   1.655   7.768  0.1504  1.6664  1.0250
 6289SOL    HW230504   4.520   1.675   7.643 -1.0000  0.3483 -0.2131
 6290SOL     OW30505   4.659   1.431   9.786 -0.0147  0.0339 -0.0806
 6290SOL    HW130506   4.585   1.377   9.811 -1.4447  1.3062 -1.5153
 6290SOL    HW230507   4.687   1.460   9.873  0.1280 -1.3084  0.3153
 6291SOL     OW30508   0.976   3.892   8.752 -0.0759 -0.4358  0.1266
 6291SOL    HW130509   0.919   3.824   8.788 -0.4525 -1.1785 -1.8593
 6291SOL    HW230510   0.915   3.965   8.759  1.0469  0.3600  1.5265
 6292SOL     OW30511   2.063   0.889   4.703  0.1622 -0.1624 -0.1126
 6292SOL    HW130512   2.088   0.982   4.707 -0.1574 -0.0924  0.2733
 6292SOL    HW230513   2.117   0.849   4.772  0.6752  1.6655  0.5480
 6293SOL     OW30514   3.493   3.215   6.734 -0.8062  0.3567 -0.4991
 6293SOL    HW130515   3.534   3.301   6.721  2.1545 -1.0973 -0.9426
 6293SOL    HW230516   3.473   3.217   6.827 -4.1073  0.9781 -1.2233
 6294SOL     OW30517   2.141   1.173   4.640  0.0255 -0.0782  0.0835
 6294SOL    HW130518   2.178   1.259   4.619  0.6961 -0.0162  1.5041
 6294SOL    HW230519   2.213   1.117   4.608 -1.6058 -1.0905 -1.8484
 6295SOL     OW30520   1.447   2.665  14.623  0.0763  0.1407  0.1651
 6295SOL    HW130521   1.455   2.623  14.708 -0.9836  2.4756  1.4272
 6295SOL    HW230522   1.355   2.647  14.604  0.0031 -0.1685  0.8167
 6296SOL     OW30523   3.279   2.508   3.955 -0.1018  0.0697  0.5058
 6296SOL    HW130524   3.278   2.518   4.050  0.4383  0.7969  0.4369
 6296SOL    HW230525   3.302   2.594   3.920 -0.1691  0.4354  1.3600
 6297SOL     OW30526   1.062   0.713   2.128 -0.6375 -0.3704  0.0988
 6297SOL    HW130527   1.129   0.646   2.144 -0.7215 -0.8191 -1.4429
 6297SOL    HW230528   1.077   0.770   2.204  1.1257 -0.9143  0.1483
 6298SOL     OW30529   3.485   1.069   7.611  0.3847 -0.0063  0.2703
 6298SOL    HW130530   3.436   1.004   7.662  1.1188  0.5797  1.7076
 6298SOL    HW230531   3.568   1.076   7.657  0.2302 -0.9089  0.6960
 6299SOL     OW30532   4.029   4.145   4.096  0.7953  0.3623  0.6552
 6299SOL    HW130533   4.057   4.057   4.119 -0.4083  0.2593  1.7422
 6299SOL    HW230534   4.061   4.204   4.164  0.9071  2.3127 -1.1018
 6300SOL     OW30535   0.891   1.329  13.629 -0.4818  0.4282 -0.6199
 6300SOL    HW130536   0.889   1.244  13.585  2.2562  0.9870 -1.7959
 6300SOL    HW230537   0.983   1.324  13.656  0.1398  1.9339 -2.5020
 6301SOL     OW30538   2.151   2.730   3.743  0.2353 -0.6905  0.3429
 6301SOL    HW130539   2.129   2.804   3.800 -0.2076 -0.9239  0.4755
 6301SOL    HW230540   2.090   2.732   3.670 -0.3347  0.5986  0.8604
 6302SOL     OW30541   3.343   0.930   1.128  0.6489 -0.6134  0.3733
 6302SOL    HW130542   3.439   0.936   1.131  0.6381  1.1167 -3.3561
 6302SOL    HW230543   3.334   0.881   1.210  0.9683 -0.4197  0.5259
 6303SOL     OW30544   3.690   2.436  16.071 -0.4311  0.0570  0.9435
 6303SOL    HW130545   3.735   2.518  16.091 -1.5218  0.6680  0.8862
 6303SOL    HW230546   3.755   2.370  16.098  0.4529 -0.5538 -2.6730
 6304SOL     OW30547   0.102   1.871   3.140  0.2728  0.7692 -0.2122
 6304SOL    HW130548   0.097   1.852   3.233  1.9440 -1.1673 -0.5099
 6304SOL    HW230549   0.110   1.966   3.136 -0.9774  0.8842 -0.0500
 6305SOL     OW30550   3.078   3.828   5.278 -0.8523 -0.1538 -0.4595
 6305SOL    HW130551   3.099   3.737   5.297 -0.0071  0.5431  1.9968
 6305SOL    HW230552   2.991   3.820   5.317 -1.4026  2.2389 -1.1918
 6306SOL     OW30553   2.075   1.795  17.596  0.4168  1.1004  0.0509
 6306SOL    HW130554   2.032   1.868  17.552 -1.9251 -1.0973 -1.3526
 6306SOL    HW230555   1.996   1.742  17.605  1.7889 -0.6734  1.6064
 6307SOL     OW30556   1.488   1.817   7.790 -0.0237 -0.0993  0.4839
 6307SOL    HW130557   1.481   1.898   7.841  0.8613 -0.9528  1.9649
 6307SOL    HW230558   1.419   1.760   7.822 -1.5441  1.4252 -0.1190
 6308SOL     OW30559   4.028   0.953   1.029  0.0833 -0.3751 -0.2153
 6308SOL    HW130560   4.109   0.904   1.020  0.7099  0.6338 -0.1425
 6308SOL    HW230561   3.987   0.906   0.957  1.3274 -1.8987  0.0672
 6309SOL     OW30562   3.589   0.214  10.296 -0.2847 -0.7755  0.3631
 6309SOL    HW130563   3.628   0.290  10.253  0.2733  0.3491  2.8423
 6309SOL    HW230564   3.524   0.251  10.357 -1.3299 -2.0778  0.0490
 6310SOL     OW30565   2.090   1.460   7.510  0.0077 -0.3088 -0.2354
 6310SOL    HW130566   2.183   1.460   7.530 -0.5624 -1.3950  2.4316
 6310SOL    HW230567   2.060   1.408   7.585 -2.5899  0.4575 -0.7562
 6311SOL     OW30568   4.053   3.607   4.168 -0.7438 -0.3845  0.3584
 6311SOL    HW130569   4.136   3.632   4.128 -1.3174  0.8101 -0.1038
 6311SOL    HW230570   4.023   3.688   4.210  0.9660  0.0862  0.6648
 6312SOL     OW30571   1.809   0.516   5.386  0.7527 -0.1939  0.1903
 6312SOL    HW130572   1.740   0.577   5.412  1.3707  0.8502 -0.5845
 6312SOL    HW230573   1.834   0.539   5.296 -2.0025  0.1127 -0.5100
 6313SOL     OW30574   3.186   0.984   8.894  0.3230  0.5151  0.2212
 6313SOL    HW130575   3.279   0.969   8.876 -0.2531 -0.5621 -1.9311
 6313SOL    HW230576   3.174   0.959   8.985 -0.7449 -1.2704 -0.3896
 6314SOL     OW30577   3.981   0.308   8.887 -0.4833  0.0546 -0.1509
 6314SOL    HW130578   3.972   0.324   8.981  1.7946 -0.9545  0.2379
 6314SOL    HW230579   3.995   0.213   8.880  0.8544  0.0916  2.4257
 6315SOL     OW30580   0.226   2.029   0.917  0.6061  0.6544 -0.9039
 6315SOL    HW130581   0.270   2.082   0.983 -1.8037 -0.3816  1.5339
 6315SOL    HW230582   0.143   2.075   0.921 -0.0399 -0.3293 -3.0637
 6316SOL     OW30583   3.518   1.619   0.767  0.8709 -0.6063  0.3792
 6316SOL    HW130584   3.427   1.590   0.757  0.8771 -0.4905 -0.0298
 6316SOL    HW230585   3.526   1.637   0.860  1.2631 -1.0536  0.4336
 6317SOL     OW30586   0.526   0.318   2.731  0.0359 -0.1393 -0.1538
 6317SOL    HW130587   0.463   0.389   2.737  0.0865 -0.0717 -0.4239
 6317SOL    HW230588   0.561   0.322   2.641  1.8657 -0.7534  0.5236
 6318SOL     OW30589   1.316   0.132  11.439  0.4448 -0.5115  0.5052
 6318SOL    HW130590   1.404   0.116  11.471  0.3248  0.6991  1.4543
 6318SOL    HW230591   1.265   0.114  11.518  0.9193 -2.6901  0.2942
 6319SOL     OW30592   4.514   4.241   1.529  0.1118  0.3505  0.0964
 6319SOL    HW130593   4.551   4.238   1.617  0.9703  2.6590 -0.1988
 6319SOL    HW230594   4.583   4.242   1.463  0.8263 -1.7662  0.8102
 6320SOL     OW30595   3.236   3.481   0.796 -0.6352 -0.0672  0.3503
 6320SOL    HW130596   3.167   3.492   0.731  0.0211 -2.2180 -0.6791
 6320SOL    HW230597   3.271   3.396   0.772 -2.0603 -0.3841 -0.5753
 6321SOL     OW30598   4.646   3.658   5.507 -0.8293  0.0112  0.5515
 6321SOL    HW130599   4.610   3.585   5.456 -0.3784 -1.2783  2.0951
 6321SOL    HW230600   4.576   3.720   5.484  0.6645  1.5948  0.2290
 6322SOL     OW30601   1.241   1.944   1.598 -0.2846  0.2283 -0.3044
 6322SOL    HW130602   1.255   1.882   1.526  0.2840  1.2077 -1.0378
 6322SOL    HW230603   1.326   1.942   1.641 -1.0063 -0.9014  1.0444
 6323SOL     OW30604   1.695   2.781  17.673  0.8951  0.5427 -0.0488
 6323SOL    HW130605   1.621   2.806  17.728 -0.0665  3.0869 -2.4833
 6323SOL    HW230606   1.769   2.776  17.733  0.3401  2.9142  0.8115
 6324SOL     OW30607   0.830   3.792  14.749  0.2859  0.2176 -0.4453
 6324SOL    HW130608   0.868   3.708  14.722 -0.2962 -0.6143  1.3246
 6324SOL    HW230609   0.798   3.830  14.668 -2.0578  0.9128  0.7970
 6325SOL     OW30610   3.404   0.611  11.805  0.8529 -0.4933  0.0312
 6325SOL    HW130611   3.361   0.590  11.722  0.8351  2.7655 -0.7789
 6325SOL    HW230612   3.416   0.702  11.779 -1.7529 -0.6016 -1.5937
 6326SOL     OW30613   4.407   4.427  14.906  0.3085  0.0827  0.2450
 6326SOL    HW130614   4.405   4.334  14.883 -0.4426  0.1361  0.0759
 6326SOL    HW230615   4.502   4.432  14.903  0.3799 -1.7390 -0.5692
 6327SOL     OW30616   1.020   0.786   9.394 -0.0010  0.1135  0.0859
 6327SOL    HW130617   1.034   0.814   9.304  3.2819  0.4284  0.6769
 6327SOL    HW230618   0.978   0.861   9.437 -0.8426 -0.8320  0.9323
 6328SOL     OW30619   1.463   2.530   6.069 -0.8148  0.5924 -0.4109
 6328SOL    HW130620   1.503   2.491   6.147 -3.7620 -2.9540 -0.6586
 6328SOL    HW230621   1.409   2.601   6.104  1.6137  0.7168  3.1241
 6329SOL     OW30622   1.226   3.439  10.281 -0.0073 -0.3412  0.1609
 6329SOL    HW130623   1.297   3.463  10.339 -0.8203 -0.1936  1.0946
 6329SOL    HW230624   1.160   3.405  10.342  1.3522 -0.4759  1.5351
 6330SOL     OW30625   1.921   0.806   7.465 -0.4875  0.9743 -0.1423
 6330SOL    HW130626   1.927   0.891   7.421 -2.6439  2.2172  1.9551
 6330SOL    HW230627   1.861   0.772   7.398  0.3463  1.6025 -1.2120
 6331SOL     OW30628   4.388   4.727   2.385 -0.1804 -0.0893 -0.3032
 6331SOL    HW130629   4.444   0.017   2.313  0.5125 -0.2012  0.1936
 6331SOL    HW230630   4.390   0.057   2.452 -0.1065 -0.4984  0.1165
 6332SOL     OW30631   0.927   4.444   7.233  0.5298  0.3749  0.3467
 6332SOL    HW130632   0.858   4.503   7.201 -1.3223 -1.4093  1.0119
 6332SOL    HW230633   1.011   4.485   7.212  0.5256 -0.4144 -1.1927
 6333SOL     OW30634   0.042   2.250   1.045  0.4457 -0.5113  0.4127
 6333SOL    HW130635   4.688   2.239   1.021  1.1310 -2.4161 -1.2988
 6333SOL    HW230636   0.061   2.334   1.003 -6.0519  1.0748  0.7528
 6334SOL     OW30637   1.763   0.929   2.568  0.2925  0.0065  0.0373
 6334SOL    HW130638   1.750   1.004   2.626  0.1206  0.3678 -0.4615
 6334SOL    HW230639   1.747   0.860   2.632  1.6748 -0.4374 -0.0960
 6335SOL     OW30640   1.926   4.551   2.113 -1.0293  0.2563  0.4294
 6335SOL    HW130641   1.831   4.554   2.109 -0.8755  2.0625 -1.9594
 6335SOL    HW230642   1.953   4.611   2.043  0.7825  1.2687  1.9789
 6336SOL     OW30643   3.220   1.201   7.007  1.0155 -0.2782 -0.1265
 6336SOL    HW130644   3.272   1.277   7.030 -0.8816  0.5631  1.3923
 6336SOL    HW230645   3.191   1.177   7.095  1.0520  1.7182  0.4234
 6337SOL     OW30646   4.662   1.885   2.897  0.0272 -0.0499  0.9192
 6337SOL    HW130647   4.711   1.908   2.818  0.5006 -1.2485  0.8777
 6337SOL    HW230648   0.002   1.877   2.953  1.6527  3.5902 -0.8130
 6338SOL     OW30649   1.344   4.073  14.752 -0.0859  0.3925  0.3295
 6338SOL    HW130650   1.258   4.045  14.782 -0.3643 -0.1772 -1.0438
 6338SOL    HW230651   1.333   4.168  14.739  0.3959  0.2447 -1.1465
 6339SOL     OW30652   4.372   4.006  11.520 -0.5585  0.3519 -0.3878
 6339SOL    HW130653   4.334   4.094  11.517 -1.0483  0.1622  0.1920
 6339SOL    HW230654   4.323   3.976  11.597  2.1214 -1.2627  0.6658
 6340SOL     OW30655   0.507   0.477   4.979  0.1196  0.4876 -0.2264
 6340SOL    HW130656   0.597   0.510   4.987  0.1454  0.1836  0.7149
 6340SOL    HW230657   0.470   0.538   4.915 -1.0780  1.1310  1.0797
 6341SOL     OW30658   3.877   0.493   2.824 -0.1525 -0.1333 -0.1938
 6341SOL    HW130659   3.890   0.436   2.900  2.7514 -3.1991 -2.9990
 6341SOL    HW230660   3.969   0.501   2.798  0.0532  1.8448  1.1853
 6342SOL     OW30661   1.926   0.238   2.934 -0.2600 -0.0466  0.6967
 6342SOL    HW130662   2.005   0.259   2.884 -0.2853  1.7232  1.4135
 6342SOL    HW230663   1.875   0.315   2.910  1.1462  0.1473 -1.6546
 6343SOL     OW30664   2.937   2.473   6.303  0.5119  0.2226 -0.2175
 6343SOL    HW130665   2.905   2.400   6.356 -0.2740  1.6139  1.2392
 6343SOL    HW230666   3.022   2.440   6.276  0.0216 -0.5588 -0.7759
 6344SOL     OW30667   1.467   3.940   5.366  0.5058 -0.2917  0.2555
 6344SOL    HW130668   1.520   3.866   5.339  0.7535  0.5864 -1.6895
 6344SOL    HW230669   1.454   3.998   5.290  0.1259 -0.1726  0.4094
 6345SOL     OW30670   3.968   4.519   8.103  0.4903 -0.6915 -0.1451
 6345SOL    HW130671   3.912   4.481   8.035  2.3926 -2.0206 -1.0092
 6345SOL    HW230672   3.956   4.447   8.164 -1.4310  0.2017  0.5178
 6346SOL     OW30673   2.745   0.385   2.934 -0.0449 -0.8650 -0.1718
 6346SOL    HW130674   2.836   0.403   2.910 -1.2017  3.0713 -1.6246
 6346SOL    HW230675   2.701   0.424   2.859 -2.2016 -1.7819  0.6154
 6347SOL     OW30676   3.715   2.575   3.696  0.3998  0.0253  0.3510
 6347SOL    HW130677   3.789   2.523   3.729  0.9569  0.1583 -0.6879
 6347SOL    HW230678   3.735   2.586   3.603  0.2376 -3.4741 -0.1265
 6348SOL     OW30679   1.187   2.701   2.543 -0.2897  0.3912 -0.4086
 6348SOL    HW130680   1.150   2.762   2.607 -1.0603  1.8881 -2.2909
 6348SOL    HW230681   1.240   2.768   2.499  0.5113  0.7055  1.0170
 6349SOL     OW30682   4.080   0.153   9.691 -0.1076  0.3873 -0.0932
 6349SOL    HW130683   4.121   0.207   9.623 -0.9166  1.1080 -0.0035
 6349SOL    HW230684   4.029   0.096   9.633 -1.4185  0.8696  0.5898
 6350SOL     OW30685   3.192   1.294   0.715  0.3008 -0.1611  0.0486
 6350SOL    HW130686   3.224   1.273   0.627  1.3632 -1.5318  0.7616
 6350SOL    HW230687   3.225   1.230   0.779 -0.4970 -0.4830  0.1344
 6351SOL     OW30688   4.204   2.642   5.899  0.8038 -0.4973  0.4212
 6351SOL    HW130689   4.202   2.558   5.946 -0.2516 -0.3369  0.6593
 6351SOL    HW230690   4.161   2.704   5.958  1.9495 -0.3353  1.0749
 6352SOL     OW30691   3.623   2.861   8.166 -0.5631  0.2355 -0.1554
 6352SOL    HW130692   3.558   2.827   8.227  1.4081 -3.7155 -0.2715
 6352SOL    HW230693   3.576   2.862   8.083 -1.2782  1.5705  0.2748
 6353SOL     OW30694   4.423   3.056   1.941  0.0939 -0.4472 -0.2788
 6353SOL    HW130695   4.375   2.983   1.980 -0.3878  0.0225  0.0097
 6353SOL    HW230696   4.485   3.013   1.882 -0.5009  1.8056 -2.5636
 6354SOL     OW30697   4.444   1.420  10.274 -1.0669  0.8092 -0.0892
 6354SOL    HW130698   4.442   1.333  10.235 -1.0010 -0.3131  2.4447
 6354SOL    HW230699   4.502   1.452  10.205 -1.0206 -0.0532 -0.4487
 6355SOL     OW30700   0.116   3.861   4.801 -0.6155 -0.1011 -0.1542
 6355SOL    HW130701   0.061   3.790   4.768 -0.1310 -0.3126 -0.5202
 6355SOL    HW230702   0.194   3.854   4.745 -0.4602  3.0755 -0.3485
 6356SOL     OW30703   3.436   1.661   6.437 -0.1189 -0.0646  0.5732
 6356SOL    HW130704   3.454   1.626   6.350  1.5339  0.5234  0.6810
 6356SOL    HW230705   3.393   1.743   6.414  0.0793  0.0234  0.5167
 6357SOL     OW30706   2.347   4.233   7.189  0.0199 -0.2466 -0.6579
 6357SOL    HW130707   2.352   4.138   7.181  0.6511 -0.4833  2.2820
 6357SOL    HW230708   2.262   4.234   7.233 -0.1735  0.3246 -1.0485
 6358SOL     OW30709   3.873   4.693   0.962  0.2748 -0.0988 -0.4192
 6358SOL    HW130710   3.926   0.014   1.015  2.5377 -0.3685 -2.3873
 6358SOL    HW230711   3.917   4.608   0.968  0.2723  0.0253  1.4013
 6359SOL     OW30712   2.257   2.625   0.467 -0.0496 -0.5643  0.4043
 6359SOL    HW130713   2.261   2.690   0.538  2.3888 -1.1079  0.7612
 6359SOL    HW230714   2.349   2.634   0.442 -0.6852  3.7500 -0.2835
 6360SOL     OW30715   1.304   4.502   6.548 -0.0582  0.1123 -0.1858
 6360SOL    HW130716   1.310   4.567   6.478  1.4625  0.5940  0.3899
 6360SOL    HW230717   1.367   4.435   6.520  0.0719  0.2843 -0.3053
 6361SOL     OW30718   1.174   0.713   3.885  0.1727  0.5157 -0.0573
 6361SOL    HW130719   1.240   0.667   3.833  1.2999  1.8474  0.2212
 6361SOL    HW230720   1.118   0.763   3.825 -0.4272 -0.1758 -0.0834
 6362SOL     OW30721   4.496   3.605   9.219  0.4499 -0.2139 -0.6235
 6362SOL    HW130722   4.562   3.616   9.151  1.1578  1.0308  0.2839
 6362SOL    HW230723   4.487   3.697   9.243  2.2883 -0.1482 -0.1910
 6363SOL     OW30724   3.300   3.917  15.346 -0.4503 -0.3950  0.7127
 6363SOL    HW130725   3.382   3.872  15.366 -1.6052 -2.9332 -0.3055
 6363SOL    HW230726   3.330   3.977  15.278  2.6691 -0.4791  2.0174
 6364SOL     OW30727   3.536   2.803   4.033 -0.0483  0.9684  0.0129
 6364SOL    HW130728   3.478   2.781   3.960  0.7444 -0.8329 -0.0534
 6364SOL    HW230729   3.572   2.717   4.053 -2.0458 -0.5622 -2.9681
 6365SOL     OW30730   0.562   3.618   4.911  0.2954 -0.0503  0.3075
 6365SOL    HW130731   0.479   3.666   4.920  1.1391  1.4324  0.2544
 6365SOL    HW230732   0.562   3.559   4.986 -1.4312  0.9875  1.1310
 6366SOL     OW30733   0.358   2.283   5.148  0.3326 -0.1323  0.1591
 6366SOL    HW130734   0.313   2.354   5.192  2.9411  0.6328  1.6065
 6366SOL    HW230735   0.335   2.209   5.204 -0.4645  0.4296  0.5692
 6367SOL     OW30736   0.128   4.449   1.203 -0.3163  0.3499 -0.3066
 6367SOL    HW130737   0.171   4.365   1.188  0.0363  0.3993  0.4547
 6367SOL    HW230738   0.073   4.448   1.125 -0.4446 -1.3599 -0.1860
 6368SOL     OW30739   4.021   2.084   2.221 -0.0378 -0.2307  0.5427
 6368SOL    HW130740   3.996   2.174   2.198 -2.1983 -0.7471  0.8524
 6368SOL    HW230741   4.083   2.110   2.288  2.1058 -0.7716 -1.2244
 6369SOL     OW30742   0.418   1.047   8.897  0.3187 -0.5400  0.3993
 6369SOL    HW130743   0.386   1.125   8.942  2.8916  1.5534 -1.4424
 6369SOL    HW230744   0.478   1.018   8.966  0.9510  0.3199  0.2081
 6370SOL     OW30745   3.418   1.592   1.313  0.4997  0.0193  0.4199
 6370SOL    HW130746   3.396   1.638   1.394 -2.2114 -1.7928  0.7113
 6370SOL    HW230747   3.341   1.538   1.297  0.5944 -0.3132  1.0832
 6371SOL     OW30748   3.401   1.874  16.890  0.6249  0.1932 -0.4123
 6371SOL    HW130749   3.446   1.906  16.967 -0.6275 -1.8517  1.1787
 6371SOL    HW230750   3.469   1.823  16.846  1.4594  0.7036  0.3013
 6372SOL     OW30751   3.695   1.195   6.705  0.0931  0.1902  0.0428
 6372SOL    HW130752   3.715   1.226   6.617  0.1981  0.4456  0.1567
 6372SOL    HW230753   3.782   1.198   6.743 -0.8738 -1.4017  2.3974
 6373SOL     OW30754   0.451   0.829   9.422  0.4773 -0.2315 -0.2527
 6373SOL    HW130755   0.406   0.817   9.338 -0.6057  0.9718  0.1424
 6373SOL    HW230756   0.392   0.897   9.456  0.2293  0.0208 -1.1833
 6374SOL     OW30757   0.586   3.072   8.331  0.2975 -0.3272  0.2354
 6374SOL    HW130758   0.529   3.149   8.330  1.3812  0.4940  0.6989
 6374SOL    HW230759   0.538   3.022   8.265 -0.9357 -0.3796  1.1989
 6375SOL     OW30760   3.798   3.819   4.162 -0.1832 -0.4843  0.3793
 6375SOL    HW130761   3.756   3.856   4.240 -0.4794 -0.6134  0.2815
 6375SOL    HW230762   3.889   3.847   4.170 -0.4555  0.6422 -0.2996
 6376SOL     OW30763   1.937   4.542   9.339  0.3410  0.6435 -0.5689
 6376SOL    HW130764   1.910   4.623   9.381  0.7384  0.9149 -0.8338
 6376SOL    HW230765   1.865   4.487   9.370  2.5857 -2.4641 -0.9232
 6377SOL     OW30766   1.555   1.873   0.312 -0.2283 -0.0737  0.0860
 6377SOL    HW130767   1.635   1.897   0.265 -1.4264  0.0663 -1.8497
 6377SOL    HW230768   1.486   1.867   0.246 -1.4886 -0.6406  1.4376
 6378SOL     OW30769   2.692   2.812   7.516  0.2380  0.1673 -0.0618
 6378SOL    HW130770   2.732   2.860   7.444 -3.3709  1.4885 -1.1472
 6378SOL    HW230771   2.756   2.748   7.548 -0.9310 -1.4911 -1.0496
 6379SOL     OW30772   3.277   4.439   4.671  0.2646 -0.2764  0.1133
 6379SOL    HW130773   3.210   4.374   4.652 -1.5147  1.4605  0.4593
 6379SOL    HW230774   3.238   4.521   4.639  0.2883  0.2010  1.2921
 6380SOL     OW30775   0.665   2.032   7.545 -0.2733 -0.0893  0.2277
 6380SOL    HW130776   0.710   2.105   7.503 -0.5044 -0.0413  0.0682
 6380SOL    HW230777   0.736   1.992   7.596  0.3550 -1.6242 -1.8835
 6381SOL     OW30778   0.902   1.222  11.199  0.4337 -0.0383 -0.6267
 6381SOL    HW130779   0.944   1.144  11.162  2.0608  0.1315  0.8675
 6381SOL    HW230780   0.847   1.254  11.127 -0.7883 -0.6102  0.0576
 6382SOL     OW30781   0.786   2.850  12.871 -0.4724 -0.3334 -0.4637
 6382SOL    HW130782   0.798   2.906  12.948 -1.2403 -1.2609  0.3310
 6382SOL    HW230783   0.695   2.868  12.848 -0.4502 -0.3195 -0.5390
 6383SOL     OW30784   4.294   1.163   3.331 -0.0018 -0.3115 -0.6643
 6383SOL    HW130785   4.224   1.110   3.370  1.4340 -1.3218  0.5402
 6383SOL    HW230786   4.372   1.109   3.338  1.1251  1.1731 -1.7123
 6384SOL     OW30787   4.016   0.020   4.348 -0.1844 -0.4877  0.0932
 6384SOL    HW130788   3.946   0.006   4.412  0.4502 -1.6368  0.5445
 6384SOL    HW230789   4.096   4.719   4.383  0.3525  0.5000 -0.0404
 6385SOL     OW30790   2.266   1.603  17.620  0.4998 -0.6984  0.0761
 6385SOL    HW130791   2.203   1.674  17.615 -2.7882 -3.5675  0.7127
 6385SOL    HW230792   2.210   1.525  17.617  0.6315 -0.7620 -1.0393
 6386SOL     OW30793   2.408   1.296  12.256 -0.3500 -0.2067  0.2733
 6386SOL    HW130794   2.476   1.321  12.193 -0.9128 -0.4195 -0.4157
 6386SOL    HW230795   2.437   1.206  12.274 -0.2997 -0.0812  0.8250
 6387SOL     OW30796   4.411   2.077   5.528  0.2988 -0.0758 -0.0047
 6387SOL    HW130797   4.318   2.058   5.527  0.6889 -1.9436 -0.7802
 6387SOL    HW230798   4.406   2.160   5.481  0.4923 -0.6233 -0.9917
 6388SOL     OW30799   1.797   0.277  17.318  0.1386 -0.3729  0.3151
 6388SOL    HW130800   1.799   0.281  17.413  0.4431 -3.4040  0.4578
 6388SOL    HW230801   1.716   0.227  17.304 -0.0064 -0.4391  1.4043
 6389SOL     OW30802   2.420   0.476   1.702  0.3628  0.2087 -0.0713
 6389SOL    HW130803   2.348   0.417   1.726 -0.5188  2.3747  2.5760
 6389SOL    HW230804   2.488   0.454   1.764 -0.6299  1.5736  1.5009
 6390SOL     OW30805   2.720   1.820  12.213 -0.1571 -0.1186  0.1312
 6390SOL    HW130806   2.747   1.876  12.286  1.1854 -1.8857  0.9973
 6390SOL    HW230807   2.635   1.860  12.195 -0.1251 -0.3109 -0.4462
 6391SOL     OW30808   3.438   4.223   3.157  0.2420 -0.0657 -0.3989
 6391SOL    HW130809   3.488   4.191   3.082  0.9002  2.6721 -1.1393
 6391SOL    HW230810   3.349   4.226   3.120  0.8545  2.6020 -1.7168
 6392SOL     OW30811   1.713   1.019  10.339 -0.1881 -0.0545  0.1668
 6392SOL    HW130812   1.691   1.011  10.247  3.1383 -0.5069 -0.5901
 6392SOL    HW230813   1.631   1.036  10.386 -0.9822 -0.1449 -1.1868
 6393SOL     OW30814   3.779   4.584   4.779 -0.1908  0.3504 -0.0963
 6393SOL    HW130815   3.745   4.495   4.772 -0.4380  0.5473 -1.3731
 6393SOL    HW230816   3.708   4.631   4.822  0.2150 -1.3926  2.5021
 6394SOL     OW30817   1.399   2.010  17.355  0.3613 -0.7193 -0.1293
 6394SOL    HW130818   1.314   1.994  17.395  0.7315 -1.8755  0.2068
 6394SOL    HW230819   1.384   1.990  17.263  1.5684  1.2577 -0.7623
 6395SOL     OW30820   3.515   3.543  11.185  0.1666  0.4057  0.5098
 6395SOL    HW130821   3.494   3.461  11.230 -0.8760  1.2099  1.5039
 6395SOL    HW230822   3.512   3.606  11.258 -0.4444  0.0266  0.8117
 6396SOL     OW30823   4.566   1.302  17.047  0.1889  0.3244 -0.7127
 6396SOL    HW130824   4.552   1.264  16.960  0.3166 -1.0805 -0.1232
 6396SOL    HW230825   4.555   1.224  17.102 -0.1996  0.0849 -1.1234
 6397SOL     OW30826   0.242   2.222  14.386  0.1747  0.4976 -0.4230
 6397SOL    HW130827   0.212   2.274  14.310 -3.7319  1.0311  1.4825
 6397SOL    HW230828   0.154   2.190  14.402  1.4820 -2.6452  0.3968
 6398SOL     OW30829   3.922   0.578   5.242 -0.1343 -0.1592 -0.2403
 6398SOL    HW130830   3.841   0.544   5.203  0.1405  0.7358 -1.5983
 6398SOL    HW230831   3.922   0.544   5.331  2.4643  0.7916  0.1147
 6399SOL     OW30832   3.961   1.765  10.959  0.2185  0.7076  0.2280
 6399SOL    HW130833   3.976   1.784  11.052  1.0962 -1.1972  0.4730
 6399SOL    HW230834   4.045   1.793  10.921 -0.2517  1.9093  0.0895
 6400SOL     OW30835   1.260   3.877   5.754 -0.5225  0.1579 -0.5133
 6400SOL    HW130836   1.326   3.824   5.710 -0.4258  1.4419 -1.9306
 6400SOL    HW230837   1.319   3.942   5.792 -1.1030  0.3462  0.0552
 6401SOL     OW30838   2.083   0.578   5.362 -0.6931  0.1195  0.5149
 6401SOL    HW130839   2.031   0.513   5.409 -1.2244  1.5314  1.8758
 6401SOL    HW230840   2.166   0.531   5.372 -0.3246  0.9227  1.3030
 6402SOL     OW30841   2.067   1.218  10.992 -0.3637  0.0314 -0.2679
 6402SOL    HW130842   2.048   1.291  11.051 -1.0712  0.9822 -1.6603
 6402SOL    HW230843   2.047   1.154  11.060  1.8920 -1.6718 -1.2257
 6403SOL     OW30844   0.307   3.990   2.192 -0.2579 -0.1343 -0.2104
 6403SOL    HW130845   0.387   3.960   2.149  0.3317  1.7356 -0.4066
 6403SOL    HW230846   0.269   3.902   2.199  0.3110 -0.2682  1.2863
 6404SOL     OW30847   0.249   0.998   3.936 -0.2561 -0.2009  0.1046
 6404SOL    HW130848   0.301   1.070   3.973  0.6476 -0.2255 -1.1213
 6404SOL    HW230849   0.309   0.925   3.953 -0.0454 -0.7095 -2.7125
 6405SOL     OW30850   1.521   3.018  13.186 -0.7242  0.0070 -0.2678
 6405SOL    HW130851   1.531   3.113  13.194  0.2068 -0.0728 -0.4690
 6405SOL    HW230852   1.460   3.004  13.113 -1.2404  0.3779  0.0933
 6406SOL     OW30853   3.123   4.669   7.087  0.5292 -0.1678  0.2291
 6406SOL    HW130854   3.162   0.015   7.113  0.8746 -0.2085 -0.1703
 6406SOL    HW230855   3.194   4.639   7.031  0.6440  1.5621 -0.5701
 6407SOL     OW30856   2.894   3.740   3.893 -0.2294  0.2549 -0.0602
 6407SOL    HW130857   2.985   3.736   3.923 -1.5648  1.3577  4.0618
 6407SOL    HW230858   2.865   3.649   3.895 -0.9244  0.4619 -0.6232
 6408SOL     OW30859   2.526   3.873   8.568  0.0981  0.1636  0.3277
 6408SOL    HW130860   2.447   3.905   8.613 -0.6552 -0.7345 -0.3476
 6408SOL    HW230861   2.548   3.794   8.617 -1.1717  1.2053  2.5904
 6409SOL     OW30862   3.461   1.662   2.983 -0.0794  0.3644  0.6753
 6409SOL    HW130863   3.446   1.583   3.033  0.0223  0.7868  1.3712
 6409SOL    HW230864   3.490   1.623   2.901 -0.9846 -4.0324  2.4874
 6410SOL     OW30865   2.858   3.141   6.023  0.5261 -0.1297  0.3960
 6410SOL    HW130866   2.797   3.077   5.987  0.5314 -0.7153  1.4199
 6410SOL    HW230867   2.795   3.206   6.054 -0.2043  0.6714 -2.7418
 6411SOL     OW30868   1.354   3.670   3.237  0.7205 -0.1879 -0.4382
 6411SOL    HW130869   1.301   3.649   3.314 -2.4369  0.2006 -2.5014
 6411SOL    HW230870   1.431   3.614   3.250  1.1829  1.0335  2.0993
 6412SOL     OW30871   1.284   0.986   6.645  0.0657  0.0100  0.2939
 6412SOL    HW130872   1.271   0.903   6.692 -0.3531  0.3568  0.7881
 6412SOL    HW230873   1.250   1.041   6.716 -0.5830 -2.4964  1.9565
 6413SOL     OW30874   1.785   1.957   6.533  0.4285  0.8655  0.3760
 6413SOL    HW130875   1.821   2.040   6.501  2.7204 -0.3492 -0.2518
 6413SOL    HW230876   1.851   1.893   6.505 -0.1741  0.8177 -0.9056
 6414SOL     OW30877   3.739   4.484   2.413  0.1418  0.4313 -0.1830
 6414SOL    HW130878   3.687   4.558   2.382 -1.2715 -0.5760 -0.1962
 6414SOL    HW230879   3.693   4.462   2.494  0.8592 -0.6159 -0.0602
 6415SOL     OW30880   1.118   3.243  13.135 -0.2084 -0.7560  0.5669
 6415SOL    HW130881   1.084   3.169  13.086  0.2910 -0.2956 -0.4815
 6415SOL    HW230882   1.111   3.219  13.227  2.0569 -2.4475  0.3029
 6416SOL     OW30883   0.762   0.028   2.169 -0.0735 -0.1275  0.7374
 6416SOL    HW130884   0.745   0.023   2.075  1.3503  2.0882  0.3779
 6416SOL    HW230885   0.725   4.681   2.194  0.2436 -0.5605 -0.2985
 6417SOL     OW30886   3.888   4.396  11.839  0.3983 -0.0982 -0.8444
 6417SOL    HW130887   3.933   4.444  11.769  0.3065  0.3623 -0.5888
 6417SOL    HW230888   3.808   4.390  11.788  0.1927 -0.3790 -0.4871
 6418SOL     OW30889   3.842   3.613   0.809  0.3659 -0.0883  0.1674
 6418SOL    HW130890   3.813   3.539   0.755  0.7581  0.1686 -0.4013
 6418SOL    HW230891   3.780   3.591   0.878  1.7896 -0.7515  1.2369
 6419SOL     OW30892   3.656   0.309  10.776 -0.2356 -0.0027 -0.3609
 6419SOL    HW130893   3.657   0.371  10.848 -2.8133 -0.3357 -0.0425
 6419SOL    HW230894   3.745   0.316  10.742  0.7171 -1.0256  1.9644
 6420SOL     OW30895   3.006   1.449  14.052 -0.2223  0.0085  0.3122
 6420SOL    HW130896   3.005   1.513  14.123 -1.2061 -1.0102  1.1981
 6420SOL    HW230897   3.079   1.398  14.087 -0.5203 -1.5713 -1.3450
 6421SOL     OW30898   1.520   0.650   7.405  0.8021 -0.4198  0.2454
 6421SOL    HW130899   1.427   0.659   7.426  0.6944 -0.8560 -0.0479
 6421SOL    HW230900   1.520   0.664   7.310  0.9241  0.4430  0.3719
 6422SOL     OW30901   3.987   0.370   9.168 -0.0623  0.0314  0.1923
 6422SOL    HW130902   3.951   0.318   9.240 -2.4856  2.0084  0.3786
 6422SOL    HW230903   4.080   0.368   9.192 -0.0881 -1.1216  0.2038
 6423SOL     OW30904   3.313   1.759   3.372  0.5493  0.4758 -0.4423
 6423SOL    HW130905   3.308   1.730   3.281  0.7528 -3.3149  0.7534
 6423SOL    HW230906   3.247   1.827   3.374  0.3057  0.1897  1.0224
 6424SOL     OW30907   2.903   2.408   8.401 -0.1164  0.6846 -0.2616
 6424SOL    HW130908   2.829   2.379   8.348 -0.5575 -0.8104  1.1991
 6424SOL    HW230909   2.942   2.321   8.396 -0.6184  0.5323 -1.5753
 6425SOL     OW30910   2.425   1.786  12.425 -0.0875 -0.3283  0.7907
 6425SOL    HW130911   2.454   1.774  12.515  1.1382  0.6833  0.5325
 6425SOL    HW230912   2.427   1.881  12.410  1.0997 -0.5909 -0.7490
 6426SOL     OW30913   1.676   2.475   5.363 -0.0358  0.2925 -0.5519
 6426SOL    HW130914   1.668   2.552   5.420  2.5678 -2.3038  3.3715
 6426SOL    HW230915   1.697   2.517   5.280 -2.6349  0.8722 -0.8983
 6427SOL     OW30916   0.046   3.909   8.979  0.0366 -0.3224  0.0184
 6427SOL    HW130917   0.119   3.873   9.029  1.2232  2.1300  0.0505
 6427SOL    HW230918   0.006   3.971   9.039 -1.8737 -0.9248 -0.6302
 6428SOL     OW30919   0.405   0.876   2.766 -0.1500  0.3357 -0.0389
 6428SOL    HW130920   0.400   0.887   2.861 -2.3620 -0.7442 -0.0251
 6428SOL    HW230921   0.461   0.952   2.746  0.6044 -0.2397 -0.0913
 6429SOL     OW30922   2.382   2.063  12.499  0.3064  0.1168  0.2138
 6429SOL    HW130923   2.356   2.144  12.542 -0.1397 -1.1917  2.3935
 6429SOL    HW230924   2.302   2.017  12.475  0.0791  0.5055  0.2323
 6430SOL     OW30925   0.160   1.098   6.558 -0.8188 -0.2616 -0.1057
 6430SOL    HW130926   0.174   1.154   6.635  0.4694 -0.8509  0.0857
 6430SOL    HW230927   0.251   1.081   6.536 -1.0099  0.7050 -1.6502
 6431SOL     OW30928   3.933   2.634   7.083  0.4441 -0.7940 -0.1063
 6431SOL    HW130929   3.963   2.682   7.006  1.4541  0.7333  1.2531
 6431SOL    HW230930   3.997   2.645   7.153  1.3276  2.5659 -1.4456
 6432SOL     OW30931   1.022   4.199  15.602 -0.5726  0.5031 -0.2404
 6432SOL    HW130932   1.042   4.226  15.691 -0.9947  1.4373 -0.4258
 6432SOL    HW230933   0.977   4.281  15.579 -1.1512  0.1935 -0.2100
 6433SOL     OW30934   0.228   1.099   3.415  0.3689  0.0916 -0.1785
 6433SOL    HW130935   0.234   1.010   3.381  1.3708  0.1797 -0.2211
 6433SOL    HW230936   0.234   1.082   3.509  0.6780 -0.1915 -0.2520
 6434SOL     OW30937   0.141   3.044   4.448 -0.7082  0.0938  0.9257
 6434SOL    HW130938   0.108   3.022   4.535  1.1609 -1.1587  1.3182
 6434SOL    HW230939   0.234   3.059   4.464  0.0770 -2.4609 -1.3002
 6435SOL     OW30940   0.395   3.343   2.527  0.1816  0.2230 -1.0914
 6435SOL    HW130941   0.478   3.323   2.484  0.5024 -0.9121  0.0453
 6435SOL    HW230942   0.424   3.388   2.606 -0.7992  0.7415 -1.0320
 6436SOL     OW30943   4.267   1.005   3.067 -0.2486 -0.3936  0.2534
 6436SOL    HW130944   4.352   0.975   3.100 -0.2738 -0.3015  0.4018
 6436SOL    HW230945   4.214   0.927   3.087 -1.7963  1.1663  2.2398
 6437SOL     OW30946   1.657   3.102   6.838 -0.0305 -1.0237  0.7904
 6437SOL    HW130947   1.747   3.111   6.806  0.1279 -1.6681  1.0464
 6437SOL    HW230948   1.624   3.028   6.786 -0.2664 -0.2017 -0.2204
 6438SOL     OW30949   4.338   2.025  10.643 -0.1595  0.8560  0.2192
 6438SOL    HW130950   4.408   2.020  10.578 -0.5050 -0.2737 -0.0806
 6438SOL    HW230951   4.264   2.038  10.583  0.5252 -1.5154 -1.1435
 6439SOL     OW30952   2.956   1.075   4.024  0.5472  0.8503 -0.4062
 6439SOL    HW130953   3.000   1.128   4.089  0.5614  0.6313 -0.2357
 6439SOL    HW230954   2.928   1.001   4.078 -0.3540  1.0768 -0.5493
 6440SOL     OW30955   1.672   1.581   4.359  0.2643  0.1621 -0.2836
 6440SOL    HW130956   1.637   1.518   4.295  3.3520 -4.2262  2.3781
 6440SOL    HW230957   1.605   1.565   4.424  1.1164  1.6550  0.9762
 6441SOL     OW30958   0.113   4.707   9.888  0.3413 -0.0389  0.3913
 6441SOL    HW130959   0.043   0.013   9.936 -0.8404  0.2225 -1.5427
 6441SOL    HW230960   0.174   4.720   9.960 -0.0295  0.8290  0.5508
 6442SOL     OW30961   3.488   1.795   6.014  0.5905 -0.1201  0.2656
 6442SOL    HW130962   3.480   1.815   6.107  1.9641  0.2146  0.3184
 6442SOL    HW230963   3.401   1.764   5.991  0.7225 -0.6268  0.4575
 6443SOL     OW30964   1.502   1.730   2.942 -0.2413  0.5128  0.1697
 6443SOL    HW130965   1.536   1.649   2.903 -1.5408  0.5552 -1.0342
 6443SOL    HW230966   1.431   1.740   2.879 -0.8342 -0.7527  0.6408
 6444SOL     OW30967   2.548   1.413   8.021 -0.5122  0.1653  0.4079
 6444SOL    HW130968   2.484   1.354   7.981 -0.8847  1.3421 -0.7272
 6444SOL    HW230969   2.615   1.354   8.056  0.0842 -0.3477 -1.6021
 6445SOL     OW30970   3.858   3.998  17.303  0.0259 -0.3030 -0.2703
 6445SOL    HW130971   3.784   3.953  17.342 -0.5603 -0.3342 -1.4115
 6445SOL    HW230972   3.929   3.987  17.366  0.0429 -2.3653 -0.6564
 6446SOL     OW30973   1.377   0.085   3.952 -0.3311  0.0384 -0.0645
 6446SOL    HW130974   1.312   0.064   3.886  0.5560  0.3276 -1.0234
 6446SOL    HW230975   1.458   0.051   3.913 -1.2014 -0.0386 -1.7750
 6447SOL     OW30976   4.281   3.202   8.391  0.4805 -0.2670 -0.4950
 6447SOL    HW130977   4.229   3.124   8.374  1.5088 -1.4323  1.7424
 6447SOL    HW230978   4.207   3.263   8.392  0.1899 -0.6535  1.9525
 6448SOL     OW30979   2.611   1.296  13.158 -0.1045 -0.4620  0.2196
 6448SOL    HW130980   2.672   1.306  13.231 -0.5048  1.3139  0.3243
 6448SOL    HW230981   2.577   1.212  13.189 -0.9898 -0.3387 -0.4115
 6449SOL     OW30982   2.127   3.864   1.713 -0.0100  0.4643 -0.1474
 6449SOL    HW130983   2.215   3.891   1.742 -0.1752  0.3257  0.4865
 6449SOL    HW230984   2.126   3.902   1.625 -0.5990 -1.6428 -1.0318
 6450SOL     OW30985   1.647   2.967   8.568 -0.0617  0.3070  0.9415
 6450SOL    HW130986   1.573   2.918   8.602 -0.2743  0.8821  1.3110
 6450SOL    HW230987   1.650   2.935   8.478  2.8514  1.5843  0.5706
 6451SOL     OW30988   0.541   0.593   8.866  0.6136 -0.3577 -0.8833
 6451SOL    HW130989   0.626   0.550   8.876  0.3885 -0.7262 -0.6041
 6451SOL    HW230990   0.484   0.517   8.872  1.3734 -0.9015 -0.6614
 6452SOL     OW30991   1.611   1.455   7.322  0.4687 -0.2918 -0.1051
 6452SOL    HW130992   1.529   1.491   7.355  0.6459  0.0947 -0.0945
 6452SOL    HW230993   1.612   1.481   7.230 -2.1381 -1.0730 -0.3516
 6453SOL     OW30994   4.395   3.918   2.950 -0.0199 -0.6726  0.2476
 6453SOL    HW130995   4.319   3.976   2.949 -1.1478 -2.1473  0.3462
 6453SOL    HW230996   4.448   3.959   3.019 -1.9458  0.0586  1.3028
 6454SOL     OW30997   1.314   0.109   4.659 -0.2479  0.5322  1.0515
 6454SOL    HW130998   1.350   0.046   4.598  0.3258  1.3375  0.5657
 6454SOL    HW230999   1.221   0.099   4.637 -0.2737 -0.1699  1.4911
 6455SOL     OW31000   2.987   0.735   9.242 -0.1078 -0.1273 -0.0375
 6455SOL    HW131001   3.067   0.766   9.200  0.1807 -0.8615 -0.0198
 6455SOL    HW231002   2.921   0.798   9.211  0.1630 -0.0439 -0.4473
 6456SOL     OW31003   4.602   4.561   0.316  0.0998 -0.7817  0.5778
 6456SOL    HW131004   4.643   4.592   0.397  0.8889 -1.8765  0.5879
 6456SOL    HW231005   4.586   4.468   0.330 -0.3429 -0.9438 -1.0380
 6457SOL     OW31006   3.220   0.686   5.575  0.0359 -0.3119  0.0286
 6457SOL    HW131007   3.305   0.650   5.552 -0.3516 -1.5685  0.5720
 6457SOL    HW231008   3.167   0.664   5.498 -0.2378  0.1646  0.0763
 6458SOL     OW31009   1.174   1.834   6.147 -0.3633  1.3617 -0.4309
 6458SOL    HW131010   1.194   1.751   6.103 -0.6754  0.5142  1.0018
 6458SOL    HW231011   1.128   1.886   6.081 -1.3948  0.8450 -0.1229
 6459SOL     OW31012   2.623   3.443   3.274 -0.1096  0.7639 -0.4405
 6459SOL    HW131013   2.700   3.425   3.327 -0.3293 -1.6428 -0.9619
 6459SOL    HW231014   2.660   3.423   3.188 -1.2056 -0.0594 -0.7140
 6460SOL     OW31015   0.309   2.989   7.201 -0.2769 -0.9203  0.2774
 6460SOL    HW131016   0.371   3.062   7.213  1.3592 -1.9933 -1.6053
 6460SOL    HW231017   0.291   3.006   7.109 -3.2361  2.9400  1.5494
 6461SOL     OW31018   2.439   0.269   6.311  0.4296  0.4342  0.2509
 6461SOL    HW131019   2.467   0.317   6.233 -2.8415 -0.0075 -1.2245
 6461SOL    HW231020   2.378   0.207   6.272 -0.4405  2.2822 -1.3278
 6462SOL     OW31021   3.832   3.562   2.927 -0.7330  0.1083 -0.3541
 6462SOL    HW131022   3.919   3.564   2.967 -0.7286 -3.2399 -0.1772
 6462SOL    HW231023   3.805   3.653   2.910 -1.5488 -0.3952 -1.7578
 6463SOL     OW31024   0.091   4.399   0.203  0.2052 -0.0399 -0.2396
 6463SOL    HW131025   0.134   4.380   0.286  0.6910  0.2825 -0.4202
 6463SOL    HW231026   0.002   4.373   0.228  0.8011 -0.7942  1.1142
 6464SOL     OW31027   0.142   4.120   2.557  0.0600 -0.3617 -0.2243
 6464SOL    HW131028   0.097   4.121   2.472 -1.6539  3.3745  0.6923
 6464SOL    HW231029   0.227   4.164   2.554  0.3608 -0.8982  0.4274
 6465SOL     OW31030   1.097   4.188   4.574 -0.0886 -0.0782 -0.2664
 6465SOL    HW131031   1.064   4.131   4.504 -0.4688 -0.1667 -0.0125
 6465SOL    HW231032   1.054   4.154   4.652  0.5553 -0.3657 -0.0385
 6466SOL     OW31033   0.530   2.678   5.126 -0.4134  0.6120 -0.0502
 6466SOL    HW131034   0.440   2.646   5.121 -0.0149 -0.2956 -1.4270
 6466SOL    HW231035   0.567   2.634   5.050 -0.3601 -3.1187  2.1360
 6467SOL     OW31036   3.049   4.634  14.936  0.4091  0.1354  0.2649
 6467SOL    HW131037   2.989   4.562  14.959  1.7913 -0.8100  0.8707
 6467SOL    HW231038   3.118   4.619  15.000 -0.4141 -1.7790  0.7158
 6468SOL     OW31039   0.341   3.728  11.310 -0.0348  0.4300 -0.2973
 6468SOL    HW131040   0.421   3.676  11.299  0.2966 -0.1189  4.5853
 6468SOL    HW231041   0.360   3.822  11.310  1.3610  0.1304  1.8567
 6469SOL     OW31042   1.581   1.036   8.488  0.3778  0.5904 -0.1596
 6469SOL    HW131043   1.495   1.050   8.529  0.4363 -0.6154  0.3746
 6469SOL    HW231044   1.586   0.940   8.493  0.5134  0.7216  2.5576
 6470SOL     OW31045   1.218   4.572   3.586 -0.4954  0.4238  0.0101
 6470SOL    HW131046   1.286   4.505   3.592 -2.0068 -1.0650  0.4820
 6470SOL    HW231047   1.142   4.537   3.539  0.8425  0.8296 -2.4628
 6471SOL     OW31048   2.592   0.124   7.309  0.8848 -0.1162 -0.2521
 6471SOL    HW131049   2.543   0.042   7.303 -3.5526  2.4091  2.0635
 6471SOL    HW231050   2.601   0.131   7.214 -0.0545  2.7315 -0.0997
 6472SOL     OW31051   1.689   0.221   9.987 -0.7302 -0.0997  0.0909
 6472SOL    HW131052   1.751   0.258   9.924  1.2230 -1.2837  1.3155
 6472SOL    HW231053   1.605   0.240   9.946  0.4100 -0.9136 -2.5892
 6473SOL     OW31054   3.370   1.452   8.567  0.1358  0.1899  0.3065
 6473SOL    HW131055   3.418   1.535   8.573 -2.0162  1.2980  1.8670
 6473SOL    HW231056   3.387   1.406   8.649 -0.1822 -1.2005 -0.4037
 6474SOL     OW31057   0.957   3.818   8.050  0.2121  0.5581  0.0678
 6474SOL    HW131058   0.916   3.897   8.015 -0.8955 -0.6036 -1.2876
 6474SOL    HW231059   0.976   3.835   8.142 -0.6661 -0.7303  0.4957
 6475SOL     OW31060   1.573   1.505  13.478  0.2485  0.0176 -0.5330
 6475SOL    HW131061   1.584   1.412  13.498  0.8981  0.0940 -0.5450
 6475SOL    HW231062   1.664   1.531  13.488 -0.8127  4.0040 -1.4934
 6476SOL     OW31063   1.751   4.487   4.070 -0.6689 -0.2670  0.1445
 6476SOL    HW131064   1.802   4.568   4.065  0.2411 -0.8210  0.4511
 6476SOL    HW231065   1.798   4.443   3.999  0.4719  1.2297 -0.0305
 6477SOL     OW31066   3.222   4.038   9.301  0.2617 -0.1031 -0.4237
 6477SOL    HW131067   3.232   4.068   9.210  0.2908  1.2991  0.0406
 6477SOL    HW231068   3.136   3.998   9.292 -0.1356  0.6750 -0.0424
 6478SOL     OW31069   4.270   1.296   7.590 -0.6858  0.5778 -0.1365
 6478SOL    HW131070   4.248   1.342   7.671  2.3542  1.4129  0.1977
 6478SOL    HW231071   4.365   1.300   7.588 -0.6681  0.0049 -0.3493
 6479SOL     OW31072   2.175   2.881   5.352  0.1836 -0.2030  0.2525
 6479SOL    HW131073   2.137   2.954   5.303 -0.7416 -0.4687  0.5655
 6479SOL    HW231074   2.161   2.814   5.285  0.5145 -0.4845  0.4628
 6480SOL     OW31075   2.754   1.647  15.537  0.3585 -0.0045  0.4253
 6480SOL    HW131076   2.791   1.657  15.625  2.5348 -0.0909 -0.4961
 6480SOL    HW231077   2.666   1.675  15.562  0.9000 -1.5507  3.9749
 6481SOL     OW31078   2.534   3.603   9.937 -0.7802 -0.7884  0.3634
 6481SOL    HW131079   2.482   3.640  10.009  1.9978  2.8074  0.5029
 6481SOL    HW231080   2.620   3.637   9.961 -0.5873 -1.4963  0.6643
 6482SOL     OW31081   1.953   4.401   3.433 -0.0650 -0.1300  0.1476
 6482SOL    HW131082   1.858   4.400   3.424  0.3355  0.4644 -3.8479
 6482SOL    HW231083   1.981   4.441   3.351  0.3596 -0.5663  0.0837
 6483SOL     OW31084   0.654   3.742   4.385 -0.4520  0.3313 -0.3095
 6483SOL    HW131085   0.632   3.822   4.338 -0.3814  1.1733  1.1154
 6483SOL    HW231086   0.623   3.687   4.313 -1.0461 -0.5689  0.6271
 6484SOL     OW31087   4.072   0.410   7.988  0.1311  0.3690 -0.1646
 6484SOL    HW131088   4.062   0.322   7.952 -1.5036  0.4039  0.1782
 6484SOL    HW231089   4.129   0.443   7.919  1.1710 -1.9058 -0.4033
 6485SOL     OW31090   3.685   1.265   7.405  0.1568 -0.2677 -0.1069
 6485SOL    HW131091   3.763   1.249   7.458  2.2455 -1.0021 -3.4692
 6485SOL    HW231092   3.651   1.348   7.439 -1.7989 -0.4993 -1.5195
 6486SOL     OW31093   4.275   4.032   4.896  0.2384 -0.5649  0.2035
 6486SOL    HW131094   4.229   4.072   4.822  0.0496  0.4121  0.8384
 6486SOL    HW231095   4.361   4.068   4.876 -0.9076  2.0704 -0.1386
 6487SOL     OW31096   2.297   1.102   3.979  0.5328  0.0558  0.0256
 6487SOL    HW131097   2.303   1.162   4.054  0.8200 -0.1192  0.1412
 6487SOL    HW231098   2.209   1.117   3.945  0.2685  1.5044  1.3415
 6488SOL     OW31099   2.804   1.316   4.350  0.4718  0.0452  0.3578
 6488SOL    HW131100   2.773   1.366   4.275 -0.2748 -2.8377 -1.2337
 6488SOL    HW231101   2.740   1.350   4.413  1.7068  1.5911  0.7599
 6489SOL     OW31102   2.999   3.767  10.780 -0.5370  0.3532  0.2000
 6489SOL    HW131103   3.004   3.861  10.763 -2.5582  0.6378  1.1119
 6489SOL    HW231104   3.028   3.763  10.871 -0.5136 -0.5535  0.1529
 6490SOL     OW31105   2.828   0.897   4.164  0.6743 -0.4475 -0.4616
 6490SOL    HW131106   2.807   0.825   4.224 -2.6870 -0.1678 -1.2791
 6490SOL    HW231107   2.781   0.860   4.089 -0.9513  1.9318 -0.6172
 6491SOL     OW31108   3.602   3.371   5.088 -0.6055 -0.0269  0.5710
 6491SOL    HW131109   3.546   3.410   5.155 -2.0889 -0.1636 -0.5790
 6491SOL    HW231110   3.611   3.431   5.014  1.1899 -0.8873  0.0802
 6492SOL     OW31111   3.004   0.860   7.546 -0.2302  0.3673 -0.4765
 6492SOL    HW131112   3.034   0.798   7.480  1.4583  0.0609  0.5717
 6492SOL    HW231113   3.022   0.817   7.630  0.4268 -0.8145 -1.2127
 6493SOL     OW31114   2.494   2.235  10.962  0.3702 -0.1684  0.2887
 6493SOL    HW131115   2.474   2.278  10.879  0.7320 -1.6505 -0.5826
 6493SOL    HW231116   2.409   2.191  10.970  0.6829 -1.0363 -1.0923
 6494SOL     OW31117   0.290   3.060   6.942  0.0228  0.2625  0.5814
 6494SOL    HW131118   0.346   3.126   6.901  0.7402  0.5522  2.0023
 6494SOL    HW231119   0.265   3.012   6.863 -0.3502  1.8469 -0.2573
 6495SOL     OW31120   4.640   4.420   1.772 -0.0452 -0.0628  0.0102
 6495SOL    HW131121   4.583   4.376   1.835 -0.2298 -0.6477 -0.5751
 6495SOL    HW231122   4.724   4.384   1.800 -0.0720 -0.8675 -0.9720
 6496SOL     OW31123   3.041   3.241  12.398 -0.4171  0.1854  0.1728
 6496SOL    HW131124   3.127   3.205  12.421  0.4949  1.9285 -0.5290
 6496SOL    HW231125   3.040   3.236  12.302  0.4203 -0.6024  0.1983
 6497SOL     OW31126   2.157   0.461   5.692 -0.0707  0.2037 -0.1894
 6497SOL    HW131127   2.099   0.409   5.637 -1.7066  0.3635  1.3976
 6497SOL    HW231128   2.110   0.544   5.699 -0.1876  0.1345 -0.1535
 6498SOL     OW31129   1.364   2.181   5.721 -0.0563  0.0895 -0.0799
 6498SOL    HW131130   1.412   2.224   5.792  1.9043 -0.6154 -1.0056
 6498SOL    HW231131   1.391   2.239   5.649  3.1597  0.7597  1.6691
 6499SOL     OW31132   3.721   3.688   2.178  0.2459  0.5393  0.3148
 6499SOL    HW131133   3.753   3.598   2.187 -0.5589  0.2184 -0.0211
 6499SOL    HW231134   3.694   3.703   2.269 -0.4542 -0.9037  0.3519
 6500SOL     OW31135   2.126   2.032   8.286 -0.5304  0.1118 -0.0863
 6500SOL    HW131136   2.098   2.083   8.362  1.6744  2.1833 -0.6462
 6500SOL    HW231137   2.101   1.941   8.303 -0.6666  0.1744  0.0478
 6501SOL     OW31138   2.433   0.368   8.322 -0.7082 -0.0930  0.0511
 6501SOL    HW131139   2.428   0.348   8.416 -1.9672  0.0329  0.0055
 6501SOL    HW231140   2.514   0.419   8.331  0.1357 -1.5897  1.0403
 6502SOL     OW31141   3.184   2.942   2.124  0.3639  0.4303  0.0444
 6502SOL    HW131142   3.174   2.998   2.200 -1.0956  0.9946 -0.5665
 6502SOL    HW231143   3.242   2.872   2.154  1.2074  2.4267  3.0508
 6503SOL     OW31144   0.735   2.529  12.037 -0.4407 -0.0312 -0.5597
 6503SOL    HW131145   0.755   2.572  11.954 -0.6202  0.2507 -0.4550
 6503SOL    HW231146   0.724   2.438  12.012  0.0249 -0.1588 -0.3101
 6504SOL     OW31147   0.680   3.316   5.671  0.1984 -0.6164  0.3216
 6504SOL    HW131148   0.594   3.276   5.683  0.8095 -1.1826  2.7952
 6504SOL    HW231149   0.661   3.396   5.721 -0.1933 -2.0846  2.5423
 6505SOL     OW31150   0.227   0.000   2.024 -0.1364 -0.0650 -0.3409
 6505SOL    HW131151   0.295   4.696   1.972 -0.1068 -0.8708  0.3465
 6505SOL    HW231152   0.278   0.027   2.100 -0.7054  4.3644 -1.4827
 6506SOL     OW31153   3.429   1.120   8.646 -0.0907  0.1751 -0.1696
 6506SOL    HW131154   3.443   1.138   8.553 -0.7945 -0.2251 -0.3539
 6506SOL    HW231155   3.507   1.163   8.681 -0.7793  0.5987  0.8237
 6507SOL     OW31156   2.891   3.898   3.420 -0.0671  0.2780  0.5714
 6507SOL    HW131157   2.978   3.857   3.414  0.4429  1.4923 -0.2991
 6507SOL    HW231158   2.835   3.826   3.449  1.0063 -1.9669 -2.9015
 6508SOL     OW31159   1.447   4.717   9.416 -0.5574 -0.1052 -0.0881
 6508SOL    HW131160   1.372   4.724   9.358  0.0648  3.4364 -0.4454
 6508SOL    HW231161   1.514   0.038   9.381 -2.0303  0.5142 -1.8462
 6509SOL     OW31162   0.501   3.004   4.419  0.6476 -0.0387  0.2530
 6509SOL    HW131163   0.592   3.029   4.401  0.3117  1.0230  0.0557
 6509SOL    HW231164   0.492   3.005   4.514 -1.0569 -1.2726  0.1026
 6510SOL     OW31165   3.186   0.896  11.012  0.3592  0.6452  0.5247
 6510SOL    HW131166   3.155   0.918  11.099 -0.8786  0.6398  0.0937
 6510SOL    HW231167   3.214   0.982  10.982  0.7943  0.4706  0.4271
 6511SOL     OW31168   4.083   2.075  11.002  0.3401  0.0459  0.5508
 6511SOL    HW131169   4.143   2.031  10.942 -0.4065 -2.1577  1.4092
 6511SOL    HW231170   4.050   2.140  10.940 -0.5575 -0.3997  0.5632
 6512SOL     OW31171   0.340   2.049  16.768  0.5676 -0.0649  0.0733
 6512SOL    HW131172   0.315   2.135  16.802  3.6996  1.2829 -1.0582
 6512SOL    HW231173   0.324   2.051  16.673 -1.2286 -1.0911  0.3458
 6513SOL     OW31174   2.817   1.284   6.774  0.0569  0.8522 -0.3081
 6513SOL    HW131175   2.843   1.274   6.682 -1.5803  0.9710 -0.7804
 6513SOL    HW231176   2.890   1.319   6.826  0.2796  1.7533 -1.2122
 6514SOL     OW31177   4.458   2.636   8.971  0.2613 -0.3862  0.0018
 6514SOL    HW131178   4.378   2.666   8.927  0.6791  0.8635  0.0985
 6514SOL    HW231179   4.435   2.547   8.999  0.8632 -0.1535  1.2317
 6515SOL     OW31180   2.534   3.565   6.019 -0.2522  0.1067 -0.2370
 6515SOL    HW131181   2.474   3.614   6.074  1.0340  1.2018  0.1783
 6515SOL    HW231182   2.516   3.580   5.926 -1.4245 -1.8885 -0.3305
 6516SOL     OW31183   1.267   3.665  12.474  0.4629 -0.6354  0.5231
 6516SOL    HW131184   1.319   3.712  12.539  1.3263  2.0052 -2.0868
 6516SOL    HW231185   1.222   3.730  12.421  0.0568  0.4119  2.1780
 6517SOL     OW31186   1.561   4.481  12.133 -0.1561 -0.2388  0.0044
 6517SOL    HW131187   1.648   4.514  12.112  0.0662 -0.0957  1.1190
 6517SOL    HW231188   1.576   4.402  12.184  0.0713 -0.1712  0.0403
 6518SOL     OW31189   4.338   2.082  17.215  0.0580  0.0154  0.7726
 6518SOL    HW131190   4.289   2.113  17.138 -0.6175 -1.0390  0.7953
 6518SOL    HW231191   4.423   2.127  17.220  0.0548  0.0602  0.4547
 6519SOL     OW31192   2.690   0.631   8.062 -0.3959 -0.0949 -0.4968
 6519SOL    HW131193   2.716   0.674   8.144 -0.2238 -0.3057 -0.4405
 6519SOL    HW231194   2.691   0.713   8.015 -2.7831  0.0958 -0.2278
 6520SOL     OW31195   0.230   3.838   7.384  0.2218 -0.1628  0.4862
 6520SOL    HW131196   0.294   3.797   7.326 -1.3929 -2.3247  0.2548
 6520SOL    HW231197   0.241   3.785   7.464 -0.4469  2.3499  2.2595
 6521SOL     OW31198   1.852   2.928   2.106  0.1353  0.2122  0.5715
 6521SOL    HW131199   1.883   3.015   2.129  0.4929  0.2555 -0.0705
 6521SOL    HW231200   1.760   2.936   2.133 -0.2947  3.5472 -1.9507
 6522SOL     OW31201   2.510   4.387   7.064 -0.7832 -0.2551  0.2392
 6522SOL    HW131202   2.454   4.341   7.127 -0.9995  0.4158  0.5365
 6522SOL    HW231203   2.511   4.320   6.996 -0.4935  1.5964 -1.5877
 6523SOL     OW31204   2.009   3.755   6.416  0.5703  0.4148  0.3886
 6523SOL    HW131205   1.961   3.821   6.467  1.1077  1.7558 -0.8489
 6523SOL    HW231206   2.083   3.807   6.385  0.0168  0.0986 -1.4915
 6524SOL     OW31207   3.147   3.628   3.730  0.4361 -0.0864  0.3389
 6524SOL    HW131208   3.212   3.695   3.750 -0.4821  0.2688  2.1218
 6524SOL    HW231209   3.176   3.607   3.642  0.7251  0.8059  0.2179
 6525SOL     OW31210   0.792   2.096  16.112 -0.5043  0.3099  0.5764
 6525SOL    HW131211   0.718   2.095  16.052 -1.2351 -1.7880  1.5054
 6525SOL    HW231212   0.796   2.006  16.143 -1.1931  0.0446 -0.1258
 6526SOL     OW31213   0.714   2.349   7.127  0.0413 -0.2512 -0.0674
 6526SOL    HW131214   0.659   2.321   7.200 -0.3379  0.7653  0.0442
 6526SOL    HW231215   0.670   2.431   7.107 -2.6215 -1.7087 -0.1495
 6527SOL     OW31216   1.158   1.698   6.714  0.1364 -0.0168 -0.3111
 6527SOL    HW131217   1.178   1.604   6.707 -0.6520 -0.3160  1.4803
 6527SOL    HW231218   1.229   1.744   6.670  0.3415 -1.0360 -1.0560
 6528SOL     OW31219   4.603   4.492   4.942 -0.4629  0.0568 -0.0971
 6528SOL    HW131220   4.558   4.535   5.015 -0.2035  1.0067 -0.5066
 6528SOL    HW231221   4.671   4.442   4.985 -0.2957 -0.9019 -1.4618
 6529SOL     OW31222   4.417   3.818   5.947 -0.2904  0.4281 -0.3443
 6529SOL    HW131223   4.464   3.852   5.871 -0.1060  1.0413  0.0453
 6529SOL    HW231224   4.339   3.873   5.948  0.3760  1.3635 -0.1679
 6530SOL     OW31225   1.259   0.286   1.614  0.2503 -0.2419  0.5081
 6530SOL    HW131226   1.178   0.325   1.581 -0.1149 -0.6029  0.9798
 6530SOL    HW231227   1.265   0.313   1.705 -0.0496  1.6219 -0.0213
 6531SOL     OW31228   1.152   1.261  16.158  0.1690  0.3053 -0.5360
 6531SOL    HW131229   1.113   1.330  16.212  0.1932  1.5372 -2.0992
 6531SOL    HW231230   1.110   1.274  16.073 -2.0613 -2.3537  0.1599
 6532SOL     OW31231   1.263   3.584   7.603  0.4432  0.1555 -0.2948
 6532SOL    HW131232   1.328   3.629   7.549  0.7800 -1.3001 -1.0932
 6532SOL    HW231233   1.255   3.643   7.678  0.7670 -0.2472  0.0595
 6533SOL     OW31234   0.397   3.053   7.787 -0.7197 -0.6765  0.2777
 6533SOL    HW131235   0.344   3.133   7.791 -0.1421 -0.3240  0.8732
 6533SOL    HW231236   0.452   3.066   7.710 -2.6638  4.4193 -0.2879
 6534SOL     OW31237   3.964   4.659   2.397 -0.0480  0.1696 -0.0668
 6534SOL    HW131238   3.991   4.689   2.310 -3.6822  0.5681 -1.0567
 6534SOL    HW231239   3.901   4.590   2.375 -3.2415  2.5871  1.6414
 6535SOL     OW31240   4.105   3.628   9.281 -0.5530 -0.2947 -0.4688
 6535SOL    HW131241   4.074   3.538   9.274  0.7879 -0.9413  2.0223
 6535SOL    HW231242   4.047   3.653   9.353  0.9511 -3.3891  1.7946
 6536SOL     OW31243   1.114   3.974   6.628  0.0573 -0.1368  0.2017
 6536SOL    HW131244   1.142   4.044   6.687 -1.1961 -1.0732  1.9249
 6536SOL    HW231245   1.161   3.991   6.547  0.7225  2.1670  1.0790
 6537SOL     OW31246   0.870   3.099  13.610  0.7913  0.0774 -0.3109
 6537SOL    HW131247   0.806   3.038  13.647  1.0274 -0.6039 -1.0077
 6537SOL    HW231248   0.914   3.123  13.692  1.5518  1.5450 -1.1598
 6538SOL     OW31249   3.067   1.991  12.372 -0.8513  0.5453 -0.4233
 6538SOL    HW131250   3.068   1.957  12.282 -1.9628  2.3381 -1.0960
 6538SOL    HW231251   2.976   1.994  12.401 -0.9795 -0.0448 -0.7435
 6539SOL     OW31252   0.793   3.547   7.981 -0.0616 -0.3101  0.5923
 6539SOL    HW131253   0.708   3.527   8.023 -0.1541  0.2473  0.6709
 6539SOL    HW231254   0.786   3.627   7.930  1.0505 -0.3388  0.4009
 6540SOL     OW31255   1.213   0.329   2.773 -0.4058 -1.0332  0.1337
 6540SOL    HW131256   1.143   0.283   2.819 -0.2395  0.8329  2.2871
 6540SOL    HW231257   1.199   0.417   2.809  1.5432 -1.3408  1.6691
 6541SOL     OW31258   4.079   2.017   8.076 -0.3243  0.4478  0.2883
 6541SOL    HW131259   4.170   1.990   8.089 -0.3981  0.1911  0.2747
 6541SOL    HW231260   4.078   2.110   8.101  0.7372  0.8173 -1.0532
 6542SOL     OW31261   4.290   1.861   8.403 -0.4748 -0.0373 -0.2583
 6542SOL    HW131262   4.266   1.944   8.444 -0.2930 -0.3256  0.4352
 6542SOL    HW231263   4.293   1.906   8.318 -0.9575  0.3173 -0.0912
 6543SOL     OW31264   1.846   3.996   4.937  0.0273  0.0232 -0.0935
 6543SOL    HW131265   1.777   4.055   4.907 -0.0175  0.6862  1.2936
 6543SOL    HW231266   1.920   4.032   4.889  0.9095 -2.3421 -0.4899
 6544SOL     OW31267   4.222   2.491   3.609 -0.2884  0.2455 -0.4274
 6544SOL    HW131268   4.292   2.531   3.661 -1.4681  0.5012  0.9730
 6544SOL    HW231269   4.236   2.398   3.626 -0.3640 -0.3834 -3.8442
 6545SOL     OW31270   0.293   1.779   1.020  0.5709 -0.3219  0.5412
 6545SOL    HW131271   0.373   1.816   1.059  0.0270 -0.1793  1.5171
 6545SOL    HW231272   0.256   1.861   0.987 -1.6401 -1.8859 -0.8865
 6546SOL     OW31273   2.073   0.909  14.150 -0.6803 -0.0057 -0.2273
 6546SOL    HW131274   2.009   0.844  14.124  0.1469 -0.7006 -0.5301
 6546SOL    HW231275   2.152   0.855  14.160 -0.0028  0.9376 -0.4102
 6547SOL     OW31276   4.265   1.014   7.474  0.0789  0.0526  0.3407
 6547SOL    HW131277   4.274   1.039   7.382 -1.6020 -0.7939 -0.0519
 6547SOL    HW231278   4.256   0.919   7.469  1.9713 -0.1869  1.2778
 6548SOL     OW31279   0.344   4.422   7.872 -0.1030  0.0223 -0.4809
 6548SOL    HW131280   0.288   4.500   7.871  3.4935  2.6025  0.6001
 6548SOL    HW231281   0.296   4.350   7.832 -0.2263  0.1881 -0.6295
 6549SOL     OW31282   4.572   0.236   4.501  0.4999 -0.3140  0.3654
 6549SOL    HW131283   4.639   0.177   4.535  0.2465 -0.4991  0.5480
 6549SOL    HW231284   4.611   0.265   4.419  2.3529 -0.3833  1.2346
 6550SOL     OW31285   0.514   0.083   6.127  0.5682 -0.0115 -0.2883
 6550SOL    HW131286   0.537   0.023   6.198 -0.3491 -3.8215 -3.2310
 6550SOL    HW231287   0.525   0.018   6.057  0.3929  0.6998 -0.9807
 6551SOL     OW31288   3.634   0.651   6.215  0.2105  0.5496 -0.6207
 6551SOL    HW131289   3.678   0.640   6.130  1.4161  1.1022 -0.0736
 6551SOL    HW231290   3.550   0.677   6.176 -0.0346  2.0914  0.9310
 6552SOL     OW31291   3.662   2.176   7.191 -0.8286 -0.3284 -0.3572
 6552SOL    HW131292   3.745   2.153   7.233  1.1450  1.4906 -3.2670
 6552SOL    HW231293   3.674   2.268   7.215 -0.5176 -1.1789  2.6987
 6553SOL     OW31294   0.688   1.800   5.839 -0.4972  0.3466 -0.0417
 6553SOL    HW131295   0.672   1.794   5.745 -0.8820 -0.2880  0.0592
 6553SOL    HW231296   0.606   1.840   5.869  0.7416  2.2381  0.7757
 6554SOL     OW31297   0.503   3.111  11.268 -0.1126 -0.6090  0.0560
 6554SOL    HW131298   0.557   3.173  11.218 -2.4640  0.6054 -0.9494
 6554SOL    HW231299   0.563   3.064  11.327 -1.3663 -1.5236  0.5931
 6555SOL     OW31300   1.741   1.582   8.164  0.1790  0.5623 -0.0202
 6555SOL    HW131301   1.678   1.646   8.200  0.6093 -0.0765  1.8440
 6555SOL    HW231302   1.677   1.515   8.141  0.7429  0.0193  0.0228
 6556SOL     OW31303   4.663   3.268   1.582  0.0365  0.1890  0.1410
 6556SOL    HW131304   4.653   3.353   1.541 -1.2478 -0.0532 -0.0310
 6556SOL    HW231305   4.573   3.259   1.613  0.3821 -0.9322  0.8271
 6557SOL     OW31306   1.357   3.410  17.606  0.4657 -0.2808  0.3119
 6557SOL    HW131307   1.287   3.382  17.665  0.0991  1.1511  0.5545
 6557SOL    HW231308   1.429   3.431  17.666 -0.8374 -0.8439  2.0666
 6558SOL     OW31309   3.961   4.187  11.995 -0.0878 -0.4837 -0.0021
 6558SOL    HW131310   3.958   4.249  11.922  0.2062 -0.3424  0.1068
 6558SOL    HW231311   3.922   4.111  11.951 -0.8958 -0.9688  1.5730
 6559SOL     OW31312   4.107   0.806   6.709 -0.0966  0.5104 -0.2983
 6559SOL    HW131313   4.146   0.834   6.626 -1.2115 -0.2685 -1.0784
 6559SOL    HW231314   4.184   0.807   6.766 -0.2682 -0.7304 -0.0587
 6560SOL     OW31315   3.352   4.110   9.530  0.4219  0.4344  0.2044
 6560SOL    HW131316   3.311   4.085   9.447 -0.5499 -0.4012  0.9456
 6560SOL    HW231317   3.399   4.027   9.541  0.7845  0.5337 -0.5886
 6561SOL     OW31318   0.107   0.380  17.328  0.5812  0.3578 -0.6375
 6561SOL    HW131319   0.096   0.399  17.421 -1.9519 -0.1555 -0.8370
 6561SOL    HW231320   0.019   0.406  17.301  0.6583  3.1174  1.7415
 6562SOL     OW31321   2.071   2.023   3.697  0.0142  1.0595 -0.3223
 6562SOL    HW131322   2.015   2.018   3.620  0.3067  1.5769 -0.5667
 6562SOL    HW231323   2.159   2.037   3.663  1.3546 -0.9313  2.3190
 6563SOL     OW31324   3.760   3.876   0.661 -0.0434  0.0748 -0.2725
 6563SOL    HW131325   3.811   3.845   0.736 -0.2031  1.2151  0.3035
 6563SOL    HW231326   3.673   3.851   0.692 -0.1499 -1.4968 -1.7971
 6564SOL     OW31327   2.369   2.572   4.943  0.0833  0.0561  0.3620
 6564SOL    HW131328   2.332   2.582   5.030  0.3001 -0.2261  0.4900
 6564SOL    HW231329   2.317   2.636   4.896  1.5148  0.8291 -0.1658
 6565SOL     OW31330   4.427   0.928   3.427 -0.4637 -0.0436 -0.0607
 6565SOL    HW131331   4.456   0.911   3.517  1.9317  1.5785 -0.5194
 6565SOL    HW231332   4.334   0.950   3.439  0.0476  2.3279 -0.3159
 6566SOL     OW31333   2.324   3.733   5.357  0.1527  0.1529 -0.3661
 6566SOL    HW131334   2.242   3.752   5.402  0.8298 -0.7569  1.2408
 6566SOL    HW231335   2.292   3.685   5.281 -2.3482  2.6908 -0.9160
 6567SOL     OW31336   4.279   1.743   3.750 -0.1350 -0.1039 -0.3259
 6567SOL    HW131337   4.293   1.652   3.727 -1.0127 -0.3521  0.1289
 6567SOL    HW231338   4.369   1.773   3.765 -0.5311  0.5655  0.7557
 6568SOL     OW31339   0.195   0.878  15.576 -0.2855  0.2699  0.4432
 6568SOL    HW131340   0.245   0.851  15.653  1.1938  1.2881 -0.1543
 6568SOL    HW231341   0.261   0.944  15.555 -1.4218  1.3046  0.1089
 6569SOL     OW31342   2.556   4.117  12.985  0.2302 -0.5716 -0.0523
 6569SOL    HW131343   2.576   4.069  13.066  0.8177  1.9388  1.2950
 6569SOL    HW231344   2.502   4.188  13.020 -0.7239 -0.9745 -0.7102
 6570SOL     OW31345   1.574   1.421   5.739 -0.2856 -0.0955 -0.0025
 6570SOL    HW131346   1.547   1.477   5.666  0.6641 -1.2019 -1.1993
 6570SOL    HW231347   1.647   1.474   5.772 -2.0769  1.2782  1.7241
 6571SOL     OW31348   0.522   0.556  11.685 -1.2152 -0.2361 -0.0690
 6571SOL    HW131349   0.448   0.575  11.628 -0.3011  1.2589 -0.7509
 6571SOL    HW231350   0.499   0.464  11.699 -1.9695  0.2050  1.6130
 6572SOL     OW31351   4.010   3.350   1.109  0.5252  0.0249  0.0236
 6572SOL    HW131352   4.026   3.370   1.017 -0.9495 -0.5340 -0.3693
 6572SOL    HW231353   4.085   3.300   1.141 -0.3862 -0.5798  1.2526
 6573SOL     OW31354   0.176   4.384   8.274  0.0153 -0.0353  0.4160
 6573SOL    HW131355   0.132   4.300   8.287 -0.3267  0.2753  1.2772
 6573SOL    HW231356   0.205   4.411   8.361  1.4791  1.1834 -0.4524
 6574SOL     OW31357   1.737   3.887   9.334 -0.5930  0.1040 -0.0268
 6574SOL    HW131358   1.777   3.804   9.307 -0.7278  0.1436 -0.3462
 6574SOL    HW231359   1.814   3.927   9.373  0.8168 -1.6288 -1.0198
 6575SOL     OW31360   3.398   1.442   3.187 -0.9117  0.8657 -0.2930
 6575SOL    HW131361   3.475   1.403   3.229 -0.6421  0.0690 -1.5272
 6575SOL    HW231362   3.360   1.364   3.147  0.4367 -0.0246  0.1715
 6576SOL     OW31363   4.572   1.783   9.842  0.1433 -0.1979 -0.0269
 6576SOL    HW131364   4.586   1.752   9.932  1.1903 -1.5499 -0.6557
 6576SOL    HW231365   4.632   1.857   9.836 -1.7850  1.4180  0.4787
 6577SOL     OW31366   1.207   4.226   6.229  0.3922  0.1388 -0.5075
 6577SOL    HW131367   1.120   4.258   6.256  1.5742  1.8321  1.3139
 6577SOL    HW231368   1.202   4.251   6.137  1.6321  0.2423 -0.5390
 6578SOL     OW31369   4.140   3.195  11.526 -0.6144 -0.2297  0.1726
 6578SOL    HW131370   4.089   3.174  11.604 -0.9624  4.8258  1.2815
 6578SOL    HW231371   4.185   3.276  11.549 -0.0342  0.0030 -1.8021
 6579SOL     OW31372   2.550   1.529   9.353 -0.3790 -0.5160  0.0028
 6579SOL    HW131373   2.587   1.559   9.270 -1.4528 -3.8498 -1.6946
 6579SOL    HW231374   2.587   1.596   9.410 -3.5954 -0.1461  1.6216
 6580SOL     OW31375   0.846   1.181   6.989 -0.1726 -0.1218  0.3410
 6580SOL    HW131376   0.827   1.260   7.040 -3.5938 -2.4920  2.7519
 6580SOL    HW231377   0.919   1.204   6.932 -0.2729 -0.2641  0.1559
 6581SOL     OW31378   0.019   1.452   4.142 -0.1578 -0.1174  0.5676
 6581SOL    HW131379   0.106   1.458   4.101  0.3437  3.0914  2.0600
 6581SOL    HW231380   4.713   1.389   4.086  0.0604 -0.8025  1.1637
 6582SOL     OW31381   0.683   2.633   8.510  0.1551 -0.2207 -0.1125
 6582SOL    HW131382   0.650   2.650   8.598  2.7160  1.6423  0.4797
 6582SOL    HW231383   0.779   2.638   8.515  0.1491  0.9077 -1.2979
 6583SOL     OW31384   1.594   4.553   3.010 -0.3329  0.3269 -0.3258
 6583SOL    HW131385   1.613   4.512   2.925  1.8406 -1.9765  1.2558
 6583SOL    HW231386   1.643   4.497   3.071 -0.2201  0.1778 -0.5514
 6584SOL     OW31387   4.394   3.189   6.211 -0.1267 -0.3990 -0.3781
 6584SOL    HW131388   4.397   3.099   6.179  3.0002 -0.2967 -0.3623
 6584SOL    HW231389   4.347   3.234   6.141 -0.8978  0.5213  0.7260
 6585SOL     OW31390   0.869   3.563  13.569 -0.2349  0.2217 -0.4397
 6585SOL    HW131391   0.886   3.631  13.634 -1.5232  1.4456 -1.3628
 6585SOL    HW231392   0.943   3.574  13.510  0.1537 -0.2384 -0.0413
 6586SOL     OW31393   2.231   2.973   3.922  0.3231  0.4820 -0.3476
 6586SOL    HW131394   2.317   2.989   3.962  0.0255  0.1233  0.4346
 6586SOL    HW231395   2.204   3.059   3.889  3.0746  0.9433 -1.3533
 6587SOL     OW31396   0.268   0.078  13.780 -0.0959  0.0521  0.4373
 6587SOL    HW131397   0.263   0.147  13.847  1.6200  0.2439  0.3752
 6587SOL    HW231398   0.212   0.118  13.714  0.2239 -0.9169 -0.4181
 6588SOL     OW31399   1.231   3.051  16.966  0.3463  0.3843 -0.1862
 6588SOL    HW131400   1.270   2.999  16.896 -0.4458  2.0687 -1.8797
 6588SOL    HW231401   1.242   3.142  16.939  0.8054  0.8980  1.7132
 6589SOL     OW31402   2.537   3.722   2.341  0.2469 -0.2981 -0.1010
 6589SOL    HW131403   2.617   3.682   2.307  0.8588 -1.4440  2.7206
 6589SOL    HW231404   2.545   3.806   2.296  2.3901  0.2344  1.3086
 6590SOL     OW31405   3.421   1.067   1.652 -0.6974 -0.0411 -0.1565
 6590SOL    HW131406   3.404   0.975   1.672  1.6485  0.0350  2.3844
 6590SOL    HW231407   3.493   1.051   1.591  0.3025 -0.5008  1.1422
 6591SOL     OW31408   1.903   2.672   7.668  0.6177  0.0839  0.8464
 6591SOL    HW131409   1.838   2.669   7.739  1.6767  2.4336  1.9010
 6591SOL    HW231410   1.959   2.735   7.713 -1.4730  0.7378  2.5677
 6592SOL     OW31411   1.990   2.702  12.237 -0.0651 -0.3736 -0.2058
 6592SOL    HW131412   1.909   2.715  12.287  0.0688 -0.8942  0.1516
 6592SOL    HW231413   1.953   2.665  12.157 -1.7208 -1.6416  1.1282
 6593SOL     OW31414   3.613   2.009   8.277 -0.0697 -0.9415 -0.2944
 6593SOL    HW131415   3.682   1.948   8.252  0.2746 -0.7313  0.1444
 6593SOL    HW231416   3.639   2.096   8.247  2.7338 -0.7743  2.5428
 6594SOL     OW31417   1.232   3.048   4.354  0.0523  0.5400  0.0644
 6594SOL    HW131418   1.139   3.046   4.333 -0.0179  2.3465  0.2325
 6594SOL    HW231419   1.268   3.021   4.270 -1.7222  0.3430 -0.6253
 6595SOL     OW31420   0.488   1.607   6.562  0.0721  0.3919 -0.0664
 6595SOL    HW131421   0.445   1.677   6.513 -0.7245 -0.0494  0.0126
 6595SOL    HW231422   0.501   1.654   6.644 -1.0258 -0.4051  0.5539
 6596SOL     OW31423   0.926   3.323   5.512 -0.6198  0.3749  0.1331
 6596SOL    HW131424   0.971   3.406   5.527 -0.0790 -0.1806  1.5820
 6596SOL    HW231425   0.841   3.336   5.555 -1.9797 -2.1717 -1.7541
 6597SOL     OW31426   3.261   3.976  13.358 -0.0543  0.0328  0.3404
 6597SOL    HW131427   3.203   4.048  13.333 -0.2739 -0.0071  0.7332
 6597SOL    HW231428   3.225   3.950  13.443 -1.3794 -2.1002 -0.8598
 6598SOL     OW31429   1.023   4.560   3.846  0.1817 -0.1101 -0.2698
 6598SOL    HW131430   1.099   4.521   3.804 -0.0084 -1.6634  0.8699
 6598SOL    HW231431   0.954   4.556   3.780 -0.4147 -1.2268  0.4299
 6599SOL     OW31432   1.351   1.645  17.096  0.7340 -0.6504  0.1385
 6599SOL    HW131433   1.320   1.652  17.186 -1.2573  0.3555 -0.6270
 6599SOL    HW231434   1.373   1.735  17.072 -0.9847 -0.7902 -1.9660
 6600SOL     OW31435   3.855   2.920   7.920 -0.3224 -0.0768 -0.1241
 6600SOL    HW131436   3.845   3.011   7.948  0.7326  0.8469 -2.8316
 6600SOL    HW231437   3.934   2.922   7.867  0.4642 -0.9827  1.0259
 6601SOL     OW31438   3.883   2.031   4.006  0.2664 -0.0664  0.0959
 6601SOL    HW131439   3.939   1.978   4.064  2.1941  0.4780 -1.2485
 6601SOL    HW231440   3.798   2.013   4.044  0.1078 -2.2687 -1.3494
 6602SOL     OW31441   3.101   4.330   0.519 -0.0785 -0.9810 -0.2385
 6602SOL    HW131442   3.011   4.357   0.536  0.8813  2.8017 -1.1493
 6602SOL    HW231443   3.148   4.412   0.533 -0.4276 -0.9314  0.6044
 6603SOL     OW31444   3.759   2.296   5.012 -0.3929  0.4496  0.2249
 6603SOL    HW131445   3.705   2.308   4.934 -1.6430 -0.9714  0.8693
 6603SOL    HW231446   3.757   2.202   5.026 -2.9044  0.5319  0.5562
 6604SOL     OW31447   3.200   1.059   3.609  0.0632 -0.0767 -0.4747
 6604SOL    HW131448   3.173   1.151   3.608 -0.4567 -0.2022  1.3791
 6604SOL    HW231449   3.251   1.054   3.528  1.8202  0.4809  0.6088
 6605SOL     OW31450   0.253   4.588   0.449 -0.1580  0.0965  0.2663
 6605SOL    HW131451   0.301   4.670   0.461 -2.9734  1.6642  0.7913
 6605SOL    HW231452   0.166   4.626   0.440 -0.0884 -0.0144 -0.8441
 6606SOL     OW31453   2.405   0.528   1.208  0.0563  0.1372  0.1162
 6606SOL    HW131454   2.494   0.529   1.173  0.4728  1.1266  1.2231
 6606SOL    HW231455   2.358   0.467   1.149 -0.3831 -2.1137  2.8014
 6607SOL     OW31456   0.793   3.492  16.179  0.3224  0.3863 -0.0079
 6607SOL    HW131457   0.881   3.487  16.216  1.4848  1.8670 -2.5379
 6607SOL    HW231458   0.767   3.404  16.204 -1.3612  1.2043  1.1508
 6608SOL     OW31459   0.664   0.076  12.620  0.7012 -0.2508 -0.0286
 6608SOL    HW131460   0.593   0.067  12.683 -0.4740  0.1601 -1.3092
 6608SOL    HW231461   0.668   4.732  12.571 -0.3522  1.3871 -2.8318
 6609SOL     OW31462   1.070   3.673   3.164  0.8213 -0.6957  0.5203
 6609SOL    HW131463   1.165   3.687   3.162  0.3768  2.0960 -1.4171
 6609SOL    HW231464   1.048   3.677   3.257 -0.7385 -0.9252  0.1533
 6610SOL     OW31465   1.646   0.911  13.576 -0.4497  0.2495 -0.5936
 6610SOL    HW131466   1.734   0.877  13.558  1.1343  3.2142  1.3770
 6610SOL    HW231467   1.616   0.871  13.658 -0.4217  0.6044 -0.4094
 6611SOL     OW31468   2.043   0.750   3.258 -0.5227 -0.1431  0.4016
 6611SOL    HW131469   1.959   0.724   3.219 -0.3308  0.0518 -0.1449
 6611SOL    HW231470   2.082   0.744   3.171 -1.2526 -0.2680  0.0828
 6612SOL     OW31471   4.391   3.584  17.525  0.2245 -0.2928  0.6755
 6612SOL    HW131472   4.412   3.678  17.519  1.6743 -0.6871 -0.5677
 6612SOL    HW231473   4.376   3.572  17.431  1.6127 -0.5905  0.4958
 6613SOL     OW31474   4.374   1.856   2.567  0.5586 -1.0433  0.1083
 6613SOL    HW131475   4.369   1.898   2.482 -2.2965 -0.8046  0.3831
 6613SOL    HW231476   4.329   1.774   2.547  1.9029 -1.6198 -0.5600
 6614SOL     OW31477   1.463   3.443   4.540 -0.5403 -0.3990  0.2075
 6614SOL    HW131478   1.499   3.462   4.626 -2.0416  0.1590  0.7014
 6614SOL    HW231479   1.419   3.360   4.560  1.1397 -1.4321 -0.2960
 6615SOL     OW31480   3.598   0.466  12.199 -0.0538 -0.1021  0.3121
 6615SOL    HW131481   3.652   0.521  12.256 -0.1164 -1.1313  1.3421
 6615SOL    HW231482   3.667   0.413  12.159  1.4604  2.2916 -0.2510
 6616SOL     OW31483   2.350   4.209   8.093 -0.0394 -0.0480 -0.0070
 6616SOL    HW131484   2.396   4.248   8.019  0.5501  0.7803  0.8052
 6616SOL    HW231485   2.374   4.253   8.175 -1.3849 -1.3169  1.0827
 6617SOL     OW31486   0.369   1.153   5.301 -0.3406 -0.3329  0.2335
 6617SOL    HW131487   0.438   1.087   5.290 -0.4011 -1.0369  4.0250
 6617SOL    HW231488   0.362   1.123   5.392 -1.3989  1.0870  0.6016
 6618SOL     OW31489   3.108   1.241   3.822  0.5562  0.4164  0.0431
 6618SOL    HW131490   3.196   1.218   3.851  1.0503  0.7428 -1.1803
 6618SOL    HW231491   3.058   1.173   3.867  0.1461  1.9732  1.9284
 6619SOL     OW31492   1.518   0.902  11.160 -0.3810 -0.0275  0.0332
 6619SOL    HW131493   1.465   0.967  11.205  1.6103  2.5065 -1.2991
 6619SOL    HW231494   1.563   0.954  11.094  0.4048  1.7483  1.9563
 6620SOL     OW31495   2.685   4.338   4.130 -0.3458  0.2972 -0.5665
 6620SOL    HW131496   2.744   4.302   4.065 -1.5698  0.4119 -1.7373
 6620SOL    HW231497   2.656   4.412   4.077 -1.4094  0.7603  0.6525
 6621SOL     OW31498   2.482   2.375   7.997  0.2454 -0.3948  0.8308
 6621SOL    HW131499   2.506   2.383   7.905 -0.8220  0.1415  0.6016
 6621SOL    HW231500   2.424   2.298   7.999  0.2672 -0.4483 -1.3506
 6622SOL     OW31501   0.738   3.086  10.420  0.6897  0.3862 -0.5295
 6622SOL    HW131502   0.817   3.038  10.444  0.5801  1.0371  1.1297
 6622SOL    HW231503   0.671   3.047  10.475  1.3744  1.5933  1.1566
 6623SOL     OW31504   0.059   0.041   0.394 -0.0034 -0.1933  0.7496
 6623SOL    HW131505   0.006   0.061   0.317  2.6589 -0.9185 -1.2714
 6623SOL    HW231506   0.038   0.117   0.449 -0.9784 -0.4966  0.7984
 6624SOL     OW31507   2.470   4.466   4.546 -0.3450  0.6426 -0.4183
 6624SOL    HW131508   2.542   4.418   4.505  0.8999  3.2927 -1.3312
 6624SOL    HW231509   2.478   4.457   4.641 -0.0362  2.6650 -0.2480
 6625SOL     OW31510   3.937   2.981   3.350  0.3402  0.0893 -0.4511
 6625SOL    HW131511   3.987   2.909   3.310 -1.6804 -0.2155 -2.4557
 6625SOL    HW231512   3.891   2.923   3.410 -2.1583  0.7457 -1.7353
 6626SOL     OW31513   2.733   1.028  11.765 -0.0195  0.3742 -0.3455
 6626SOL    HW131514   2.707   0.936  11.772  0.7249  0.1257 -0.7811
 6626SOL    HW231515   2.659   1.069  11.809  0.1819 -0.3782  0.7006
 6627SOL     OW31516   1.888   1.539  11.932  0.4806  0.3088 -0.3633
 6627SOL    HW131517   1.813   1.493  11.892  0.8086 -1.6122  1.2339
 6627SOL    HW231518   1.856   1.615  11.979  0.1404 -0.2563  0.3255
 6628SOL     OW31519   1.365   4.575   6.016 -0.3873  0.6981 -0.0579
 6628SOL    HW131520   1.449   4.594   6.058  0.4453  0.5575 -1.6836
 6628SOL    HW231521   1.329   4.663   6.028 -0.2233  1.0600 -2.3647
 6629SOL     OW31522   3.438   3.912   6.514  0.5456  0.3904 -0.2465
 6629SOL    HW131523   3.364   3.898   6.573  2.4070 -1.6352  1.5947
 6629SOL    HW231524   3.415   3.997   6.477 -0.0362  0.0162 -0.7571
 6630SOL     OW31525   2.243   1.227   9.278 -0.8510 -0.6088 -0.0098
 6630SOL    HW131526   2.274   1.259   9.363 -1.3120  1.1743 -0.5050
 6630SOL    HW231527   2.321   1.218   9.223 -0.6514  0.7299  0.0390
 6631SOL     OW31528   2.560   2.467  13.181 -0.2641  0.6592  0.2335
 6631SOL    HW131529   2.548   2.515  13.099 -0.4557 -1.1425 -0.7783
 6631SOL    HW231530   2.474   2.486  13.220 -0.7874 -0.8161 -0.1915
 6632SOL     OW31531   1.740   0.186   1.485 -0.0406  0.5172 -0.0922
 6632SOL    HW131532   1.809   0.217   1.426 -1.2380  4.0177  0.3324
 6632SOL    HW231533   1.709   0.116   1.427  2.7592 -1.6465  1.0125
 6633SOL     OW31534   0.331   0.192   7.607 -0.2613 -0.4977  0.0164
 6633SOL    HW131535   0.293   0.107   7.628  2.0321 -1.5079  0.0721
 6633SOL    HW231536   0.346   0.187   7.513 -2.1702 -4.9014 -0.0184
 6634SOL     OW31537   3.244   3.284   8.275 -0.0323 -0.1748 -0.3434
 6634SOL    HW131538   3.151   3.262   8.264 -0.3264  0.8518  0.0338
 6634SOL    HW231539   3.257   3.240   8.359 -0.7982 -0.5021 -0.3921
 6635SOL     OW31540   3.893   1.499   8.215 -0.1762  0.0193 -0.4391
 6635SOL    HW131541   3.825   1.471   8.277  0.9451 -3.0169 -0.5448
 6635SOL    HW231542   3.839   1.553   8.158  1.3558  1.3095 -0.6462
 6636SOL     OW31543   0.753   3.957  12.994  0.0869  0.0050 -0.1735
 6636SOL    HW131544   0.741   4.041  12.950  2.5411  0.0703 -0.7481
 6636SOL    HW231545   0.692   3.962  13.067 -0.2856 -0.7561 -0.4346
 6637SOL     OW31546   2.000   3.430   5.739 -0.1231  0.0335 -0.3133
 6637SOL    HW131547   2.060   3.469   5.803 -0.8259  0.5617  0.0105
 6637SOL    HW231548   1.954   3.507   5.706  0.5417  0.3147 -0.5977
 6638SOL     OW31549   1.380   1.293   6.068 -0.4719 -0.0748 -0.6121
 6638SOL    HW131550   1.415   1.376   6.036 -0.1169 -0.5660 -1.4952
 6638SOL    HW231551   1.382   1.249   5.983 -1.5649 -2.8908  0.8452
 6639SOL     OW31552   0.514   3.281  13.305  0.4160  0.5446 -0.0109
 6639SOL    HW131553   0.462   3.230  13.368 -0.6062  0.2390 -1.1053
 6639SOL    HW231554   0.598   3.295  13.348  0.1191 -0.3328  0.8529
 6640SOL     OW31555   1.520   1.567  13.203 -0.1423  0.0503 -0.3349
 6640SOL    HW131556   1.485   1.561  13.292 -0.7498  0.8299 -0.5236
 6640SOL    HW231557   1.590   1.502  13.215 -1.6614 -1.4224  0.6440
 6641SOL     OW31558   1.605   0.815   4.639  0.0559 -0.1490  0.2175
 6641SOL    HW131559   1.573   0.724   4.641  1.7720 -0.7142  1.7039
 6641SOL    HW231560   1.532   0.859   4.683  1.0814  0.2248  1.5314
 6642SOL     OW31561   0.739   1.815  10.957  0.2289  0.3137 -0.3135
 6642SOL    HW131562   0.793   1.847  10.885  0.2683  1.5667  0.2843
 6642SOL    HW231563   0.742   1.888  11.018 -0.9258  0.2097 -0.1321
 6643SOL     OW31564   3.674   1.374   7.149 -0.4160 -0.4832  0.3260
 6643SOL    HW131565   3.641   1.297   7.103 -1.5353  0.1120  0.1377
 6643SOL    HW231566   3.665   1.341   7.238 -0.4688 -0.5182  0.3075
 6644SOL     OW31567   1.958   1.257   1.461  0.0799  0.3671  0.2626
 6644SOL    HW131568   2.039   1.307   1.468 -0.5591  1.6438 -1.3151
 6644SOL    HW231569   1.950   1.250   1.366 -1.2323  1.8590  0.2541
 6645SOL     OW31570   1.342   1.468   2.592  0.3185  0.4947  0.1863
 6645SOL    HW131571   1.389   1.419   2.660 -0.0113  1.0693  0.8333
 6645SOL    HW231572   1.256   1.427   2.603  1.0108 -1.2659 -1.0220
 6646SOL     OW31573   3.628   1.543   1.555  0.1626 -0.1569 -0.3101
 6646SOL    HW131574   3.685   1.606   1.598 -0.5213  1.6452 -2.0383
 6646SOL    HW231575   3.679   1.502   1.485  2.9354  1.1026  0.9755
 6647SOL     OW31576   0.213   2.967   6.705  0.9578 -0.3769  0.1054
 6647SOL    HW131577   0.161   3.025   6.648 -1.0051 -1.7296  0.4962
 6647SOL    HW231578   0.254   2.915   6.637  1.5752 -0.7089  0.7367
 6648SOL     OW31579   3.906   3.091  10.712  0.0065  0.1171 -0.3695
 6648SOL    HW131580   3.923   2.997  10.704 -1.2423 -0.1203 -0.2027
 6648SOL    HW231581   3.812   3.095  10.727  0.2988 -1.2103  1.8772
 6649SOL     OW31582   0.823   0.559   8.242  0.0997  0.1108 -0.0741
 6649SOL    HW131583   0.743   0.508   8.229 -0.2530  0.6365  0.0474
 6649SOL    HW231584   0.794   0.650   8.235 -1.5650 -0.5626 -1.9687
 6650SOL     OW31585   3.797   3.859   4.607 -0.8541 -0.5203 -0.1853
 6650SOL    HW131586   3.873   3.915   4.597  1.2049 -3.2490  0.2690
 6650SOL    HW231587   3.815   3.796   4.677  1.6524  1.0314  0.5339
 6651SOL     OW31588   3.395   1.767   0.441 -0.6152 -0.8730  0.3966
 6651SOL    HW131589   3.362   1.720   0.364  0.4240  0.2745 -0.7395
 6651SOL    HW231590   3.469   1.711   0.465 -0.1001 -2.4945 -5.0349
 6652SOL     OW31591   4.686   0.516   7.584  0.0524 -0.1997 -0.5841
 6652SOL    HW131592   0.007   0.456   7.630  0.0437  0.7121  0.6190
 6652SOL    HW231593   4.641   0.455   7.526  0.5464 -2.2706  1.2241
 6653SOL     OW31594   3.377   4.651   3.597  0.3779 -0.2288 -0.1455
 6653SOL    HW131595   3.447   4.639   3.662 -0.8997 -2.0957  0.8759
 6653SOL    HW231596   3.327   4.571   3.610  2.7258 -1.2110  2.8396
 6654SOL     OW31597   3.978   1.928   8.842  0.0009 -0.3648  0.4918
 6654SOL    HW131598   4.029   2.009   8.834  0.3351 -0.7626 -1.2963
 6654SOL    HW231599   3.924   1.933   8.764  1.2559 -0.9915 -0.4266
 6655SOL     OW31600   1.108   4.254   2.153 -0.1643  0.1111  0.7294
 6655SOL    HW131601   1.020   4.273   2.121  0.7080  2.5871 -0.2159
 6655SOL    HW231602   1.091   4.275   2.245 -0.9302  2.2324  0.1042
 6656SOL     OW31603   2.895   1.811   7.530  0.1259 -0.0819  0.0909
 6656SOL    HW131604   2.941   1.857   7.460 -1.8378  1.6842 -0.0176
 6656SOL    HW231605   2.931   1.848   7.610  0.7622  2.4345 -1.3793
 6657SOL     OW31606   4.721   1.866   1.935  0.3828  0.1715 -0.3615
 6657SOL    HW131607   4.730   1.835   2.026  3.2003  1.8499 -0.0438
 6657SOL    HW231608   0.056   1.820   1.894 -0.1332 -0.2986 -0.7491
 6658SOL     OW31609   1.643   0.497   6.529  0.0110  0.2653  0.4833
 6658SOL    HW131610   1.707   0.564   6.506 -1.0662  1.1560  0.0885
 6658SOL    HW231611   1.686   0.456   6.604  1.0817  0.8555  0.1878
 6659SOL     OW31612   0.514   3.443   8.062  0.3956 -0.0808  0.2400
 6659SOL    HW131613   0.448   3.500   8.023 -0.9985 -1.5325  0.4896
 6659SOL    HW231614   0.541   3.403   7.979  3.2548 -0.0967  1.1823
 6660SOL     OW31615   2.291   2.030  10.679 -0.0505 -0.1882 -0.8504
 6660SOL    HW131616   2.320   2.035  10.588 -2.8902  2.1777 -1.6249
 6660SOL    HW231617   2.351   1.968  10.720  0.3939  0.9532  0.2444
 6661SOL     OW31618   2.039   0.549   1.549 -0.0284  0.4616  0.2145
 6661SOL    HW131619   2.001   0.474   1.595 -0.9132 -0.0259 -1.2950
 6661SOL    HW231620   1.981   0.565   1.474 -0.4581 -0.5491  0.3360
 6662SOL     OW31621   2.799   0.286   7.590 -0.5796 -0.1980 -0.3761
 6662SOL    HW131622   2.730   0.222   7.606  0.2850 -0.6952  1.3754
 6662SOL    HW231623   2.755   0.367   7.566  0.4101  1.3999  3.1744
 6663SOL     OW31624   1.902   1.178   2.326 -0.6310  0.0211 -0.8682
 6663SOL    HW131625   1.895   1.083   2.316 -1.5257 -0.1297  1.1413
 6663SOL    HW231626   1.899   1.212   2.237 -1.2312 -0.3201 -0.9795
 6664SOL     OW31627   1.175   0.897   7.829  0.1782 -0.2329  0.3249
 6664SOL    HW131628   1.230   0.847   7.889  0.7910 -1.7436 -1.5242
 6664SOL    HW231629   1.239   0.956   7.789  0.4772 -1.5848 -1.1674
 6665SOL     OW31630   2.191   0.845   6.025 -0.0352 -0.8022  0.9422
 6665SOL    HW131631   2.134   0.837   5.948  0.0521  1.3311  0.6645
 6665SOL    HW231632   2.176   0.757   6.059 -5.3956  0.2128  1.1965
 6666SOL     OW31633   0.308   3.193   5.551 -0.1612 -0.0673  0.1580
 6666SOL    HW131634   0.226   3.152   5.578 -1.4507  0.8875 -2.3319
 6666SOL    HW231635   0.276   3.239   5.473 -0.8566 -1.4489 -0.3665
 6667SOL     OW31636   0.863   1.019   5.668  0.0400 -0.0516 -0.5397
 6667SOL    HW131637   0.862   0.982   5.756  0.2685  0.3682 -0.3616
 6667SOL    HW231638   0.864   1.112   5.690 -1.0696 -0.7860  2.6464
 6668SOL     OW31639   1.045   4.655   0.900  0.4707 -0.7685  0.0377
 6668SOL    HW131640   0.997   4.585   0.945 -0.9953 -0.7613 -1.4787
 6668SOL    HW231641   1.060   4.598   0.824 -0.7432 -1.8106  0.5664
 6669SOL     OW31642   1.011   4.726  12.572  0.3170  0.0338 -0.2740
 6669SOL    HW131643   1.032   4.641  12.534  0.3334 -0.6559  1.2638
 6669SOL    HW231644   1.099   0.016  12.599  0.2445 -0.5138  0.5307
 6670SOL     OW31645   0.775   1.521  17.003 -0.1951  0.0819  0.2246
 6670SOL    HW131646   0.840   1.484  17.063  0.9624  0.3315 -0.8813
 6670SOL    HW231647   0.811   1.498  16.917  0.3175 -0.9274  0.7063
 6671SOL     OW31648   3.537   3.693  11.703 -0.3671  0.1366  0.2057
 6671SOL    HW131649   3.490   3.768  11.742 -1.6703 -0.8492  0.5410
 6671SOL    HW231650   3.482   3.666  11.630  1.0143  0.5771 -0.9848
 6672SOL     OW31651   2.438   2.862   2.260 -0.0915  0.0974  0.0908
 6672SOL    HW131652   2.363   2.864   2.319 -1.4001 -0.5018 -1.5432
 6672SOL    HW231653   2.504   2.911   2.308  0.0271  0.8901 -0.8642
 6673SOL     OW31654   0.729   2.018  11.147 -0.1204 -0.0164  0.1002
 6673SOL    HW131655   0.666   2.068  11.095  0.1661 -0.4120 -0.6319
 6673SOL    HW231656   0.807   2.068  11.125  0.2420 -0.2707  0.8370
 6674SOL     OW31657   3.744   1.644   6.456  0.1267 -0.3127  0.9134
 6674SOL    HW131658   3.705   1.653   6.368  0.6702 -0.5399  0.6499
 6674SOL    HW231659   3.831   1.678   6.434 -1.0724  2.6765  0.7248
 6675SOL     OW31660   0.806   3.716   2.895 -0.1377 -0.1526  0.0580
 6675SOL    HW131661   0.899   3.725   2.874 -0.3166  3.7212  0.8335
 6675SOL    HW231662   0.797   3.769   2.974  0.1290 -1.9370  1.2574
 6676SOL     OW31663   2.715   4.137  12.469 -0.1719 -0.1342 -0.3012
 6676SOL    HW131664   2.710   4.147  12.564 -0.0603  1.1734 -0.4251
 6676SOL    HW231665   2.693   4.226  12.440  3.2668 -0.1885 -3.0788
 6677SOL     OW31666   1.808   1.951  12.615  0.3594  0.2195 -0.0384
 6677SOL    HW131667   1.758   2.014  12.667  0.1247  0.5460 -0.6675
 6677SOL    HW231668   1.845   1.913  12.695  2.8591 -0.6125 -1.5873
 6678SOL     OW31669   3.337   3.056   0.661  0.3894  0.6067  0.8290
 6678SOL    HW131670   3.290   3.003   0.597  2.9010 -0.6349  0.0309
 6678SOL    HW231671   3.325   3.146   0.630 -0.3610  0.1426 -0.2089
 6679SOL     OW31672   3.614   0.574   5.590  0.0628  0.7791 -0.5201
 6679SOL    HW131673   3.609   0.480   5.572 -1.2139  1.0403 -1.5577
 6679SOL    HW231674   3.700   0.594   5.555  0.7856  0.5854  1.1574
 6680SOL     OW31675   0.492   3.657   2.490 -0.0564 -0.2395  0.2681
 6680SOL    HW131676   0.556   3.672   2.560  1.1234  0.0733 -0.8685
 6680SOL    HW231677   0.547   3.672   2.412 -0.0003 -0.0147  0.3502
 6681SOL     OW31678   2.086   1.981   5.627 -0.0570  0.0143  0.2696
 6681SOL    HW131679   2.092   2.067   5.586 -0.1510  0.1140  0.4695
 6681SOL    HW231680   2.141   1.940   5.560  0.2978  2.1076 -0.7069
 6682SOL     OW31681   3.219   2.135  13.882 -0.3406 -0.3128 -0.0667
 6682SOL    HW131682   3.190   2.213  13.836  3.5153  0.5456 -1.0428
 6682SOL    HW231683   3.309   2.157  13.905  0.9236 -3.4571 -2.0136
 6683SOL     OW31684   2.189   3.990   7.731 -0.0503 -0.2166 -0.2134
 6683SOL    HW131685   2.178   3.960   7.641  0.0869 -1.4944  0.2020
 6683SOL    HW231686   2.170   3.909   7.778 -2.1352 -0.1195 -0.8784
 6684SOL     OW31687   0.350   2.844   1.424  0.2274  0.3818 -0.0538
 6684SOL    HW131688   0.341   2.925   1.374 -1.2080  0.0170 -0.3949
 6684SOL    HW231689   0.331   2.869   1.514 -0.1153  1.7289 -0.4997
 6685SOL     OW31690   3.419   1.184   4.375 -0.3266  0.6718 -0.2742
 6685SOL    HW131691   3.383   1.109   4.326 -0.3699  0.0714  0.6726
 6685SOL    HW231692   3.479   1.146   4.439 -0.4876  0.0167 -0.5119
 6686SOL     OW31693   3.224   0.648   8.691  0.1340  0.7986  0.1620
 6686SOL    HW131694   3.284   0.576   8.673 -0.8565 -0.4157  1.6021
 6686SOL    HW231695   3.281   0.720   8.718  0.3717 -0.1675  2.2906
 6687SOL     OW31696   2.113   0.689   6.694  0.3857 -0.3132  0.2905
 6687SOL    HW131697   2.098   0.659   6.784  1.2716 -0.1699  0.4780
 6687SOL    HW231698   2.047   0.759   6.691  0.4103 -0.3038 -0.0566
 6688SOL     OW31699   2.047   0.850   3.861 -0.0897 -0.4811 -0.1553
 6688SOL    HW131700   1.977   0.785   3.869 -1.2678  0.7398 -0.5428
 6688SOL    HW231701   2.032   0.901   3.940 -0.4629 -1.9295  0.7063
 6689SOL     OW31702   1.203   0.637   5.675  0.0359 -0.2710 -0.2006
 6689SOL    HW131703   1.200   0.729   5.701  1.5023 -0.2182 -0.2510
 6689SOL    HW231704   1.288   0.615   5.714 -0.3603  1.1680  1.4732
 6690SOL     OW31705   0.624   0.608   4.650 -0.7493 -0.0486 -0.3747
 6690SOL    HW131706   0.534   0.604   4.616 -0.4458 -2.2391 -0.9324
 6690SOL    HW231707   0.625   0.668   4.724 -1.1161  1.5963 -1.6858
 6691SOL     OW31708   0.889   1.464   2.852 -0.1501 -0.7791  0.2748
 6691SOL    HW131709   0.927   1.549   2.829  0.1101 -1.1806 -0.8213
 6691SOL    HW231710   0.958   1.428   2.908  0.3595 -0.2844 -0.0326
 6692SOL     OW31711   1.892   2.676  15.706  0.0006 -0.5663 -0.2625
 6692SOL    HW131712   1.940   2.757  15.692 -2.3386  1.1200  1.6579
 6692SOL    HW231713   1.822   2.664  15.643 -1.3238  1.3187  0.8716
 6693SOL     OW31714   3.252   2.422  17.432  0.1683  0.2069 -0.4290
 6693SOL    HW131715   3.195   2.448  17.360 -1.3876 -1.4177  0.2246
 6693SOL    HW231716   3.189   2.426  17.504  0.9452 -2.0409  0.3822
 6694SOL     OW31717   1.974   3.893   2.475 -0.1085 -0.3309 -0.3613
 6694SOL    HW131718   2.036   3.881   2.403  1.3989 -1.1860  1.0911
 6694SOL    HW231719   1.997   3.976   2.517  0.0585 -0.3528 -0.4097
 6695SOL     OW31720   2.920   3.943   8.064  0.5353  0.8065 -0.4237
 6695SOL    HW131721   2.890   3.993   8.140 -0.4539 -0.4313  0.0094
 6695SOL    HW231722   2.904   4.010   7.997  3.8748 -0.4236 -2.4717
 6696SOL     OW31723   3.136   3.766   7.761 -0.1839 -0.6727 -0.0082
 6696SOL    HW131724   3.132   3.811   7.846  0.8354  0.0689 -0.3519
 6696SOL    HW231725   3.204   3.701   7.779 -0.3372 -0.4610  1.3483
 6697SOL     OW31726   0.317   3.271   8.770 -0.0212  0.3100 -0.6781
 6697SOL    HW131727   0.281   3.226   8.846 -0.3257  0.2585 -0.8527
 6697SOL    HW231728   0.356   3.197   8.723  0.2522  2.6590 -4.1366
 6698SOL     OW31729   0.403   3.098   9.919 -0.2134  0.1663  0.1720
 6698SOL    HW131730   0.351   3.098   9.999 -1.9377  2.4902 -0.9350
 6698SOL    HW231731   0.338   3.076   9.853  0.9032 -0.3307 -0.7714
 6699SOL     OW31732   4.649   3.282   6.242 -0.0546 -0.1780 -0.1014
 6699SOL    HW131733   4.635   3.346   6.312  1.4027 -0.8422  0.7852
 6699SOL    HW231734   4.558   3.263   6.219 -0.4955  1.3582  0.3738
 6700SOL     OW31735   2.059   3.692   3.789 -0.6932 -0.0184  0.3637
 6700SOL    HW131736   2.088   3.769   3.740 -1.9625  1.6853  2.2778
 6700SOL    HW231737   1.979   3.719   3.835  0.0573 -0.6853  2.0773
 6701SOL     OW31738   0.092   3.808  14.659 -0.3476 -0.0544 -0.9052
 6701SOL    HW131739   0.138   3.781  14.739  0.5106 -0.2340 -1.4525
 6701SOL    HW231740   0.137   3.892  14.649  0.3281 -0.2495  0.3668
 6702SOL     OW31741   2.491   4.322  14.420 -0.2852  0.0474  0.3496
 6702SOL    HW131742   2.480   4.321  14.515  0.0856  0.7636  0.3946
 6702SOL    HW231743   2.578   4.362  14.419  0.1027 -0.8198 -0.8789
 6703SOL     OW31744   0.419   0.514  14.850 -0.1371  0.4345  0.4716
 6703SOL    HW131745   0.478   0.464  14.908  0.9982  0.1074 -0.9607
 6703SOL    HW231746   0.443   0.603  14.876  1.1174  0.0403  0.6791
 6704SOL     OW31747   2.602   0.840   4.954 -0.0877  0.0430 -0.0198
 6704SOL    HW131748   2.576   0.803   5.038 -1.2232  0.3291 -0.2545
 6704SOL    HW231749   2.651   0.919   4.978  0.1084  0.2454 -1.0813
 6705SOL     OW31750   3.002   0.921   6.051 -0.2100  0.3026 -0.4651
 6705SOL    HW131751   2.908   0.928   6.035 -0.3015  0.7423  0.2430
 6705SOL    HW231752   2.996   0.839   6.099 -1.0385  0.9321  0.5085
 6706SOL     OW31753   4.085   3.169   3.471 -0.1784 -0.0595 -0.3208
 6706SOL    HW131754   4.031   3.191   3.547  2.5734 -0.6526  1.7742
 6706SOL    HW231755   4.029   3.109   3.422 -1.2995 -0.5680  1.5867
 6707SOL     OW31756   1.553   0.023   1.287 -0.6002  0.1757  0.0786
 6707SOL    HW131757   1.491   0.027   1.360 -1.0758  2.5235 -0.4713
 6707SOL    HW231758   1.583   4.671   1.277  0.3097  0.4730  0.1446
 6708SOL     OW31759   3.384   1.339  10.087  0.0057 -0.2732 -0.9650
 6708SOL    HW131760   3.316   1.289  10.131  0.4859 -0.7648 -0.7757
 6708SOL    HW231761   3.382   1.313   9.994 -0.0612  1.4247 -1.4358
 6709SOL     OW31762   3.742   0.332   1.639 -0.9538 -0.1983  0.0553
 6709SOL    HW131763   3.836   0.316   1.644 -1.0115  0.0750  1.9797
 6709SOL    HW231764   3.713   0.251   1.598  0.0108  0.5086 -2.0447
 6710SOL     OW31765   2.137   1.834   9.998  0.1934 -0.5740  0.3964
 6710SOL    HW131766   2.129   1.754  10.051  0.3315 -1.6864 -1.2503
 6710SOL    HW231767   2.116   1.810   9.908  0.6159 -1.2218  0.4689
 6711SOL     OW31768   0.224   0.322   4.024 -0.0464 -0.6143 -0.0128
 6711SOL    HW131769   0.250   0.247   3.972 -0.1951 -1.1497  0.6865
 6711SOL    HW231770   0.312   0.355   4.041  0.3212 -1.6376  0.0096
 6712SOL     OW31771   3.487   4.619   4.492  0.4373 -1.0767  0.1807
 6712SOL    HW131772   3.498   4.524   4.504 -0.3111 -1.3290 -1.0568
 6712SOL    HW231773   3.411   4.623   4.433  1.7452  1.8635 -1.2882
 6713SOL     OW31774   1.672   4.120   3.778  0.0904  0.0641 -0.2802
 6713SOL    HW131775   1.584   4.154   3.764 -0.2004 -0.5097  0.1377
 6713SOL    HW231776   1.700   4.072   3.701  1.0028 -0.3129  0.2862
 6714SOL     OW31777   2.951   4.432   3.469  0.1610 -0.1128  0.1277
 6714SOL    HW131778   2.930   4.342   3.446  2.7943 -0.7756  0.2566
 6714SOL    HW231779   2.992   4.469   3.391 -2.1369  2.9618  0.3616
 6715SOL     OW31780   1.866   4.642   9.786 -0.5268  0.2530 -0.2960
 6715SOL    HW131781   1.929   4.575   9.812 -0.8117 -0.6522 -1.9305
 6715SOL    HW231782   1.895   4.720   9.834  0.9799  1.6610 -3.5292
 6716SOL     OW31783   1.957   1.647  12.754 -0.4046  0.2730  0.7595
 6716SOL    HW131784   1.864   1.629  12.740 -0.0979  0.8991 -2.0978
 6716SOL    HW231785   1.986   1.559  12.779  0.9451  0.5869  0.2746
 6717SOL     OW31786   1.376   4.019   9.315 -0.1802 -0.5483  0.9024
 6717SOL    HW131787   1.421   3.934   9.318  0.1773 -0.5243 -3.2396
 6717SOL    HW231788   1.376   4.041   9.408  0.1788  0.2829  0.6997
 6718SOL     OW31789   1.971   4.329   1.547  0.2126 -0.1634 -0.9975
 6718SOL    HW131790   1.910   4.358   1.479  0.5057  0.4105 -1.0218
 6718SOL    HW231791   1.934   4.254   1.594 -2.3330  1.3101 -0.6510
 6719SOL     OW31792   1.747   4.127   5.902  0.6469  0.6635  0.1836
 6719SOL    HW131793   1.732   4.070   5.826 -2.0483  2.5834 -0.7080
 6719SOL    HW231794   1.788   4.207   5.869  1.5149  0.0122 -0.3094
 6720SOL     OW31795   0.455   3.595   5.940 -0.2584 -0.3516 -0.4588
 6720SOL    HW131796   0.470   3.503   5.961 -1.3743 -0.6382 -0.9122
 6720SOL    HW231797   0.384   3.622   5.999  1.4681  1.7955  0.6144
 6721SOL     OW31798   4.271   3.288   2.755  0.4003 -0.5278 -0.0634
 6721SOL    HW131799   4.335   3.218   2.747 -0.2714 -1.1875  0.2699
 6721SOL    HW231800   4.267   3.329   2.669 -1.1811 -1.9318 -0.6534
 6722SOL     OW31801   2.439   2.522   5.678 -0.1102  0.0755 -0.1820
 6722SOL    HW131802   2.407   2.590   5.619 -1.3862 -0.6718 -0.3504
 6722SOL    HW231803   2.382   2.451   5.647 -1.5098  0.4954  1.4595
 6723SOL     OW31804   3.943   0.012   9.443 -0.2301 -0.5309  0.0513
 6723SOL    HW131805   3.899   0.080   9.392  2.6428  1.3144  0.0210
 6723SOL    HW231806   4.014   4.718   9.388  0.2726  0.1280  0.3085
 6724SOL     OW31807   3.328   2.885   8.639 -0.1669 -0.2287 -0.0277
 6724SOL    HW131808   3.354   2.936   8.562 -1.1414 -3.6904 -2.6529
 6724SOL    HW231809   3.248   2.932   8.665 -0.2478 -0.0012 -0.6636
 6725SOL     OW31810   2.670   4.018  16.902  0.2107  0.4991  0.5534
 6725SOL    HW131811   2.752   4.029  16.950  1.1992 -1.7001 -0.5833
 6725SOL    HW231812   2.610   4.030  16.975 -2.0164  3.5732 -1.7741
 6726SOL     OW31813   3.299   2.292  16.336  0.1958 -0.5609 -0.5047
 6726SOL    HW131814   3.333   2.246  16.413  3.7965  1.6044 -0.7803
 6726SOL    HW231815   3.222   2.236  16.326 -0.7280  0.7378 -0.6795
 6727SOL     OW31816   1.355   1.413   3.553 -0.8532  0.3050 -0.2516
 6727SOL    HW131817   1.336   1.342   3.614  2.0517 -0.1343  0.1401
 6727SOL    HW231818   1.396   1.478   3.611 -1.5732  1.1119 -0.6343
 6728SOL     OW31819   3.152   3.044  10.217 -0.0372 -0.0416 -0.3114
 6728SOL    HW131820   3.186   3.107  10.281  0.6263 -1.4486  0.7106
 6728SOL    HW231821   3.080   3.005  10.266 -0.5184  0.4310 -0.6369
 6729SOL     OW31822   3.449   3.283   2.449 -0.4431 -0.6221 -0.3250
 6729SOL    HW131823   3.493   3.199   2.457  0.6769 -0.2270 -2.2590
 6729SOL    HW231824   3.366   3.248   2.481 -1.4089  2.9501  1.1132
 6730SOL     OW31825   1.348   2.435  16.402 -0.7913  0.5070  0.1691
 6730SOL    HW131826   1.372   2.442  16.495 -0.2905 -2.0190  0.2169
 6730SOL    HW231827   1.356   2.529  16.382 -1.2125  0.7597  1.1894
 6731SOL     OW31828   2.127   0.346   4.251  0.1849 -0.0906 -0.2379
 6731SOL    HW131829   2.134   0.435   4.286  1.2146  0.2110 -1.1992
 6731SOL    HW231830   2.196   0.345   4.185  0.2670 -1.3778 -0.1237
 6732SOL     OW31831   1.398   3.190  13.454  0.2870  0.6855  0.1273
 6732SOL    HW131832   1.311   3.156  13.435 -0.5160  2.6608  0.2127
 6732SOL    HW231833   1.429   3.125  13.517  0.9550  2.2251  1.3836
 6733SOL     OW31834   4.196   3.039   0.647  0.0629 -0.3019  0.2309
 6733SOL    HW131835   4.288   3.014   0.662  0.0793  0.6586  1.6520
 6733SOL    HW231836   4.186   3.011   0.556 -1.6420 -0.8088  0.5862
 6734SOL     OW31837   4.081   3.358   5.760 -0.2534 -0.3921  0.7934
 6734SOL    HW131838   4.124   3.312   5.688 -0.5774  1.2254 -0.4401
 6734SOL    HW231839   3.995   3.320   5.775 -0.8201  0.9812  1.0526
 6735SOL     OW31840   1.156   0.731   6.341  0.5969  0.3771 -0.0018
 6735SOL    HW131841   1.062   0.713   6.341  0.3084  1.8603  1.4412
 6735SOL    HW231842   1.180   0.647   6.380  1.0220  0.2305 -0.5850
 6736SOL     OW31843   4.732   1.202   4.818  0.0129  0.4597 -0.0434
 6736SOL    HW131844   4.647   1.204   4.861  0.4717  0.0656  0.8875
 6736SOL    HW231845   4.704   1.201   4.727  0.0327 -0.5251 -0.0377
 6737SOL     OW31846   1.787   0.484  14.763  0.0661 -0.0313  0.0105
 6737SOL    HW131847   1.847   0.551  14.730 -2.0147  2.6588  1.7871
 6737SOL    HW231848   1.822   0.417  14.703  1.9511  1.9435 -1.1100
 6738SOL     OW31849   1.573   2.661  11.552  0.0520 -0.1009 -0.3981
 6738SOL    HW131850   1.610   2.694  11.634 -0.1326 -1.2432  0.1540
 6738SOL    HW231851   1.649   2.680  11.497 -0.0097 -0.2706 -0.5432
 6739SOL     OW31852   3.106   3.817   9.135  0.0785  0.0663 -0.0250
 6739SOL    HW131853   3.151   3.736   9.160 -0.6030 -0.4727 -0.5689
 6739SOL    HW231854   3.172   3.857   9.077  0.2381  0.9184  0.7416
 6740SOL     OW31855   2.804   1.956  12.436 -0.4227  0.4534 -0.4868
 6740SOL    HW131856   2.826   1.877  12.486 -0.9733 -0.2473 -1.3647
 6740SOL    HW231857   2.742   2.000  12.493 -0.0839 -0.0916  0.3040
 6741SOL     OW31858   4.554   3.581  14.547  0.7297  0.4816  0.2500
 6741SOL    HW131859   4.483   3.584  14.483  0.9887  2.0485  0.0265
 6741SOL    HW231860   4.498   3.583  14.625 -0.1835 -0.6818 -0.3874
 6742SOL     OW31861   0.502   4.555   7.293 -0.2646 -0.2905  0.0497
 6742SOL    HW131862   0.411   4.563   7.324 -0.9394 -0.0837 -2.0257
 6742SOL    HW231863   0.538   4.644   7.292 -0.4244 -0.1661  2.9810
 6743SOL     OW31864   1.932   4.217   7.007  0.3711 -0.1804  0.3008
 6743SOL    HW131865   1.964   4.304   7.030 -0.4008  0.7181 -2.1056
 6743SOL    HW231866   1.871   4.202   7.080 -0.9880 -1.8615 -1.1886
 6744SOL     OW31867   4.081   1.834  14.006 -0.5700 -0.4185  0.3034
 6744SOL    HW131868   4.170   1.853  14.033 -0.4931 -0.5998  0.1734
 6744SOL    HW231869   4.088   1.763  13.942 -0.0546  0.0200 -0.1253
 6745SOL     OW31870   0.342   4.313   6.666 -0.2927 -0.5201 -0.8951
 6745SOL    HW131871   0.351   4.236   6.610 -2.7183 -1.0365 -0.5657
 6745SOL    HW231872   0.330   4.257   6.743  1.9804 -0.7764 -0.7210
 6746SOL     OW31873   1.454   0.369   3.068 -0.3632 -0.3048  0.3847
 6746SOL    HW131874   1.527   0.337   3.014 -1.7275 -0.4881 -1.3444
 6746SOL    HW231875   1.376   0.366   3.013 -0.4710 -1.0031  0.5861
 6747SOL     OW31876   1.556   3.260  16.708 -0.0751  0.5836  0.0928
 6747SOL    HW131877   1.542   3.347  16.670  0.9860  0.4635 -0.5789
 6747SOL    HW231878   1.634   3.272  16.762  0.3390  0.6425 -0.5183
 6748SOL     OW31879   1.516   2.479   3.341 -0.1622 -0.1243  0.6991
 6748SOL    HW131880   1.575   2.426   3.287 -0.0049 -1.0993  1.8494
 6748SOL    HW231881   1.564   2.477   3.423  1.9951 -0.2326 -0.5644
 6749SOL     OW31882   3.460   1.997   7.853  0.8108 -0.0984 -0.3600
 6749SOL    HW131883   3.418   2.076   7.819  0.5837  0.5435  1.3803
 6749SOL    HW231884   3.507   2.039   7.925  2.5750 -0.9947 -0.9913
 6750SOL     OW31885   1.093   3.460   5.288  0.0889  0.3435  0.3156
 6750SOL    HW131886   1.031   3.516   5.334 -1.4205 -0.4849 -0.7135
 6750SOL    HW231887   1.051   3.374   5.284  1.7329 -0.4069 -0.8427
 6751SOL     OW31888   1.414   1.548   5.925 -0.2744  1.2590 -1.3984
 6751SOL    HW131889   1.321   1.558   5.904 -1.4741  0.3116  3.5803
 6751SOL    HW231890   1.450   1.522   5.840  1.0304 -2.9274  0.4600
 6752SOL     OW31891   4.146   2.427   2.494 -0.1107  0.7234  0.0709
 6752SOL    HW131892   4.161   2.501   2.552  0.8555  0.3788  0.2739
 6752SOL    HW231893   4.051   2.421   2.499  0.0609 -0.5605  2.1345
 6753SOL     OW31894   0.209   4.331   0.509  0.5549 -0.5536  0.5816
 6753SOL    HW131895   0.225   4.327   0.603  2.7962  0.5962  0.2456
 6753SOL    HW231896   0.240   4.420   0.494 -0.0578 -0.2872  0.8886
 6754SOL     OW31897   2.154   0.689   9.632 -0.2194 -0.2357  0.0306
 6754SOL    HW131898   2.119   0.721   9.716  0.0684  0.8203 -0.2544
 6754SOL    HW231899   2.242   0.664   9.660  0.1666  0.8616 -0.1744
 6755SOL     OW31900   0.178   1.751   9.003 -1.1288  0.0447 -0.5625
 6755SOL    HW131901   0.260   1.719   9.040 -1.3971 -0.8243 -0.7250
 6755SOL    HW231902   0.122   1.703   9.064  0.5080 -1.0550  0.0830
 6756SOL     OW31903   4.347   0.402   5.698 -0.0432  0.1188 -0.0631
 6756SOL    HW131904   4.396   0.354   5.631 -0.1294  0.4032 -0.3321
 6756SOL    HW231905   4.416   0.450   5.743 -0.0522  2.5541 -2.6273
 6757SOL     OW31906   1.664   4.397   4.621  0.0394 -0.0893  0.3464
 6757SOL    HW131907   1.693   4.424   4.534 -1.0063  2.0725  0.6776
 6757SOL    HW231908   1.659   4.303   4.602  1.8842  0.5629 -3.3523
 6758SOL     OW31909   4.395   1.899   6.974 -0.0121  1.1235  0.4012
 6758SOL    HW131910   4.384   1.805   6.986  0.5409  0.9688 -0.2604
 6758SOL    HW231911   4.370   1.908   6.882  1.8161  0.3110 -0.1845
 6759SOL     OW31912   3.920   2.137   3.140  0.3662 -0.3126  0.0536
 6759SOL    HW131913   3.835   2.114   3.176  1.8934 -3.5871  1.5947
 6759SOL    HW231914   3.928   2.232   3.153 -0.5932 -0.3994  1.2109
 6760SOL     OW31915   1.390   4.333  13.145  0.1722  0.6338 -0.1112
 6760SOL    HW131916   1.331   4.404  13.123  0.6909  1.1856  0.2714
 6760SOL    HW231917   1.467   4.369  13.100  0.7239 -1.0716 -0.5210
 6761SOL     OW31918   3.191   1.671  12.320 -0.4218  0.0271 -0.3627
 6761SOL    HW131919   3.182   1.713  12.235 -1.3292  0.1286 -0.2153
 6761SOL    HW231920   3.271   1.618  12.313  1.7045  3.4246 -1.8876
 6762SOL     OW31921   1.912   2.126  12.368  0.3228  0.4926  0.7007
 6762SOL    HW131922   1.926   2.213  12.330 -0.4752  0.6547  0.7630
 6762SOL    HW231923   1.889   2.156  12.457 -0.1403  2.1915  0.0128
 6763SOL     OW31924   0.218   3.677  11.556 -0.1445 -0.0482  0.0745
 6763SOL    HW131925   0.255   3.712  11.475 -0.7566 -0.7582 -0.5156
 6763SOL    HW231926   0.220   3.585  11.530  1.1738  0.8358 -2.9330
 6764SOL     OW31927   0.380   3.526   4.268 -0.2000 -0.3577  0.9959
 6764SOL    HW131928   0.376   3.483   4.183 -1.4438 -1.0911  1.4383
 6764SOL    HW231929   0.400   3.614   4.235  0.5691 -1.1391 -0.6277
 6765SOL     OW31930   2.986   4.021   4.159  0.3685 -0.0101  0.2482
 6765SOL    HW131931   3.055   3.999   4.097  1.0947 -0.9773  1.3973
 6765SOL    HW231932   2.911   4.000   4.104  0.7062  2.2929 -1.1009
 6766SOL     OW31933   1.909   2.838   8.656  0.2906 -0.6269 -0.7668
 6766SOL    HW131934   1.959   2.888   8.591  0.7217 -0.8432 -0.6000
 6766SOL    HW231935   1.820   2.873   8.650 -0.0115 -1.1760  0.5074
 6767SOL     OW31936   1.954   0.895   6.646  0.4018  0.7004  0.2634
 6767SOL    HW131937   1.915   0.964   6.700  1.4331  1.7586 -0.3423
 6767SOL    HW231938   1.976   0.935   6.562  1.1404 -0.5089 -0.1067
 6768SOL     OW31939   3.497   2.921   1.780  0.2532 -0.0666  0.2281
 6768SOL    HW131940   3.560   2.921   1.851  0.4563 -0.1655  0.0488
 6768SOL    HW231941   3.547   2.901   1.701 -1.9596  0.5846 -1.3436
 6769SOL     OW31942   2.836   0.456   7.009  0.3116  0.2761 -0.0872
 6769SOL    HW131943   2.913   0.406   7.036 -0.2583 -1.0802 -0.9767
 6769SOL    HW231944   2.791   0.396   6.950 -0.8237 -0.8073  1.8989
 6770SOL     OW31945   0.172   2.129   5.900 -0.2492  0.3372  0.4392
 6770SOL    HW131946   0.102   2.168   5.953 -0.6419  1.9767 -1.2970
 6770SOL    HW231947   0.249   2.142   5.955  0.3713 -0.0490 -0.3438
 6771SOL     OW31948   3.726   2.913   5.603  0.0381  0.6167  0.7779
 6771SOL    HW131949   3.663   2.976   5.638  0.2755  3.0052 -3.1231
 6771SOL    HW231950   3.677   2.838   5.569  1.3042 -0.4023  1.1682
 6772SOL     OW31951   4.169   1.765   7.953 -0.1955  0.1178  0.5220
 6772SOL    HW131952   4.105   1.708   7.910  1.3585 -0.3520 -1.1964
 6772SOL    HW231953   4.128   1.763   8.039 -0.8762  2.9525  0.2846
 6773SOL     OW31954   0.937   4.664   6.347 -0.1458  0.5243 -0.2936
 6773SOL    HW131955   0.911   4.578   6.313  3.3390 -0.1025 -1.3160
 6773SOL    HW231956   0.991   4.704   6.280  0.3123  1.0340  0.3829
 6774SOL     OW31957   2.313   1.395   4.588  0.7715 -0.0841  0.0606
 6774SOL    HW131958   2.244   1.442   4.634  0.5972  1.6156 -1.8963
 6774SOL    HW231959   2.374   1.469   4.589  0.8583 -0.1513 -0.1543
 6775SOL     OW31960   1.944   4.088  10.247 -0.4516 -0.0767  0.0343
 6775SOL    HW131961   1.915   4.152  10.312  1.6992  0.6262  0.3119
 6775SOL    HW231962   1.874   4.025  10.229 -1.0749  0.5222  0.3865
 6776SOL     OW31963   1.556   2.834   9.265 -0.1599 -0.0252 -0.0019
 6776SOL    HW131964   1.643   2.810   9.296 -0.6751 -0.2058  1.3020
 6776SOL    HW231965   1.537   2.922   9.296  1.2735 -0.5220  2.2447
 6777SOL     OW31966   2.976   4.149   8.868 -0.2071 -0.0345 -0.1469
 6777SOL    HW131967   2.967   4.234   8.825  0.8679  0.9224  1.5511
 6777SOL    HW231968   2.932   4.091   8.805  0.8304 -0.2844 -0.6501
 6778SOL     OW31969   4.407   4.348   8.495 -0.5449 -0.1755 -0.1423
 6778SOL    HW131970   4.451   4.328   8.412 -0.6810  0.6639 -0.4170
 6778SOL    HW231971   4.472   4.314   8.556 -0.4230 -1.2428 -0.8507
 6779SOL     OW31972   0.379   4.435  14.937 -0.2645 -0.0285  0.2459
 6779SOL    HW131973   0.300   4.472  14.899 -0.2089 -1.8869 -1.6589
 6779SOL    HW231974   0.397   4.365  14.874 -3.2172  0.2121 -0.8444
 6780SOL     OW31975   1.518   4.130   8.289 -0.3274 -0.3749 -0.5745
 6780SOL    HW131976   1.469   4.122   8.371  0.1323 -2.3856 -0.4900
 6780SOL    HW231977   1.600   4.174   8.313 -0.6554  0.5525 -1.1386
 6781SOL     OW31978   0.390   0.142   5.349  0.3364  0.2866  0.3981
 6781SOL    HW131979   0.400   0.195   5.270 -0.8193  1.1488  0.8329
 6781SOL    HW231980   0.408   0.204   5.419  2.4543 -0.9390  0.9449
 6782SOL     OW31981   2.484   3.832  10.897  0.1750 -0.2548  0.7964
 6782SOL    HW131982   2.507   3.739  10.898 -0.2285 -0.3697 -0.9473
 6782SOL    HW231983   2.393   3.824  10.923 -0.4259  1.1563 -0.8649
 6783SOL     OW31984   4.288   0.965   9.529  0.7320  0.0376  0.8561
 6783SOL    HW131985   4.299   0.892   9.468 -1.7205  0.6351 -0.3239
 6783SOL    HW231986   4.246   1.033   9.476 -2.5861 -3.6817 -1.3426
 6784SOL     OW31987   3.314   0.085   7.253  0.2702  0.3974  0.1009
 6784SOL    HW131988   3.392   0.084   7.309  0.1999  0.4114  0.1999
 6784SOL    HW231989   3.312   0.177   7.226 -3.9602  0.2650 -0.0484
 6785SOL     OW31990   4.040   4.055  10.412 -0.8238 -0.0695 -0.2760
 6785SOL    HW131991   4.087   4.075  10.331  0.3958 -0.7030  0.2756
 6785SOL    HW231992   4.045   3.960  10.405  1.9307  0.1529 -1.2967
 6786SOL     OW31993   0.259   1.443  12.013 -0.8044  0.4970  0.7527
 6786SOL    HW131994   0.333   1.479  12.062 -1.8430  1.1071  1.8872
 6786SOL    HW231995   0.241   1.367  12.068 -0.8921 -2.0928 -2.8998
 6787SOL     OW31996   1.220   2.766   6.928 -0.2263 -0.5641 -0.2081
 6787SOL    HW131997   1.291   2.702   6.935 -0.5942 -1.1121 -1.5436
 6787SOL    HW231998   1.261   2.849   6.954 -0.4707 -0.9354  1.3707
 6788SOL     OW31999   0.873   0.220  12.565 -0.1335  0.1024  0.1727
 6788SOL    HW132000   0.923   0.139  12.559 -0.0475  0.0361  1.6547
 6788SOL    HW232001   0.784   0.186  12.577 -0.3838  0.4193 -0.8087
 6789SOL     OW32002   2.136   0.018   8.272  0.0106 -0.1682 -0.2977
 6789SOL    HW132003   2.045   0.045   8.267 -0.4414 -1.1181  3.2214
 6789SOL    HW232004   2.182   0.088   8.225  1.1003 -0.2385  0.6654
 6790SOL     OW32005   1.501   0.891   4.180  0.0479 -0.7893  0.5546
 6790SOL    HW132006   1.526   0.800   4.164  0.1888 -0.8617  1.1895
 6790SOL    HW232007   1.411   0.879   4.148 -0.2872  0.4304  1.0381
 6791SOL     OW32008   0.325   4.613   4.922  0.7003  0.0081 -0.2155
 6791SOL    HW132009   0.374   4.681   4.877 -0.3246  0.8640 -0.0437
 6791SOL    HW232010   0.387   4.540   4.917 -0.3313 -0.9450  0.8977
 6792SOL     OW32011   4.165   2.871   4.043 -0.7396  0.1681  0.2383
 6792SOL    HW132012   4.083   2.921   4.047 -0.6833  0.2472  0.4003
 6792SOL    HW232013   4.180   2.847   4.135  1.2644 -0.3978 -0.2474
 6793SOL     OW32014   3.485   2.467   5.447  0.0274  0.1235  0.8317
 6793SOL    HW132015   3.393   2.479   5.472 -0.0321 -0.6616  0.9792
 6793SOL    HW232016   3.473   2.450   5.354 -1.1600 -1.9045  1.3550
 6794SOL     OW32017   3.165   2.128  17.411  0.0755 -0.2441  0.3829
 6794SOL    HW132018   3.147   2.037  17.388  0.6224 -0.9628  2.7889
 6794SOL    HW232019   3.224   2.154  17.341  0.5133 -0.6963  0.5895
 6795SOL     OW32020   3.602   1.038   3.836 -0.2030 -0.5233  0.0634
 6795SOL    HW132021   3.666   1.066   3.770 -0.6658 -0.3603 -0.3140
 6795SOL    HW232022   3.633   0.949   3.854  2.7317  0.9173  2.0753
 6796SOL     OW32023   3.766   1.488   5.158  1.0607  0.1836  0.6491
 6796SOL    HW132024   3.746   1.435   5.235 -0.2541 -0.6203 -0.2538
 6796SOL    HW232025   3.707   1.563   5.166  0.0228 -0.8226  2.5376
 6797SOL     OW32026   0.690   0.876  10.073 -0.3165 -0.8424  0.3713
 6797SOL    HW132027   0.699   0.819  10.149 -0.9906 -0.0326  1.0488
 6797SOL    HW232028   0.647   0.814  10.014 -2.4314  3.7344 -2.9452
 6798SOL     OW32029   4.584   4.533   5.406  0.1608 -0.1818 -0.1652
 6798SOL    HW132030   4.618   4.535   5.496 -0.6927 -0.4656  0.1682
 6798SOL    HW232031   4.626   4.615   5.379  3.1910 -1.0306  1.8697
 6799SOL     OW32032   1.432   0.273   1.219 -0.3370  0.1994 -0.2389
 6799SOL    HW132033   1.355   0.244   1.268 -0.0107 -1.2935 -0.6122
 6799SOL    HW232034   1.481   0.194   1.195 -1.0657 -0.4267  0.3296
 6800SOL     OW32035   2.233   2.773   4.827 -0.4990 -0.2079 -0.6115
 6800SOL    HW132036   2.259   2.865   4.826 -2.2175  0.2947 -0.3628
 6800SOL    HW232037   2.194   2.758   4.742  0.1037 -0.1727 -0.8931
 6801SOL     OW32038   2.572   4.272   6.227 -0.3293 -0.5424 -1.0460
 6801SOL    HW132039   2.613   4.338   6.172  0.4516  0.0493  0.2626
 6801SOL    HW232040   2.561   4.319   6.309 -0.1760 -0.8685 -0.8386
 6802SOL     OW32041   3.370   4.385   5.556  0.5043 -0.3895 -0.1912
 6802SOL    HW132042   3.423   4.306   5.561  2.1530  0.9269  3.2949
 6802SOL    HW232043   3.435   4.449   5.526  0.7778  0.2736  1.8352
 6803SOL     OW32044   0.422   2.714   5.798 -0.1902 -0.3101 -0.7110
 6803SOL    HW132045   0.434   2.641   5.859 -3.1065 -0.2987 -0.1290
 6803SOL    HW232046   0.514   2.737   5.782  0.0678 -1.2005 -0.4824
 6804SOL     OW32047   4.029   0.212   7.233 -0.1625 -0.6993  0.1918
 6804SOL    HW132048   4.049   0.300   7.201  1.4283 -1.3948 -0.7425
 6804SOL    HW232049   4.029   0.164   7.151  0.3896  1.0104 -0.8096
 6805SOL     OW32050   2.284   3.841   8.686  0.1974  0.1001 -0.4721
 6805SOL    HW132051   2.210   3.890   8.722  0.7340 -1.3611  2.6285
 6805SOL    HW232052   2.239   3.817   8.605  0.0352 -0.1287 -0.3151
 6806SOL     OW32053   3.331   2.043  14.139  0.1393 -0.2411 -0.1396
 6806SOL    HW132054   3.352   1.959  14.097  0.5421  0.3304 -1.0812
 6806SOL    HW232055   3.238   2.046  14.117  0.2397 -0.3890 -0.5868
 6807SOL     OW32056   3.537   0.546  16.184 -0.2253 -0.4234 -0.4046
 6807SOL    HW132057   3.553   0.625  16.132 -0.6481 -0.5886 -0.7820
 6807SOL    HW232058   3.617   0.550  16.237 -1.1360  0.9604  0.8599
 6808SOL     OW32059   0.997   1.670   1.284  0.0888 -0.1849 -0.3766
 6808SOL    HW132060   1.028   1.726   1.213 -2.0252  0.8815 -0.4698
 6808SOL    HW232061   0.910   1.704   1.305  0.3805  0.7605 -0.6941
 6809SOL     OW32062   0.710   3.896   5.431 -0.6187 -0.2574 -0.1646
 6809SOL    HW132063   0.803   3.906   5.412 -0.6320  1.8779  0.9111
 6809SOL    HW232064   0.680   3.883   5.342 -0.2517  0.1903 -0.3510
 6810SOL     OW32065   2.458   3.119  13.482 -0.4873 -0.3131 -0.3157
 6810SOL    HW132066   2.419   3.165  13.556 -0.9570  0.4039 -1.0127
 6810SOL    HW232067   2.554   3.126  13.487 -0.5906 -0.8546  2.2871
 6811SOL     OW32068   1.605   0.005   5.007  0.7181  0.2236  0.7595
 6811SOL    HW132069   1.602   4.710   4.917 -0.3156 -0.5885  1.0907
 6811SOL    HW232070   1.519   4.710   5.034  1.1265 -1.5216 -0.0768
 6812SOL     OW32071   4.703   0.153  13.321  0.7320 -0.3156  0.0891
 6812SOL    HW132072   4.654   0.084  13.276  0.1315 -0.4843  1.0093
 6812SOL    HW232073   4.677   0.234  13.278  2.0010  0.8696  1.5612
 6813SOL     OW32074   0.883   1.748   4.756  0.3552  0.4672 -0.1534
 6813SOL    HW132075   0.898   1.810   4.685 -2.3086  0.3799 -0.7872
 6813SOL    HW232076   0.967   1.773   4.794  0.2632 -0.0813  0.4065
 6814SOL     OW32077   1.872   1.875   6.055 -0.7642 -0.0580  0.1909
 6814SOL    HW132078   1.902   1.965   6.063  1.6630 -1.0533  2.2541
 6814SOL    HW232079   1.936   1.843   5.990 -0.3789 -2.4112  1.7178
 6815SOL     OW32080   2.265   0.768   4.019  0.1605 -0.4256 -0.4317
 6815SOL    HW132081   2.195   0.779   3.954 -0.9675 -2.3008  0.4502
 6815SOL    HW232082   2.257   0.845   4.075 -1.9540  0.8106 -2.4285
 6816SOL     OW32083   1.566   3.131   7.928 -0.3165 -0.0384  0.4096
 6816SOL    HW132084   1.661   3.134   7.925 -0.4340  0.0626 -2.9257
 6816SOL    HW232085   1.545   3.058   7.870 -0.4343  0.2993  0.0308
 6817SOL     OW32086   2.926   2.855   8.426 -0.4183  0.1039  0.0593
 6817SOL    HW132087   2.924   2.783   8.489 -0.8017  2.9245  3.2409
 6817SOL    HW232088   2.861   2.826   8.363  1.0758 -2.1071 -0.4670
 6818SOL     OW32089   0.074   3.214   7.914 -0.0266 -0.1004 -0.1576
 6818SOL    HW132090   0.066   3.196   7.820 -0.2400 -1.3615  0.1048
 6818SOL    HW232091   0.075   3.123   7.945  1.0208  0.3955  1.2502
 6819SOL     OW32092   3.838   2.414   4.595 -0.7570 -0.5142 -0.0850
 6819SOL    HW132093   3.863   2.342   4.653  2.1738  0.4859 -0.0827
 6819SOL    HW232094   3.797   2.474   4.657  0.1306 -0.0632  0.0721
 6820SOL     OW32095   3.726   3.477  15.652 -0.0316 -0.2350  0.2097
 6820SOL    HW132096   3.663   3.514  15.589 -1.2368  0.3711  1.7644
 6820SOL    HW232097   3.705   3.536  15.725 -1.0842 -0.3374 -0.0074
 6821SOL     OW32098   0.076   2.868   1.273 -0.6172  0.2234  0.3161
 6821SOL    HW132099   0.109   2.926   1.204  1.4194  0.6381  1.6224
 6821SOL    HW232100   0.062   2.930   1.344  0.9285  2.8873 -1.7013
 6822SOL     OW32101   2.956   2.614  16.130  0.0140  0.1700 -0.0562
 6822SOL    HW132102   2.972   2.708  16.130  2.1224 -0.1933 -0.7957
 6822SOL    HW232103   3.048   2.589  16.138  0.3060  1.5021  0.7740
 6823SOL     OW32104   4.369   3.169  13.070 -0.6207 -0.0580  0.0120
 6823SOL    HW132105   4.359   3.082  13.107  1.7499  0.6159  2.3115
 6823SOL    HW232106   4.329   3.156  12.984  1.3932 -1.5375 -0.7015
 6824SOL     OW32107   2.031   3.597   2.441  0.2269 -0.0000 -0.1858
 6824SOL    HW132108   1.991   3.683   2.450  1.8333  0.8488 -1.2202
 6824SOL    HW232109   2.005   3.567   2.354  1.3466  0.2712 -0.6123
 6825SOL     OW32110   0.316   2.612   9.979  0.5206 -0.3793  0.2068
 6825SOL    HW132111   0.312   2.523  10.015  0.5041 -0.2829  0.4420
 6825SOL    HW232112   0.314   2.654  10.065 -0.6650 -0.6655  0.3170
 6826SOL     OW32113   2.203   3.036   8.901 -0.1306  0.2294  0.2080
 6826SOL    HW132114   2.190   2.982   8.979  0.9029 -0.9744 -0.4551
 6826SOL    HW232115   2.237   2.976   8.835  0.4493  0.7990 -0.0153
 6827SOL     OW32116   4.312   0.505   3.518 -0.3962 -0.3253 -0.3513
 6827SOL    HW132117   4.391   0.511   3.571 -0.4201  0.3833 -0.3858
 6827SOL    HW232118   4.252   0.459   3.577  0.8956 -0.0058  1.2016
 6828SOL     OW32119   1.673   1.035  10.081  0.1461  0.2917  0.1736
 6828SOL    HW132120   1.602   1.026  10.017 -1.3933 -2.1997  2.2191
 6828SOL    HW232121   1.744   0.998  10.028 -0.4336  1.2755 -1.2982
 6829SOL     OW32122   4.526   4.562  11.398 -0.1437  0.1153  0.2934
 6829SOL    HW132123   4.569   4.483  11.365 -0.3084  0.7621 -1.4481
 6829SOL    HW232124   4.583   4.629  11.360 -0.7626  0.7207  0.4311
 6830SOL     OW32125   2.014   3.453   4.387  0.4726 -0.1353 -0.3349
 6830SOL    HW132126   1.954   3.386   4.354 -1.3146  2.3846 -2.1917
 6830SOL    HW232127   1.983   3.465   4.477  2.1755 -0.1429  0.2614
 6831SOL     OW32128   0.406   2.286   1.310  0.1351  0.2425  0.9080
 6831SOL    HW132129   0.467   2.360   1.305 -2.2539  2.0887 -1.0595
 6831SOL    HW232130   0.453   2.232   1.373 -0.3759 -1.2093  0.0349
 6832SOL     OW32131   2.235   3.917   6.363 -0.5597 -0.4985  0.1557
 6832SOL    HW132132   2.206   3.970   6.437 -2.0686 -0.2496 -0.5887
 6832SOL    HW232133   2.290   3.985   6.324 -1.0031  1.1047  2.3069
 6833SOL     OW32134   3.875   3.748   8.276 -0.1025 -0.2287  0.0280
 6833SOL    HW132135   3.934   3.678   8.306 -2.1010 -2.1463 -0.5197
 6833SOL    HW232136   3.936   3.820   8.260 -0.6390  0.4782  1.1885
 6834SOL     OW32137   3.458   4.253   4.589  0.0556 -0.0403 -0.5082
 6834SOL    HW132138   3.423   4.330   4.634  0.8432 -0.6425  1.1470
 6834SOL    HW232139   3.394   4.190   4.624 -0.0368 -0.5873 -1.6816
 6835SOL     OW32140   4.399   0.905   3.916  0.7961  0.2613 -0.0532
 6835SOL    HW132141   4.335   0.839   3.943 -1.4355  2.6113  0.3735
 6835SOL    HW232142   4.412   0.960   3.993  0.7129  0.9338 -0.5184
 6836SOL     OW32143   2.311   2.814  13.206  0.0774 -0.2448 -0.0782
 6836SOL    HW132144   2.310   2.805  13.110  0.4437  1.6633 -0.2661
 6836SOL    HW232145   2.324   2.722  13.230  1.5993 -0.1601 -0.6254
 6837SOL     OW32146   3.283   3.531  15.733 -0.5291 -0.1020  0.2105
 6837SOL    HW132147   3.233   3.591  15.789  1.1059  0.5864  0.9512
 6837SOL    HW232148   3.252   3.568  15.651 -1.8325 -0.7064  0.4276
 6838SOL     OW32149   2.378   2.635   8.041 -0.1364  0.2681 -0.2125
 6838SOL    HW132150   2.445   2.574   8.010 -0.9586 -0.3608 -0.7386
 6838SOL    HW232151   2.355   2.584   8.118 -2.3777 -1.7141 -2.2140
 6839SOL     OW32152   3.068   3.167  10.570 -0.4175 -0.3435 -0.4943
 6839SOL    HW132153   2.993   3.225  10.581 -0.5641 -0.5655 -0.3185
 6839SOL    HW232154   3.146   3.210  10.606 -1.6711  2.5006 -1.2292
 6840SOL     OW32155   0.126   4.259   1.854  0.7068  0.3027  0.0609
 6840SOL    HW132156   0.094   4.268   1.944 -0.7371  1.0084 -0.5407
 6840SOL    HW232157   0.219   4.281   1.859  0.2470  1.8027  2.0920
 6841SOL     OW32158   4.267   2.226   2.305 -0.2489 -0.6732  0.1369
 6841SOL    HW132159   4.252   2.293   2.239  0.4404 -1.5338 -0.8889
 6841SOL    HW232160   4.270   2.281   2.383  0.9905  3.0764 -2.5433
 6842SOL     OW32161   4.692   1.336   4.378 -0.2629  0.2479 -0.1422
 6842SOL    HW132162   0.034   1.287   4.359 -1.4312 -1.1837 -1.3435
 6842SOL    HW232163   4.703   1.419   4.333  1.2659  0.2502  0.2153
 6843SOL     OW32164   0.534   1.992   1.152  0.4023  0.1946  0.3845
 6843SOL    HW132165   0.502   2.075   1.118 -0.2369  0.6250  1.9968
 6843SOL    HW232166   0.572   1.969   1.067 -1.5387  0.2859 -0.4980
 6844SOL     OW32167   1.827   2.073   4.651 -0.5171  0.0861 -0.0956
 6844SOL    HW132168   1.822   1.985   4.688 -0.6504 -0.2285 -0.8513
 6844SOL    HW232169   1.909   2.112   4.682 -1.4121  2.3233 -0.5279
 6845SOL     OW32170   4.593   1.426   5.406  0.0880 -0.0368 -0.3910
 6845SOL    HW132171   4.502   1.456   5.414  0.6675  1.1026  1.8198
 6845SOL    HW232172   4.640   1.509   5.396 -1.2603  1.0104  1.8672
 6846SOL     OW32173   4.689   1.813   2.514 -0.2239  0.1615  0.1141
 6846SOL    HW132174   4.617   1.872   2.493 -0.8581 -0.9018 -0.7208
 6846SOL    HW232175   0.007   1.870   2.567  1.5970 -1.8417  0.3676
 6847SOL     OW32176   0.182   3.675  13.031 -0.0727 -0.2373 -0.0817
 6847SOL    HW132177   0.256   3.617  13.050  2.2025  3.3853  2.1935
 6847SOL    HW232178   0.167   3.710  13.119  1.4323  2.3894 -0.8709
 6848SOL     OW32179   3.642   0.182   3.747  0.8739  0.2200  0.2166
 6848SOL    HW132180   3.568   0.201   3.806 -0.1796  0.7753 -1.2743
 6848SOL    HW232181   3.642   0.267   3.703  1.8343 -0.3881 -0.9397
 6849SOL     OW32182   3.041   3.344   5.204 -0.1600  0.1414  0.3507
 6849SOL    HW132183   2.969   3.286   5.228 -0.9387  1.5858  1.4706
 6849SOL    HW232184   3.066   3.295   5.125 -0.0963 -1.4779  1.3841
 6850SOL     OW32185   0.759   3.242   1.440  0.4057  0.4191 -0.1643
 6850SOL    HW132186   0.726   3.262   1.351 -0.1840 -0.8881 -0.2330
 6850SOL    HW232187   0.755   3.147   1.429 -0.0633  0.3745  0.3629
 6851SOL     OW32188   0.569   1.029   4.962  0.3407  0.5682 -0.5095
 6851SOL    HW132189   0.609   0.947   4.933  0.0469 -0.3077  1.5900
 6851SOL    HW232190   0.560   1.008   5.055  0.1375  1.4900 -0.3179
 6852SOL     OW32191   1.891   1.049   4.025 -0.5120 -0.2151  0.5134
 6852SOL    HW132192   1.856   1.100   3.951 -3.9389 -1.6875  1.1546
 6852SOL    HW232193   1.946   1.106   4.079  1.5273 -0.6675 -1.0491
 6853SOL     OW32194   3.235   2.505   0.870 -0.4086 -0.0777 -0.1654
 6853SOL    HW132195   3.269   2.594   0.885 -0.9155  0.2624 -0.9916
 6853SOL    HW232196   3.148   2.503   0.909 -0.8947 -0.7713 -1.3037
 6854SOL     OW32197   1.324   2.525   6.942  0.1134 -0.2607 -0.0973
 6854SOL    HW132198   1.384   2.503   6.870  1.6348  4.5610 -0.2509
 6854SOL    HW232199   1.399   2.543   6.999 -0.7355 -1.5442  1.4208
 6855SOL     OW32200   4.662   4.289   7.610  0.1040  0.7885  0.1081
 6855SOL    HW132201   4.710   4.335   7.541  1.4697 -0.5718  0.1586
 6855SOL    HW232202   4.654   4.201   7.574  2.2349  0.6442 -0.0081
 6856SOL     OW32203   2.476   0.285  13.774 -0.7754 -0.0771 -0.1810
 6856SOL    HW132204   2.409   0.236  13.727 -2.4077  0.5749  1.4849
 6856SOL    HW232205   2.459   0.258  13.865 -0.7877 -0.7246 -0.3713
 6857SOL     OW32206   2.048   0.280   7.782  0.1271 -0.2643 -0.3595
 6857SOL    HW132207   2.073   0.348   7.719 -0.7899  1.4716  1.1486
 6857SOL    HW232208   2.092   0.311   7.861 -1.9433 -0.8140  0.9865
 6858SOL     OW32209   3.661   2.007  16.091  0.3111  0.1328 -0.0806
 6858SOL    HW132210   3.627   2.069  16.156  0.3643  1.8663 -1.7309
 6858SOL    HW232211   3.644   2.044  16.005  3.1334 -1.9092 -1.4926
 6859SOL     OW32212   1.913   4.633   8.937  0.3837  0.2142 -0.1603
 6859SOL    HW132213   1.963   4.600   9.012  0.4166 -0.3891 -0.4488
 6859SOL    HW232214   1.980   4.677   8.884 -1.9242  2.0168 -1.5785
 6860SOL     OW32215   1.318   1.123   4.968 -0.2302  0.3206  0.5555
 6860SOL    HW132216   1.255   1.120   5.039  0.5315 -0.9846  1.1902
 6860SOL    HW232217   1.329   1.218   4.967  1.8318  0.1125  2.2658
 6861SOL     OW32218   1.134   2.836   8.269 -0.0294  0.3822 -0.0364
 6861SOL    HW132219   1.072   2.887   8.216 -1.0875  0.3904  1.1831
 6861SOL    HW232220   1.172   2.774   8.208  0.6118  2.7622 -2.0414
 6862SOL     OW32221   3.383   0.589  12.067  0.2234  0.4696 -0.1618
 6862SOL    HW132222   3.390   0.587  11.971 -0.4162 -0.8645 -0.1880
 6862SOL    HW232223   3.471   0.559  12.089  0.1268  2.0097  2.2682
 6863SOL     OW32224   1.586   0.656   5.197  0.0701 -0.0324  0.5857
 6863SOL    HW132225   1.613   0.698   5.278  1.4450  0.8814 -0.3279
 6863SOL    HW232226   1.491   0.656   5.201  0.0241  1.7412 -0.3043
 6864SOL     OW32227   2.121   1.597   7.854  0.1042  0.3597  0.4225
 6864SOL    HW132228   2.060   1.566   7.921  0.0413  1.0759  0.6947
 6864SOL    HW232229   2.064   1.652   7.800  0.8505 -0.0055 -0.7126
 6865SOL     OW32230   1.522   2.905   7.763  0.3447  0.2133 -0.4499
 6865SOL    HW132231   1.608   2.865   7.774  1.2391  1.9306 -1.1085
 6865SOL    HW232232   1.475   2.828   7.730  0.1460  0.3055 -0.3810
 6866SOL     OW32233   3.146   1.391   8.220 -0.1762  0.1463 -0.4883
 6866SOL    HW132234   3.217   1.363   8.162  0.3105  0.1742  0.0981
 6866SOL    HW232235   3.157   1.328   8.292  0.0783  2.2247  1.2965
 6867SOL     OW32236   2.863   3.182   4.527  0.1561 -0.4408 -0.2346
 6867SOL    HW132237   2.852   3.106   4.470  1.9560 -0.7862 -0.1194
 6867SOL    HW232238   2.787   3.164   4.583  0.0539  0.8565  0.0348
 6868SOL     OW32239   1.218   2.459   5.425  0.1499 -0.0288  0.1057
 6868SOL    HW132240   1.158   2.532   5.441  2.7415  2.2111 -0.4040
 6868SOL    HW232241   1.271   2.496   5.354 -1.8180 -1.0789 -1.8886
 6869SOL     OW32242   3.372   3.007   7.190 -0.1801  0.2016 -0.1796
 6869SOL    HW132243   3.396   2.919   7.221  0.0349  0.1906 -0.3718
 6869SOL    HW232244   3.323   2.989   7.110 -2.2348  1.9962  0.6834
 6870SOL     OW32245   1.050   2.757   6.726  0.6146  0.2997 -0.3457
 6870SOL    HW132246   1.094   2.775   6.809 -0.2001  1.6346 -0.2044
 6870SOL    HW232247   1.124   2.732   6.671 -0.1566 -1.6335 -0.5007
 6871SOL     OW32248   3.127   0.286   4.924 -0.4335 -0.5570 -0.5012
 6871SOL    HW132249   3.071   0.297   4.847  0.6051 -1.4798 -1.3948
 6871SOL    HW232250   3.109   0.364   4.976  1.0311  1.5004 -3.0341
 6872SOL     OW32251   1.767   0.047  12.902 -0.2209 -0.1987 -0.3075
 6872SOL    HW132252   1.731   0.022  12.987 -4.5317  0.5310 -1.9432
 6872SOL    HW232253   1.815   4.704  12.887  0.7678  0.6696 -1.9108
 6873SOL     OW32254   1.820   0.459   4.591 -0.3852 -0.8752 -0.5185
 6873SOL    HW132255   1.860   0.480   4.676 -1.2590  0.0790 -0.3359
 6873SOL    HW232256   1.782   0.376   4.619 -3.5434  0.9268  0.5621
 6874SOL     OW32257   3.067   4.393  13.428 -0.0374  0.3005  0.3182
 6874SOL    HW132258   3.067   4.414  13.335 -0.3555  0.3954  0.3413
 6874SOL    HW232259   3.013   4.314  13.423  0.0895  0.1726  0.9118
 6875SOL     OW32260   2.753   1.245   8.150 -0.6027 -0.1410 -0.0296
 6875SOL    HW132261   2.741   1.177   8.217  2.0305  1.0441  1.6426
 6875SOL    HW232262   2.816   1.200   8.094 -0.1560  0.1003  0.2772
 6876SOL     OW32263   1.225   0.577   5.987  0.3745 -0.0629 -0.4488
 6876SOL    HW132264   1.301   0.628   5.957 -1.0649  2.7111  0.6930
 6876SOL    HW232265   1.270   0.500   6.021  0.4793  0.6928  1.1297
 6877SOL     OW32266   3.168   3.486   6.653  0.4272  0.0032  0.2607
 6877SOL    HW132267   3.076   3.460   6.663  0.6981 -1.0306  0.0500
 6877SOL    HW232268   3.154   3.563   6.598 -0.9446  1.0339  2.0483
 6878SOL     OW32269   4.209   1.418   7.006 -0.3583  0.0042 -0.1663
 6878SOL    HW132270   4.142   1.376   6.952  1.4987 -4.3813  0.9196
 6878SOL    HW232271   4.158   1.460   7.075  1.3032  0.7115  0.6198
 6879SOL     OW32272   2.906   4.630   5.337  0.2944 -0.4931  0.1688
 6879SOL    HW132273   2.822   4.595   5.367 -0.3574  0.7205 -0.2790
 6879SOL    HW232274   2.965   4.593   5.403  0.3618 -0.6914 -0.0015
 6880SOL     OW32275   1.495   4.113   6.767  0.4085 -0.1258  0.7178
 6880SOL    HW132276   1.548   4.116   6.688  0.7995 -3.0646  0.8686
 6880SOL    HW232277   1.535   4.169   6.833 -1.7527  2.9775 -0.5602
 6881SOL     OW32278   1.820   2.208  16.120 -0.0823 -0.3186 -0.1528
 6881SOL    HW132279   1.798   2.211  16.027  0.4217  0.4901 -0.2462
 6881SOL    HW232280   1.907   2.246  16.105 -0.5995  0.1843 -1.9508
 6882SOL     OW32281   2.526   1.257   3.811  0.0182 -0.0022 -0.3447
 6882SOL    HW132282   2.487   1.283   3.895  1.1400  0.3406  0.0703
 6882SOL    HW232283   2.449   1.242   3.756 -1.8589  0.8272  2.0595
 6883SOL     OW32284   3.244   4.726  16.852  0.5705  0.1429 -0.1100
 6883SOL    HW132285   3.311   4.688  16.908  0.9597  0.6856 -0.2007
 6883SOL    HW232286   3.271   4.684  16.771  0.7684 -1.0461  0.5725
 6884SOL     OW32287   1.761   4.582   8.332 -0.4722 -0.3440 -0.8848
 6884SOL    HW132288   1.676   4.622   8.316 -1.6816 -1.7269  1.9824
 6884SOL    HW232289   1.823   4.644   8.294 -0.1508  0.5431  1.1035
 6885SOL     OW32290   4.196   2.744   8.646 -0.0327 -0.1121 -0.1959
 6885SOL    HW132291   4.184   2.656   8.683  0.3032  0.2830  0.8498
 6885SOL    HW232292   4.291   2.749   8.638  0.1564 -0.3539  1.8913
 6886SOL     OW32293   4.282   3.910  11.265 -0.5342 -0.5051  0.1901
 6886SOL    HW132294   4.254   4.002  11.275  0.7416  0.1271 -2.1644
 6886SOL    HW232295   4.374   3.922  11.289 -0.2776  0.5172 -1.2684
 6887SOL     OW32296   4.015   1.009   9.100  0.4285  0.3951 -0.0263
 6887SOL    HW132297   3.977   0.992   9.186 -1.6041 -0.5771 -1.1246
 6887SOL    HW232298   3.943   0.984   9.043  1.0322 -0.8637 -0.2333
 6888SOL     OW32299   0.461   2.790  14.442  0.4952  0.1254 -0.1478
 6888SOL    HW132300   0.377   2.744  14.445  1.4405 -1.4623  1.6734
 6888SOL    HW232301   0.460   2.844  14.363  1.0901  1.0190  0.4461
 6889SOL     OW32302   3.037   3.984   6.470  0.1542  0.1515  0.6037
 6889SOL    HW132303   3.071   4.048   6.408  0.3037 -0.0587  0.4683
 6889SOL    HW232304   2.959   4.027   6.506  1.6681  0.3453  3.7102
 6890SOL     OW32305   2.490   3.106   3.981 -0.3105 -0.0993 -0.6812
 6890SOL    HW132306   2.569   3.084   3.932  0.2703 -0.4627  0.4147
 6890SOL    HW232307   2.486   3.050   4.059 -2.7722  2.0821  0.7620
 6891SOL     OW32308   3.144   0.705   6.879 -0.5005 -0.3419  0.0115
 6891SOL    HW132309   3.200   0.632   6.852  0.5352  0.4841 -0.0471
 6891SOL    HW232310   3.207   0.750   6.935 -1.7409  1.3151  0.0666
 6892SOL     OW32311   3.896   0.852   1.506 -0.1471  0.2957 -0.0568
 6892SOL    HW132312   3.896   0.759   1.483 -0.7722  0.7745 -1.9724
 6892SOL    HW232313   3.888   0.851   1.601 -1.3867  1.8229 -0.1491
 6893SOL     OW32314   0.642   1.121   8.673  0.6663  0.2505  0.0517
 6893SOL    HW132315   0.737   1.129   8.667  0.5259 -0.1276 -3.0606
 6893SOL    HW232316   0.640   1.057   8.744  2.2363  1.4309  1.1507
 6894SOL     OW32317   1.340   2.147  17.682  0.1508  0.1908 -0.0041
 6894SOL    HW132318   1.385   2.067  17.653 -0.8433 -0.3907  0.0309
 6894SOL    HW232319   1.252   2.108  17.685  0.1589  0.3832  2.8783
 6895SOL     OW32320   4.447   0.494  10.529  0.6036  0.2443 -0.1747
 6895SOL    HW132321   4.533   0.463  10.558 -0.7517 -0.5361  2.9490
 6895SOL    HW232322   4.416   0.538  10.608 -1.6636 -0.5260 -0.6362
 6896SOL     OW32323   4.500   0.672   6.667 -0.6161  0.2346  0.4023
 6896SOL    HW132324   4.463   0.585   6.656  0.0761  0.0208 -0.2172
 6896SOL    HW232325   4.594   0.658   6.667 -0.6108  0.3043 -0.7579
 6897SOL     OW32326   4.164   0.676   1.416 -0.1394 -0.1776 -0.4789
 6897SOL    HW132327   4.252   0.713   1.415  0.2254 -0.9708  0.9280
 6897SOL    HW232328   4.171   0.638   1.504 -1.6802  2.7453  0.9068
 6898SOL     OW32329   1.439   2.136   0.754 -0.2572 -0.2518 -0.0308
 6898SOL    HW132330   1.493   2.062   0.782  0.0120 -0.5961 -1.4895
 6898SOL    HW232331   1.399   2.094   0.678  0.3552  1.8205 -1.4848
 6899SOL     OW32332   2.486   1.611   4.505  0.0607 -0.0884 -0.3699
 6899SOL    HW132333   2.570   1.584   4.469 -0.7417 -1.9988 -0.7773
 6899SOL    HW232334   2.508   1.685   4.563  0.8297  0.6511 -1.6025
 6900SOL     OW32335   3.874   4.113  10.618 -0.0790 -0.3856  0.0970
 6900SOL    HW132336   3.933   4.107  10.543  0.0232  1.2773  0.0357
 6900SOL    HW232337   3.844   4.204  10.622 -1.1245 -0.6516 -1.9884
 6901SOL     OW32338   3.522   4.265   0.755 -0.0697  0.0725  0.2663
 6901SOL    HW132339   3.609   4.253   0.718  0.4939  0.3891  1.4777
 6901SOL    HW232340   3.549   4.262   0.847 -2.3596  3.8528  1.0599
 6902SOL     OW32341   2.897   3.335  17.134 -0.4312  0.6073 -0.7107
 6902SOL    HW132342   2.952   3.347  17.211 -0.4978  2.1643 -0.9118
 6902SOL    HW232343   2.827   3.396  17.157 -0.9765 -0.1033 -0.4939
 6903SOL     OW32344   3.288   1.495   2.235 -0.6161 -0.6533  0.2071
 6903SOL    HW132345   3.228   1.421   2.245 -1.1343 -0.3303 -0.4873
 6903SOL    HW232346   3.306   1.498   2.141 -0.1082 -0.7263  0.3040
 6904SOL     OW32347   1.901   1.123   9.211  0.2390  0.2351  0.0731
 6904SOL    HW132348   1.975   1.069   9.237 -0.4175  0.4106  2.2987
 6904SOL    HW232349   1.828   1.061   9.218  1.3034 -1.0835 -0.3691
 6905SOL     OW32350   3.189   3.765   8.809 -0.5496 -0.4894 -0.3075
 6905SOL    HW132351   3.164   3.801   8.724  4.1918 -1.0994 -1.9355
 6905SOL    HW232352   3.257   3.818   8.849  1.9124 -3.0349 -1.1081
 6906SOL     OW32353   2.390   4.328   8.338  0.3417  0.0787  0.3803
 6906SOL    HW132354   2.357   4.417   8.351  1.3636  0.4252  0.6181
 6906SOL    HW232355   2.357   4.278   8.412 -0.4562  0.1408  0.0573
 6907SOL     OW32356   2.733   3.370   8.504  0.2058 -0.0334 -0.2011
 6907SOL    HW132357   2.792   3.426   8.454 -0.0879  1.0269  0.6557
 6907SOL    HW232358   2.697   3.425   8.573 -2.0145 -0.1235 -1.2657
 6908SOL     OW32359   2.381   1.201   0.466 -0.1558 -0.4264 -0.0771
 6908SOL    HW132360   2.346   1.210   0.378 -0.9480 -0.3812  0.2452
 6908SOL    HW232361   2.474   1.198   0.442 -0.1273  2.1245 -0.2674
 6909SOL     OW32362   3.196   2.047  16.820  0.2065 -0.6083  0.2453
 6909SOL    HW132363   3.222   2.135  16.795  1.8304 -0.5154  2.2651
 6909SOL    HW232364   3.280   2.008  16.846  0.6370  1.1428  1.4580
 6910SOL     OW32365   4.734   2.978   4.959  0.3550  0.1331  0.0747
 6910SOL    HW132366   4.660   3.004   5.014 -1.1624 -2.6846 -0.6307
 6910SOL    HW232367   0.072   3.010   5.007  2.0357 -1.7570 -1.3268
 6911SOL     OW32368   2.411   2.957  14.904  0.2272 -0.4333 -0.2621
 6911SOL    HW132369   2.414   3.006  14.822  0.0527 -0.5244 -0.3228
 6911SOL    HW232370   2.495   2.977  14.945 -1.2128  1.9797  1.5369
 6912SOL     OW32371   0.619   3.110   7.621  0.1836  1.1766 -0.0281
 6912SOL    HW132372   0.692   3.055   7.651  1.3755  0.9344 -3.3101
 6912SOL    HW232373   0.666   3.174   7.567  1.5419 -0.6318 -1.0243
 6913SOL     OW32374   2.679   2.208   9.135  0.3799 -0.1278  0.2595
 6913SOL    HW132375   2.635   2.148   9.075 -0.4438  2.1976 -1.4878
 6913SOL    HW232376   2.607   2.265   9.162 -0.4953 -0.1869 -2.0037
 6914SOL     OW32377   4.600   3.544   7.537 -0.3852  0.4245 -0.6468
 6914SOL    HW132378   4.663   3.566   7.468 -0.0085  1.0493 -0.1042
 6914SOL    HW232379   4.539   3.614   7.514 -1.4250 -0.2687  0.0629
 6915SOL     OW32380   3.758   3.095   4.539 -0.1936  0.4974 -0.0155
 6915SOL    HW132381   3.810   3.119   4.616  1.0825  0.1676 -0.7678
 6915SOL    HW232382   3.819   3.124   4.471  0.0407  0.4676  0.1820
 6916SOL     OW32383   0.687   0.445   5.834  0.2195  0.7457 -0.4640
 6916SOL    HW132384   0.684   0.539   5.815  1.3927  1.7905  4.4247
 6916SOL    HW232385   0.777   0.439   5.867  0.7284  2.4541 -1.5507
 6917SOL     OW32386   0.242   3.114   2.531  0.7089 -0.0649  0.1929
 6917SOL    HW132387   0.323   3.065   2.546  0.5465 -0.0442  1.1852
 6917SOL    HW232388   0.278   3.199   2.558 -0.9064  0.7186 -0.1596
 6918SOL     OW32389   4.327   4.345   4.974  0.3963  0.7867  0.2002
 6918SOL    HW132390   4.242   4.358   5.015 -0.4153 -1.1554 -0.8526
 6918SOL    HW232391   4.384   4.352   5.051 -0.5507  0.8055  0.8905
 6919SOL     OW32392   3.679   0.630   2.335  0.1632  0.3032 -0.4043
 6919SOL    HW132393   3.686   0.724   2.348  1.3152  0.2836 -0.8524
 6919SOL    HW232394   3.689   0.602   2.426  0.3169  0.4389 -0.3805
 6920SOL     OW32395   1.494   2.912   9.653 -0.3606  0.0565  0.2601
 6920SOL    HW132396   1.544   2.838   9.685  0.1142 -0.5778 -1.9020
 6920SOL    HW232397   1.566   2.975   9.647 -1.2963  1.0618 -0.5561
 6921SOL     OW32398   2.698   0.866   7.937 -0.2088 -0.2092 -0.1268
 6921SOL    HW132399   2.733   0.954   7.951 -1.0089 -0.1722  1.5989
 6921SOL    HW232400   2.618   0.896   7.893 -1.6134  0.6167  3.0227
 6922SOL     OW32401   2.725   3.070  11.550 -0.6042  0.4642 -0.4387
 6922SOL    HW132402   2.694   2.980  11.539 -1.4723  0.4578  2.2174
 6922SOL    HW232403   2.733   3.069  11.645 -0.1602  1.1218 -0.4732
 6923SOL     OW32404   0.682   1.036   3.004  0.0460  0.2710  0.3695
 6923SOL    HW132405   0.617   1.078   3.059  1.7762  2.1805  0.9589
 6923SOL    HW232406   0.647   1.048   2.916  1.9395  0.8481 -0.3175
 6924SOL     OW32407   1.225   3.056   3.494  0.0650  0.4718 -0.3343
 6924SOL    HW132408   1.313   3.030   3.465 -0.3245 -2.1122  0.8527
 6924SOL    HW232409   1.236   3.063   3.588 -0.1811  2.5702 -0.4472
 6925SOL     OW32410   1.758   2.344  15.874 -0.8645 -0.9991 -0.1921
 6925SOL    HW132411   1.782   2.294  15.797 -1.5525 -1.6958  0.0376
 6925SOL    HW232412   1.812   2.421  15.885 -0.8580 -1.1748  1.1252
 6926SOL     OW32413   2.302   1.115   2.080 -0.2110 -0.0987  0.1730
 6926SOL    HW132414   2.397   1.103   2.075 -0.1572 -0.2106  1.4423
 6926SOL    HW232415   2.276   1.025   2.101  1.5106 -0.9188 -1.1590
 6927SOL     OW32416   2.596   1.960  13.698 -0.0431  0.0668  0.0587
 6927SOL    HW132417   2.646   1.885  13.730 -0.4790 -0.1105  0.3187
 6927SOL    HW232418   2.511   1.927  13.670  0.1578 -2.3788  2.3184
 6928SOL     OW32419   3.913   2.336   2.206 -0.1662 -0.7196 -0.3300
 6928SOL    HW132420   3.863   2.360   2.284  3.1386  0.8820  1.2708
 6928SOL    HW232421   3.843   2.339   2.141 -0.3002 -0.8307 -0.1903
 6929SOL     OW32422   0.871   3.038  16.370 -0.3143 -0.6104  0.4409
 6929SOL    HW132423   0.915   2.961  16.334  0.2036  0.3779 -1.0545
 6929SOL    HW232424   0.936   3.077  16.428 -2.7382  0.4725  2.4349
 6930SOL     OW32425   4.537   0.811   8.083  0.7792 -0.4815  0.3378
 6930SOL    HW132426   4.610   0.851   8.036  0.6282 -0.3168  0.2437
 6930SOL    HW232427   4.523   0.735   8.028 -0.8627 -0.2182  0.3968
 6931SOL     OW32428   0.911   2.321   8.728  0.0567 -0.0698 -0.1673
 6931SOL    HW132429   0.892   2.228   8.724  0.6852 -0.2443  1.0470
 6931SOL    HW232430   0.835   2.348   8.676 -0.1387  0.7862  0.5626
 6932SOL     OW32431   3.309   0.878   5.751  0.1670  0.0350  0.0079
 6932SOL    HW132432   3.367   0.805   5.772  0.8308 -0.5560 -3.8934
 6932SOL    HW232433   3.255   0.837   5.684  0.6023 -0.1663 -0.2122
 6933SOL     OW32434   0.861   1.295   5.756  0.1525  0.1782 -0.7942
 6933SOL    HW132435   0.800   1.338   5.697 -1.6968  1.0372  1.7807
 6933SOL    HW232436   0.852   1.358   5.827  2.8461  0.7412 -0.9424
 6934SOL     OW32437   1.800   0.175   0.332 -0.1529 -0.0311  0.2462
 6934SOL    HW132438   1.729   0.209   0.387 -0.9170 -0.2072 -0.6397
 6934SOL    HW232439   1.754   0.099   0.296 -1.3806  0.2807  1.1347
 6935SOL     OW32440   4.449   3.324   0.610  0.1838  0.6061  0.0341
 6935SOL    HW132441   4.405   3.255   0.561 -0.3684  2.0859 -1.5436
 6935SOL    HW232442   4.406   3.330   0.695 -1.6078 -1.5966 -0.7217
 6936SOL     OW32443   2.014   1.971   2.701 -0.6215  0.3784 -0.0633
 6936SOL    HW132444   1.957   1.918   2.645  0.6391 -0.8872 -0.1539
 6936SOL    HW232445   1.949   2.003   2.764 -0.1165  1.6717 -0.2102
 6937SOL     OW32446   2.613   3.234   8.076 -0.7101 -0.0801 -0.3688
 6937SOL    HW132447   2.526   3.218   8.112  0.3378  0.1912  2.2395
 6937SOL    HW232448   2.661   3.239   8.159  2.7401  3.0213 -2.5239
 6938SOL     OW32449   0.261   4.441   5.582  0.6769 -0.6709 -0.1248
 6938SOL    HW132450   0.284   4.491   5.504  2.6151 -0.9990  0.2492
 6938SOL    HW232451   0.348   4.422   5.616 -0.1952 -0.8257  2.0491
 6939SOL     OW32452   0.505   3.457   3.579 -0.3399 -0.1891 -0.1836
 6939SOL    HW132453   0.537   3.367   3.571 -1.1768 -0.3569 -1.6526
 6939SOL    HW232454   0.489   3.481   3.487  2.0113  1.3463 -0.1887
 6940SOL     OW32455   2.334   0.610  13.936  0.1071 -0.1627 -0.1923
 6940SOL    HW132456   2.353   0.694  13.979  0.4649  0.2254 -1.0949
 6940SOL    HW232457   2.318   0.553  14.010  2.2559  0.9497  1.1276
 6941SOL     OW32458   4.217   3.687  11.907  0.0326  0.3841 -0.0294
 6941SOL    HW132459   4.288   3.727  11.957 -0.0601  1.5593 -0.8435
 6941SOL    HW232460   4.153   3.688  11.977  0.8033 -0.8802  0.7047
 6942SOL     OW32461   0.602   2.064  15.932  0.2803  0.2610  0.1337
 6942SOL    HW132462   0.525   2.007  15.939  0.4336  0.2193  1.4742
 6942SOL    HW232463   0.566   2.141  15.888  0.6644  0.2507 -0.2035
 6943SOL     OW32464   2.825   1.960  11.680  0.1636 -0.1798 -0.4853
 6943SOL    HW132465   2.791   2.046  11.706  0.2162 -0.1065 -0.6664
 6943SOL    HW232466   2.819   1.966  11.585  0.9478  0.4836 -0.4927
 6944SOL     OW32467   3.710   3.354   2.810  0.0432 -0.6725  0.0347
 6944SOL    HW132468   3.768   3.409   2.863 -0.0995  0.6099 -1.1627
 6944SOL    HW232469   3.673   3.413   2.745 -1.5670 -0.7722  0.8581
 6945SOL     OW32470   3.760   4.270  10.888 -0.2107  0.1735  0.2481
 6945SOL    HW132471   3.711   4.191  10.864  1.2183 -1.3970  2.5146
 6945SOL    HW232472   3.744   4.319  10.807 -0.3322  0.1083  0.2318
 6946SOL     OW32473   1.464   4.137   8.012 -0.5150 -0.5061  0.2979
 6946SOL    HW132474   1.406   4.065   7.986  0.7311 -1.5107  0.3015
 6946SOL    HW232475   1.476   4.128   8.106 -1.9695 -1.3208  0.4033
 6947SOL     OW32476   2.939   2.263   4.212  0.3506  0.4775 -0.2639
 6947SOL    HW132477   2.912   2.338   4.265 -0.5348  0.3304 -0.5088
 6947SOL    HW232478   3.035   2.261   4.222  0.1207 -0.1420  1.8847
 6948SOL     OW32479   3.551   1.593   4.678  0.0772 -0.2397  0.0412
 6948SOL    HW132480   3.590   1.563   4.596 -0.2597 -1.9194  0.5007
 6948SOL    HW232481   3.477   1.642   4.641 -0.5420 -0.3129  1.1990
 6949SOL     OW32482   3.499   3.735  17.461  0.1371 -0.0310  0.2039
 6949SOL    HW132483   3.504   3.764  17.552 -1.5294  1.4380 -0.1752
 6949SOL    HW232484   3.430   3.670  17.457 -1.5637  1.6489  2.2714
 6950SOL     OW32485   1.207   4.080   1.978  0.2916  0.3204  0.1251
 6950SOL    HW132486   1.168   4.145   2.036  1.0009  0.2637  0.6667
 6950SOL    HW232487   1.128   4.080   1.923 -0.3396  2.1596  1.0412
 6951SOL     OW32488   2.390   4.723   9.357 -0.5910 -0.6644  0.1670
 6951SOL    HW132489   2.430   0.069   9.336 -1.1369 -0.2703  0.6642
 6951SOL    HW232490   2.301   0.021   9.356  0.3929  1.8020  1.2006
 6952SOL     OW32491   2.459   4.009   7.717  0.1782  0.3291 -0.1841
 6952SOL    HW132492   2.368   4.035   7.732  0.4359  0.4690  1.1883
 6952SOL    HW232493   2.470   3.968   7.803  0.5511  2.2777  0.7181
 6953SOL     OW32494   1.321   2.775  17.362 -0.2463 -1.0273  0.1099
 6953SOL    HW132495   1.325   2.685  17.330 -1.0241 -1.2451  0.6387
 6953SOL    HW232496   1.274   2.815  17.289  0.6642  1.0710  0.6699
 6954SOL     OW32497   4.573   3.734   1.940 -0.2829  0.3935 -0.0515
 6954SOL    HW132498   4.621   3.660   1.978  0.5583  1.8525  1.6935
 6954SOL    HW232499   4.621   3.755   1.859  0.4449  1.2335  0.6005
 6955SOL     OW32500   4.496   1.814   1.806 -0.3755 -0.1444 -0.1074
 6955SOL    HW132501   4.580   1.823   1.852  0.0837  0.0493 -0.9868
 6955SOL    HW232502   4.521   1.756   1.735  2.3600  0.5254  0.3009
 6956SOL     OW32503   0.787   0.119   4.522 -0.1514  0.2449  0.1853
 6956SOL    HW132504   0.730   0.189   4.552  2.7136  2.4831  0.5122
 6956SOL    HW232505   0.869   0.170   4.522  0.9419 -1.4892 -2.2381
 6957SOL     OW32506   2.912   2.397   3.977 -0.4390  0.3324  0.1614
 6957SOL    HW132507   2.948   2.484   3.996  0.6044  0.2302 -1.3123
 6957SOL    HW232508   2.928   2.355   4.061  1.6320 -1.6780 -1.2373
 6958SOL     OW32509   3.607   2.369   4.795 -0.5078 -0.3244  0.3851
 6958SOL    HW132510   3.526   2.319   4.800 -0.9949  0.3784 -0.5084
 6958SOL    HW232511   3.585   2.461   4.810 -1.0054 -0.4601  0.4634
 6959SOL     OW32512   4.411   3.957   8.478  0.6541  0.7433  0.0639
 6959SOL    HW132513   4.446   4.014   8.547  1.5917  0.1683  0.0703
 6959SOL    HW232514   4.333   3.918   8.517  0.0915  2.0486  0.2374
 6960SOL     OW32515   2.858   2.275   9.764  0.0094  0.0868 -0.1054
 6960SOL    HW132516   2.917   2.236   9.828  0.3057  1.6009  0.5560
 6960SOL    HW232517   2.922   2.276   9.693 -0.6444 -0.1825 -0.7032
 6961SOL     OW32518   4.491   0.922   9.192  0.1681 -0.0411 -0.6226
 6961SOL    HW132519   4.454   1.009   9.202 -1.8049 -0.7093 -1.9523
 6961SOL    HW232520   4.430   0.870   9.245 -0.8024  0.1929 -1.4989
 6962SOL     OW32521   0.807   3.374   3.979  0.2659  0.2219 -0.7014
 6962SOL    HW132522   0.788   3.298   3.925  0.9511 -0.1468 -0.4386
 6962SOL    HW232523   0.857   3.425   3.915 -0.0235  2.0877  0.5544
 6963SOL     OW32524   3.246   0.622   2.545  0.8107  0.2872 -0.0329
 6963SOL    HW132525   3.264   0.636   2.638 -0.0751 -1.8019  0.4422
 6963SOL    HW232526   3.301   0.546   2.527  0.8982  0.3711 -0.1172
 6964SOL     OW32527   2.810   3.715   7.087 -0.3852 -0.0396 -0.4315
 6964SOL    HW132528   2.790   3.645   7.149  1.1828 -1.1068 -1.1340
 6964SOL    HW232529   2.881   3.677   7.035 -0.2214 -0.5423  0.1551
 6965SOL     OW32530   0.542   4.091   7.297  0.3027  0.3164 -0.7643
 6965SOL    HW132531   0.579   4.025   7.356 -0.9799 -0.4409 -0.8187
 6965SOL    HW232532   0.570   4.175   7.334  0.5747 -0.4089  0.7149
 6966SOL     OW32533   0.944   0.950  14.632 -0.4078  0.0995 -0.3050
 6966SOL    HW132534   0.916   1.034  14.595  0.5669  0.5084 -0.0976
 6966SOL    HW232535   1.004   0.917  14.565  1.2409 -0.9101  1.6500
 6967SOL     OW32536   3.791   2.989  11.477  0.5886 -0.3330  0.6372
 6967SOL    HW132537   3.855   3.056  11.503 -1.5599  1.0474  2.3302
 6967SOL    HW232538   3.713   2.998  11.531 -0.8384  0.6291 -1.6007
 6968SOL     OW32539   3.741   3.995   3.724 -0.1680  0.8226  0.4492
 6968SOL    HW132540   3.831   3.973   3.700 -0.4774  2.0840 -1.8818
 6968SOL    HW232541   3.711   4.048   3.650  1.3341 -0.1915 -0.8956
 6969SOL     OW32542   3.453   2.796  13.575  0.1393 -0.7881 -0.2171
 6969SOL    HW132543   3.543   2.791  13.542  1.0070  0.7301  1.9210
 6969SOL    HW232544   3.425   2.886  13.559  1.4574  0.2053  3.0992
 6970SOL     OW32545   3.530   1.050   2.954 -0.0631  0.4400 -0.1420
 6970SOL    HW132546   3.563   1.107   3.024  0.3406  0.6518 -0.5082
 6970SOL    HW232547   3.560   1.091   2.873 -1.4829  2.0616  0.1288
 6971SOL     OW32548   1.867   1.633   5.406  0.2391  0.2423  0.3716
 6971SOL    HW132549   1.837   1.685   5.331  0.8059  0.5410  0.3560
 6971SOL    HW232550   1.855   1.686   5.484  1.9782  0.3370  0.5825
 6972SOL     OW32551   0.952   0.623   2.804  0.0394 -0.1819 -0.2347
 6972SOL    HW132552   0.860   0.595   2.802  0.1683 -0.6691  0.8491
 6972SOL    HW232553   0.945   0.718   2.792  0.9083 -0.3518 -2.0884
 6973SOL     OW32554   4.711   2.737  12.457 -0.1222  0.0139 -0.6168
 6973SOL    HW132555   0.042   2.793  12.493  0.0801 -0.8101  0.2892
 6973SOL    HW232556   4.643   2.765  12.519  1.0244 -2.1476  1.5924
 6974SOL     OW32557   3.653   4.146  14.392  0.0745 -0.2376 -0.1470
 6974SOL    HW132558   3.606   4.169  14.312 -1.9087 -0.9851  0.8022
 6974SOL    HW232559   3.742   4.179  14.379 -0.6668  2.2991  1.2838
 6975SOL     OW32560   0.007   1.544   0.079  0.4056 -0.0570 -0.6291
 6975SOL    HW132561   0.085   1.491   0.096  0.0330  0.4822  2.7885
 6975SOL    HW232562   0.023   1.603   0.005  2.0378 -1.8203 -1.6792
 6976SOL     OW32563   3.712   0.640   5.974 -0.3452 -0.0589  0.9391
 6976SOL    HW132564   3.757   0.582   5.913  1.1069  0.8491  1.1474
 6976SOL    HW232565   3.708   0.714   5.912 -1.1673 -0.6578  0.2712
 6977SOL     OW32566   2.848   0.258   3.152  0.5043 -0.1815 -0.0713
 6977SOL    HW132567   2.798   0.313   3.091  0.8114 -0.8151 -0.8984
 6977SOL    HW232568   2.799   0.263   3.234  1.4332 -0.4894  0.4974
 6978SOL     OW32569   0.062   0.268   4.224  0.1265  0.0456 -0.6942
 6978SOL    HW132570   4.727   0.323   4.192  0.4667  0.9708  0.1186
 6978SOL    HW232571   0.112   0.275   4.143  1.6637 -1.7566  0.1241
 6979SOL     OW32572   1.645   1.143   3.264  0.1305  0.5187  0.3156
 6979SOL    HW132573   1.668   1.111   3.351  3.0101  1.2680 -0.1698
 6979SOL    HW232574   1.549   1.150   3.268  0.0635 -0.6909  0.7904
 6980SOL     OW32575   0.411   3.417   1.071  0.1761  0.3855 -0.8226
 6980SOL    HW132576   0.464   3.412   0.992  0.0708 -1.3404 -0.7815
 6980SOL    HW232577   0.323   3.431   1.037  0.6100  0.2033 -2.0035
 6981SOL     OW32578   3.619   1.309   1.965 -0.5799  0.4124 -0.1065
 6981SOL    HW132579   3.635   1.338   2.055 -0.5896  0.1984 -0.0357
 6981SOL    HW232580   3.695   1.352   1.926  1.8458 -1.2971  2.7318
 6982SOL     OW32581   1.981   4.529   4.304 -0.2845 -0.2914  0.5103
 6982SOL    HW132582   1.959   4.479   4.383  1.3605 -0.2716  0.9752
 6982SOL    HW232583   1.912   4.493   4.248 -0.1981 -0.0692  0.2619
 6983SOL     OW32584   0.616   1.826   9.719 -0.3182  0.0704  0.0748
 6983SOL    HW132585   0.612   1.786   9.806  2.5406  1.7308  0.9906
 6983SOL    HW232586   0.578   1.765   9.656  1.1454 -1.9607  1.1805
 6984SOL     OW32587   2.510   1.933   7.342  0.2935  0.0063  0.0248
 6984SOL    HW132588   2.566   2.005   7.372 -2.1408  2.6744 -1.8383
 6984SOL    HW232589   2.422   1.961   7.369  0.3426 -1.1412  1.3737
 6985SOL     OW32590   3.876   0.425   5.487 -0.3327  0.1514  0.5987
 6985SOL    HW132591   3.942   0.469   5.541 -0.2252 -0.8958  1.3275
 6985SOL    HW232592   3.869   0.342   5.535  1.7821 -0.7391 -0.6520
 6986SOL     OW32593   1.750   2.389   4.236  0.2186  0.4692  0.0735
 6986SOL    HW132594   1.821   2.364   4.295  1.6486 -0.3416 -1.9846
 6986SOL    HW232595   1.711   2.302   4.225  1.5925 -0.0520 -0.6834
 6987SOL     OW32596   4.652   3.974   4.301  0.1640 -0.2916 -0.0143
 6987SOL    HW132597   4.689   4.059   4.279  2.2213 -0.8716  1.1520
 6987SOL    HW232598   4.602   3.992   4.381  1.7113  2.7239  0.2759
 6988SOL     OW32599   2.829   3.302  12.892  0.4429  0.4495 -0.6526
 6988SOL    HW132600   2.916   3.336  12.911 -0.0482  0.2371  1.9603
 6988SOL    HW232601   2.848   3.216  12.853 -0.1772 -0.0535  0.1479
 6989SOL     OW32602   3.464   4.111   8.386  0.0036  0.1844  0.6234
 6989SOL    HW132603   3.383   4.070   8.415 -0.4707  2.0335  1.8674
 6989SOL    HW232604   3.520   4.033   8.381  0.1369  0.2810  0.5890
 6990SOL     OW32605   3.592   0.679  12.754 -0.2175 -0.0641  0.4696
 6990SOL    HW132606   3.587   0.746  12.685 -2.7204 -0.6636  0.0527
 6990SOL    HW232607   3.555   0.725  12.830 -1.5416  0.4415 -0.4760
 6991SOL     OW32608   2.376   4.385   9.588  0.3872  0.5118  0.1169
 6991SOL    HW132609   2.407   4.471   9.615 -0.2857  0.4611  1.0713
 6991SOL    HW232610   2.454   4.335   9.564  0.2574 -0.8651  2.5067
 6992SOL     OW32611   1.831   0.493   2.369  0.4109  0.5379 -0.2650
 6992SOL    HW132612   1.783   0.507   2.451  1.5009  0.1173  0.4435
 6992SOL    HW232613   1.760   0.502   2.306  1.1496 -0.2145 -1.2056
 6993SOL     OW32614   2.358   4.114   3.287  0.3335  0.4330 -0.6499
 6993SOL    HW132615   2.401   4.107   3.201  1.0593 -2.1319 -0.0972
 6993SOL    HW232616   2.276   4.073   3.260  1.3694 -1.6992 -0.6295
 6994SOL     OW32617   2.287   2.825   8.716 -0.2054  0.1873 -0.1182
 6994SOL    HW132618   2.296   2.804   8.623  0.3210 -0.4887  0.0823
 6994SOL    HW232619   2.192   2.840   8.718  0.0345  1.7219 -0.3440
 6995SOL     OW32620   3.480   3.733   9.104  0.6140  0.2541 -0.3336
 6995SOL    HW132621   3.517   3.677   9.035  1.1504  0.9332 -0.6030
 6995SOL    HW232622   3.448   3.808   9.054  0.6599 -0.9207 -2.1167
 6996SOL     OW32623   2.451   2.060   2.367 -0.3271  0.4062 -0.4075
 6996SOL    HW132624   2.388   2.053   2.439  0.3733 -0.3523  0.1282
 6996SOL    HW232625   2.446   1.975   2.325  0.4435 -0.8149  1.9656
 6997SOL     OW32626   3.494   0.184  14.352  0.6625  0.3899  0.1529
 6997SOL    HW132627   3.403   0.156  14.342  1.0573 -1.0536  0.5777
 6997SOL    HW232628   3.493   0.257  14.289  0.6018  1.5837  1.5535
 6998SOL     OW32629   0.845   2.544   1.770  0.0069  0.0929 -0.3434
 6998SOL    HW132630   0.874   2.573   1.857 -1.1409  1.1169 -0.3052
 6998SOL    HW232631   0.750   2.550   1.779 -0.0541  0.4219 -1.1883
 6999SOL     OW32632   2.101   0.141   3.888 -0.4092 -0.3408 -0.0396
 6999SOL    HW132633   2.189   0.178   3.886 -0.2475 -0.6241  1.5536
 6999SOL    HW232634   2.066   0.193   3.816 -0.1864  0.2399  0.2695
 7000SOL     OW32635   1.271   2.510   7.325  0.8975  0.4720 -0.4271
 7000SOL    HW132636   1.177   2.495   7.314  0.6843  0.7586  1.0474
 7000SOL    HW232637   1.278   2.600   7.293 -0.4661  0.2638 -1.2975
 7001SOL     OW32638   1.356   4.355  12.630 -0.5392  1.0007 -0.4677
 7001SOL    HW132639   1.407   4.280  12.658 -1.8941 -0.0236 -0.7696
 7001SOL    HW232640   1.271   4.319  12.655 -0.9642  0.8891 -2.0646
 7002SOL     OW32641   0.208   2.734  14.486  0.5661 -0.0111 -0.1685
 7002SOL    HW132642   0.213   2.667  14.554  2.3310  0.1161 -0.1874
 7002SOL    HW232643   0.212   2.817  14.534  0.9252  1.2850 -2.4763
 7003SOL     OW32644   3.900   1.037   2.238  0.6905  0.4525 -0.2433
 7003SOL    HW132645   3.993   1.037   2.260  0.5187 -0.0353  0.4907
 7003SOL    HW232646   3.876   1.102   2.304  0.1320 -0.2697  0.2650
 7004SOL     OW32647   2.222   3.003   3.483 -0.2238  0.1853  0.0132
 7004SOL    HW132648   2.234   3.096   3.500 -0.0922  0.0819  0.4640
 7004SOL    HW232649   2.300   2.962   3.519 -0.5881  1.3308  2.0541
 7005SOL     OW32650   1.013   2.568  14.339  0.8344  0.7213  0.4657
 7005SOL    HW132651   1.098   2.584  14.299 -0.9998  2.1970 -2.8491
 7005SOL    HW232652   1.041   2.505  14.405  2.2441  1.0430  0.1751
 7006SOL     OW32653   4.568   0.979   5.858  0.0971  0.0013 -0.2419
 7006SOL    HW132654   4.520   0.905   5.895  0.9495  0.6189  2.1257
 7006SOL    HW232655   4.639   0.933   5.814 -0.1451 -0.1362 -0.4892
 7007SOL     OW32656   1.143   0.227   9.335 -0.2383  0.0514 -0.1788
 7007SOL    HW132657   1.153   0.153   9.276  2.5332  1.0787 -1.0170
 7007SOL    HW232658   1.236   0.250   9.336 -0.6408  1.7235 -0.1120
 7008SOL     OW32659   2.543   2.996  17.250  0.0672 -0.4022  0.0885
 7008SOL    HW132660   2.451   3.013  17.269  0.1130  0.7134 -0.7179
 7008SOL    HW232661   2.588   3.033  17.326 -0.5881  2.0572 -0.7231
 7009SOL     OW32662   0.438   2.321   2.141  0.0462  0.2842  0.1217
 7009SOL    HW132663   0.403   2.410   2.137 -0.9445 -0.1082 -0.1462
 7009SOL    HW232664   0.422   2.291   2.051  1.2374  0.8871 -0.2902
 7010SOL     OW32665   3.587   1.169   0.871 -1.0221 -0.4662 -0.0833
 7010SOL    HW132666   3.616   1.245   0.921 -2.8266 -0.0974  0.4242
 7010SOL    HW232667   3.598   1.103   0.940 -2.2387  0.2457  0.8044
 7011SOL     OW32668   1.269   0.034  12.667  0.7781  0.2395  0.3930
 7011SOL    HW132669   1.334   4.716  12.624 -0.9188 -0.6631 -0.9809
 7011SOL    HW232670   1.325   0.103  12.702  1.2068  0.3309 -0.4842
 7012SOL     OW32671   4.120   1.966   3.145  0.0253  0.0352  0.3412
 7012SOL    HW132672   4.191   2.028   3.160  0.8704 -1.2299  1.5785
 7012SOL    HW232673   4.050   2.026   3.120  0.3111  0.4984  0.6592
 7013SOL     OW32674   1.320   0.966   2.791  0.5705  0.2621 -0.0215
 7013SOL    HW132675   1.268   1.035   2.750 -0.5566 -0.9852 -0.7233
 7013SOL    HW232676   1.338   0.914   2.712 -0.9356  1.0971 -0.9253
 7014SOL     OW32677   1.428   1.252   0.447  0.6860 -0.8990  0.2349
 7014SOL    HW132678   1.490   1.180   0.463  1.3211 -0.7820 -1.8249
 7014SOL    HW232679   1.380   1.258   0.530  2.5374 -0.9495  1.3254
 7015SOL     OW32680   1.828   2.745   2.640 -0.2587 -0.3346  0.4531
 7015SOL    HW132681   1.823   2.801   2.563 -0.9652 -0.1078  0.6593
 7015SOL    HW232682   1.800   2.663   2.600  1.0297 -0.5229 -0.0399
 7016SOL     OW32683   3.104   2.124   3.045  0.0156 -0.0432  0.7190
 7016SOL    HW132684   3.083   2.166   2.962  2.1434 -0.4429 -0.0319
 7016SOL    HW232685   3.019   2.110   3.085 -1.1708 -0.0797 -1.7955
 7017SOL     OW32686   2.631   0.369  13.502  0.1332 -0.5371  0.4375
 7017SOL    HW132687   2.617   0.307  13.430  2.1451 -0.3472 -0.1178
 7017SOL    HW232688   2.710   0.331  13.540  1.1089  1.8699  0.8059
 7018SOL     OW32689   0.677   1.433   6.498 -0.5139  0.1197 -0.4400
 7018SOL    HW132690   0.621   1.504   6.530  0.2632  0.1845  0.7741
 7018SOL    HW232691   0.759   1.461   6.539  0.7658 -0.3349 -2.6476
 7019SOL     OW32692   2.488   0.947   0.698 -0.2293  0.2748 -0.5079
 7019SOL    HW132693   2.523   1.035   0.682  1.4567 -0.1460  0.8160
 7019SOL    HW232694   2.466   0.910   0.612  0.6214 -0.3040 -0.4784
 7020SOL     OW32695   2.629   3.137   2.033 -0.4362  0.4431  0.0858
 7020SOL    HW132696   2.720   3.151   2.006 -0.4489  0.7713  0.2162
 7020SOL    HW232697   2.618   3.046   2.007  2.7996  0.6432 -2.0055
 7021SOL     OW32698   2.000   2.378   4.446  0.3211 -0.6117 -0.6187
 7021SOL    HW132699   2.077   2.328   4.471  1.5697  0.8029 -1.5832
 7021SOL    HW232700   2.035   2.465   4.425 -2.6063  0.7052 -0.0544
 7022SOL     OW32701   3.831   4.685   4.549 -0.7382  0.0266 -0.3658
 7022SOL    HW132702   3.813   4.669   4.641 -2.1207  1.0350 -0.4559
 7022SOL    HW232703   3.863   4.597   4.530 -1.8378 -0.5087  0.2618
 7023SOL     OW32704   4.334   4.606   7.757  0.2094 -0.0390 -0.1819
 7023SOL    HW132705   4.406   4.651   7.713  0.2422 -1.2982 -1.4210
 7023SOL    HW232706   4.287   4.678   7.799 -0.1613 -0.1025 -0.4853
 7024SOL     OW32707   4.701   1.208   5.541  0.6334  0.1438 -0.5044
 7024SOL    HW132708   4.717   1.273   5.609  0.6890 -1.0731  0.6470
 7024SOL    HW232709   4.662   1.257   5.469 -0.4879 -1.9595 -1.3238
 7025SOL     OW32710   4.494   4.655   5.128 -0.2940 -0.1395  0.0245
 7025SOL    HW132711   4.554   4.725   5.100  3.5705 -2.5528  2.3182
 7025SOL    HW232712   4.461   4.700   5.206 -0.5468  0.3348 -0.3547
 7026SOL     OW32713   3.671   1.697   2.118  0.2411 -0.0904 -0.1781
 7026SOL    HW132714   3.684   1.785   2.083 -1.1412  0.2849  0.2286
 7026SOL    HW232715   3.713   1.701   2.204  0.8486 -2.5740 -0.3709
 7027SOL     OW32716   1.644   1.681   4.958  0.2390 -0.3472 -0.2081
 7027SOL    HW132717   1.653   1.662   4.865  0.6246 -0.0971 -0.2221
 7027SOL    HW232718   1.609   1.597   4.988  1.2778 -0.9534 -0.7063
 7028SOL     OW32719   3.692   0.018  15.344  0.0206 -0.0836  0.1074
 7028SOL    HW132720   3.610   0.039  15.388  1.1011 -0.8828  2.5351
 7028SOL    HW232721   3.691   4.660  15.341 -0.8823 -0.1470  2.6704
 7029SOL     OW32722   3.840   0.853   2.653  0.2192 -0.4420  0.2067
 7029SOL    HW132723   3.758   0.851   2.604  0.1538  1.4819  0.2452
 7029SOL    HW232724   3.813   0.800   2.728 -3.2334  0.0604 -0.6540
 7030SOL     OW32725   4.458   4.648   8.512 -0.0989  0.7075  0.0984
 7030SOL    HW132726   4.437   4.555   8.509 -0.9197  0.9337 -1.3305
 7030SOL    HW232727   4.461   4.665   8.606 -1.5770 -0.8959  0.4241
 7031SOL     OW32728   0.229   1.269   8.968  0.1197 -0.4084 -0.5388
 7031SOL    HW132729   0.177   1.299   9.043 -0.0752  1.4144 -1.4068
 7031SOL    HW232730   0.247   1.349   8.918  2.9432 -1.4243 -1.1225
 7032SOL     OW32731   0.374   2.379   6.899  0.3039 -0.0999  0.1221
 7032SOL    HW132732   0.298   2.387   6.841 -0.8267 -0.6109  1.5352
 7032SOL    HW232733   0.434   2.427   6.843 -0.3596  0.6600  0.0666
 7033SOL     OW32734   2.223   1.631  10.905 -0.1088 -0.0034  0.5669
 7033SOL    HW132735   2.172   1.590  10.975  0.6894 -1.8533  0.0795
 7033SOL    HW232736   2.158   1.607  10.838 -1.2414  1.0485  1.3003
 7034SOL     OW32737   1.712   4.393   9.672  0.3965  0.4063  0.3257
 7034SOL    HW132738   1.715   4.329   9.743 -0.5093  1.7193  1.5607
 7034SOL    HW232739   1.736   4.474   9.718 -0.2311  1.1129 -0.5794
 7035SOL     OW32740   2.483   0.264   5.261  0.0436  0.4108 -0.1066
 7035SOL    HW132741   2.456   0.195   5.200  0.3813 -0.0807  0.2899
 7035SOL    HW232742   2.579   0.266   5.252  0.0260  0.7362 -0.1991
 7036SOL     OW32743   1.531   0.127   8.247 -0.0477 -0.1726 -0.1481
 7036SOL    HW132744   1.435   0.119   8.245 -0.1449  1.3723 -1.7520
 7036SOL    HW232745   1.546   0.080   8.329 -2.9780 -1.4717 -0.3394
 7037SOL     OW32746   2.690   3.785   8.054  0.0187 -0.1322  0.2644
 7037SOL    HW132747   2.648   3.791   8.140  1.4548 -0.4691  0.9756
 7037SOL    HW232748   2.772   3.832   8.070 -0.0725  0.1036  0.0338
 7038SOL     OW32749   2.774   4.648   2.066 -0.2077 -0.2238  0.2347
 7038SOL    HW132750   2.862   4.650   2.028  0.4646  1.8229  1.8801
 7038SOL    HW232751   2.726   4.683   1.991  0.5398 -0.7653 -0.4913
 7039SOL     OW32752   4.137   0.906   5.388  0.0828 -0.7730 -0.5572
 7039SOL    HW132753   4.173   0.978   5.439 -2.4893  0.1986 -0.1047
 7039SOL    HW232754   4.055   0.952   5.370  0.2104  0.6112  2.3608
 7040SOL     OW32755   3.953   1.244   7.822 -0.1256  0.1199  0.7076
 7040SOL    HW132756   4.032   1.235   7.768  1.0354 -2.4663  2.8512
 7040SOL    HW232757   3.996   1.262   7.905  1.7214 -0.5370 -0.0939
 7041SOL     OW32758   0.816   0.428   6.545  0.3820  0.1571 -0.6837
 7041SOL    HW132759   0.787   0.357   6.602 -1.8629  1.8869  0.2981
 7041SOL    HW232760   0.823   0.386   6.459 -3.3063 -4.1382  1.1018
 7042SOL     OW32761   1.879   4.207   3.972  0.0590 -0.0607 -0.5329
 7042SOL    HW132762   1.882   4.268   3.899  0.8756  1.4505  0.7711
 7042SOL    HW232763   1.786   4.188   3.961 -0.4808  1.2904  1.7857
 7043SOL     OW32764   4.715   1.074   8.228 -0.0834  0.3766 -0.4842
 7043SOL    HW132765   4.688   1.078   8.136 -1.3197  1.9104 -0.0522
 7043SOL    HW232766   0.071   1.081   8.214  0.2090  1.9333  2.1336
 7044SOL     OW32767   2.728   0.970   3.206  0.0993 -0.1334  0.2750
 7044SOL    HW132768   2.705   0.900   3.268  0.8078  0.4783  1.2291
 7044SOL    HW232769   2.788   1.007   3.270 -0.7687  0.3001  0.8371
 7045SOL     OW32770   4.655   3.323  15.629  0.1100  0.0996  0.3112
 7045SOL    HW132771   4.705   3.275  15.695 -2.2587 -2.8135 -0.0372
 7045SOL    HW232772   4.715   3.395  15.611  2.2451 -2.1429 -1.5642
 7046SOL     OW32773   2.402   4.215   2.896  0.1051 -0.2683  0.1083
 7046SOL    HW132774   2.440   4.160   2.965 -1.5180  0.9461  1.9807
 7046SOL    HW232775   2.430   4.165   2.819  1.7262  0.9713 -0.0981
 7047SOL     OW32776   2.260   0.047   9.793  0.3314 -0.5972  0.0160
 7047SOL    HW132777   2.169   0.074   9.793  0.1179 -1.3324  1.0235
 7047SOL    HW232778   2.262   4.729   9.871  0.2902  0.5353  0.8162
 7048SOL     OW32779   3.911   2.536   1.125 -0.2714 -0.1691 -0.6404
 7048SOL    HW132780   3.985   2.498   1.078 -1.4384 -4.4575  0.9547
 7048SOL    HW232781   3.857   2.457   1.132  1.4595 -1.2118  0.6242
 7049SOL     OW32782   3.033   2.511   0.483  0.0826  0.3050 -0.2096
 7049SOL    HW132783   3.001   2.600   0.471 -1.3556 -0.0521  0.9031
 7049SOL    HW232784   2.957   2.455   0.464  0.7391 -0.4266 -0.6519
 7050SOL     OW32785   4.139   0.987  16.018  0.0624  0.2105 -0.5184
 7050SOL    HW132786   4.089   0.935  15.957  0.8140 -0.8622 -0.2210
 7050SOL    HW232787   4.098   1.070  15.994  2.6042  0.9686 -2.2939
 7051SOL     OW32788   3.217   1.536   5.733 -0.0560  0.1273  0.1320
 7051SOL    HW132789   3.280   1.465   5.722 -0.3179 -0.1235  0.2424
 7051SOL    HW232790   3.264   1.602   5.783 -0.9088  3.0354 -2.8813
 7052SOL     OW32791   2.966   3.212   3.880 -0.4025 -0.0292 -0.5281
 7052SOL    HW132792   3.004   3.143   3.935 -1.0818  0.1464  0.1598
 7052SOL    HW232793   2.937   3.164   3.803 -2.8946 -0.8157  0.8873
 7053SOL     OW32794   3.881   4.388   8.547 -0.2554 -0.5002 -0.0809
 7053SOL    HW132795   3.870   4.318   8.611  0.6980  0.4016  1.0829
 7053SOL    HW232796   3.976   4.402   8.551 -0.1886 -0.4040 -2.0782
 7054SOL     OW32797   3.115   0.065   9.182 -0.0765  0.7040 -0.3458
 7054SOL    HW132798   3.168   0.086   9.105 -1.9361 -0.0549 -1.8229
 7054SOL    HW232799   3.041   0.121   9.159 -1.1650 -0.7006 -0.2580
 7055SOL     OW32800   0.478   3.385  15.822  0.2602  0.0000 -0.2512
 7055SOL    HW132801   0.523   3.302  15.806  0.5907 -0.1616  1.4792
 7055SOL    HW232802   0.541   3.427  15.881 -0.8370 -0.3320  1.1571
 7056SOL     OW32803   2.442   1.473   1.903  0.0486 -0.0585 -0.4954
 7056SOL    HW132804   2.508   1.542   1.917  0.3773 -0.1898 -1.3646
 7056SOL    HW232805   2.489   1.396   1.935 -1.9871 -1.3689 -0.6989
 7057SOL     OW32806   3.271   1.934   4.207 -0.4901  0.1667 -0.2763
 7057SOL    HW132807   3.335   1.863   4.214 -1.2525 -0.4822  0.0902
 7057SOL    HW232808   3.227   1.906   4.127  0.7235 -0.7744 -0.6178
 7058SOL     OW32809   1.573   4.399   8.589 -0.2634  0.0551 -0.3157
 7058SOL    HW132810   1.482   4.428   8.582 -0.3064 -0.0249 -0.0716
 7058SOL    HW232811   1.570   4.331   8.656 -1.4154 -1.2509 -1.6957
 7059SOL     OW32812   2.828   1.676   7.820  0.0633 -0.2610  0.0434
 7059SOL    HW132813   2.842   1.755   7.872 -0.1767 -0.8193  0.9493
 7059SOL    HW232814   2.890   1.615   7.859 -0.3382  0.3212  1.5811
 7060SOL     OW32815   1.345   2.688   3.299 -0.1815  0.0473  0.0972
 7060SOL    HW132816   1.406   2.617   3.320 -1.7328 -0.7467  1.8333
 7060SOL    HW232817   1.402   2.752   3.256  0.3109  0.2854  1.0938
 7061SOL     OW32818   0.062   0.260   6.980 -0.1677  0.3264 -0.1037
 7061SOL    HW132819   0.151   0.253   7.015 -0.0913 -1.8339 -0.7370
 7061SOL    HW232820   0.073   0.290   6.889  1.7260 -0.6291 -0.1980
 7062SOL     OW32821   1.037   1.055   7.534 -0.6645  0.3378 -0.1902
 7062SOL    HW132822   0.948   1.042   7.501 -0.1888 -3.1196 -0.0776
 7062SOL    HW232823   1.035   1.026   7.625 -0.1941  0.5405 -0.1168
 7063SOL     OW32824   1.167   4.038   4.214  0.2643  0.1035  0.5034
 7063SOL    HW132825   1.178   3.944   4.229  1.6271 -0.1539 -2.1119
 7063SOL    HW232826   1.072   4.045   4.223  0.2733  0.7224  0.0903
 7064SOL     OW32827   2.900   4.668   9.280  0.6324  0.6278 -0.1618
 7064SOL    HW132828   2.942   4.582   9.269 -2.4720 -1.0769  1.4335
 7064SOL    HW232829   2.981   4.719   9.272  0.4037  1.1031  0.5344
 7065SOL     OW32830   0.172   1.722   8.718 -0.4493 -0.5023  0.1849
 7065SOL    HW132831   0.086   1.680   8.715  0.3525 -2.2205  1.0925
 7065SOL    HW232832   0.167   1.756   8.807 -0.6606  2.3934 -0.9370
 7066SOL     OW32833   0.034   0.271   0.575  0.0014  0.3054  0.5711
 7066SOL    HW132834   0.001   0.331   0.641 -2.8328 -0.1258 -0.4505
 7066SOL    HW232835   0.070   0.323   0.504 -0.3967 -0.7127 -0.3702
 7067SOL     OW32836   3.067   0.729   3.871  0.1803  0.0512  0.2526
 7067SOL    HW132837   3.040   0.776   3.792  1.5551 -0.5816 -0.5912
 7067SOL    HW232838   3.086   0.802   3.931 -0.1409  2.0234 -2.0421
 7068SOL     OW32839   3.294   4.333   4.017 -0.3127  0.6358 -0.0223
 7068SOL    HW132840   3.256   4.284   4.089 -0.3775 -0.4922 -0.8214
 7068SOL    HW232841   3.389   4.325   4.029 -0.0498  1.0171 -1.7818
 7069SOL     OW32842   2.752   4.023   7.786  0.0575 -0.1763 -0.4048
 7069SOL    HW132843   2.657   4.022   7.792  0.2498  5.0887  3.7750
 7069SOL    HW232844   2.778   4.098   7.839  1.5532  1.5000 -3.5322
 7070SOL     OW32845   3.237   3.633  16.025 -0.8676 -0.3312 -0.6879
 7070SOL    HW132846   3.240   3.700  15.956  0.0469 -1.0549 -1.3476
 7070SOL    HW232847   3.323   3.647  16.063 -0.5718 -2.0979 -0.7282
 7071SOL     OW32848   3.608   2.916   6.212 -0.3146 -0.6434 -0.7915
 7071SOL    HW132849   3.530   2.881   6.256 -0.1024 -0.5351 -0.3283
 7071SOL    HW232850   3.568   2.958   6.136 -1.4430 -0.6232 -0.1999
 7072SOL     OW32851   1.395   2.131   4.365 -0.0807  1.1919  0.4616
 7072SOL    HW132852   1.315   2.182   4.381  0.2199  1.5642  0.7597
 7072SOL    HW232853   1.437   2.152   4.448  0.3882 -2.2560  1.0713
 7073SOL     OW32854   1.400   3.259   3.846 -0.0145 -0.0379  0.2384
 7073SOL    HW132855   1.445   3.256   3.931  1.2968  0.3769 -0.4357
 7073SOL    HW232856   1.360   3.346   3.846  0.6647  0.2764  0.4150
 7074SOL     OW32857   0.729   2.640  14.348 -0.5455  0.0621  0.8618
 7074SOL    HW132858   0.824   2.641  14.331 -1.0959 -1.1819 -2.2615
 7074SOL    HW232859   0.716   2.550  14.378 -0.2537  0.1398  1.2359
 7075SOL     OW32860   3.739   4.346   7.595 -0.2755  0.0241 -1.0272
 7075SOL    HW132861   3.689   4.284   7.649 -1.5094  1.0133 -1.0274
 7075SOL    HW232862   3.785   4.402   7.658 -1.0031  1.5515 -1.8756
 7076SOL     OW32863   3.939   1.045   3.999 -0.4891  0.2087  0.3381
 7076SOL    HW132864   3.946   0.974   3.934 -0.6782  1.1656 -0.7213
 7076SOL    HW232865   3.948   0.985   4.073  2.6454 -1.6224 -1.4930
 7077SOL     OW32866   4.520   0.645   2.987  0.6945 -0.0686 -0.5362
 7077SOL    HW132867   4.497   0.723   3.036  1.4798  0.9008 -1.7060
 7077SOL    HW232868   4.436   0.628   2.944  0.0406  2.2030 -0.1322
 7078SOL     OW32869   1.381   2.245   1.777 -0.2567 -0.2871  0.0118
 7078SOL    HW132870   1.469   2.249   1.742  1.2602 -3.6502  3.4052
 7078SOL    HW232871   1.333   2.304   1.719 -2.8197 -0.1375  2.2436
 7079SOL     OW32872   1.635   3.675   5.877 -0.3418  0.3890 -0.7892
 7079SOL    HW132873   1.724   3.664   5.911 -0.0692 -0.9137 -1.9129
 7079SOL    HW232874   1.611   3.754   5.926 -1.3585 -0.4424  0.0569
 7080SOL     OW32875   0.347   4.552   1.566  0.1879  0.1015 -0.2799
 7080SOL    HW132876   0.355   4.556   1.470 -0.5924  0.0720 -0.3494
 7080SOL    HW232877   0.265   4.599   1.581  0.4179 -0.1629  1.7192
 7081SOL     OW32878   0.649   4.345   7.383 -0.0309  0.1863 -0.0631
 7081SOL    HW132879   0.586   4.416   7.375 -1.9667 -1.6240 -1.0009
 7081SOL    HW232880   0.713   4.361   7.313  2.2079 -0.3964  1.8509
 7082SOL     OW32881   1.357   2.012   6.936  0.9016  0.6720 -0.1467
 7082SOL    HW132882   1.453   2.015   6.940  0.9225 -0.1211 -0.0516
 7082SOL    HW232883   1.338   2.053   7.020 -2.6315  0.5731 -0.8742
 7083SOL     OW32884   1.078   3.743  16.221  0.1957  0.0281  0.3754
 7083SOL    HW132885   1.001   3.762  16.273 -1.4574 -2.6091 -1.0980
 7083SOL    HW232886   1.056   3.654  16.193 -2.7690  0.4560  1.3591
 7084SOL     OW32887   1.330   4.732   8.632  0.1868  0.5451 -0.1562
 7084SOL    HW132888   1.293   0.027   8.714  2.5584  0.4963  0.9203
 7084SOL    HW232889   1.281   4.650   8.622 -1.6802  1.6754 -0.4077
 7085SOL     OW32890   1.375   4.632  11.215 -0.4704  0.2095 -0.2335
 7085SOL    HW132891   1.462   4.649  11.252 -0.5570  0.8664 -0.3341
 7085SOL    HW232892   1.331   4.699  11.268  1.4589 -0.6614  2.4694
 7086SOL     OW32893   1.611   2.172   4.211 -0.3020 -0.7164  0.0976
 7086SOL    HW132894   1.587   2.111   4.142  3.1045  1.4170 -2.9602
 7086SOL    HW232895   1.534   2.162   4.268 -0.0851  0.1810  0.5458
 7087SOL     OW32896   3.064   1.144   2.972  1.0486 -0.2303 -0.1747
 7087SOL    HW132897   3.104   1.075   3.026 -0.2637 -0.1174  0.9235
 7087SOL    HW232898   3.024   1.202   3.037  0.6039 -1.2602  0.4618
 7088SOL     OW32899   3.556   3.836   9.342 -0.2815 -0.2037  0.5529
 7088SOL    HW132900   3.527   3.805   9.256 -2.7751  2.0959  0.5896
 7088SOL    HW232901   3.517   3.923   9.346 -2.2933 -1.0171 -1.3560
 7089SOL     OW32902   0.442   1.981   8.330  0.6040 -0.1535 -0.9472
 7089SOL    HW132903   0.519   1.927   8.315  1.0249  0.2608 -0.2449
 7089SOL    HW232904   0.401   1.925   8.396 -0.5703 -0.0158 -1.5564
 7090SOL     OW32905   3.714   2.565   7.915 -0.1367 -0.5042  0.2191
 7090SOL    HW132906   3.651   2.624   7.872 -1.6063 -1.5122  0.9773
 7090SOL    HW232907   3.793   2.595   7.871  0.3338 -1.7487  0.2133
 7091SOL     OW32908   2.432   2.914   6.551 -0.5440 -0.5577  0.8197
 7091SOL    HW132909   2.514   2.865   6.559 -0.6915 -1.2505 -2.0923
 7091SOL    HW232910   2.442   2.973   6.626 -1.7553 -0.5168  0.9472
 7092SOL     OW32911   3.782   4.305   8.315  0.3110 -0.0686 -0.5733
 7092SOL    HW132912   3.817   4.333   8.399 -2.5235  0.7754  0.3256
 7092SOL    HW232913   3.688   4.319   8.325  0.6028  0.2952  1.5512
 7093SOL     OW32914   3.762   3.196   5.243 -0.3183 -0.4998 -0.6589
 7093SOL    HW132915   3.842   3.233   5.206 -0.8762  0.0540 -1.3060
 7093SOL    HW232916   3.689   3.249   5.212 -2.1225 -1.2753  2.3258
 7094SOL     OW32917   2.280   0.168   7.060  0.5782  0.6059 -0.0510
 7094SOL    HW132918   2.331   0.188   6.981  0.7122 -1.8793 -0.5966
 7094SOL    HW232919   2.335   0.097   7.094  0.8297  0.9945  0.3416
 7095SOL     OW32920   2.114   2.446  16.562  0.2770 -0.0652 -0.0170
 7095SOL    HW132921   2.022   2.468  16.573  0.0893 -0.0278 -1.6080
 7095SOL    HW232922   2.153   2.491  16.637  0.1896 -0.0375  0.0110
 7096SOL     OW32923   3.902   3.516   1.320 -0.5310  0.1510 -0.2144
 7096SOL    HW132924   3.938   3.467   1.246 -1.3154  1.2346 -1.3164
 7096SOL    HW232925   3.819   3.472   1.339 -1.1155  1.1869 -0.3398
 7097SOL     OW32926   2.554   2.256   2.086 -0.3428  0.3837 -0.1207
 7097SOL    HW132927   2.571   2.163   2.074 -1.2907  0.3067 -0.9401
 7097SOL    HW232928   2.472   2.265   2.037  0.7545  0.3944 -1.9706
 7098SOL     OW32929   1.870   2.189   4.014 -0.4132 -0.1117 -0.0346
 7098SOL    HW132930   1.781   2.154   4.007 -0.8856  1.1256 -0.1129
 7098SOL    HW232931   1.915   2.110   4.047 -0.5583 -0.7889 -1.4430
 7099SOL     OW32932   1.947   1.914   7.024  0.0669 -0.2391  0.5286
 7099SOL    HW132933   1.924   1.948   6.937  2.3354  1.9374  0.7843
 7099SOL    HW232934   2.021   1.969   7.049  1.6965 -2.2944  0.1897
 7100SOL     OW32935   2.424   4.339   2.458  0.0570  0.0024 -0.6393
 7100SOL    HW132936   2.501   4.358   2.405  2.2099 -0.4066  2.3492
 7100SOL    HW232937   2.377   4.414   2.422  0.9648  0.2303 -1.3291
 7101SOL     OW32938   4.180   4.169   4.667  0.2607  0.2787 -0.1874
 7101SOL    HW132939   4.236   4.222   4.611  0.0326  0.9453  0.2204
 7101SOL    HW232940   4.112   4.230   4.694 -1.1541 -0.8217 -1.2395
 7102SOL     OW32941   1.608   0.384   5.554  0.0881  0.2616  0.1050
 7102SOL    HW132942   1.670   0.381   5.481 -1.5134  0.1027 -1.2543
 7102SOL    HW232943   1.527   0.416   5.516  0.6806  1.0355 -0.4998
 7103SOL     OW32944   3.409   1.491   6.198 -0.0930 -0.3262 -0.0979
 7103SOL    HW132945   3.318   1.519   6.202  0.4394  1.4602 -0.3511
 7103SOL    HW232946   3.399   1.396   6.188  0.7360 -0.3262 -0.9863
 7104SOL     OW32947   0.463   2.099  15.070 -0.0709  0.2096  0.2779
 7104SOL    HW132948   0.491   2.065  14.985 -0.2729  0.9928 -0.1033
 7104SOL    HW232949   0.453   2.194  15.057  0.7875  0.6095  2.5358
 7105SOL     OW32950   2.997   1.757   2.921 -0.5126  0.1330  0.3220
 7105SOL    HW132951   3.057   1.826   2.893  0.2449 -0.9038 -0.5912
 7105SOL    HW232952   3.039   1.677   2.890 -1.3394 -0.4633  0.7470
 7106SOL     OW32953   0.336   1.774   0.460 -0.3517  0.3591  0.1389
 7106SOL    HW132954   0.247   1.787   0.494 -1.1938  1.3486 -2.4084
 7106SOL    HW232955   0.326   1.706   0.393  0.4938 -2.4842  2.9106
 7107SOL     OW32956   3.176   2.410   6.193 -0.3147  0.0447  0.3003
 7107SOL    HW132957   3.172   2.461   6.112  0.4821 -0.4036 -0.0230
 7107SOL    HW232958   3.243   2.458   6.241  1.3618 -1.0719 -0.9437
 7108SOL     OW32959   0.106   2.897   3.381  0.5142  0.4576 -0.0479
 7108SOL    HW132960   0.035   2.837   3.359 -1.2929  1.7413  2.2899
 7108SOL    HW232961   0.135   2.869   3.467 -0.6459  1.3175  0.6324
 7109SOL     OW32962   3.466   3.273   9.136 -0.0180  0.4784 -0.5023
 7109SOL    HW132963   3.503   3.339   9.195 -0.3155  0.6139 -0.4657
 7109SOL    HW232964   3.482   3.200   9.196 -2.9890 -1.0884 -1.6504
 7110SOL     OW32965   2.036   1.786   3.861  0.0380 -0.3845 -0.3081
 7110SOL    HW132966   1.974   1.726   3.819 -0.2509 -0.2740 -0.0456
 7110SOL    HW232967   2.043   1.858   3.798  0.1355  1.1115  1.4317
 7111SOL     OW32968   2.980   1.902   8.254 -0.2957  0.2637  0.1171
 7111SOL    HW132969   2.928   1.846   8.195  0.8377 -0.4057 -0.2362
 7111SOL    HW232970   3.040   1.836   8.289 -0.7467  1.2135  2.6819
 7112SOL     OW32971   1.086   2.616   3.202  0.1222 -0.3827 -0.2902
 7112SOL    HW132972   1.167   2.606   3.252 -0.1516  2.6472  0.7349
 7112SOL    HW232973   1.118   2.585   3.118  2.4298  1.3538 -0.0316
 7113SOL     OW32974   2.157   3.872  14.455 -0.2892 -0.1695  0.3921
 7113SOL    HW132975   2.110   3.813  14.515 -2.6575  0.4697 -0.8363
 7113SOL    HW232976   2.180   3.951  14.504 -2.6730 -0.4428  1.9902
 7114SOL     OW32977   2.924   1.125  14.066 -0.2582  0.0524 -0.3172
 7114SOL    HW132978   2.934   1.220  14.056  2.3794 -0.1945  0.0682
 7114SOL    HW232979   2.849   1.121  14.125 -0.2548  1.5555 -0.2160
 7115SOL     OW32980   3.149   2.220   7.247  0.4558 -0.4933  0.1498
 7115SOL    HW132981   3.223   2.188   7.197 -0.7870 -0.5669 -1.6252
 7115SOL    HW232982   3.119   2.271   7.173  1.9900  1.3732  0.8256
 7116SOL     OW32983   3.246   3.354   9.941 -1.1061 -0.7596 -0.2997
 7116SOL    HW132984   3.309   3.306   9.887 -1.9353 -2.6838  0.4827
 7116SOL    HW232985   3.161   3.325   9.908 -0.1090 -1.1198 -2.5684
 7117SOL     OW32986   1.807   1.858  12.352 -0.2507  0.0061  0.3233
 7117SOL    HW132987   1.792   1.894  12.440 -0.4102 -1.2472  0.8041
 7117SOL    HW232988   1.825   1.939  12.303  1.2041  0.3871  1.4908
 7118SOL     OW32989   1.847   0.853  10.499  0.0799  0.0867  0.4096
 7118SOL    HW132990   1.797   0.902  10.433 -2.0879 -2.4129  0.1952
 7118SOL    HW232991   1.802   0.769  10.507 -0.3416  0.0958 -1.7797
 7119SOL     OW32992   2.855   0.341  12.456  0.1949  0.0555  0.6447
 7119SOL    HW132993   2.853   0.350  12.361  0.3036  0.5289  0.6902
 7119SOL    HW232994   2.925   0.277  12.471 -1.9425 -2.5390 -0.3946
 7120SOL     OW32995   1.490   3.387   7.324  0.0793 -0.1229 -0.2757
 7120SOL    HW132996   1.419   3.412   7.265 -0.8062 -0.0514  0.8176
 7120SOL    HW232997   1.553   3.343   7.267 -1.7719 -1.7105 -1.1248
 7121SOL     OW32998   4.700   3.198   2.282  0.4852  0.2160  0.3628
 7121SOL    HW132999   4.608   3.199   2.255  0.6012  0.6142 -0.0169
 7121SOL    HW233000   4.701   3.250   2.362  0.3385  1.0761 -0.2003
 7122SOL     OW33001   3.483   2.463  13.087  0.0816  0.1567  0.0447
 7122SOL    HW133002   3.491   2.466  13.183 -2.6508 -3.9717  0.4198
 7122SOL    HW233003   3.572   2.442  13.058  0.1791  0.8325 -0.1406
 7123SOL     OW33004   4.313   4.682   4.922 -0.1062 -0.3593 -0.6331
 7123SOL    HW133005   4.390   4.659   4.973 -1.0807 -0.2896  0.8653
 7123SOL    HW233006   4.246   4.666   4.989 -0.3301 -0.4402 -0.8729
 7124SOL     OW33007   1.600   4.731   7.165 -0.3755 -0.5257  0.1647
 7124SOL    HW133008   1.672   4.703   7.221  1.1915  1.6843 -0.7696
 7124SOL    HW233009   1.561   4.645   7.147 -0.9494 -0.1324 -0.4780
 7125SOL     OW33010   2.871   3.469   7.446  0.2869  0.0095 -0.7492
 7125SOL    HW133011   2.797   3.488   7.388 -0.5700  0.7123  0.5544
 7125SOL    HW233012   2.921   3.550   7.432  2.0693 -1.2834 -1.8850
 7126SOL     OW33013   0.663   1.749   8.576 -0.3428 -0.0349 -0.4850
 7126SOL    HW133014   0.674   1.676   8.638 -0.6889 -1.1600 -1.7477
 7126SOL    HW233015   0.745   1.767   8.531 -0.5008  0.4980 -0.5612
 7127SOL     OW33016   2.232   2.085  11.626 -0.1560  0.5674 -0.4302
 7127SOL    HW133017   2.294   2.029  11.672  0.5618  0.7034 -1.2302
 7127SOL    HW233018   2.284   2.164  11.608  2.0129 -0.5036  1.2372
 7128SOL     OW33019   2.148   3.200   5.022 -0.1554  0.6139 -0.0810
 7128SOL    HW133020   2.070   3.163   5.063 -0.5202 -0.5717 -1.8309
 7128SOL    HW233021   2.157   3.275   5.080 -0.6740  1.3093 -0.8887
 7129SOL     OW33022   1.695   3.235   7.233  0.2089  0.4224 -0.1731
 7129SOL    HW133023   1.716   3.146   7.205  1.0465  0.1203  1.4082
 7129SOL    HW233024   1.758   3.286   7.182  1.0884  1.7667  2.2165
 7130SOL     OW33025   2.110   1.759   8.363 -0.3891  0.2193 -0.6264
 7130SOL    HW133026   2.193   1.738   8.319 -0.3032 -0.6340 -0.0601
 7130SOL    HW233027   2.106   1.687   8.426  0.6507  2.1264  1.6448
 7131SOL     OW33028   2.333   0.691   3.691 -0.3121 -0.1607  0.0639
 7131SOL    HW133029   2.238   0.679   3.681 -0.1751  0.7378 -2.1537
 7131SOL    HW233030   2.338   0.782   3.718  2.2657 -0.5412  0.8746
 7132SOL     OW33031   2.847   0.415   3.984 -0.3254 -0.2462 -0.2301
 7132SOL    HW133032   2.888   0.498   3.958 -1.7699  0.6237  0.2847
 7132SOL    HW233033   2.867   0.401   4.076  0.3779 -1.5374 -0.5835
 7133SOL     OW33034   0.473   2.238   2.421  0.1012  0.4924  0.5158
 7133SOL    HW133035   0.456   2.239   2.326  2.0723 -1.8275  0.1377
 7133SOL    HW233036   0.521   2.319   2.434 -0.4194  0.8856 -0.0241
 7134SOL     OW33037   2.366   2.572   7.458 -0.1091 -0.0360  0.0638
 7134SOL    HW133038   2.272   2.563   7.473 -0.3427 -1.1593 -2.1434
 7134SOL    HW233039   2.378   2.508   7.388  1.1443 -0.2432  0.4733
 7135SOL     OW33040   0.809   1.130   8.377  0.4596 -0.0542  0.1433
 7135SOL    HW133041   0.808   1.224   8.391 -0.5439 -0.0302 -0.1188
 7135SOL    HW233042   0.760   1.120   8.296 -0.8869  0.5107  0.8850
 7136SOL     OW33043   3.295   3.331  14.176 -0.1621  0.4209  0.2077
 7136SOL    HW133044   3.213   3.345  14.225  0.5157 -1.2230  1.8018
 7136SOL    HW233045   3.308   3.418  14.138 -1.2658  0.4074 -0.2236
 7137SOL     OW33046   2.553   3.077   6.104 -0.6718  0.1092 -0.2284
 7137SOL    HW133047   2.537   3.031   6.021  0.0248  1.3176 -1.0513
 7137SOL    HW233048   2.501   3.026   6.166 -0.4394  1.1723  0.8306
 7138SOL     OW33049   4.132   0.836   6.053 -0.6708  0.1576 -0.0029
 7138SOL    HW133050   4.145   0.929   6.068 -1.6484  0.5633 -1.6054
 7138SOL    HW233051   4.051   0.822   6.101  0.4995  0.2005  1.9826
 7139SOL     OW33052   4.664   3.329   6.605  0.7221  0.1096  0.2551
 7139SOL    HW133053   4.608   3.404   6.583  0.3283 -0.7313 -1.6388
 7139SOL    HW233054   4.607   3.291   6.672 -0.7057  1.4532 -0.1914
 7140SOL     OW33055   0.425   4.105   3.769  0.3605 -0.1217 -0.3227
 7140SOL    HW133056   0.362   4.111   3.697 -0.5589  0.7665  0.5453
 7140SOL    HW233057   0.468   4.021   3.750  2.2531  1.1758 -1.6896
 7141SOL     OW33058   1.308   4.724   2.716 -0.3843 -0.1010  0.5295
 7141SOL    HW133059   1.337   4.667   2.645 -1.0804  0.8239 -0.4914
 7141SOL    HW233060   1.294   0.071   2.675 -2.2568  0.3177  2.0416
 7142SOL     OW33061   2.934   3.546   9.015 -0.1518 -0.6964  0.2538
 7142SOL    HW133062   2.917   3.627   8.968  3.8812 -0.9985 -1.7259
 7142SOL    HW233063   3.023   3.558   9.048 -0.1790 -0.9584  0.4286
 7143SOL     OW33064   2.743   1.793  11.085  0.0406 -0.1998  0.8649
 7143SOL    HW133065   2.801   1.794  11.008 -0.4437  2.0249  0.5242
 7143SOL    HW233066   2.713   1.883  11.096  0.3369 -0.2135  1.7286
 7144SOL     OW33067   1.624   3.549   4.076 -0.1536 -0.0490 -0.4818
 7144SOL    HW133068   1.621   3.540   4.171 -1.8115 -2.0805 -0.7248
 7144SOL    HW233069   1.533   3.577   4.066  1.0093  2.6716 -3.5356
 7145SOL     OW33070   0.916   4.381   2.842 -0.0900 -0.2881 -0.6665
 7145SOL    HW133071   0.974   4.449   2.877  2.3241 -0.9355 -3.4492
 7145SOL    HW233072   0.851   4.401   2.910 -0.1669  0.4074 -0.9484
 7146SOL     OW33073   4.713   3.342   8.434 -0.7218  0.4740  0.2185
 7146SOL    HW133074   0.002   3.251   8.445 -1.0580  0.5327  1.5972
 7146SOL    HW233075   4.708   3.381   8.522  2.8333  1.7792 -0.1686
 7147SOL     OW33076   3.552   4.674   6.434 -0.2299  0.6137  0.2403
 7147SOL    HW133077   3.465   4.635   6.429  0.7823 -1.8312  2.0643
 7147SOL    HW233078   3.583   4.664   6.344  0.8508 -1.1203  0.8265
 7148SOL     OW33079   2.612   0.508   8.837 -0.2250 -0.1594  0.3128
 7148SOL    HW133080   2.517   0.517   8.825  0.1250  2.9872 -0.0222
 7148SOL    HW233081   2.643   0.550   8.757  1.7331 -0.7671  0.7491
 7149SOL     OW33082   4.395   3.651  13.496  0.4497 -0.1925 -0.3363
 7149SOL    HW133083   4.434   3.738  13.492  0.1733 -0.0274  0.5802
 7149SOL    HW233084   4.472   3.597  13.475  0.7491 -0.6285  1.7799
 7150SOL     OW33085   3.066   2.277  10.500 -0.9863 -1.0323  0.1956
 7150SOL    HW133086   3.116   2.306  10.576 -2.7032 -0.1940  0.9949
 7150SOL    HW233087   3.028   2.364  10.486  1.0320 -0.3537 -1.0231
 7151SOL     OW33088   3.865   2.656   0.305  0.0779 -0.5311  0.3092
 7151SOL    HW133089   3.825   2.601   0.373 -1.2313 -1.7094 -1.4192
 7151SOL    HW233090   3.789   2.661   0.248 -1.4329 -0.2276  2.3445
 7152SOL     OW33091   2.164   4.632   3.845  0.6001  0.3726 -0.2821
 7152SOL    HW133092   2.166   4.624   3.750  1.4884 -0.4550 -0.2042
 7152SOL    HW233093   2.130   4.716   3.873  0.0617 -0.5687  1.8866
 7153SOL     OW33094   0.797   4.067   2.350 -0.6232 -0.0481  0.1491
 7153SOL    HW133095   0.873   4.009   2.338  0.0040  0.6382  0.8915
 7153SOL    HW233096   0.748   4.030   2.423  0.7245 -0.3409  0.9035
 7154SOL     OW33097   3.052   2.415   7.521 -0.1644 -0.1822 -0.2820
 7154SOL    HW133098   3.043   2.424   7.615  0.6545 -0.3560 -0.1890
 7154SOL    HW233099   3.146   2.400   7.512 -0.3305 -2.8917  2.9041
 7155SOL     OW33100   3.148   1.662   4.681  0.0807  0.2829 -0.0702
 7155SOL    HW133101   3.171   1.583   4.633 -1.9405 -0.0476 -0.4913
 7155SOL    HW233102   3.225   1.710   4.649  1.3789 -1.4034  0.5061
 7156SOL     OW33103   3.801   3.298   6.841 -0.1680  0.3286  0.2991
 7156SOL    HW133104   3.738   3.335   6.780 -1.0647  1.5991  1.9970
 7156SOL    HW233105   3.756   3.284   6.924  0.5729  0.6880  0.7592
 7157SOL     OW33106   2.559   3.320   7.257 -0.2841  0.4274  0.6082
 7157SOL    HW133107   2.608   3.275   7.326  0.5714  0.5121  0.0589
 7157SOL    HW233108   2.561   3.246   7.196  0.6256  0.3450  0.7417
 7158SOL     OW33109   1.718   3.684   1.698  0.0868  0.0110  0.0249
 7158SOL    HW133110   1.801   3.638   1.712  0.2493  0.4951  0.6368
 7158SOL    HW233111   1.662   3.639   1.635 -0.8086 -0.1698  0.9551
 7159SOL     OW33112   0.252   4.202   1.210  0.3516 -0.1086 -0.4792
 7159SOL    HW133113   0.319   4.151   1.165  1.8495  2.2116 -0.8458
 7159SOL    HW233114   0.301   4.222   1.290 -0.2190  0.5024 -0.2896
 7160SOL     OW33115   2.309   0.883   6.641 -0.3631 -0.5040 -0.3214
 7160SOL    HW133116   2.345   0.911   6.725 -1.8472  1.6952 -0.4313
 7160SOL    HW233117   2.250   0.812   6.669 -0.4945 -0.9545 -1.7213
 7161SOL     OW33118   2.561   4.487  10.597  0.3136 -0.3939 -0.5564
 7161SOL    HW133119   2.558   4.428  10.672 -1.5442 -0.6889 -0.8637
 7161SOL    HW233120   2.483   4.542  10.600 -0.5494 -1.7649  2.1955
 7162SOL     OW33121   2.013   0.090   7.050 -0.3658 -0.1413  0.4104
 7162SOL    HW133122   2.105   0.114   7.046 -0.4547  0.0652 -0.3152
 7162SOL    HW233123   1.973   0.176   7.038  0.5080 -0.0428 -1.7241
 7163SOL     OW33124   0.512   0.003   3.645 -0.4653 -0.3862  0.3725
 7163SOL    HW133125   0.604   0.019   3.667 -0.6527 -0.1746  0.9914
 7163SOL    HW233126   0.491   4.669   3.705 -0.8542 -0.5412  0.0486
 7164SOL     OW33127   2.946   2.523   2.135 -0.7585 -0.2403  0.0130
 7164SOL    HW133128   2.870   2.566   2.174 -1.6620 -0.4058 -1.5397
 7164SOL    HW233129   2.895   2.447   2.106  1.2007 -1.3735 -0.4895
 7165SOL     OW33130   0.578   0.820   7.800  0.0003  0.7807  0.1617
 7165SOL    HW133131   0.590   0.911   7.827 -0.9820  0.3282  2.0914
 7165SOL    HW233132   0.525   0.780   7.869 -0.2973  1.1863  0.1631
 7166SOL     OW33133   2.505   2.204   0.897 -0.2006  0.5569  0.2912
 7166SOL    HW133134   2.464   2.118   0.906 -0.8251  0.8212 -0.0722
 7166SOL    HW233135   2.468   2.252   0.970 -2.1549 -0.8894  0.2436
 7167SOL     OW33136   2.802   0.035   1.193  0.2800 -0.3400  0.0624
 7167SOL    HW133137   2.752   0.113   1.219 -0.9808 -1.1217 -0.0354
 7167SOL    HW233138   2.803   0.059   1.100  0.0817 -1.1423 -0.1429
 7168SOL     OW33139   1.630   2.177   3.833  0.1042  0.1711  0.1101
 7168SOL    HW133140   1.651   2.166   3.741 -1.6474 -0.4584 -0.2064
 7168SOL    HW233141   1.545   2.219   3.822  0.5858  0.3330 -2.7790
 7169SOL     OW33142   2.264   3.020  12.224 -0.0928  0.3625 -0.0898
 7169SOL    HW133143   2.356   3.033  12.198 -0.2361  2.3065  0.4519
 7169SOL    HW233144   2.216   3.094  12.187 -0.9088 -0.7616 -1.2695
 7170SOL     OW33145   1.870   0.359   1.655 -0.1774 -0.1281 -0.0166
 7170SOL    HW133146   1.873   0.326   1.745  1.3379  0.5164  0.1684
 7170SOL    HW233147   1.826   0.286   1.612 -0.6398 -1.3934  2.6037
 7171SOL     OW33148   4.176   2.236  13.844  0.0314 -0.4104  0.1677
 7171SOL    HW133149   4.211   2.192  13.922  0.4885 -0.7788 -0.2415
 7171SOL    HW233150   4.195   2.164  13.783 -1.8926 -1.4365  0.7705
 7172SOL     OW33151   2.720   1.490   4.143  0.5353 -0.3383 -0.0679
 7172SOL    HW133152   2.704   1.582   4.126 -5.6608 -1.0654  1.6982
 7172SOL    HW233153   2.788   1.478   4.076  1.6336  0.3114  0.9272
 7173SOL     OW33154   1.268   0.342   5.170 -0.3203 -0.0761  0.1816
 7173SOL    HW133155   1.313   0.323   5.087  2.1931  0.5356  1.3878
 7173SOL    HW233156   1.189   0.374   5.128 -0.7636 -1.4748 -0.0681
 7174SOL     OW33157   1.986   4.588  14.759  0.5448  0.0535 -0.3377
 7174SOL    HW133158   1.903   4.586  14.713 -0.0918  1.8212  0.7517
 7174SOL    HW233159   2.025   4.663  14.714  0.7537  1.4255  2.1426
 7175SOL     OW33160   4.329   1.454   7.833 -0.3656  0.3248 -0.3325
 7175SOL    HW133161   4.299   1.475   7.921  1.6648 -1.1151  0.7028
 7175SOL    HW233162   4.397   1.519   7.815  1.8022 -1.8242  0.0925
 7176SOL     OW33163   0.906   0.758   4.736 -0.7592  0.4205 -0.6521
 7176SOL    HW133164   0.967   0.824   4.771 -0.7343  1.0036 -1.7697
 7176SOL    HW233165   0.972   0.692   4.717 -0.7521  0.1996  0.1531
 7177SOL     OW33166   1.915   4.302  10.430  0.6859  0.4625  0.0464
 7177SOL    HW133167   1.882   4.334  10.514 -3.4220 -0.2627 -1.2613
 7177SOL    HW233168   1.839   4.255  10.394  0.7599  0.3957 -0.0223
 7178SOL     OW33169   2.430   1.700   0.081 -0.2911 -0.2215 -0.1701
 7178SOL    HW133170   2.519   1.679   0.053  0.1509  1.7645 -0.2772
 7178SOL    HW233171   2.382   1.692  17.749 -0.0954 -3.4817  0.0469
 7179SOL     OW33172   1.578   1.637   9.547 -0.2536 -0.5022 -0.1334
 7179SOL    HW133173   1.528   1.686   9.481  0.6590  0.3787 -0.1774
 7179SOL    HW233174   1.514   1.574   9.580 -0.6804 -0.4451 -0.8539
 7180SOL     OW33175   1.744   3.392   6.728 -0.4877  0.5046  0.7348
 7180SOL    HW133176   1.721   3.334   6.655 -1.6326  0.2783  1.2652
 7180SOL    HW233177   1.656   3.403   6.763 -1.2960 -1.9599 -0.5184
 7181SOL     OW33178   2.428   1.988   1.048 -0.4896  0.2162  0.4226
 7181SOL    HW133179   2.483   1.974   1.125  0.2643 -1.4360 -0.4026
 7181SOL    HW233180   2.383   1.904   1.049 -1.3795  0.7100  1.3258
 7182SOL     OW33181   3.186   0.239   5.931  0.2529 -0.0033 -0.2987
 7182SOL    HW133182   3.148   0.321   5.901 -0.2481  0.4312  1.5557
 7182SOL    HW233183   3.277   0.262   5.914  0.2248  0.4284  0.1502
 7183SOL     OW33184   1.831   0.809   6.212  0.2339 -0.0230  0.0564
 7183SOL    HW133185   1.840   0.766   6.297  0.0951  0.8804  0.5359
 7183SOL    HW233186   1.745   0.851   6.214  0.0334 -0.3482 -1.7298
 7184SOL     OW33187   0.325   2.246  16.037 -0.2001  0.5265  0.4404
 7184SOL    HW133188   0.402   2.287  15.998  0.0686  0.9655  1.4293
 7184SOL    HW233189   0.260   2.285  15.978 -0.9783 -0.5971  0.5504
 7185SOL     OW33190   1.847   0.105   3.218  0.0571 -0.6464 -0.1740
 7185SOL    HW133191   1.889   0.020   3.229 -2.3509 -1.9707 -1.2549
 7185SOL    HW233192   1.878   0.129   3.130 -0.6906  0.5715 -0.1047
 7186SOL     OW33193   0.569   0.807  15.773 -0.9114 -0.4474  0.1157
 7186SOL    HW133194   0.576   0.751  15.851 -2.8253 -0.4553  0.2918
 7186SOL    HW233195   0.537   0.738  15.714  0.5543 -0.1341 -1.0299
 7187SOL     OW33196   1.533   1.378  14.612 -0.2120  0.5492  0.4903
 7187SOL    HW133197   1.482   1.336  14.681  1.2394 -0.5358  0.8868
 7187SOL    HW233198   1.523   1.470  14.637  0.6034  0.7462  0.0860
 7188SOL     OW33199   0.912   0.104   6.881  0.1755  0.2062 -0.2026
 7188SOL    HW133200   0.901   0.066   6.794  1.6631  2.0789 -1.2078
 7188SOL    HW233201   0.969   0.179   6.862 -0.1864  0.3578 -0.6730
 7189SOL     OW33202   3.762   3.846  17.514 -0.1003  0.1719 -0.4120
 7189SOL    HW133203   3.790   3.777  17.574 -0.5681 -2.0786 -2.7987
 7189SOL    HW233204   3.674   3.817  17.494 -0.4265  1.6792 -1.1561
 7190SOL     OW33205   1.850   3.113   7.446  0.2252  0.2723 -0.4649
 7190SOL    HW133206   1.932   3.156   7.422  1.5009 -0.7502  2.0979
 7190SOL    HW233207   1.787   3.174   7.408  2.5208  2.0535 -1.4346
 7191SOL     OW33208   2.596   2.667   2.137 -0.3305 -0.3784 -0.8560
 7191SOL    HW133209   2.532   2.733   2.163 -1.2115 -1.3777 -0.4921
 7191SOL    HW233210   2.674   2.693   2.186  0.1834 -1.3095 -1.1667
 7192SOL     OW33211   4.243   4.210  15.933  1.0066 -0.1203 -0.6446
 7192SOL    HW133212   4.237   4.301  15.960  2.4846  0.3919 -2.0255
 7192SOL    HW233213   4.268   4.165  16.014 -1.3994  0.6334  0.5230
 7193SOL     OW33214   0.766   0.218   7.105 -0.1936 -0.5413  0.0368
 7193SOL    HW133215   0.840   0.175   7.062  0.8378  1.7270 -0.4967
 7193SOL    HW233216   0.811   0.264   7.176  1.1766  1.7493 -2.3184
 7194SOL     OW33217   4.248   4.144  10.606  0.2204  0.4962 -0.0581
 7194SOL    HW133218   4.299   4.143  10.525 -1.4640 -0.5101 -1.0930
 7194SOL    HW233219   4.200   4.061  10.602  2.0143 -0.5048 -1.0301
 7195SOL     OW33220   2.032   3.860   4.525  0.5176 -0.1048  0.2771
 7195SOL    HW133221   2.056   3.951   4.539  0.0293 -0.0745  0.9351
 7195SOL    HW233222   2.080   3.817   4.454  0.0760  0.6483 -0.4741
 7196SOL     OW33223   0.352   3.500   3.811 -0.1377 -0.8995  0.0692
 7196SOL    HW133224   0.313   3.577   3.770 -1.2074 -1.2694  0.3858
 7196SOL    HW233225   0.409   3.476   3.737  0.7080  0.2852  0.3408
 7197SOL     OW33226   3.104   0.278   8.419 -0.1461 -0.0699 -0.1230
 7197SOL    HW133227   3.045   0.307   8.349 -1.8749 -2.4619  0.3244
 7197SOL    HW233228   3.124   0.364   8.455 -0.5545  0.5254 -1.3035
 7198SOL     OW33229   0.999   2.820   4.580 -0.0093  0.0089 -0.0158
 7198SOL    HW133230   1.013   2.915   4.574  0.0651  0.0089  0.1406
 7198SOL    HW233231   1.088   2.786   4.571 -0.4264 -0.8528 -0.8767
 7199SOL     OW33232   2.180   4.583  17.671  0.4138  0.2839  0.0511
 7199SOL    HW133233   2.256   4.640  17.687  0.8433 -0.6446  1.3121
 7199SOL    HW233234   2.207   4.502  17.716 -1.6173 -1.7680 -2.4153
 7200SOL     OW33235   0.332   1.995  13.757 -0.0449  0.1412 -0.4769
 7200SOL    HW133236   0.416   1.952  13.773 -0.6618  0.1007  2.6956
 7200SOL    HW233237   0.357   2.085  13.739 -0.5412  0.3456 -0.1367
 7201SOL     OW33238   4.109   2.042   5.297 -0.2646 -0.1749  0.3216
 7201SOL    HW133239   4.024   2.085   5.291  0.5252  0.9968 -2.3104
 7201SOL    HW233240   4.125   2.057   5.391  1.5910 -1.1170  0.1535
 7202SOL     OW33241   2.054   2.879  13.305  0.0146 -1.0005  0.2044
 7202SOL    HW133242   2.017   2.917  13.225 -1.0715 -2.4254  0.0204
 7202SOL    HW233243   2.144   2.856  13.284 -0.3298 -1.9465 -0.2252
 7203SOL     OW33244   3.987   2.727   0.534 -0.6540  0.5372  0.5092
 7203SOL    HW133245   3.944   2.708   0.450 -0.6978 -2.6506  1.2357
 7203SOL    HW233246   4.039   2.801   0.503  0.8594 -0.7169  0.0467
 7204SOL     OW33247   0.805   4.120   1.627 -1.0864 -0.6635 -0.7073
 7204SOL    HW133248   0.756   4.151   1.551  1.6932  2.5281 -1.1762
 7204SOL    HW233249   0.801   4.026   1.609 -0.6166 -0.8611  0.1959
 7205SOL     OW33250   2.768   4.629   4.367 -0.6582  0.5192 -0.3251
 7205SOL    HW133251   2.811   4.654   4.449  2.8770 -2.4059 -1.2850
 7205SOL    HW233252   2.738   4.543   4.398 -2.1243  0.5259 -1.7090
 7206SOL     OW33253   2.372   4.125   2.231 -0.1847 -0.1494 -0.0768
 7206SOL    HW133254   2.315   4.061   2.275 -0.9020 -1.8771 -3.4844
 7206SOL    HW233255   2.454   4.090   2.267  0.9128  1.4812 -1.0061
 7207SOL     OW33256   3.987   2.582   1.635 -0.6366 -0.3978 -0.1702
 7207SOL    HW133257   3.934   2.654   1.600  0.1342  0.3519  0.1805
 7207SOL    HW233258   4.000   2.525   1.559 -0.6673 -0.9952  0.2740
 7208SOL     OW33259   0.532   3.095  13.056  0.5151 -0.7264  0.2402
 7208SOL    HW133260   0.520   3.162  13.122  2.1834 -1.8407  1.6711
 7208SOL    HW233261   0.473   3.130  12.989  2.6019  1.8678 -0.2196
 7209SOL     OW33262   0.709   4.652   1.886  0.3093  0.3689  0.6151
 7209SOL    HW133263   0.773   4.710   1.844 -0.9140  1.1406 -0.1842
 7209SOL    HW233264   0.739   4.580   1.831 -2.5320  0.0832 -0.5294
 7210SOL     OW33265   2.372   0.937   3.770 -0.5546 -0.7523  0.1178
 7210SOL    HW133266   2.328   1.001   3.826 -1.1887 -0.9148 -0.1953
 7210SOL    HW233267   2.453   0.921   3.820 -0.4480  0.1922  0.2495
 7211SOL     OW33268   0.984   4.351  14.279  0.1127  0.0650 -0.0138
 7211SOL    HW133269   0.917   4.293  14.316 -0.3749  0.0442 -0.9265
 7211SOL    HW233270   0.943   4.355  14.192 -1.7057 -0.2922  0.8221
 7212SOL     OW33271   4.715   3.935  13.931 -0.7421 -0.3233 -0.4050
 7212SOL    HW133272   4.659   3.922  13.855 -0.6684  1.2467 -0.7417
 7212SOL    HW233273   4.695   4.028  13.945  1.6509  0.2974 -1.0562
 7213SOL     OW33274   3.496   1.552  16.127  0.0800  0.2721  0.4302
 7213SOL    HW133275   3.422   1.598  16.087 -0.1164  0.8082  1.4056
 7213SOL    HW233276   3.561   1.586  16.066  0.5168  0.5369  1.0407
 7214SOL     OW33277   2.736   1.449  11.832  0.4789  0.1619 -0.3716
 7214SOL    HW133278   2.691   1.448  11.747  0.4414  2.0928 -0.3674
 7214SOL    HW233279   2.745   1.544  11.842 -0.7652  0.6009 -3.2377
 7215SOL     OW33280   4.703   1.636   4.329 -0.0389  0.1960  0.8762
 7215SOL    HW133281   0.044   1.623   4.382  0.0690  0.6643  0.8357
 7215SOL    HW233282   4.709   1.578   4.253  0.3581 -0.2542  1.2529
 7216SOL     OW33283   3.503   1.462   4.435 -0.7563  0.1856 -0.5808
 7216SOL    HW133284   3.471   1.378   4.401  1.8228 -0.5229 -1.2147
 7216SOL    HW233285   3.479   1.517   4.360 -0.0788 -0.7232 -1.4639
 7217SOL     OW33286   3.847   2.021   5.973 -0.4701 -0.6472  0.4258
 7217SOL    HW133287   3.758   2.015   6.009  0.5366 -2.0370  2.6789
 7217SOL    HW233288   3.895   2.024   6.056 -1.5340 -0.1648  1.0304
 7218SOL     OW33289   1.982   4.512   5.203  0.7275 -0.0363  0.5308
 7218SOL    HW133290   1.934   4.507   5.120 -0.9029  3.6804  1.2445
 7218SOL    HW233291   1.911   4.519   5.267 -0.8441  0.1972 -1.2292
 7219SOL     OW33292   2.320   0.218   4.583  0.0218 -0.2813 -0.2093
 7219SOL    HW133293   2.343   0.135   4.543  1.1191  0.6397 -1.5075
 7219SOL    HW233294   2.407   0.258   4.578  0.0143 -0.1175  0.9883
 7220SOL     OW33295   0.614   3.663   5.543  0.4336  0.0088  0.1407
 7220SOL    HW133296   0.664   3.653   5.624 -0.7080 -0.4351  0.7982
 7220SOL    HW233297   0.657   3.740   5.507 -1.5628  1.1828  0.2915
 7221SOL     OW33298   2.754   1.172   1.705  0.0866 -0.5207 -0.2819
 7221SOL    HW133299   2.773   1.223   1.626 -3.2259  1.5244  0.2201
 7221SOL    HW233300   2.748   1.237   1.775 -0.4601  0.8592 -1.6062
 7222SOL     OW33301   1.605   0.524   1.166 -0.5408 -0.0160 -0.0886
 7222SOL    HW133302   1.544   0.588   1.202 -0.4897 -0.9553  1.6525
 7222SOL    HW233303   1.559   0.445   1.191  1.1925 -1.0936 -0.2870
 7223SOL     OW33304   0.749   2.630   2.403 -0.4413  0.1758  0.0440
 7223SOL    HW133305   0.727   2.549   2.357  1.8999 -0.2679 -0.2863
 7223SOL    HW233306   0.842   2.609   2.410 -0.4214 -0.2090 -1.4359
 7224SOL     OW33307   3.042   3.134   6.685  1.1422  1.0313  0.0490
 7224SOL    HW133308   3.037   3.091   6.770 -2.1921  1.1366 -0.0835
 7224SOL    HW233309   3.137   3.128   6.674  1.0052 -0.4139 -0.2569
 7225SOL     OW33310   1.266   4.321  11.626 -0.4685 -0.3519  0.6318
 7225SOL    HW133311   1.266   4.330  11.531 -1.9315  2.5052  0.9100
 7225SOL    HW233312   1.358   4.296  11.632  0.1882  1.8550 -0.1317
 7226SOL     OW33313   3.122   3.933  14.402 -0.5261 -0.0857  0.1191
 7226SOL    HW133314   3.212   3.935  14.372 -1.0310  1.3380 -1.3064
 7226SOL    HW233315   3.082   3.996  14.342 -1.7813 -0.1616  0.8727
 7227SOL     OW33316   4.558   2.433   5.833  0.1489  0.4863 -0.3550
 7227SOL    HW133317   4.493   2.365   5.815  0.1912  0.6864 -1.2230
 7227SOL    HW233318   4.616   2.386   5.893 -2.3246  0.4403  2.0094
 7228SOL     OW33319   2.598   2.682   6.548  0.4007 -0.6329 -0.4043
 7228SOL    HW133320   2.677   2.653   6.594  0.8419 -1.8813 -1.9510
 7228SOL    HW233321   2.608   2.634   6.466  3.0773 -0.8829  0.0559
 7229SOL     OW33322   2.122   0.915   8.943 -0.3954 -0.6068  0.4793
 7229SOL    HW133323   2.076   0.990   8.907  0.3078 -1.5682 -2.4734
 7229SOL    HW233324   2.214   0.931   8.922 -0.2816  0.7493  2.0901
 7230SOL     OW33325   0.129   1.700  11.978 -0.2615  0.3555 -0.0238
 7230SOL    HW133326   0.182   1.621  11.972 -1.5330 -0.4870 -0.1173
 7230SOL    HW233327   0.089   1.707  11.891 -3.5111 -1.3033  1.3225
 7231SOL     OW33328   0.536   0.284   8.914  0.1926  0.0318 -0.2883
 7231SOL    HW133329   0.495   0.218   8.857  1.6446 -1.1557  0.0292
 7231SOL    HW233330   0.626   0.256   8.898  0.4611  0.0979  1.1254
 7232SOL     OW33331   1.277   3.809  16.659  0.0798 -0.1157 -0.3112
 7232SOL    HW133332   1.367   3.786  16.679  0.7274  2.7189 -0.0872
 7232SOL    HW233333   1.279   3.896  16.619  0.1060  0.7588  1.6203
 7233SOL     OW33334   4.380   0.114   1.849  0.1347  0.0414 -0.3560
 7233SOL    HW133335   4.369   0.031   1.895  0.0520 -0.6044 -1.5315
 7233SOL    HW233336   4.456   0.097   1.793 -0.0623  0.5774 -0.7887
 7234SOL     OW33337   2.669   1.537   3.794  0.1901  0.3194  0.0520
 7234SOL    HW133338   2.616   1.464   3.828  0.9118 -1.1414 -1.9393
 7234SOL    HW233339   2.739   1.540   3.859  0.8307 -0.4624 -0.6022
 7235SOL     OW33340   0.734   4.705   8.954  0.3978  0.2215  0.3144
 7235SOL    HW133341   0.778   4.671   9.032 -2.0913 -1.1124  1.1256
 7235SOL    HW233342   0.689   4.626   8.923  3.1737 -0.8494 -0.9759
 7236SOL     OW33343   1.189   3.762   6.008  0.0011  0.1439  0.2459
 7236SOL    HW133344   1.193   3.817   5.929 -4.1289 -0.3600 -0.3315
 7236SOL    HW233345   1.146   3.826   6.065 -0.7167  0.4084 -0.5904
 7237SOL     OW33346   3.807   2.709   6.015  0.0888  0.0521 -0.2218
 7237SOL    HW133347   3.843   2.696   5.927 -1.3707 -1.4566 -0.5921
 7237SOL    HW233348   3.796   2.618   6.045 -0.4236  0.2656  0.2469
 7238SOL     OW33349   1.181   2.521   0.412  0.3815 -0.2741  0.0562
 7238SOL    HW133350   1.117   2.497   0.479 -0.9746 -0.1276 -1.1991
 7238SOL    HW233351   1.236   2.442   0.410  1.6926  0.6580 -0.7558
 7239SOL     OW33352   3.062   2.737   1.928 -0.1935  0.0566 -0.4588
 7239SOL    HW133353   3.089   2.780   2.010 -0.5280  2.5352 -1.6382
 7239SOL    HW233354   3.030   2.655   1.964  1.1534  0.2892  1.2792
 7240SOL     OW33355   0.062   0.108   9.646  0.3874 -0.3947 -0.5355
 7240SOL    HW133356   0.046   0.157   9.726 -1.3499  0.2990 -1.3036
 7240SOL    HW233357   0.097   0.026   9.681 -1.8481 -0.8614  0.6101
 7241SOL     OW33358   4.680   3.108  11.736 -0.0561 -0.3903 -0.6976
 7241SOL    HW133359   4.595   3.137  11.771  0.3606  0.9635 -0.8047
 7241SOL    HW233360   4.688   3.171  11.664 -2.1049 -0.5981 -1.1007
 7242SOL     OW33361   3.897   3.153   4.768  0.0247  0.5483  0.2646
 7242SOL    HW133362   3.984   3.114   4.755 -0.9035 -1.7937  1.1160
 7242SOL    HW233363   3.912   3.233   4.719  0.5442 -0.8665 -1.9067
 7243SOL     OW33364   2.143   3.133  11.562  0.6558  0.3595  0.1482
 7243SOL    HW133365   2.212   3.087  11.609 -1.3870 -2.2391  0.5944
 7243SOL    HW233366   2.176   3.222  11.559 -0.6487  0.8893  1.1297
 7244SOL     OW33367   3.752   2.390  13.079  0.7272 -0.0247  0.3208
 7244SOL    HW133368   3.810   2.439  13.137  0.4291  2.6387 -1.6049
 7244SOL    HW233369   3.809   2.330  13.030  2.6636  1.4775  0.7465
 7245SOL     OW33370   1.611   0.483  17.108  0.1544  0.5356 -0.1310
 7245SOL    HW133371   1.656   0.400  17.121 -0.4489 -0.1215 -2.1835
 7245SOL    HW233372   1.522   0.474  17.140  0.4402  1.2659  0.8923
 7246SOL     OW33373   1.999   3.053  13.537  0.5473 -0.0579 -0.2089
 7246SOL    HW133374   2.019   2.969  13.495  0.4880  0.2395 -0.8228
 7246SOL    HW233375   1.953   3.098  13.467 -0.4338  3.0975  2.4791
 7247SOL     OW33376   0.602   1.755   5.311  0.0046  0.0214 -0.1871
 7247SOL    HW133377   0.645   1.734   5.227 -0.4658  0.3713 -0.5142
 7247SOL    HW233378   0.516   1.791   5.289 -0.1854  0.7900  1.8882
 7248SOL     OW33379   2.009   1.561   3.008  0.6154 -0.7473  0.2133
 7248SOL    HW133380   2.062   1.575   3.087 -1.1547 -0.7258  1.4176
 7248SOL    HW233381   1.930   1.527   3.050  1.6051 -2.5858  0.5923
 7249SOL     OW33382   4.581   3.958   5.130 -0.0844  0.1630 -0.0914
 7249SOL    HW133383   4.611   3.867   5.126 -0.4619  0.0961 -1.2221
 7249SOL    HW233384   4.637   3.995   5.063 -0.3193  0.0333 -0.3584
 7250SOL     OW33385   1.999   3.177   5.633  0.3166  0.3299 -0.5774
 7250SOL    HW133386   2.021   3.263   5.671  1.7503  0.5108 -1.8095
 7250SOL    HW233387   2.020   3.194   5.541  3.5947  1.8796  0.4451
 7251SOL     OW33388   0.222   4.443   3.042 -0.1239  0.2260 -0.0481
 7251SOL    HW133389   0.179   4.387   3.107  3.2269 -2.4829 -0.1491
 7251SOL    HW233390   0.290   4.488   3.092  1.0597 -1.0727 -0.4777
 7252SOL     OW33391   2.480   1.345   2.774  0.2253  0.4161 -0.1437
 7252SOL    HW133392   2.432   1.265   2.751 -0.5779  0.1736  2.3601
 7252SOL    HW233393   2.412   1.390   2.823 -0.7718 -1.6703  0.4226
 7253SOL     OW33394   3.441   0.629   5.802 -0.0822  0.3531  0.3240
 7253SOL    HW133395   3.499   0.641   5.726 -0.3634  3.9080  0.6876
 7253SOL    HW233396   3.470   0.548   5.843  0.2065  0.8839  1.1570
 7254SOL     OW33397   3.272   2.873   1.318  0.3535 -0.5631 -0.4768
 7254SOL    HW133398   3.280   2.857   1.224 -2.1276 -0.7802 -0.6626
 7254SOL    HW233399   3.289   2.784   1.349 -0.9028 -0.4251  0.6268
 7255SOL     OW33400   4.472   2.271   6.998  0.0436 -0.1943  0.0827
 7255SOL    HW133401   4.383   2.298   7.020  0.1159  1.2366 -1.3407
 7255SOL    HW233402   4.454   2.178   6.986  1.9906 -0.7947  1.9108
 7256SOL     OW33403   2.327   3.717   1.261 -0.0470 -0.3139 -0.3422
 7256SOL    HW133404   2.339   3.791   1.202  1.2951  0.2357  0.6272
 7256SOL    HW233405   2.357   3.636   1.221 -1.0608 -1.1231  0.5233
 7257SOL     OW33406   0.118   3.914   1.481  0.1556  0.2820 -0.1282
 7257SOL    HW133407   0.145   3.965   1.558 -1.5225 -2.8723  2.5818
 7257SOL    HW233408   0.209   3.901   1.452  0.0811 -1.3833  0.3511
 7258SOL     OW33409   2.737   1.379  12.479 -0.6457  0.6730  0.4895
 7258SOL    HW133410   2.660   1.436  12.477 -0.1241  1.3219 -1.4031
 7258SOL    HW233411   2.745   1.376  12.383 -0.7670  0.5773  0.4820
 7259SOL     OW33412   2.080   1.994  13.027  0.3645  0.3019 -0.4693
 7259SOL    HW133413   2.057   1.995  13.120  0.8874  1.2095 -0.3367
 7259SOL    HW233414   2.028   1.917  13.007  1.3872 -0.5244  0.0686
 7260SOL     OW33415   3.211   4.729  13.310 -0.1476 -0.1875 -0.5186
 7260SOL    HW133416   3.236   4.642  13.343  0.5713  0.7414  1.3480
 7260SOL    HW233417   3.173   0.027  13.390  0.6544 -2.3865  0.8636
 7261SOL     OW33418   3.656   2.574   3.979  0.2939 -0.1831  0.6658
 7261SOL    HW133419   3.643   2.480   3.992 -0.6730  0.1262  1.9704
 7261SOL    HW233420   3.656   2.572   3.883  0.7710  0.1236  0.6574
 7262SOL     OW33421   2.594   0.363  15.020  0.6012  0.1682  0.4520
 7262SOL    HW133422   2.661   0.383  14.956 -0.4008  2.1142  0.0172
 7262SOL    HW233423   2.572   0.276  14.986 -0.5263 -0.2917  2.3183
 7263SOL     OW33424   3.305   2.657   3.005 -0.2837 -0.2177  0.2142
 7263SOL    HW133425   3.284   2.725   2.942  0.7005 -0.3546 -0.2622
 7263SOL    HW233426   3.221   2.661   3.050  0.5653  0.4918  1.7353
 7264SOL     OW33427   4.618   4.590   6.017 -0.2893  0.4510 -0.0134
 7264SOL    HW133428   4.643   4.510   6.063  0.7885  0.2335 -0.9722
 7264SOL    HW233429   4.702   4.598   5.971  0.5745 -2.1656  1.1036
 7265SOL     OW33430   4.512   0.608   0.238  0.2529  0.1837  1.0166
 7265SOL    HW133431   4.470   0.546   0.178 -0.1941  0.6575  0.8479
 7265SOL    HW233432   4.457   0.686   0.247  0.3998  0.2222  1.6433
 7266SOL     OW33433   0.601   0.496   2.523  0.0808 -0.4627 -0.0659
 7266SOL    HW133434   0.626   0.586   2.504  1.0399 -0.5654  0.7342
 7266SOL    HW233435   0.686   0.458   2.547 -0.3553 -0.4712  1.4579
 7267SOL     OW33436   0.458   2.202   4.402  0.3175  0.4364 -0.2791
 7267SOL    HW133437   0.543   2.164   4.383 -0.9367 -2.1464 -0.7527
 7267SOL    HW233438   0.415   2.118   4.413  0.4667  0.7559  2.5271
 7268SOL     OW33439   4.639   0.163   8.780  0.1168  0.1968 -0.0393
 7268SOL    HW133440   4.584   0.153   8.858  1.3190 -2.3882  0.4666
 7268SOL    HW233441   4.681   0.243   8.810  3.0323 -1.2306 -0.3290
 7269SOL     OW33442   2.417   0.415  17.486 -0.1753 -0.0714  0.0854
 7269SOL    HW133443   2.354   0.385  17.551 -0.7090 -1.0944 -0.9018
 7269SOL    HW233444   2.461   0.486  17.534 -1.6754 -0.0449  1.3965
 7270SOL     OW33445   1.304   0.388   6.148 -0.9113 -0.5294 -0.2268
 7270SOL    HW133446   1.371   0.401   6.215 -0.7416 -2.9799  0.0969
 7270SOL    HW233447   1.225   0.389   6.201  1.1561  1.8898  2.8161
 7271SOL     OW33448   3.488   0.070   8.439  0.2966  0.6559  0.0182
 7271SOL    HW133449   3.563   0.117   8.476  0.1698  0.9513 -0.1017
 7271SOL    HW233450   3.468   0.123   8.361  0.7998  0.3782 -0.2969
 7272SOL     OW33451   2.946   2.674   3.719 -0.0552  0.2264  0.1340
 7272SOL    HW133452   2.975   2.585   3.697  0.4850  0.5694 -0.5321
 7272SOL    HW233453   2.981   2.684   3.807  2.9516  3.8655 -1.4789
 7273SOL     OW33454   4.147   2.019  15.761 -0.1221  0.2984 -0.3766
 7273SOL    HW133455   4.090   2.067  15.701 -0.2822 -1.3411 -1.5216
 7273SOL    HW233456   4.215   1.996  15.698  1.3754 -0.5387  1.5583
 7274SOL     OW33457   3.757   2.313   7.970 -0.2755 -0.7186  0.1890
 7274SOL    HW133458   3.747   2.407   7.954  0.0287 -0.7208 -0.0049
 7274SOL    HW233459   3.762   2.279   7.880 -0.5357  1.0997 -0.5151
 7275SOL     OW33460   4.153   0.072   7.428  0.0139  0.1317  0.4378
 7275SOL    HW133461   4.245   0.046   7.426 -0.8812 -2.9864  0.0164
 7275SOL    HW233462   4.137   0.103   7.339 -0.2502 -1.4754 -0.0763
 7276SOL     OW33463   0.169   2.224   3.449 -0.0939 -0.4097 -0.4938
 7276SOL    HW133464   0.249   2.272   3.471  0.3262 -1.3888  0.0737
 7276SOL    HW233465   0.121   2.222   3.532  2.6876  0.6398  1.1360
 7277SOL     OW33466   3.764   3.170  15.288  0.0158  0.4715 -0.1496
 7277SOL    HW133467   3.774   3.076  15.271 -0.5636  0.3075  0.3739
 7277SOL    HW233468   3.803   3.173  15.375 -1.8867  0.4193  0.7166
 7278SOL     OW33469   1.445   3.956  10.324 -0.4757 -0.2742 -0.2359
 7278SOL    HW133470   1.409   3.890  10.383 -0.6183 -0.9022 -1.0299
 7278SOL    HW233471   1.420   3.918  10.240 -1.5012  1.2694 -0.6407
 7279SOL     OW33472   1.762   1.845  14.862  0.3146  0.3595  0.3170
 7279SOL    HW133473   1.726   1.832  14.774 -0.1454 -0.6482  0.6544
 7279SOL    HW233474   1.685   1.866  14.915  0.3356 -1.0640  0.9141
 7280SOL     OW33475   0.395   4.194   4.238  0.4486  0.3285  0.1584
 7280SOL    HW133476   0.475   4.243   4.259  0.6413  0.2040 -0.2832
 7280SOL    HW233477   0.396   4.112   4.288 -1.7585 -0.0235 -0.3738
 7281SOL     OW33478   0.970   3.984   7.701  0.3812 -0.3518  0.0853
 7281SOL    HW133479   0.995   4.008   7.791  0.8570 -3.1970  0.7222
 7281SOL    HW233480   0.945   4.070   7.668 -2.0742 -1.1702 -0.1572
 7282SOL     OW33481   0.076   2.655  13.138  0.4627  0.0951  0.2874
 7282SOL    HW133482   0.147   2.647  13.202 -0.2045  0.0437  1.0386
 7282SOL    HW233483   0.005   2.686  13.195  2.5124  0.7030  2.5124
 7283SOL     OW33484   3.878   4.000  16.190  0.4002  0.2733 -0.2178
 7283SOL    HW133485   3.900   4.057  16.264 -1.8465 -0.0252  0.6887
 7283SOL    HW233486   3.819   4.058  16.142  1.1964  0.0982 -1.4079
 7284SOL     OW33487   1.215   1.897   2.405 -0.0210 -0.2097  0.5369
 7284SOL    HW133488   1.162   1.864   2.332 -0.0080 -2.2249  1.4652
 7284SOL    HW233489   1.305   1.880   2.379 -0.9767 -1.4619 -2.0225
 7285SOL     OW33490   2.460   3.315  11.604  0.1683 -0.2795  0.1659
 7285SOL    HW133491   2.379   3.353  11.570  0.3744 -0.2729 -0.3230
 7285SOL    HW233492   2.423   3.273  11.681 -0.1360  0.6936  0.5487
 7286SOL     OW33493   3.102   4.008  17.338  0.2787  0.4224  0.2809
 7286SOL    HW133494   3.134   3.975  17.422  1.5004  0.0136 -0.3387
 7286SOL    HW233495   3.144   3.957  17.268 -1.9952  0.4248 -1.0822
 7287SOL     OW33496   1.547   1.265  14.934 -0.4773  0.3901  0.7921
 7287SOL    HW133497   1.458   1.256  14.898 -0.0236 -1.5511  0.1928
 7287SOL    HW233498   1.574   1.174  14.937  3.4649  1.5340 -1.4093
 7288SOL     OW33499   2.141   0.266   5.100 -0.6253  0.2534 -0.2261
 7288SOL    HW133500   2.131   0.219   5.182  1.3754 -3.6721 -2.2323
 7288SOL    HW233501   2.059   0.315   5.095 -0.0921  1.2254  0.4600
 7289SOL     OW33502   2.905   0.390   1.585 -0.6182 -0.4919 -0.4209
 7289SOL    HW133503   2.883   0.346   1.503  0.9760 -3.5994  0.8289
 7289SOL    HW233504   2.999   0.372   1.587 -0.2536  1.6634  1.7269
 7290SOL     OW33505   3.073   1.830   6.066  0.0204  0.8497  0.0301
 7290SOL    HW133506   3.000   1.772   6.087  1.4369 -1.8960 -2.6991
 7290SOL    HW233507   3.039   1.880   5.991 -1.2032 -0.0254 -0.0034
 7291SOL     OW33508   1.095   2.380  14.522  0.3405  0.5624  0.0493
 7291SOL    HW133509   1.167   2.352  14.578 -1.2200 -0.6752  1.4374
 7291SOL    HW233510   1.021   2.361  14.579 -0.3808 -0.0284 -1.0769
 7292SOL     OW33511   2.887   0.378  11.419  0.4387 -0.3055 -0.0500
 7292SOL    HW133512   2.823   0.374  11.348 -1.0826  4.7723  1.0453
 7292SOL    HW233513   2.886   0.286  11.445  0.6419 -0.5177 -0.7999
 7293SOL     OW33514   1.669   2.563   2.491 -0.7535  0.2043  0.3631
 7293SOL    HW133515   1.651   2.528   2.404 -1.1387  1.3508 -0.0229
 7293SOL    HW233516   1.593   2.619   2.505 -2.5279 -1.6598 -1.8884
 7294SOL     OW33517   4.716   0.342  13.763  0.1236 -0.7419 -0.1418
 7294SOL    HW133518   4.674   0.272  13.714  0.7490  0.8543 -2.9874
 7294SOL    HW233519   4.650   0.363  13.829 -1.7558 -1.4254 -1.8261
 7295SOL     OW33520   4.642   1.298   8.406  0.0098 -0.3632  0.5255
 7295SOL    HW133521   4.549   1.295   8.384 -0.0156  1.6425  0.3796
 7295SOL    HW233522   4.673   1.209   8.386 -0.8138 -1.0744  2.3920
 7296SOL     OW33523   0.771   3.456   1.080 -0.0058 -0.1614 -0.0344
 7296SOL    HW133524   0.695   3.478   1.027 -0.1637 -0.5536  0.0358
 7296SOL    HW233525   0.753   3.365   1.102 -1.8965  0.0509 -0.7508
 7297SOL     OW33526   2.252   1.113   8.277 -0.5505  0.2672 -0.7199
 7297SOL    HW133527   2.187   1.057   8.234  0.9408 -0.4230 -2.0600
 7297SOL    HW233528   2.220   1.200   8.253  1.6640  1.8347  2.0692
 7298SOL     OW33529   2.621   1.004   0.399 -0.6697 -0.2059 -0.5322
 7298SOL    HW133530   2.690   0.980   0.461 -1.9409 -1.9630  0.1928
 7298SOL    HW233531   2.669   1.060   0.338  0.4792 -0.6808 -0.0670
 7299SOL     OW33532   3.389   0.713   4.841  0.0407 -0.5428 -0.5689
 7299SOL    HW133533   3.334   0.790   4.827  0.6977  0.5048  2.7058
 7299SOL    HW233534   3.331   0.653   4.888 -3.2717  3.2184  0.0828
 7300SOL     OW33535   1.573   2.916  14.505  0.2625  0.1163  0.2926
 7300SOL    HW133536   1.487   2.874  14.508 -0.7802  2.1797 -0.8946
 7300SOL    HW233537   1.623   2.865  14.570 -2.1755 -1.2774  1.0643
 7301SOL     OW33538   1.572   1.002  16.160  0.2982 -0.0930  0.1843
 7301SOL    HW133539   1.580   0.938  16.230 -4.0211 -0.2397  0.5791
 7301SOL    HW233540   1.512   1.070  16.191  0.0624 -0.6956  1.0647
 7302SOL     OW33541   1.656   1.484   2.892  0.4433 -0.4780 -0.1003
 7302SOL    HW133542   1.717   1.472   2.820 -2.8278 -0.2123 -2.8980
 7302SOL    HW233543   1.709   1.506   2.968  0.6972  0.7494 -0.6397
 7303SOL     OW33544   3.823   0.152   9.236  0.2380 -0.1459  0.3414
 7303SOL    HW133545   3.790   0.178   9.150  1.1461  0.5594  0.2108
 7303SOL    HW233546   3.759   0.084   9.257  0.5260 -0.0408  1.5440
 7304SOL     OW33547   0.693   2.275   6.462 -0.0842  0.0819 -0.5171
 7304SOL    HW133548   0.749   2.340   6.504 -0.9702  0.1139  0.6070
 7304SOL    HW233549   0.702   2.199   6.520  0.1669 -0.5871 -1.4381
 7305SOL     OW33550   3.661   0.560  10.900  0.1095 -0.3561  0.1470
 7305SOL    HW133551   3.662   0.649  10.938 -1.9034 -0.9405  1.5827
 7305SOL    HW233552   3.748   0.551  10.862  0.9485  1.3974  1.6278
 7306SOL     OW33553   1.740   1.279   9.425 -0.5155 -0.5653 -0.4739
 7306SOL    HW133554   1.734   1.219   9.499 -0.3248  0.1189  0.0986
 7306SOL    HW233555   1.787   1.224   9.362  1.2359  0.2427  0.1549
 7307SOL     OW33556   2.567   2.812   7.029  0.1899 -0.1840  0.0721
 7307SOL    HW133557   2.623   2.829   6.953  0.4166  1.0552  0.5142
 7307SOL    HW233558   2.481   2.801   6.990  0.3919  1.2509 -0.7775
 7308SOL     OW33559   2.534   4.510   7.609 -0.3034  0.2659 -0.0030
 7308SOL    HW133560   2.578   4.481   7.529 -1.4480 -0.9551 -0.1932
 7308SOL    HW233561   2.461   4.561   7.573  1.1851  2.0289 -0.5281
 7309SOL     OW33562   1.809   4.623  12.111 -0.0484 -0.4035 -0.7258
 7309SOL    HW133563   1.866   4.630  12.034  0.1199  0.4426 -0.5282
 7309SOL    HW233564   1.741   4.689  12.096 -0.1609 -0.6469 -1.2954
 7310SOL     OW33565   3.760   3.280   1.325  0.5443 -0.2616  0.0579
 7310SOL    HW133566   3.724   3.235   1.249  0.4990 -0.7440  0.3671
 7310SOL    HW233567   3.833   3.223   1.350  0.5548 -0.1477  0.2875
 7311SOL     OW33568   3.647   2.439   1.144  0.7752  0.2704 -0.0059
 7311SOL    HW133569   3.616   2.526   1.120  0.1310  0.4900  1.6087
 7311SOL    HW233570   3.569   2.385   1.132  0.8618 -0.2054  1.5200
 7312SOL     OW33571   4.605   1.116   3.175 -0.0312  0.7018 -0.4318
 7312SOL    HW133572   4.518   1.153   3.161  0.0928  0.5054 -1.7883
 7312SOL    HW233573   4.659   1.191   3.150  0.3504  0.9443  1.1139
 7313SOL     OW33574   4.321   1.220   0.118  0.3422 -0.0863 -0.8290
 7313SOL    HW133575   4.377   1.297   0.111  2.4472 -1.3789  1.5392
 7313SOL    HW233576   4.244   1.245   0.068 -1.1472  0.5252  1.7900
 7314SOL     OW33577   1.470   3.915   4.626 -0.4980  0.1575 -0.6540
 7314SOL    HW133578   1.449   3.861   4.702 -0.8330  0.7213 -0.3405
 7314SOL    HW233579   1.379   3.933   4.599 -0.2176  0.6868 -1.2495
 7315SOL     OW33580   0.160   0.256  13.566  0.3033 -0.3031  0.3944
 7315SOL    HW133581   0.114   0.206  13.498  1.1415 -0.0936 -0.3214
 7315SOL    HW233582   0.085   0.294  13.612 -1.5070 -2.9740 -0.3552
 7316SOL     OW33583   1.707   2.751  16.555 -0.1972  0.3430  0.1634
 7316SOL    HW133584   1.800   2.732  16.547 -0.0701  1.4575 -1.0320
 7316SOL    HW233585   1.706   2.793  16.469 -1.4136 -1.0279 -0.4848
 7317SOL     OW33586   2.183   4.153   1.287 -0.3008 -0.5231 -0.0855
 7317SOL    HW133587   2.152   4.243   1.294 -1.8264 -1.0582 -0.0092
 7317SOL    HW233588   2.262   4.167   1.234 -0.4548  0.8685  0.0639
 7318SOL     OW33589   4.653   4.667   9.434  0.1714 -0.0363  0.5112
 7318SOL    HW133590   4.596   4.591   9.438 -0.2989  0.2803 -0.0642
 7318SOL    HW233591   4.732   4.617   9.413  0.0375 -0.5413  1.2145
 7319SOL     OW33592   0.878   0.308   4.334  0.0933  0.1599 -0.0162
 7319SOL    HW133593   0.912   0.319   4.245  3.4413 -0.0264  1.2317
 7319SOL    HW233594   0.826   0.387   4.349 -0.2658 -0.4599  2.0289
 7320SOL     OW33595   0.727   3.906   7.405  0.7914 -0.7697 -0.0552
 7320SOL    HW133596   0.778   3.834   7.442  0.5585 -0.4815  0.8146
 7320SOL    HW233597   0.713   3.882   7.313  4.2266 -2.3609 -0.1757
 7321SOL     OW33598   0.708   3.004  11.415 -0.0194 -0.1179  0.1586
 7321SOL    HW133599   0.796   3.012  11.453  0.7462  0.2075 -1.6851
 7321SOL    HW233600   0.685   2.931  11.473  1.2216 -1.1196 -0.6163
 7322SOL     OW33601   2.666   0.822   0.144 -0.3583  0.5772 -0.0756
 7322SOL    HW133602   2.606   0.769   0.197  0.4425  0.3229  0.5632
 7322SOL    HW233603   2.629   0.821   0.056 -2.5899 -1.5135  0.8627
 7323SOL     OW33604   2.159   3.482  15.509 -0.1337  0.0391  0.5475
 7323SOL    HW133605   2.244   3.488  15.554 -0.6598 -0.8656  1.6849
 7323SOL    HW233606   2.115   3.434  15.579 -1.3764  0.4032  0.0095
 7324SOL     OW33607   4.066   2.372  11.635  0.8275  0.6899 -0.4019
 7324SOL    HW133608   4.012   2.350  11.560  0.6298 -0.3597  0.0495
 7324SOL    HW233609   4.026   2.323  11.707  1.6624 -1.2464 -1.2429
 7325SOL     OW33610   3.130   1.851   7.198  0.6395 -0.5414 -0.2305
 7325SOL    HW133611   3.204   1.798   7.229 -0.5858 -1.6522  0.8286
 7325SOL    HW233612   3.115   1.793   7.123 -3.1239 -0.2051  0.2664
 7326SOL     OW33613   0.172   2.298   7.404 -0.5358  0.3037 -0.4128
 7326SOL    HW133614   0.202   2.339   7.485  0.1996  0.3538 -0.7096
 7326SOL    HW233615   0.197   2.368   7.343 -1.1013 -0.4978 -1.5533
 7327SOL     OW33616   1.618   0.416  12.886  0.0096  0.0907  0.7715
 7327SOL    HW133617   1.713   0.421  12.879  0.0593 -0.6992  0.8911
 7327SOL    HW233618   1.605   0.509  12.908  2.0630  0.0035  2.3469
 7328SOL     OW33619   0.794   3.253   7.462  0.3433  0.9604  0.5337
 7328SOL    HW133620   0.860   3.214   7.404 -0.1131 -0.5060  0.9961
 7328SOL    HW233621   0.847   3.326   7.495  0.2133  1.9219 -1.3799
 7329SOL     OW33622   4.717   0.992   9.352 -0.2914  0.0564 -0.2198
 7329SOL    HW133623   4.655   0.957   9.288 -1.2071  1.2359  0.0291
 7329SOL    HW233624   4.735   1.081   9.324 -0.0684  0.5697  1.5189
 7330SOL     OW33625   4.476   3.176   1.055  0.1976 -0.2575 -0.5863
 7330SOL    HW133626   4.532   3.155   0.980 -0.2069  0.5202 -1.1054
 7330SOL    HW233627   4.544   3.180   1.122  0.8906  2.3608 -1.4407
 7331SOL     OW33628   4.217   2.188   7.071  0.0974  0.1357  0.0163
 7331SOL    HW133629   4.162   2.264   7.053  0.4338  0.0007 -1.6279
 7331SOL    HW233630   4.223   2.189   7.166 -1.1372 -2.9535  0.1243
 7332SOL     OW33631   2.490   2.660   6.261  0.4623  0.1247  0.5146
 7332SOL    HW133632   2.505   2.569   6.288 -0.3210  0.2649  1.4361
 7332SOL    HW233633   2.576   2.682   6.226  0.6141  0.0214  0.8281
 7333SOL     OW33634   2.520   4.157   4.278  0.3929 -0.0445 -0.0274
 7333SOL    HW133635   2.527   4.096   4.204  0.7567 -1.7776  1.4430
 7333SOL    HW233636   2.553   4.236   4.235 -0.0214  0.7107  1.0435
 7334SOL     OW33637   1.865   3.234   6.321 -0.0281  0.0718  0.4140
 7334SOL    HW133638   1.797   3.227   6.388  0.5666  0.5717  1.0734
 7334SOL    HW233639   1.918   3.302   6.362 -0.3027  0.0679  0.7755
 7335SOL     OW33640   4.647   3.612   8.510 -0.1459  0.0674 -0.5047
 7335SOL    HW133641   4.661   3.563   8.429 -0.9382  0.7209 -1.0394
 7335SOL    HW233642   4.624   3.695   8.467 -0.3682  0.2728  0.0172
 7336SOL     OW33643   4.474   0.374  12.459 -0.1747 -0.1600 -0.1497
 7336SOL    HW133644   4.517   0.459  12.453  1.3905 -1.0057 -0.7998
 7336SOL    HW233645   4.391   0.403  12.421  0.6962  2.0998 -0.3419
 7337SOL     OW33646   2.396   2.973   4.230 -0.3313 -0.3552 -0.0557
 7337SOL    HW133647   2.416   2.945   4.319 -1.2230  0.7113  0.4751
 7337SOL    HW233648   2.361   3.059   4.251  0.1620 -0.4199  1.0388
 7338SOL     OW33649   3.260   4.365   2.160  0.4385  0.4897 -0.0512
 7338SOL    HW133650   3.293   4.279   2.186 -1.3678 -0.3256 -0.4252
 7338SOL    HW233651   3.295   4.376   2.072  0.1891  1.0051 -0.0855
 7339SOL     OW33652   1.725   1.539   4.740 -0.5148  0.0199  0.1665
 7339SOL    HW133653   1.791   1.551   4.672 -1.4644 -1.2598 -0.9855
 7339SOL    HW233654   1.653   1.545   4.676  1.5348  2.3433 -1.9088
 7340SOL     OW33655   2.576   1.881   9.061  0.0505 -0.1113  0.0647
 7340SOL    HW133656   2.500   1.917   9.014 -0.0603 -1.2482 -0.6104
 7340SOL    HW233657   2.642   1.915   9.001 -0.9441  1.7391  0.0096
 7341SOL     OW33658   1.635   4.015   9.610  0.0273 -0.0524 -0.3335
 7341SOL    HW133659   1.634   4.107   9.637 -1.2753  0.5417 -2.4378
 7341SOL    HW233660   1.695   4.022   9.536  0.5465 -1.6150 -0.0741
 7342SOL     OW33661   1.655   3.624  15.224 -0.3567 -0.2555 -0.1998
 7342SOL    HW133662   1.569   3.606  15.261 -0.3604  1.9787  0.8227
 7342SOL    HW233663   1.629   3.706  15.181  1.0102  1.0364  1.4426
 7343SOL     OW33664   2.348   1.862   3.084  0.0701  0.6274  0.5191
 7343SOL    HW133665   2.271   1.911   3.113  1.3151  2.8224  0.1022
 7343SOL    HW233666   2.351   1.799   3.156 -0.9887 -1.9478 -1.6914
 7344SOL     OW33667   3.314   3.845  13.116  0.2084 -0.3636 -0.0989
 7344SOL    HW133668   3.378   3.915  13.132 -0.0988 -0.1034  0.0008
 7344SOL    HW233669   3.262   3.861  13.195 -1.5628  0.2304 -1.3757
 7345SOL     OW33670   4.687   2.897   4.220 -0.0198 -0.1125  0.0868
 7345SOL    HW133671   0.018   2.859   4.274  0.4959  1.2653  0.3874
 7345SOL    HW233672   4.733   2.977   4.195 -1.7250  0.5424 -1.0340
 7346SOL     OW33673   3.164   3.814   3.444  0.0863  0.2466 -0.7752
 7346SOL    HW133674   3.231   3.841   3.506  0.6188  0.7653 -1.5826
 7346SOL    HW233675   3.196   3.729   3.415  0.1781  0.7046 -2.0134
 7347SOL     OW33676   2.878   0.020   7.173 -0.1690 -0.1413 -0.6741
 7347SOL    HW133677   2.965   0.011   7.133 -0.0961  2.4975 -1.0961
 7347SOL    HW233678   2.820   4.708   7.114  0.3449 -2.1905  0.5462
 7348SOL     OW33679   3.515   0.426   8.923  0.1442  0.2534  0.2578
 7348SOL    HW133680   3.516   0.343   8.876  1.1965  0.0538  0.6226
 7348SOL    HW233681   3.431   0.454   8.887  0.5189 -0.6838 -1.3297
 7349SOL     OW33682   0.007   2.680  11.190  0.3246 -0.1053 -0.0356
 7349SOL    HW133683   4.709   2.605  11.236  0.6017  0.4939  1.1528
 7349SOL    HW233684   0.098   2.651  11.190  0.0126 -1.0525  0.5849
 7350SOL     OW33685   0.323   0.472  13.476 -0.9991  0.1377 -0.1666
 7350SOL    HW133686   0.284   0.386  13.495 -0.9456  0.0681 -0.3791
 7350SOL    HW233687   0.321   0.512  13.563  2.3767 -0.2861  0.1256
 7351SOL     OW33688   2.791   4.660   7.416  0.2804  0.0199 -0.4101
 7351SOL    HW133689   2.729   4.722   7.455 -2.0880 -2.5805 -0.1004
 7351SOL    HW233690   2.821   4.705   7.338  1.4698 -1.5902 -0.8840
 7352SOL     OW33691   3.111   3.982  11.730  0.3960 -0.7872  0.1199
 7352SOL    HW133692   3.075   3.901  11.764 -1.1908 -1.6763 -3.6266
 7352SOL    HW233693   3.188   3.988  11.786  0.1068 -0.5783  0.4898
 7353SOL     OW33694   2.252   4.259   1.563 -0.4879  0.9148 -0.5900
 7353SOL    HW133695   2.257   4.183   1.506  1.3230 -0.3638  1.2663
 7353SOL    HW233696   2.165   4.294   1.542 -1.5392 -0.7348  0.9519
 7354SOL     OW33697   2.618   1.803   2.181 -0.3249 -0.2733  1.2424
 7354SOL    HW133698   2.663   1.835   2.259  0.7198  1.9792 -0.2857
 7354SOL    HW233699   2.613   1.709   2.194 -2.5027 -0.5995 -1.9936
 7355SOL     OW33700   4.680   4.412  10.281 -0.4143 -0.3895 -0.7585
 7355SOL    HW133701   4.670   4.396  10.188 -1.5982 -2.1029 -0.3331
 7355SOL    HW233702   4.588   4.408  10.305  0.4413 -1.6281  2.3519
 7356SOL     OW33703   4.118   4.001   1.315  0.0318 -0.2345 -0.1940
 7356SOL    HW133704   4.156   4.005   1.402 -0.7390  0.3861  0.1216
 7356SOL    HW233705   4.095   4.094   1.310 -0.2361 -0.3631 -1.4140
 7357SOL     OW33706   3.089   1.941  13.534 -0.4370  0.3400  0.0752
 7357SOL    HW133707   3.086   2.033  13.510 -1.7532  0.8576  2.2822
 7357SOL    HW233708   2.996   1.920  13.530 -0.7761  1.9427 -0.3246
 7358SOL     OW33709   3.122   2.492   8.036 -0.6522  0.0435 -0.4256
 7358SOL    HW133710   3.141   2.438   8.113 -0.1568 -0.6703 -1.0557
 7358SOL    HW233711   3.077   2.568   8.075  1.7101  0.1560  2.0960
 7359SOL     OW33712   3.914   0.196   5.630 -0.1669 -0.3524  0.6609
 7359SOL    HW133713   3.865   0.118   5.655  0.2063 -0.0316  2.4223
 7359SOL    HW233714   4.000   0.155   5.618 -1.0548 -2.9695  3.0530
 7360SOL     OW33715   4.459   2.579   7.301 -0.2685  0.2394 -0.2682
 7360SOL    HW133716   4.456   2.589   7.397 -2.1360 -2.7986 -0.0280
 7360SOL    HW233717   4.377   2.536   7.279 -0.3624  1.0790 -1.5361
 7361SOL     OW33718   2.329   1.484   7.702  0.2306  0.2509 -0.0095
 7361SOL    HW133719   2.382   1.557   7.668 -0.1555 -0.2789 -1.7542
 7361SOL    HW233720   2.256   1.524   7.750  0.2913 -0.9270  1.0470
 7362SOL     OW33721   0.124   2.407   1.808 -0.0733  0.3070 -0.1451
 7362SOL    HW133722   0.197   2.454   1.769  1.5088 -2.0097  0.0194
 7362SOL    HW233723   0.155   2.317   1.820  0.9359  0.9300  1.8947
 7363SOL     OW33724   4.515   4.316  17.028  0.1231  0.4848  0.0549
 7363SOL    HW133725   4.463   4.287  17.103 -0.8076 -0.6632 -1.0273
 7363SOL    HW233726   4.599   4.339  17.069  0.6970 -1.1960 -0.2011
 7364SOL     OW33727   1.210   1.521   1.229  0.4267 -0.2440  0.7391
 7364SOL    HW133728   1.158   1.478   1.161 -1.0969 -1.3688  2.6053
 7364SOL    HW233729   1.149   1.562   1.290  0.3738 -1.1924  1.3313
 7365SOL     OW33730   1.848   3.664  16.287 -0.1181 -0.2162  0.3720
 7365SOL    HW133731   1.785   3.714  16.235 -0.9673  1.9046  3.4670
 7365SOL    HW233732   1.855   3.730  16.357 -0.7907  1.5498 -1.2262
 7366SOL     OW33733   3.903   0.085  17.617 -0.3404  0.5853  0.2109
 7366SOL    HW133734   3.897   0.024  17.543 -1.1650  1.1275 -0.1789
 7366SOL    HW233735   3.960   0.034  17.673 -1.7776 -0.2321  0.9236
 7367SOL     OW33736   0.546   4.165   5.258 -0.1335  0.5481 -0.1198
 7367SOL    HW133737   0.477   4.112   5.298  0.6246 -0.6547 -0.4210
 7367SOL    HW233738   0.500   4.240   5.221 -0.8911 -0.5578 -1.3993
 7368SOL     OW33739   1.877   2.617   2.066 -0.6448  0.5610  0.0662
 7368SOL    HW133740   1.873   2.710   2.090  0.8084  0.7372 -0.3937
 7368SOL    HW233741   1.839   2.620   1.978  0.1721  2.1191 -0.2418
 7369SOL     OW33742   2.197   1.556   9.271  0.0334 -0.5632 -0.4829
 7369SOL    HW133743   2.231   1.562   9.182  0.5971  1.1814 -0.1390
 7369SOL    HW233744   2.263   1.502   9.315 -0.0357  0.4861  0.9355
 7370SOL     OW33745   0.772   3.372   2.665 -0.5854 -0.2168 -0.2452
 7370SOL    HW133746   0.811   3.289   2.639 -0.1196  0.4005 -1.5247
 7370SOL    HW233747   0.736   3.346   2.749 -1.6032  1.8328 -0.0390
 7371SOL     OW33748   1.132   4.265   3.645 -0.4712  0.0935 -0.0638
 7371SOL    HW133749   1.050   4.234   3.683 -0.3391 -1.2227 -0.8652
 7371SOL    HW233750   1.096   4.282   3.558  2.5150  0.0974 -1.3140
 7372SOL     OW33751   2.695   0.700   2.502 -0.0225  0.1104  0.5309
 7372SOL    HW133752   2.778   0.729   2.540  0.5226 -1.3117  0.4438
 7372SOL    HW233753   2.729   0.657   2.424  0.5433  1.1210  0.2188
 7373SOL     OW33754   2.009   1.429  13.169 -0.1856 -0.5579  0.3106
 7373SOL    HW133755   2.092   1.390  13.142 -0.1741 -2.0944  2.5550
 7373SOL    HW233756   2.009   1.418  13.264 -1.0856  0.4132  0.4238
 7374SOL     OW33757   2.559   3.058   4.986  0.4600 -0.4098  0.1075
 7374SOL    HW133758   2.508   3.054   5.067  1.1974 -0.2965  0.5719
 7374SOL    HW233759   2.555   3.153   4.974  1.6868 -0.6136 -1.8807
 7375SOL     OW33760   3.109   0.828   6.431 -0.2791 -0.2841  0.2142
 7375SOL    HW133761   3.021   0.806   6.402 -0.1958 -0.3851  0.0310
 7375SOL    HW233762   3.103   0.879   6.511  2.9985  0.1914  0.1810
 7376SOL     OW33763   1.878   3.573   8.559  0.1545  0.4235  0.0701
 7376SOL    HW133764   1.821   3.572   8.482  1.6997  2.7426 -1.1120
 7376SOL    HW233765   1.841   3.502   8.611 -2.2400  1.4017 -0.2932
 7377SOL     OW33766   2.743   0.110   6.215  0.3958 -0.2777 -0.3605
 7377SOL    HW133767   2.769   0.092   6.124  0.2044 -1.3259 -0.2128
 7377SOL    HW233768   2.768   0.201   6.227  0.8108 -0.2716 -1.2236
 7378SOL     OW33769   1.351   1.517   0.092  0.6912 -0.2864  0.2912
 7378SOL    HW133770   1.387   1.437   0.053  2.2626  0.7740 -0.4137
 7378SOL    HW233771   1.272   1.527   0.038 -0.7802  2.0577  2.8822
 7379SOL     OW33772   1.987   3.659   9.019  0.0071 -0.2283  0.2110
 7379SOL    HW133773   2.040   3.634   8.943  2.1045 -0.6056  1.8028
 7379SOL    HW233774   1.908   3.608   9.002  0.6625 -0.6928 -1.4938
 7380SOL     OW33775   1.419   1.012   7.736 -0.0052  0.6765  0.0077
 7380SOL    HW133776   1.504   0.970   7.748  0.3002  1.6442  1.2391
 7380SOL    HW233777   1.432   1.067   7.659 -3.7661  0.0139 -1.1084
 7381SOL     OW33778   4.536   3.968  16.107  0.4857  0.4121  0.6058
 7381SOL    HW133779   4.579   4.042  16.150  0.0707  1.3948 -0.6495
 7381SOL    HW233780   4.456   4.012  16.080  0.5901  0.6124  0.6251
 7382SOL     OW33781   1.078   1.462  17.747  0.4913 -0.1255  0.0894
 7382SOL    HW133782   1.070   1.374  17.711 -3.7635  0.7828 -1.0907
 7382SOL    HW233783   0.996   1.506  17.727  0.5140  0.0966  0.4729
 7383SOL     OW33784   0.970   2.714   2.023  0.3286  0.5307 -0.4803
 7383SOL    HW133785   1.035   2.758   1.967 -0.0407  1.2243 -0.3591
 7383SOL    HW233786   0.913   2.782   2.058 -0.1233  0.2384 -0.6463
 7384SOL     OW33787   1.392   3.982   3.550  0.3224  0.6658 -0.0738
 7384SOL    HW133788   1.411   3.894   3.581  1.1420  1.9968  3.2034
 7384SOL    HW233789   1.405   4.021   3.637 -0.5808 -1.4813  1.0148
 7385SOL     OW33790   2.243   3.288  12.136  0.1751 -0.2889 -0.4947
 7385SOL    HW133791   2.305   3.327  12.198  2.1643 -1.0572 -2.0103
 7385SOL    HW233792   2.173   3.352  12.147  1.0434 -0.1493  4.2323
 7386SOL     OW33793   3.312   3.784   2.095 -0.5793  0.2144 -0.2562
 7386SOL    HW133794   3.328   3.786   2.190 -0.0560  0.5487 -0.3510
 7386SOL    HW233795   3.226   3.741   2.093  0.1487 -1.1883 -1.3757
 7387SOL     OW33796   3.108   4.323   6.497  0.6392  0.1937  0.4857
 7387SOL    HW133797   3.141   4.263   6.431  1.1070  0.5454  0.4016
 7387SOL    HW233798   3.118   4.272   6.577 -0.2951 -0.7815 -0.0224
 7388SOL     OW33799   2.742   2.326   6.136 -0.1705 -0.2455 -0.3759
 7388SOL    HW133800   2.792   2.406   6.117 -0.6155 -0.2505 -1.6147
 7388SOL    HW233801   2.807   2.260   6.158  1.0968  1.4414  0.9651
 7389SOL     OW33802   1.859   3.865  12.087 -0.2174  0.2605  0.6683
 7389SOL    HW133803   1.827   3.816  12.011  0.8703 -0.4033  0.6246
 7389SOL    HW233804   1.952   3.848  12.067 -0.0641  0.8347  0.9033
 7390SOL     OW33805   1.083   4.622   2.920  0.7132  0.0342  0.0992
 7390SOL    HW133806   1.107   4.706   2.881 -1.3696  0.8565  0.5968
 7390SOL    HW233807   1.160   4.598   2.972  0.8214  1.0214  0.3999
 7391SOL     OW33808   3.893   3.853   7.605  0.0282  0.3248  0.2122
 7391SOL    HW133809   3.906   3.837   7.698  0.6439  0.5676  0.1645
 7391SOL    HW233810   3.936   3.774   7.572  0.2157  0.1492  0.8774
 7392SOL     OW33811   0.328   1.781   3.049  0.0086  0.0504 -0.3423
 7392SOL    HW133812   0.245   1.798   3.093 -1.0054 -1.0987 -1.8052
 7392SOL    HW233813   0.329   1.855   2.989  0.8796  0.9335  0.7745
 7393SOL     OW33814   1.391   2.707  16.427 -0.3540  0.1279 -0.1349
 7393SOL    HW133815   1.463   2.651  16.458  0.0868  1.3381  1.0392
 7393SOL    HW233816   1.437   2.788  16.406  0.9904 -1.0541 -1.7147
 7394SOL     OW33817   0.330   3.571   3.103  0.0572 -0.0769  0.3968
 7394SOL    HW133818   0.244   3.536   3.083 -0.1405 -0.9121  2.7470
 7394SOL    HW233819   0.338   3.641   3.037 -1.6859 -0.2053  0.0645
 7395SOL     OW33820   1.491   2.745  16.728 -0.1111  0.5447 -0.5258
 7395SOL    HW133821   1.473   2.831  16.766  0.2062  1.0413 -1.5215
 7395SOL    HW233822   1.580   2.754  16.694 -0.5531 -0.1596 -1.8547
 7396SOL     OW33823   2.105   1.024  17.259 -0.3865  0.4485  0.1679
 7396SOL    HW133824   2.101   0.929  17.271  0.9038  0.3711 -0.0373
 7396SOL    HW233825   2.110   1.030  17.164 -1.2186 -1.9799 -0.0308
 7397SOL     OW33826   4.225   0.658   8.553 -0.1767 -0.4833  0.4729
 7397SOL    HW133827   4.159   0.714   8.513 -2.8907 -2.9337  1.5032
 7397SOL    HW233828   4.192   0.649   8.643 -4.1758  1.8147 -0.7613
 7398SOL     OW33829   3.459   3.544   7.023 -0.4976 -0.4650  0.0256
 7398SOL    HW133830   3.545   3.586   7.017 -0.9736  0.4922 -0.0118
 7398SOL    HW233831   3.475   3.449   7.018  1.3467 -0.1597  0.2116
 7399SOL     OW33832   4.354   3.190   9.545 -0.2624 -0.5990  0.1194
 7399SOL    HW133833   4.415   3.240   9.599 -1.7644  1.7862 -0.4197
 7399SOL    HW233834   4.363   3.243   9.466 -1.2154  0.2196  0.5522
 7400SOL     OW33835   4.359   3.832  12.128 -0.2720 -0.9354 -0.5753
 7400SOL    HW133836   4.380   3.915  12.171  1.8312 -1.3218 -0.8117
 7400SOL    HW233837   4.264   3.831  12.124 -0.3183 -0.9753  0.6947
 7401SOL     OW33838   0.053   4.724   7.067 -0.1943  0.7663  0.5459
 7401SOL    HW133839   0.059   4.629   7.057  1.0934  0.7958  1.0642
 7401SOL    HW233840   4.722   4.736   7.001  0.1187 -1.2312 -0.1488
 7402SOL     OW33841   3.847   0.057  11.541 -0.0503 -0.1997  0.4924
 7402SOL    HW133842   3.774   0.051  11.603 -1.3512 -1.2880 -1.1468
 7402SOL    HW233843   3.919   0.059  11.604  0.6049  0.8634 -0.2796
 7403SOL     OW33844   4.534   0.983   0.298  0.3397 -0.1448 -0.3574
 7403SOL    HW133845   4.539   0.914   0.363 -1.9296 -0.0631 -0.0849
 7403SOL    HW233846   4.472   1.042   0.341 -0.7422 -0.7974 -1.0124
 7404SOL     OW33847   0.860   2.737   7.197 -0.2722  0.1923  0.1843
 7404SOL    HW133848   0.864   2.727   7.101  0.1441  2.9986 -0.0991
 7404SOL    HW233849   0.770   2.765   7.216 -1.9716 -2.5899 -3.8162
 7405SOL     OW33850   0.053   1.048   2.099  0.8418  0.1358  0.4674
 7405SOL    HW133851   0.040   0.953   2.100 -0.1703  0.2681 -1.6857
 7405SOL    HW233852   0.141   1.056   2.136  2.0545 -1.3737 -2.0942
 7406SOL     OW33853   4.051   3.080   7.653 -0.7328 -0.2419  0.2954
 7406SOL    HW133854   4.121   3.086   7.717 -0.9604  4.1254  0.1275
 7406SOL    HW233855   4.053   3.169   7.618 -1.9714  0.3891  1.8450
 7407SOL     OW33856   4.026   1.632   5.163 -0.5877  0.5411 -0.4858
 7407SOL    HW133857   3.930   1.642   5.167 -0.8568 -0.9205 -3.2849
 7407SOL    HW233858   4.065   1.712   5.197  1.8881 -0.0996 -1.8444
 7408SOL     OW33859   1.524   4.362  13.801  0.1014  0.4663  0.1165
 7408SOL    HW133860   1.551   4.327  13.885 -0.5011 -1.1656 -0.3572
 7408SOL    HW233861   1.535   4.455  13.821 -0.7660  0.1342  2.1120
 7409SOL     OW33862   1.050   1.605   2.285  0.1616 -0.1903 -0.3581
 7409SOL    HW133863   1.027   1.637   2.373 -1.8512  0.3523 -1.0701
 7409SOL    HW233864   0.976   1.635   2.232  1.6302  1.0649 -1.6841
 7410SOL     OW33865   2.658   3.701   6.835  0.2349  0.0506  0.0415
 7410SOL    HW133866   2.589   3.639   6.809 -1.3002  0.9671  1.9340
 7410SOL    HW233867   2.630   3.736   6.920 -0.4303 -1.8710  0.6137
 7411SOL     OW33868   0.338   1.291   1.045  0.4074 -1.3268 -0.4179
 7411SOL    HW133869   0.285   1.275   0.967 -0.7960  1.1630 -0.1122
 7411SOL    HW233870   0.299   1.371   1.081  2.3463 -0.7240  0.3819
 7412SOL     OW33871   4.492   4.062   4.046 -0.0278 -0.5392  0.7352
 7412SOL    HW133872   4.570   4.111   4.073  0.7826 -1.8946  0.8068
 7412SOL    HW233873   4.484   4.083   3.953 -1.4325 -0.7447  0.8099
 7413SOL     OW33874   3.814   4.374  10.627 -0.4262  0.4605  0.3036
 7413SOL    HW133875   3.838   4.428  10.552  0.9305 -1.8222 -0.9008
 7413SOL    HW233876   3.838   4.419  10.708  3.1331  0.4513 -0.7729
 7414SOL     OW33877   2.228   3.784  10.715  0.3706 -0.2174 -0.1644
 7414SOL    HW133878   2.213   3.788  10.810 -0.1186  2.7700 -0.3740
 7414SOL    HW233879   2.291   3.853  10.697  2.4135 -1.8905  0.5084
 7415SOL     OW33880   3.046   4.369   0.833  0.4247 -0.3178 -0.1534
 7415SOL    HW133881   3.069   4.309   0.904 -2.7038 -0.7128  0.4909
 7415SOL    HW233882   3.131   4.382   0.790  0.2293  1.8790  0.1160
 7416SOL     OW33883   3.360   1.963   6.996 -0.6427 -0.6679  0.8470
 7416SOL    HW133884   3.394   1.996   7.080  0.3836  0.8474 -0.1619
 7416SOL    HW233885   3.267   1.979   7.008 -0.5603 -0.2782  0.9853
 7417SOL     OW33886   3.713   2.747   4.548  0.8127  0.1801  0.8827
 7417SOL    HW133887   3.721   2.839   4.521 -0.1021  0.0094  0.0288
 7417SOL    HW233888   3.681   2.759   4.638 -2.7925 -1.5034 -0.1646
 7418SOL     OW33889   2.849   0.819   1.280 -0.1296 -0.6279  0.4023
 7418SOL    HW133890   2.943   0.806   1.269  0.1926 -0.5048  3.0291
 7418SOL    HW233891   2.827   0.803   1.371  1.3007  1.9654  1.1879
 7419SOL     OW33892   2.769   0.169  10.314 -0.1801 -0.2251 -0.0368
 7419SOL    HW133893   2.862   0.173  10.337 -0.0964  0.1879 -0.4412
 7419SOL    HW233894   2.757   0.074  10.319  0.7560 -0.3008  0.7534
 7420SOL     OW33895   3.108   0.995   0.095  0.1439  0.6740  0.5305
 7420SOL    HW133896   3.084   1.086   0.115  0.2514  0.6507  0.7626
 7420SOL    HW233897   3.076   0.958   0.177 -1.9626 -1.7315 -1.3640
 7421SOL     OW33898   3.357   2.284   9.105 -0.0003 -0.0688 -0.5937
 7421SOL    HW133899   3.266   2.257   9.095 -0.2113 -0.8761  3.4171
 7421SOL    HW233900   3.360   2.333   9.188 -0.4244 -0.3848 -0.3954
 7422SOL     OW33901   3.309   0.039   3.366  0.3645 -0.1034  0.3727
 7422SOL    HW133902   3.306   0.009   3.456  0.1906 -0.2967  0.3033
 7422SOL    HW233903   3.366   4.708   3.331 -1.2305 -1.9470  1.4116
 7423SOL     OW33904   4.213   2.918   8.220 -0.6700 -0.6291  0.1990
 7423SOL    HW133905   4.289   2.861   8.224 -0.3132 -0.1672 -0.0178
 7423SOL    HW233906   4.172   2.911   8.307 -0.0795 -0.5081  0.4841
 7424SOL     OW33907   4.138   2.973   2.530 -0.2175 -0.2082  0.1301
 7424SOL    HW133908   4.198   2.923   2.476 -1.4541  1.9451 -3.2589
 7424SOL    HW233909   4.103   2.906   2.588 -0.2040  1.5635  2.2199
 7425SOL     OW33910   2.559   0.429   7.113  0.0776 -0.0589 -0.2116
 7425SOL    HW133911   2.566   0.404   7.206  2.4246  2.7827  0.3587
 7425SOL    HW233912   2.645   0.466   7.095  0.2867 -0.6764 -0.5048
 7426SOL     OW33913   0.276   1.079   9.542 -0.3840  0.1355 -0.1059
 7426SOL    HW133914   0.277   1.081   9.446  4.0079  0.1541 -0.0674
 7426SOL    HW233915   0.206   1.141   9.562  0.3479  0.0346  2.7764
 7427SOL     OW33916   0.824   1.889   2.448 -0.1744 -0.4482 -0.0101
 7427SOL    HW133917   0.737   1.872   2.485 -1.1097 -1.1245 -2.5072
 7427SOL    HW233918   0.796   1.924   2.363 -0.1401  0.6066  0.4093
 7428SOL     OW33919   3.752   0.101   2.869  0.5919  0.1970  0.4337
 7428SOL    HW133920   3.820   0.162   2.897  1.1836 -1.0009  1.6368
 7428SOL    HW233921   3.682   0.167   2.874 -0.2416 -0.6057 -0.7550
 7429SOL     OW33922   2.830   2.238  12.937  0.5750 -0.7385  0.4123
 7429SOL    HW133923   2.844   2.187  12.857  0.0216 -3.1102  1.8275
 7429SOL    HW233924   2.738   2.225  12.959  0.5694 -1.1298  0.1429
 7430SOL     OW33925   2.415   1.890  11.677 -0.1958 -0.3848  0.3243
 7430SOL    HW133926   2.375   1.814  11.718  0.2330 -1.8765 -2.0038
 7430SOL    HW233927   2.463   1.925  11.753 -1.8704  0.7793  0.8352
 7431SOL     OW33928   0.899   0.325   8.431 -0.2793  0.5315 -0.1006
 7431SOL    HW133929   0.870   0.240   8.463 -2.3124  1.1861 -0.1633
 7431SOL    HW233930   0.816   0.371   8.420 -0.3490  0.7159  1.1773
 7432SOL     OW33931   1.341   0.104   1.452 -0.6788  0.2381  0.4265
 7432SOL    HW133932   1.311   0.172   1.513  2.4340 -0.0972  2.3412
 7432SOL    HW233933   1.257   0.091   1.410 -0.7510 -0.0516  0.6622
 7433SOL     OW33934   2.712   2.383   4.961  0.2840 -0.1452 -0.5948
 7433SOL    HW133935   2.799   2.419   4.973  0.7807 -1.2461 -0.8863
 7433SOL    HW233936   2.728   2.315   4.895 -2.2221 -1.8407  0.5209
 7434SOL     OW33937   3.112   4.135   1.920  0.4230  0.0945  0.1155
 7434SOL    HW133938   3.121   4.223   1.884 -1.6077 -0.0449 -0.7313
 7434SOL    HW233939   3.181   4.122   1.985  0.5376  1.5137  0.2781
 7435SOL     OW33940   2.822   1.790  12.656  0.7219  0.4875 -0.3485
 7435SOL    HW133941   2.730   1.767  12.666  0.5790 -0.2311 -3.3314
 7435SOL    HW233942   2.874   1.710  12.666  1.0500  0.6116 -1.0029
 7436SOL     OW33943   2.084   0.682  13.839  0.7261 -0.2817  0.1722
 7436SOL    HW133944   2.172   0.650  13.861  0.1930 -0.9090  1.4189
 7436SOL    HW233945   2.094   0.695  13.745  0.4734  0.0288  0.1908
 7437SOL     OW33946   2.920   2.999   4.912 -1.0092 -0.0904 -0.3463
 7437SOL    HW133947   3.007   3.025   4.884 -0.9957 -0.1997 -0.4052
 7437SOL    HW233948   2.865   3.076   4.894 -1.9536 -0.3959  1.2377
 7438SOL     OW33949   1.291   4.582  11.723 -0.2786 -0.4699  0.0471
 7438SOL    HW133950   1.296   4.512  11.789  1.5940 -1.3031 -0.9804
 7438SOL    HW233951   1.278   4.522  11.650  3.3043 -0.2200 -0.8109
 7439SOL     OW33952   1.024   1.196   4.701  0.1586 -0.7310  0.4082
 7439SOL    HW133953   1.046   1.288   4.715  0.4281 -0.3746 -2.2870
 7439SOL    HW233954   1.019   1.169   4.792  0.0263  1.7338  1.1110
 7440SOL     OW33955   0.634   0.341  15.252  0.3354  0.1356 -0.3917
 7440SOL    HW133956   0.710   0.357  15.308  0.6812  1.8765 -1.3612
 7440SOL    HW233957   0.656   0.252  15.224 -1.6606 -0.0472 -1.4133
 7441SOL     OW33958   2.525   4.022  15.730 -0.0853  0.2228 -0.1668
 7441SOL    HW133959   2.539   4.011  15.824  1.2064  4.1486  0.1224
 7441SOL    HW233960   2.578   4.100  15.712 -0.4880  0.9192  1.6563
 7442SOL     OW33961   1.555   3.914   5.977 -0.0139  0.1937  0.2513
 7442SOL    HW133962   1.488   3.958   5.926  0.2450  1.1154  0.7212
 7442SOL    HW233963   1.616   3.988   5.979 -1.5495  1.4324  0.7715
 7443SOL     OW33964   0.086   1.488  10.396  0.0065  0.1534 -0.0023
 7443SOL    HW133965   0.153   1.517  10.458  0.0434  2.6976 -1.2234
 7443SOL    HW233966   0.135   1.483  10.314 -2.6314  1.6156 -1.6826
 7444SOL     OW33967   2.842   0.676  11.102  0.4917 -0.0544 -0.1893
 7444SOL    HW133968   2.858   0.760  11.145  0.6383  0.3164 -0.9601
 7444SOL    HW233969   2.934   0.659  11.079 -0.0176 -2.2358 -0.6157
 7445SOL     OW33970   2.796   1.940   3.638 -0.4842 -0.2872 -0.7078
 7445SOL    HW133971   2.742   1.958   3.561 -1.7562 -0.5314  0.1389
 7445SOL    HW233972   2.860   2.011   3.627 -1.3539  0.6953  0.6650
 7446SOL     OW33973   3.731   4.144   3.487 -0.1864  0.4416  0.2761
 7446SOL    HW133974   3.646   4.163   3.446 -0.4362 -2.1068 -0.4189
 7446SOL    HW233975   3.771   4.221   3.446 -1.0787  1.6655  1.6851
 7447SOL     OW33976   1.381   4.245   7.414  0.7797 -0.5973 -0.2571
 7447SOL    HW133977   1.342   4.249   7.327 -1.6684  1.0033  0.9258
 7447SOL    HW233978   1.321   4.192   7.466 -0.0294  1.9485  1.3902
 7448SOL     OW33979   1.953   1.741  12.151 -0.1115 -0.0419  0.5263
 7448SOL    HW133980   1.889   1.775  12.214  0.6473 -0.0298  1.2890
 7448SOL    HW233981   2.016   1.705  12.213 -2.7146 -2.6055  1.6922
 7449SOL     OW33982   2.840   1.048   7.381 -0.0028  0.2862  0.4015
 7449SOL    HW133983   2.778   0.979   7.408  0.4381  0.3651  1.6114
 7449SOL    HW233984   2.916   1.004   7.420  0.5779  0.2491 -0.7749
 7450SOL     OW33985   3.214   1.667   3.149 -0.6621 -0.1610  0.3119
 7450SOL    HW133986   3.233   1.574   3.162 -0.2723  0.3006  3.0835
 7450SOL    HW233987   3.201   1.672   3.055  0.2823 -0.2635  0.1743
 7451SOL     OW33988   2.748   4.221   7.553  0.7608 -0.4281  0.2707
 7451SOL    HW133989   2.689   4.268   7.494 -0.8521 -1.2663  1.2265
 7451SOL    HW233990   2.815   4.287   7.572  1.1397 -1.1511  1.4507
 7452SOL     OW33991   3.532   4.217   5.895  0.1309 -0.0051 -0.3359
 7452SOL    HW133992   3.457   4.196   5.839 -0.5372 -1.5991  1.1356
 7452SOL    HW233993   3.550   4.131   5.933 -0.3711  0.6844  1.4930
 7453SOL     OW33994   1.398   0.585  15.685 -0.3610  0.0275 -0.9287
 7453SOL    HW133995   1.436   0.655  15.633 -1.7871  0.5389 -1.2936
 7453SOL    HW233996   1.474   0.528  15.680 -0.0259  0.3527  0.4768
 7454SOL     OW33997   2.687   0.284   5.966  0.2619  0.3006  0.6538
 7454SOL    HW133998   2.646   0.370   5.974 -0.3028 -0.0361  1.3903
 7454SOL    HW233999   2.769   0.289   6.015  0.4174 -1.6797  0.6164
 7455SOL     OW34000   2.385   3.096   8.530  0.3513 -0.4998 -0.2930
 7455SOL    HW134001   2.327   3.044   8.475  1.4216 -2.4435  0.3873
 7455SOL    HW234002   2.327   3.092   8.606  1.4923  1.2616  0.6791
 7456SOL     OW34003   2.534   3.491   6.330  0.1001  0.4984  0.3316
 7456SOL    HW134004   2.502   3.581   6.332 -3.5812 -0.7959  0.2869
 7456SOL    HW234005   2.599   3.496   6.400 -0.6334  0.8791  0.9866
 7457SOL     OW34006   4.154   3.614   3.757  0.0771  0.0201 -0.5493
 7457SOL    HW134007   4.125   3.698   3.722  0.0670 -0.8218 -2.5362
 7457SOL    HW234008   4.136   3.614   3.851  1.4767 -1.1119 -0.2735
 7458SOL     OW34009   4.332   3.297  11.215  0.0120  0.5870 -0.1437
 7458SOL    HW134010   4.288   3.374  11.251  2.1406  0.8127  1.9972
 7458SOL    HW234011   4.423   3.309  11.243  0.4346  0.0804 -1.3103
 7459SOL     OW34012   0.021   3.710  10.013 -0.5228  0.7460  0.3171
 7459SOL    HW134013   4.666   3.734  10.010 -0.3442  1.4007 -0.0413
 7459SOL    HW234014   0.055   3.790   9.973  0.0194  1.4672  2.2364
 7460SOL     OW34015   2.073   0.932   7.885  0.1633  0.1435 -1.0149
 7460SOL    HW134016   2.011   0.860   7.870  0.8701 -0.6577 -0.0717
 7460SOL    HW234017   2.040   0.954   7.972  0.9110  0.8715 -0.9261
 7461SOL     OW34018   0.039   1.259   9.246 -0.2813  0.3364 -0.7038
 7461SOL    HW134019   4.717   1.212   9.188  1.2755 -2.9430  0.3804
 7461SOL    HW234020   4.731   1.337   9.279 -0.2625  1.0639 -2.3768
 7462SOL     OW34021   2.786   2.173   3.143 -0.3724 -0.0172 -0.5541
 7462SOL    HW134022   2.732   2.242   3.104 -1.6812  0.1836  1.5846
 7462SOL    HW234023   2.762   2.099   3.088  1.5623  0.6709 -2.2994
 7463SOL     OW34024   3.556   1.833   4.189 -0.5008 -0.0573 -0.0410
 7463SOL    HW134025   3.578   1.925   4.173 -0.4130 -0.5997 -2.8929
 7463SOL    HW234026   3.597   1.841   4.276  1.0733  3.3062 -1.1005
 7464SOL     OW34027   0.512   0.049  12.202 -0.0980  0.0071  0.1475
 7464SOL    HW134028   0.600   0.075  12.227  0.2966 -2.1037  0.9037
 7464SOL    HW234029   0.509   0.069  12.109  0.9242 -2.5335 -0.4314
 7465SOL     OW34030   1.335   4.091  13.049  0.5448 -0.0865 -0.1235
 7465SOL    HW134031   1.367   4.174  13.084 -2.4470 -0.6523  3.8608
 7465SOL    HW234032   1.243   4.116  13.053  1.0677  1.7418  0.5451
 7466SOL     OW34033   0.817   2.498   8.062  0.0013 -0.3675 -0.2338
 7466SOL    HW134034   0.796   2.460   8.147  2.7983 -0.3537  0.4670
 7466SOL    HW234035   0.790   2.588   8.079  2.4796  0.1313  1.0296
 7467SOL     OW34036   1.303   0.350   7.361 -0.5470 -0.0834  0.6752
 7467SOL    HW134037   1.303   0.388   7.449  0.4515 -0.9546  1.0597
 7467SOL    HW234038   1.395   0.362   7.334 -0.3230 -2.2689  0.4601
 7468SOL     OW34039   0.484   3.219   1.650  0.0446 -0.4662  0.2151
 7468SOL    HW134040   0.520   3.234   1.562  1.2528 -1.5689  0.5205
 7468SOL    HW234041   0.390   3.224   1.636  0.2664  0.1130 -1.0634
 7469SOL     OW34042   0.900   4.044   7.123 -0.1958 -0.3181  0.2583
 7469SOL    HW134043   0.920   4.134   7.096 -0.2183 -0.3371  0.1793
 7469SOL    HW234044   0.980   3.998   7.099 -1.9366 -2.3194 -1.7278
 7470SOL     OW34045   0.957   3.349   4.427  0.0294 -0.2375  0.2337
 7470SOL    HW134046   0.868   3.353   4.391  1.8102  1.9729 -3.9331
 7470SOL    HW234047   1.002   3.358   4.343  1.1456  0.1249  0.8818
 7471SOL     OW34048   2.241   0.662   7.587 -0.2786 -0.4405  0.1946
 7471SOL    HW134049   2.316   0.657   7.646  0.0268  0.4944 -0.1185
 7471SOL    HW234050   2.197   0.745   7.607  0.0650  0.0630 -1.1047
 7472SOL     OW34051   3.301   2.824   5.396  0.7870 -0.1837 -0.0359
 7472SOL    HW134052   3.226   2.882   5.411  1.0586 -0.2983  1.7569
 7472SOL    HW234053   3.330   2.856   5.311  0.3398 -0.3672 -0.2570
 7473SOL     OW34054   3.335   2.904   4.432 -0.3396 -0.1503 -0.2605
 7473SOL    HW134055   3.371   2.919   4.345 -1.3051  1.3064 -0.4188
 7473SOL    HW234056   3.381   2.969   4.485  0.9476 -1.6324  0.4389
 7474SOL     OW34057   3.730   2.248   8.230  0.0201  0.3658 -0.2050
 7474SOL    HW134058   3.824   2.244   8.250 -0.7461 -1.1655  3.0774
 7474SOL    HW234059   3.737   2.262   8.135  2.5077  0.3730 -0.0296
 7475SOL     OW34060   1.094   1.317   7.436 -0.3946 -0.1019 -0.6503
 7475SOL    HW134061   1.076   1.231   7.473 -1.2906  0.3383 -0.0586
 7475SOL    HW234062   1.141   1.293   7.356 -0.7583  0.5898 -1.0794
 7476SOL     OW34063   4.720   3.999   7.405  0.0368 -0.0582  0.4418
 7476SOL    HW134064   4.717   3.953   7.489 -1.7362 -2.1728 -0.7775
 7476SOL    HW234065   0.059   3.948   7.379 -0.9351 -1.9121  1.1914
 7477SOL     OW34066   1.627   3.755   9.658  0.1584  0.9258 -0.3469
 7477SOL    HW134067   1.719   3.755   9.686 -0.1419  1.7594  0.6341
 7477SOL    HW234068   1.612   3.847   9.635  1.0112  1.6097  1.8368
 7478SOL     OW34069   3.744   1.227   3.669 -0.2462 -0.0446 -0.7383
 7478SOL    HW134070   3.677   1.274   3.719 -0.3265 -1.3842  0.4425
 7478SOL    HW234071   3.812   1.293   3.664  0.5074 -0.8515 -1.1172
 7479SOL     OW34072   4.217   1.221   4.860 -0.0772 -0.1638  0.1000
 7479SOL    HW134073   4.147   1.178   4.909 -0.6682  0.4531 -0.2097
 7479SOL    HW234074   4.208   1.304   4.906 -0.5350 -1.0123  1.5497
 7480SOL     OW34075   2.100   2.621  14.340  0.2870  0.5817 -0.0381
 7480SOL    HW134076   2.148   2.651  14.263 -0.7229 -3.5201 -2.2537
 7480SOL    HW234077   2.028   2.684  14.335  0.0999  0.5718  2.6273
 7481SOL     OW34078   3.387   3.630  10.948 -0.0353 -0.1605  0.2125
 7481SOL    HW134079   3.462   3.620  10.890 -0.5321  3.5797 -1.0230
 7481SOL    HW234080   3.427   3.598  11.029  2.2130 -0.2091 -0.9190
 7482SOL     OW34081   1.293   4.237   8.729  0.1858 -0.8579  0.0696
 7482SOL    HW134082   1.275   4.151   8.768  1.2217  0.2751  3.0091
 7482SOL    HW234083   1.347   4.277   8.797  0.5343  0.3592 -0.9324
 7483SOL     OW34084   1.329   2.295   0.420  0.1654 -0.4088  0.6102
 7483SOL    HW134085   1.301   2.246   0.498 -0.1665 -0.4191  0.4846
 7483SOL    HW234086   1.413   2.336   0.441  0.4442 -0.5983 -0.1672
 7484SOL     OW34087   1.400   0.894  15.385 -0.6401 -1.1953 -0.3640
 7484SOL    HW134088   1.449   0.813  15.373 -0.1995 -1.0427  0.3716
 7484SOL    HW234089   1.402   0.933  15.298 -0.1463 -0.2469  0.0720
 7485SOL     OW34090   0.494   1.950   4.959  0.1362 -0.2989  0.2664
 7485SOL    HW134091   0.413   1.992   4.989 -0.6295 -2.9251  1.7820
 7485SOL    HW234092   0.563   1.989   5.012  0.6441  1.3999 -1.6415
 7486SOL     OW34093   4.579   1.373  10.527 -0.0648  0.2150 -0.1025
 7486SOL    HW134094   4.655   1.426  10.503 -0.2222  0.8612  0.8461
 7486SOL    HW234095   4.536   1.359  10.442 -2.9510 -1.3051  1.6086
 7487SOL     OW34096   2.612   2.632  12.663  0.7924  0.2356  0.6613
 7487SOL    HW134097   2.680   2.564  12.657  0.0022 -0.5352  0.3054
 7487SOL    HW234098   2.668   2.708  12.678  1.6616 -0.1849 -0.4187
 7488SOL     OW34099   2.032   1.503   5.561  0.2602 -0.2410 -0.2265
 7488SOL    HW134100   1.979   1.542   5.630  0.4723 -0.7845  0.2434
 7488SOL    HW234101   1.976   1.524   5.486 -0.7675 -1.9916  0.0421
 7489SOL     OW34102   0.797   0.547   7.784  0.7401  0.4496  0.0570
 7489SOL    HW134103   0.798   0.452   7.773 -4.8099  0.4361 -0.3709
 7489SOL    HW234104   0.733   0.559   7.855 -0.8924 -2.4942 -0.9314
 7490SOL     OW34105   0.209   0.423   3.483 -0.1953  0.3839  0.3147
 7490SOL    HW134106   0.251   0.343   3.514 -0.5142 -1.1109 -3.0460
 7490SOL    HW234107   0.147   0.387   3.419  1.0359  0.8374 -1.1367
 7491SOL     OW34108   3.394   2.746   7.351  0.1548  1.0130 -0.1429
 7491SOL    HW134109   3.417   2.654   7.338  1.6929  1.3160  0.3598
 7491SOL    HW234110   3.456   2.771   7.420 -0.4946  0.7694  0.5187
 7492SOL     OW34111   4.174   3.940   7.372 -0.7670  0.4738 -0.1155
 7492SOL    HW134112   4.194   4.033   7.362  0.7021  0.2165  0.3692
 7492SOL    HW234113   4.190   3.927   7.466  1.0334  0.4799 -0.4321
 7493SOL     OW34114   3.209   0.162   8.935  0.5022 -0.5638  0.1164
 7493SOL    HW134115   3.300   0.151   8.908  0.8830  0.9535  0.8015
 7493SOL    HW234116   3.162   0.200   8.861 -0.1105  1.6420  1.6511
 7494SOL     OW34117   2.582   4.456   6.444  0.6255 -0.2876 -0.2782
 7494SOL    HW134118   2.677   4.457   6.437  0.8663 -0.7325  2.8913
 7494SOL    HW234119   2.579   4.394   6.517 -0.7013 -0.3755 -0.3906
 7495SOL     OW34120   1.119   3.637   3.430  0.1934 -0.0025  0.2661
 7495SOL    HW134121   1.062   3.563   3.454 -0.6321  0.6662  0.3511
 7495SOL    HW234122   1.103   3.708   3.492 -0.4633  0.4957 -0.4807
 7496SOL     OW34123   0.358   2.989   3.883  0.1103 -0.6489 -0.5605
 7496SOL    HW134124   0.338   2.895   3.877  0.1703 -0.6306 -1.0504
 7496SOL    HW234125   0.314   3.028   3.809  0.3407  0.1803 -0.2554
 7497SOL     OW34126   4.176   4.701  11.691 -0.2037  0.4195 -0.5366
 7497SOL    HW134127   4.172   4.727  11.783 -3.1042  2.1198 -1.1390
 7497SOL    HW234128   4.226   0.034  11.650 -0.3204  1.0440  0.3932
 7498SOL     OW34129   1.836   2.139   8.636  0.1763 -0.3977 -0.1620
 7498SOL    HW134130   1.797   2.202   8.696  1.1406 -0.4478  0.5109
 7498SOL    HW234131   1.801   2.066   8.689  1.0240 -0.6865  0.0028
 7499SOL     OW34132   2.441   0.132   1.720 -0.5380 -0.2311 -0.8635
 7499SOL    HW134133   2.381   0.061   1.740 -1.1528  0.5938  0.2769
 7499SOL    HW234134   2.390   0.198   1.768  0.7785 -0.6063  1.0661
 7500SOL     OW34135   2.321   3.452   7.421  0.0392  0.2131 -0.6068
 7500SOL    HW134136   2.341   3.361   7.401 -0.9311 -0.2078  0.3177
 7500SOL    HW234137   2.249   3.435   7.482  1.0094 -0.1166  0.4332
 7501SOL     OW34138   1.383   0.719  10.254 -0.1242  0.0884 -0.2406
 7501SOL    HW134139   1.305   0.737  10.201 -0.5552  0.4666  0.5286
 7501SOL    HW234140   1.404   0.808  10.283 -0.0662 -0.1891  0.5443
 7502SOL     OW34141   0.039   2.440   9.574  0.6266  0.4568  0.3274
 7502SOL    HW134142   0.005   2.356   9.603 -1.7207  1.4096  0.3616
 7502SOL    HW234143   4.700   2.497   9.581  0.9824  0.9949 -0.2074
 7503SOL     OW34144   4.496   4.023   5.453  0.2524  0.5793  0.2759
 7503SOL    HW134145   4.440   3.945   5.459  0.7637  0.1638 -0.3560
 7503SOL    HW234146   4.537   4.008   5.368  2.6332  0.1896  1.5003
 7504SOL     OW34147   2.992   1.435  12.116 -0.0454  0.3203 -0.0413
 7504SOL    HW134148   2.950   1.359  12.076 -1.6393  0.4164  1.5085
 7504SOL    HW234149   2.924   1.471  12.172  1.1458  2.7188 -0.1166
 7505SOL     OW34150   0.282   0.127   7.062 -0.1264 -0.4053 -0.5552
 7505SOL    HW134151   0.283   0.094   6.972  0.0898  0.0400 -0.7163
 7505SOL    HW234152   0.199   0.091   7.093 -0.5920  1.1310 -0.0465
 7506SOL     OW34153   1.096   1.401   3.843 -0.0946 -0.0542 -0.1583
 7506SOL    HW134154   1.006   1.411   3.812  0.2444 -3.1909 -2.1584
 7506SOL    HW234155   1.102   1.309   3.869 -0.0883 -0.7057 -2.3907
 7507SOL     OW34156   3.427   4.630  17.030 -0.6524  0.3230  0.3003
 7507SOL    HW134157   3.370   4.634  17.107 -1.0948  2.6005 -0.1279
 7507SOL    HW234158   3.504   4.593  17.073 -0.0792  2.2604  0.9594
 7508SOL     OW34159   2.650   0.379  12.649 -0.3907  0.1157 -0.1652
 7508SOL    HW134160   2.731   0.374  12.598 -0.9737  0.3600 -1.1179
 7508SOL    HW234161   2.594   0.393  12.573  0.5558  0.6201 -0.7797
 7509SOL     OW34162   4.497   2.757   4.048  0.2595  0.1872 -0.1192
 7509SOL    HW134163   4.538   2.782   4.131 -2.8496  0.9249  1.1646
 7509SOL    HW234164   4.433   2.702   4.092 -0.4151  1.5022  0.5198
 7510SOL     OW34165   1.770   4.056  16.709  0.0133  0.2934  0.2667
 7510SOL    HW134166   1.779   4.054  16.614 -0.4170 -2.9486  0.3149
 7510SOL    HW234167   1.776   4.150  16.728  1.6601  0.1828  0.3153
 7511SOL     OW34168   2.027   1.268   4.252 -0.2622  0.0042 -0.6368
 7511SOL    HW134169   1.992   1.356   4.238 -2.6906 -0.4732  2.4533
 7511SOL    HW234170   1.946   1.234   4.288 -0.0067  0.6862  0.5799
 7512SOL     OW34171   4.407   3.392   7.697  0.2998 -0.3745  0.2171
 7512SOL    HW134172   4.426   3.432   7.782  0.4940 -0.7719  0.3633
 7512SOL    HW234173   4.485   3.421   7.650 -0.1030  1.1183  0.4904
 7513SOL     OW34174   0.821   4.043  12.095 -0.9287  0.0293  0.7035
 7513SOL    HW134175   0.760   4.004  12.032  0.0071  0.6765 -0.5962
 7513SOL    HW234176   0.853   3.965  12.141 -0.6717 -0.4204 -0.2366
 7514SOL     OW34177   1.845   3.349   8.701 -0.4918 -0.2699 -0.6006
 7514SOL    HW134178   1.858   3.294   8.624 -2.4669 -2.4453  0.6123
 7514SOL    HW234179   1.907   3.307   8.761  1.3836  1.1222 -1.5664
 7515SOL     OW34180   1.383   0.159   9.752  0.1803  0.0372 -0.4314
 7515SOL    HW134181   1.420   0.071   9.763 -0.8932 -0.2806  0.6512
 7515SOL    HW234182   1.308   0.147   9.693 -0.9919 -3.1991  1.6967
 7516SOL     OW34183   0.668   3.151   1.847  0.3134 -0.3021 -0.3643
 7516SOL    HW134184   0.645   3.179   1.758  0.1777  4.0089  1.0321
 7516SOL    HW234185   0.662   3.056   1.834  1.1362 -0.2560 -1.0820
 7517SOL     OW34186   1.019   2.849  14.446  0.6437  0.0940 -0.1620
 7517SOL    HW134187   1.020   2.757  14.421 -0.0577 -0.6109  2.4108
 7517SOL    HW234188   0.964   2.826  14.520  1.4346 -1.4484 -0.0431
 7518SOL     OW34189   3.739   2.622   6.463 -0.1935 -0.0770  0.4159
 7518SOL    HW134190   3.670   2.628   6.528  0.4151  0.6145  0.9941
 7518SOL    HW234191   3.776   2.711   6.463  1.4321 -0.7373 -0.0632
 7519SOL     OW34192   1.391   3.229   8.129  0.3297 -0.2546  0.1751
 7519SOL    HW134193   1.331   3.284   8.080  0.9779  1.0534  0.8585
 7519SOL    HW234194   1.452   3.219   8.055  0.7878 -0.3722  0.5655
 7520SOL     OW34195   2.682   3.068   5.333 -0.0710  0.3824 -0.6276
 7520SOL    HW134196   2.615   3.072   5.265 -0.2070 -0.7402 -0.5647
 7520SOL    HW234197   2.676   3.158   5.365  2.0687  0.6563 -0.9786
 7521SOL     OW34198   2.725   4.161  17.420  0.2373  0.4953 -0.6164
 7521SOL    HW134199   2.692   4.251  17.426  0.6591  0.5481  0.8475
 7521SOL    HW234200   2.802   4.170  17.475 -1.3415  0.9677  1.5177
 7522SOL     OW34201   1.059   3.576   7.929  0.0600  0.2188  0.2430
 7522SOL    HW134202   0.973   3.535   7.927  0.2092 -0.1017  0.4671
 7522SOL    HW234203   1.028   3.665   7.947  0.8867  0.9660 -2.0392
 7523SOL     OW34204   0.045   3.343  12.451 -0.2501  0.7450 -0.0928
 7523SOL    HW134205   0.047   3.437  12.434 -1.5821  0.8430  0.3806
 7523SOL    HW234206   0.117   3.342  12.514 -0.1837  3.4885 -0.1295
 7524SOL     OW34207   4.067   1.454  15.879  0.1162  0.0080 -0.6427
 7524SOL    HW134208   4.082   1.469  15.785  2.6948  0.3005 -0.1988
 7524SOL    HW234209   4.054   1.546  15.901 -0.7698 -0.3191  0.1644
 7525SOL     OW34210   2.411   2.031   9.653  0.0072  0.0089 -0.2821
 7525SOL    HW134211   2.424   2.050   9.560 -1.1789  0.0772 -0.4376
 7525SOL    HW234212   2.501   2.014   9.680  0.4422 -1.0810 -2.4083
 7526SOL     OW34213   3.353   2.198   3.447  0.1959 -0.2920 -0.2647
 7526SOL    HW134214   3.388   2.259   3.511  0.9399  0.9773 -1.9015
 7526SOL    HW234215   3.304   2.147   3.512 -0.3009 -0.3340 -0.6699
 7527SOL     OW34216   1.306   2.213  14.916  0.1551  0.1444  0.3537
 7527SOL    HW134217   1.324   2.222  14.823  0.3276 -2.7526  0.0989
 7527SOL    HW234218   1.233   2.274  14.920  0.2060  0.1738  0.9429
 7528SOL     OW34219   2.822   3.727   2.704  0.2588  0.0098 -0.3308
 7528SOL    HW134220   2.726   3.725   2.710  0.3049  1.6861  1.1176
 7528SOL    HW234221   2.856   3.688   2.784  0.8859 -0.4042 -0.8022
 7529SOL     OW34222   3.197   0.656   3.494  0.0036  0.0551 -0.5340
 7529SOL    HW134223   3.220   0.566   3.516  1.1737  1.3894  3.6255
 7529SOL    HW234224   3.134   0.681   3.561 -0.1329  0.4960 -0.8239
 7530SOL     OW34225   4.567   2.285   1.690 -0.2403  0.0331 -0.4928
 7530SOL    HW134226   4.627   2.215   1.666  1.9405  1.9819 -0.6617
 7530SOL    HW234227   4.493   2.238   1.650  0.4162  1.1480 -3.0017
 7531SOL     OW34228   3.579   0.370   2.684 -0.7718  0.1227  0.0444
 7531SOL    HW134229   3.490   0.381   2.651 -0.3059 -0.9990 -1.6071
 7531SOL    HW234230   3.569   0.350   2.777 -1.0780 -0.9288 -0.2112
 7532SOL     OW34231   2.074   2.054  16.813  0.1932  0.6823 -0.1445
 7532SOL    HW134232   2.066   2.122  16.880 -0.1153  0.9778 -0.4886
 7532SOL    HW234233   2.170   2.053  16.811  0.1702  1.2392 -1.4298
 7533SOL     OW34234   3.758   0.461   6.375 -0.1337  0.5402  0.5363
 7533SOL    HW134235   3.702   0.435   6.448 -0.4858  0.2232  0.1531
 7533SOL    HW234236   3.706   0.512   6.313  1.3605 -1.9139 -2.6980
 7534SOL     OW34237   3.845   2.148   4.621 -0.7224  0.1410  0.3624
 7534SOL    HW134238   3.876   2.073   4.672 -0.5044  0.3788  0.5750
 7534SOL    HW234239   3.766   2.111   4.580 -1.1813 -0.3665  1.7115
 7535SOL     OW34240   0.166   2.831   1.895 -0.2655  0.4177  0.0002
 7535SOL    HW134241   0.156   2.746   1.852 -3.2850  0.4669  0.6099
 7535SOL    HW234242   0.077   2.843   1.927 -1.0116 -2.5563 -1.0096
 7536SOL     OW34243   4.071   2.215   6.662  0.1654  0.2275  0.4164
 7536SOL    HW134244   3.984   2.215   6.701  0.3659 -2.5325  0.8343
 7536SOL    HW234245   4.119   2.202   6.744 -0.9254 -0.0544  1.0038
 7537SOL     OW34246   3.103   4.385  17.113 -0.4894 -0.1811  0.4622
 7537SOL    HW134247   3.122   4.478  17.123 -0.3777 -0.3112  1.4772
 7537SOL    HW234248   3.009   4.372  17.127 -0.7472  0.0009 -1.1217
 7538SOL     OW34249   2.441   0.946   2.447  0.1397 -1.0664  0.6693
 7538SOL    HW134250   2.520   0.939   2.395  0.5345  2.5865  0.7706
 7538SOL    HW234251   2.412   0.855   2.454 -0.3265 -1.2448 -3.3941
 7539SOL     OW34252   0.790   3.230   3.418 -0.3090  0.3200 -0.1536
 7539SOL    HW134253   0.785   3.152   3.363  0.3055  1.7058 -2.1705
 7539SOL    HW234254   0.708   3.216   3.465  0.1019 -0.0233  0.4644
 7540SOL     OW34255   3.331   1.636   0.202  0.2366  0.3753 -0.7838
 7540SOL    HW134256   3.303   1.558   0.153  0.2231 -0.1948  0.1202
 7540SOL    HW234257   3.357   1.695   0.132  1.7951  0.9866  0.2971
 7541SOL     OW34258   0.018   3.012  14.157  0.6464 -0.4921 -0.0593
 7541SOL    HW134259   0.057   2.938  14.205 -0.7401  0.3666  2.3853
 7541SOL    HW234260   0.040   2.978  14.070  0.8404  2.7177 -1.2641
 7542SOL     OW34261   3.387   0.461   3.139  0.3002 -0.3369 -0.0862
 7542SOL    HW134262   3.388   0.504   3.224  2.2626 -1.5105  0.4786
 7542SOL    HW234263   3.293   0.459   3.118  0.7158  0.3562 -1.9729
 7543SOL     OW34264   2.961   1.813   1.503 -0.4325 -0.6712 -0.0826
 7543SOL    HW134265   2.999   1.730   1.473 -1.9905 -0.7613 -1.7817
 7543SOL    HW234266   3.029   1.852   1.558  1.0101 -1.4675 -1.2898
 7544SOL     OW34267   0.289   0.129   6.546 -0.2507  0.1339 -0.0029
 7544SOL    HW134268   0.213   0.133   6.489 -0.4884 -0.3732  0.2782
 7544SOL    HW234269   0.348   0.114   6.472 -0.1515  2.2516 -0.3658
 7545SOL     OW34270   2.066   3.239   6.100 -0.4109  0.0327  0.1115
 7545SOL    HW134271   2.112   3.155   6.096 -1.5121 -0.6307  1.1560
 7545SOL    HW234272   2.005   3.227   6.173 -1.7987  1.9269 -0.7231
 7546SOL     OW34273   2.364   3.691   6.185 -0.2820 -0.1244 -0.2217
 7546SOL    HW134274   2.316   3.748   6.244 -1.3518  0.9904 -2.1852
 7546SOL    HW234275   2.348   3.734   6.101  1.3054 -0.4288 -0.6779
 7547SOL     OW34276   4.683   4.628   8.736 -0.3680  0.3663 -0.6794
 7547SOL    HW134277   4.664   4.609   8.827 -1.0265  0.6599 -0.7530
 7547SOL    HW234278   4.667   4.721   8.747  0.2709  0.2215  1.3604
 7548SOL     OW34279   4.151   2.453   0.863 -0.1919 -0.0821 -0.0263
 7548SOL    HW134280   4.084   2.459   0.795 -1.5019 -0.0705  1.2517
 7548SOL    HW234281   4.154   2.545   0.888 -0.3921 -0.0180 -0.2371
 7549SOL     OW34282   2.732   3.617  12.102 -0.0473  0.0372 -0.0926
 7549SOL    HW134283   2.796   3.566  12.054 -1.9677 -1.4814 -1.0375
 7549SOL    HW234284   2.736   3.578  12.189 -1.8319 -1.4816 -0.6960
 7550SOL     OW34285   4.674   0.373   2.099  0.0932  0.3028 -0.0448
 7550SOL    HW134286   4.662   0.468   2.105  1.4314  0.3432  1.7749
 7550SOL    HW234287   4.700   0.356   2.008 -0.1969  1.6309 -0.3675
 7551SOL     OW34288   2.551   3.693   2.804 -0.4429 -0.2517  0.3355
 7551SOL    HW134289   2.484   3.718   2.740 -1.7209 -1.0877  1.3585
 7551SOL    HW234290   2.512   3.616   2.846  1.2831 -0.6184  1.2642
 7552SOL     OW34291   2.947   2.230   6.749 -0.0163  0.2229  0.3939
 7552SOL    HW134292   2.964   2.203   6.659 -2.2918  0.2914 -0.0503
 7552SOL    HW234293   3.015   2.192   6.805  0.1111 -0.9605 -0.5700
 7553SOL     OW34294   1.434   4.589  12.517 -0.0553  0.4301 -0.2118
 7553SOL    HW134295   1.524   4.593  12.551 -0.3210  2.0883  0.3093
 7553SOL    HW234296   1.399   4.516  12.567 -1.8116  1.9605  0.7792
 7554SOL     OW34297   4.061   0.289   5.107 -0.1502  0.1286  0.0963
 7554SOL    HW134298   4.019   0.206   5.130  0.5405  0.5107  2.7106
 7554SOL    HW234299   3.987   0.342   5.078 -0.9625 -1.3618 -0.5179
 7555SOL     OW34300   2.507   4.590   5.166  0.2497 -0.7140  0.7279
 7555SOL    HW134301   2.415   4.563   5.163 -0.1157  0.7503 -1.2755
 7555SOL    HW234302   2.495   4.682   5.142 -2.3644 -0.3186  3.5097
 7556SOL     OW34303   3.594   3.188   1.723 -0.9444  0.0198  0.9022
 7556SOL    HW134304   3.533   3.141   1.781  1.0664 -2.3481  1.0661
 7556SOL    HW234305   3.672   3.135   1.716  0.2559  1.9613 -0.3042
 7557SOL     OW34306   3.469   4.589  14.278  0.5768  0.1801 -0.2823
 7557SOL    HW134307   3.538   4.567  14.341  0.1162  1.1567  0.5628
 7557SOL    HW234308   3.522   4.606  14.201 -0.6410  0.2411 -1.0960
 7558SOL     OW34309   4.081   2.541   8.176 -0.0437  0.5472 -0.2470
 7558SOL    HW134310   4.113   2.547   8.086  3.4930 -0.6395  0.9386
 7558SOL    HW234311   4.016   2.611   8.173 -0.0303  0.5372 -0.8013
 7559SOL     OW34312   0.748   1.140   1.441 -0.1570  0.6402 -0.5561
 7559SOL    HW134313   0.779   1.050   1.438 -0.8258  0.3742  0.9551
 7559SOL    HW234314   0.784   1.169   1.357 -1.9706 -1.2644 -1.9776
 7560SOL     OW34315   1.871   0.506   5.662  0.5913  1.1318  0.5102
 7560SOL    HW134316   1.869   0.495   5.567 -1.2600  0.3651  0.6367
 7560SOL    HW234317   1.787   0.478   5.700 -0.1630 -0.4953 -2.3985
 7561SOL     OW34318   1.438   0.540   2.725 -0.6257 -0.6416 -0.0778
 7561SOL    HW134319   1.435   0.589   2.807 -1.0721 -1.7688  0.5878
 7561SOL    HW234320   1.346   0.543   2.698 -0.4713 -1.1186 -0.6542
 7562SOL     OW34321   2.313   3.973   2.740  0.0716  0.2023  0.2225
 7562SOL    HW134322   2.268   4.025   2.673  0.4750 -1.7758 -1.5804
 7562SOL    HW234323   2.327   3.897   2.684  1.8149  0.8891 -0.2924
 7563SOL     OW34324   1.173   1.414   6.689  0.0530  0.3563  0.2738
 7563SOL    HW134325   1.142   1.330   6.655  0.6932 -0.0747  0.7689
 7563SOL    HW234326   1.263   1.400   6.716  0.4321 -0.6790 -1.5466
 7564SOL     OW34327   2.733   0.708   3.686  0.4799 -0.6659 -0.2554
 7564SOL    HW134328   2.787   0.776   3.645  1.8495 -2.1478 -0.8867
 7564SOL    HW234329   2.732   0.649   3.611  0.3586 -2.2655  1.0042
 7565SOL     OW34330   0.673   3.328  11.554  0.1986  0.7361 -0.4034
 7565SOL    HW134331   0.731   3.332  11.478 -1.1673  1.2707 -1.4140
 7565SOL    HW234332   0.596   3.276  11.534  1.3501 -1.5753  1.2326
 7566SOL     OW34333   2.052   0.223   4.654  0.3581 -0.2654  0.3068
 7566SOL    HW134334   2.141   0.222   4.618 -0.0830 -0.9963 -0.7783
 7566SOL    HW234335   1.999   0.206   4.575 -0.0675 -1.6206  0.8808
 7567SOL     OW34336   0.189   1.501   6.646 -0.5172  0.0525  0.2287
 7567SOL    HW134337   0.228   1.421   6.680 -0.1548  1.5825  3.4084
 7567SOL    HW234338   0.108   1.464   6.610 -0.1788 -0.3254 -0.1365
 7568SOL     OW34339   3.998   1.093  11.304 -0.0787  0.5432  0.2121
 7568SOL    HW134340   4.033   1.031  11.368  0.1510  0.7063  0.2418
 7568SOL    HW234341   4.077   1.136  11.273 -1.1847  2.5574  0.1654
 7569SOL     OW34342   2.344   0.897   5.261  0.4606 -0.4764 -0.6383
 7569SOL    HW134343   2.412   0.832   5.278  1.2024  0.3734 -0.4279
 7569SOL    HW234344   2.335   0.864   5.171  3.1978  2.1745 -1.8553
 7570SOL     OW34345   2.797   0.607   1.680 -0.2895  0.0760  0.5499
 7570SOL    HW134346   2.758   0.653   1.606  0.2259  0.1760  0.3446
 7570SOL    HW234347   2.834   0.527   1.642  1.3154  1.0624  0.0678
 7571SOL     OW34348   3.619   1.197   2.374  0.4302 -0.5200 -0.8982
 7571SOL    HW134349   3.629   1.284   2.334  2.4237 -0.8677 -1.1559
 7571SOL    HW234350   3.712   1.188   2.393  0.3193  1.9423  0.7730
 7572SOL     OW34351   4.621   1.770  10.110 -0.5034 -0.0080  0.4204
 7572SOL    HW134352   4.571   1.831  10.163  1.4221  1.0089  1.0757
 7572SOL    HW234353   4.707   1.808  10.127  0.6491 -1.7235 -1.5731
 7573SOL     OW34354   4.544   1.915   1.457 -0.2965  0.0383 -0.2327
 7573SOL    HW134355   4.604   1.841   1.443 -1.8351 -1.0599 -1.0862
 7573SOL    HW234356   4.587   1.975   1.396 -0.9426  3.1899  2.4713
 7574SOL     OW34357   3.386   1.200   7.413 -0.1860 -0.1139  0.4159
 7574SOL    HW134358   3.422   1.289   7.416 -1.0256  0.2662 -1.2983
 7574SOL    HW234359   3.444   1.150   7.471 -0.9126 -1.4168  0.0243
 7575SOL     OW34360   0.569   4.095  17.475 -0.5045  0.0181  0.1102
 7575SOL    HW134361   0.527   4.018  17.513  1.6181 -0.5174  1.3804
 7575SOL    HW234362   0.647   4.047  17.450  0.1691  2.5224 -2.6178
 7576SOL     OW34363   1.503   4.618   5.643  0.3308  0.4226  0.3077
 7576SOL    HW134364   1.526   4.676   5.570  0.9288 -0.0180  0.1437
 7576SOL    HW234365   1.552   4.540   5.618  0.9263  0.6305  0.8221
 7577SOL     OW34366   2.635   0.204   4.925 -0.2585  0.3518 -0.1935
 7577SOL    HW134367   2.568   0.148   4.884 -2.3365  3.0332 -0.4956
 7577SOL    HW234368   2.652   0.163   5.009  0.0611  2.2051  0.6317
 7578SOL     OW34369   0.375   4.388   4.654 -0.0292  0.2936  0.1398
 7578SOL    HW134370   0.459   4.351   4.680 -0.7415 -1.9894 -0.7803
 7578SOL    HW234371   0.323   4.351   4.725 -0.2976  0.9673  0.2920
 7579SOL     OW34372   1.116   2.621   1.074  0.1576 -0.3415 -0.8115
 7579SOL    HW134373   1.176   2.548   1.061  1.4656  0.3421  1.4103
 7579SOL    HW234374   1.104   2.649   0.983 -0.8489 -1.8433 -1.1376
 7580SOL     OW34375   3.702   4.106   6.408 -0.2004  0.1781  0.4126
 7580SOL    HW134376   3.748   4.126   6.490 -1.1315  3.3679  0.1778
 7580SOL    HW234377   3.741   4.020   6.396  0.6140  0.4045  1.3930
 7581SOL     OW34378   3.003   4.251  12.450  0.7092  0.3784 -0.3516
 7581SOL    HW134379   3.018   4.164  12.487  1.3117 -0.2850 -2.1725
 7581SOL    HW234380   3.077   4.304  12.482  1.5944  0.5944 -2.7845
 7582SOL     OW34381   3.231   4.186   1.525  0.0664  0.1362  0.7088
 7582SOL    HW134382   3.226   4.169   1.432  0.4106  0.6374  0.5959
 7582SOL    HW234383   3.262   4.276   1.521  2.2126 -0.4835  3.1142
 7583SOL     OW34384   1.581   4.643   9.798  0.4423  0.0302 -0.3337
 7583SOL    HW134385   1.563   4.664   9.890  1.6529  0.7046 -0.2398
 7583SOL    HW234386   1.666   4.682   9.776  1.2472 -0.3748  1.9823
 7584SOL     OW34387   1.609   0.894   1.559  0.2837 -0.2586 -0.1468
 7584SOL    HW134388   1.700   0.917   1.542  1.1968 -0.9120  3.8565
 7584SOL    HW234389   1.611   0.798   1.557 -0.0039 -0.2598 -0.3837
 7585SOL     OW34390   1.900   4.731   7.298 -0.1399  0.1010  0.4470
 7585SOL    HW134391   1.914   0.059   7.366  0.5616  1.4431 -0.9862
 7585SOL    HW234392   1.936   0.042   7.224 -1.4860  2.4287  1.3106
 7586SOL     OW34393   3.587   0.595   1.611  0.1609  0.3110  0.7037
 7586SOL    HW134394   3.621   0.630   1.693  2.9208  0.5994 -0.5626
 7586SOL    HW234395   3.519   0.543   1.654 -1.0297  0.6876 -0.7175
 7587SOL     OW34396   4.538   4.109   6.840  0.0421  0.6834 -0.7577
 7587SOL    HW134397   4.461   4.104   6.783 -2.2927  1.5760  2.3314
 7587SOL    HW234398   4.568   4.019   6.827  2.1464  1.0151  1.8788
 7588SOL     OW34399   0.604   1.344   7.259 -0.7812  0.4651  0.7227
 7588SOL    HW134400   0.568   1.260   7.230 -0.1178  0.5410 -0.3000
 7588SOL    HW234401   0.684   1.348   7.207 -1.4667 -0.1554 -0.3869
 7589SOL     OW34402   4.359   2.852  13.001  0.1952 -0.2934 -0.2726
 7589SOL    HW134403   4.361   2.859  12.906  1.0605  0.5295 -0.2014
 7589SOL    HW234404   4.353   2.757  13.003 -1.5393 -0.1688  0.1563
 7590SOL     OW34405   1.159   4.450   1.970  0.1368 -0.2054  0.3647
 7590SOL    HW134406   1.234   4.395   1.949 -0.4886 -0.5758 -0.8951
 7590SOL    HW234407   1.134   4.405   2.051  1.4520 -1.4321  0.0848
 7591SOL     OW34408   3.487   3.817  17.729 -0.0412 -0.3878 -0.6381
 7591SOL    HW134409   3.551   3.846   0.044 -1.7474  0.9511  0.4329
 7591SOL    HW234410   3.433   3.754   0.027 -0.6144 -0.7513 -1.7441
 7592SOL     OW34411   3.004   4.318   5.642 -0.1002  0.1174 -0.2669
 7592SOL    HW134412   2.908   4.322   5.640 -0.2194 -1.6630  1.8711
 7592SOL    HW234413   3.004   4.247   5.706  0.6259 -0.6804 -1.1569
 7593SOL     OW34414   3.500   1.574   1.914 -0.3135  0.4665 -0.7334
 7593SOL    HW134415   3.559   1.570   1.989  0.5572 -2.5577 -1.5701
 7593SOL    HW234416   3.528   1.493   1.871  2.3723  1.2071 -0.3578
 7594SOL     OW34417   3.176   3.129  17.124 -1.1285  0.0696  0.8548
 7594SOL    HW134418   3.260   3.173  17.114 -0.4806 -1.1706  0.7941
 7594SOL    HW234419   3.156   3.098  17.036 -1.5626 -1.1883  1.3936
 7595SOL     OW34420   4.500   3.876   0.834  0.4944  0.1425  0.1279
 7595SOL    HW134421   4.563   3.877   0.761 -1.1349 -2.0246 -1.3059
 7595SOL    HW234422   4.493   3.969   0.856  0.9556  0.5350 -1.3763
 7596SOL     OW34423   2.460   2.397   7.705 -0.1071  0.3396 -0.1428
 7596SOL    HW134424   2.543   2.362   7.674  0.4121  2.2647 -0.8748
 7596SOL    HW234425   2.461   2.485   7.669 -0.5262  0.8230  1.0136
 7597SOL     OW34426   2.521   1.596  11.656  0.4446  0.2260 -0.1066
 7597SOL    HW134427   2.513   1.656  11.582 -4.0879 -1.2344 -0.7546
 7597SOL    HW234428   2.594   1.638  11.701  0.5001  0.2190 -0.1893
 7598SOL     OW34429   0.525   1.941   1.430  0.2886 -0.1147  0.1147
 7598SOL    HW134430   0.532   2.026   1.473 -2.3009 -0.1616  0.6048
 7598SOL    HW234431   0.531   1.970   1.339 -2.0698 -2.0563 -0.6793
 7599SOL     OW34432   3.095   1.464  14.937 -1.0979  0.2030  0.1576
 7599SOL    HW134433   3.166   1.529  14.934  0.8286 -1.9262 -0.2016
 7599SOL    HW234434   3.015   1.508  14.910 -0.3717  0.5482 -1.4408
 7600SOL     OW34435   0.135   1.760   3.392 -0.1508  0.2637  0.2779
 7600SOL    HW134436   0.056   1.710   3.375  0.0676 -0.5057  1.5696
 7600SOL    HW234437   0.119   1.799   3.478  0.0125  1.1116 -0.0716
 7601SOL     OW34438   4.489   0.084   6.181  0.5603  0.2596 -0.4964
 7601SOL    HW134439   4.489   0.146   6.108  0.2340 -0.2933 -0.9608
 7601SOL    HW234440   4.536   0.012   6.139  2.1830  1.2438 -0.3694
 7602SOL     OW34441   4.618   2.028   2.387  0.2491  0.0209  0.0385
 7602SOL    HW134442   4.650   2.088   2.319 -0.9059  0.4163 -0.1540
 7602SOL    HW234443   4.540   1.995   2.344 -0.3357  0.7797  0.5218
 7603SOL     OW34444   0.556   1.918   0.387 -0.5245  0.3096 -0.5111
 7603SOL    HW134445   0.463   1.907   0.404 -0.6449 -1.0810 -2.0250
 7603SOL    HW234446   0.580   1.869   0.465 -0.5074  1.0087 -0.0753
 7604SOL     OW34447   1.097   1.133  14.850 -0.0379  0.0053  0.4081
 7604SOL    HW134448   1.029   1.200  14.837  0.0731 -0.2723 -1.6689
 7604SOL    HW234449   1.108   1.144  14.944 -3.1499 -1.4505  0.9443
 7605SOL     OW34450   4.369   3.795   4.648  0.4811  0.7134  0.4770
 7605SOL    HW134451   4.356   3.714   4.599  1.4903  0.9280 -0.1462
 7605SOL    HW234452   4.308   3.788   4.721  0.2938 -0.0747  0.2461
 7606SOL     OW34453   0.671   0.531   4.267  0.1999 -0.1147  0.2610
 7606SOL    HW134454   0.675   0.616   4.223  0.7954 -1.8539 -3.0361
 7606SOL    HW234455   0.728   0.542   4.342  1.4380 -1.6257 -0.4568
 7607SOL     OW34456   2.130   1.440  15.134  0.1156  0.7774 -0.4127
 7607SOL    HW134457   2.111   1.446  15.040 -2.0312 -0.2631 -0.0409
 7607SOL    HW234458   2.211   1.490  15.127  1.0573 -0.3198  2.6310
 7608SOL     OW34459   2.361   2.428   6.974  0.6921  0.0722  0.7587
 7608SOL    HW134460   2.269   2.453   6.966  0.2046 -2.5321 -1.7039
 7608SOL    HW234461   2.356   2.335   6.953  3.0216  0.2731 -0.7407
 7609SOL     OW34462   1.003   0.255  11.898 -0.1298 -0.7790 -0.4639
 7609SOL    HW134463   1.067   0.186  11.914  0.9328  0.0026 -1.3701
 7609SOL    HW234464   1.041   0.319  11.957 -1.7214 -0.8221  0.6044
 7610SOL     OW34465   3.603   1.128   6.998 -0.4673 -0.5198 -0.1920
 7610SOL    HW134466   3.609   1.144   6.904  1.5614  1.9187  0.3766
 7610SOL    HW234467   3.523   1.075   7.004 -1.1480  0.5560  0.2942
 7611SOL     OW34468   4.475   2.272   3.458 -0.1679  0.4910  0.0571
 7611SOL    HW134469   4.465   2.350   3.403 -0.6115 -1.1198 -2.1742
 7611SOL    HW234470   4.455   2.308   3.544 -0.0315  0.1439  0.2343
 7612SOL     OW34471   3.633   0.954   1.491 -0.0175  0.4949  0.2743
 7612SOL    HW134472   3.717   0.938   1.449 -0.2686  1.4002 -0.5579
 7612SOL    HW234473   3.612   0.867   1.526  0.8098  0.6374  1.1402
 7613SOL     OW34474   3.510   4.441   2.931 -0.2383 -0.2639  0.4167
 7613SOL    HW134475   3.427   4.476   2.962 -0.4646 -1.1948  0.8636
 7613SOL    HW234476   3.574   4.453   3.002 -0.9191 -0.2673  1.0346
 7614SOL     OW34477   4.514   3.107   6.786 -0.1002 -0.1228 -0.1772
 7614SOL    HW134478   4.588   3.062   6.826  0.9785  1.2506 -0.5993
 7614SOL    HW234479   4.522   3.187   6.839  0.7127  1.0193 -2.0372
 7615SOL     OW34480   0.713   0.980   2.291  0.4291  0.3948  0.0480
 7615SOL    HW134481   0.681   0.933   2.214  0.4431 -0.5495  0.6229
 7615SOL    HW234482   0.646   1.044   2.316  0.7384  1.5133 -1.9577
 7616SOL     OW34483   1.553   4.254   4.207  0.7140  0.0518  0.3162
 7616SOL    HW134484   1.492   4.200   4.156 -0.0382 -0.5376  1.8385
 7616SOL    HW234485   1.529   4.344   4.185  0.3385 -0.2025 -0.3445
 7617SOL     OW34486   1.676   2.814   8.360 -0.2690  0.1079  0.2254
 7617SOL    HW134487   1.651   2.747   8.295  0.0160  0.1989  0.0229
 7617SOL    HW234488   1.670   2.885   8.296 -0.6153 -0.4244 -0.3331
 7618SOL     OW34489   1.692   2.660  15.483  0.3085 -0.4430  0.2718
 7618SOL    HW134490   1.671   2.721  15.413 -0.8739 -0.2354  0.7936
 7618SOL    HW234491   1.611   2.609  15.478 -1.1101  1.7304  1.0376
 7619SOL     OW34492   4.043   1.553  16.617  0.3279  0.0924  0.1807
 7619SOL    HW134493   4.102   1.563  16.543  1.7719  0.3773  1.3858
 7619SOL    HW234494   4.016   1.461  16.609  3.4834 -0.7565 -0.7372
 7620SOL     OW34495   1.735   3.800  13.668 -0.1142 -0.4705  0.1033
 7620SOL    HW134496   1.705   3.884  13.634  0.7227  1.0347  3.1155
 7620SOL    HW234497   1.667   3.744  13.631 -1.5603  1.0099  0.5043
 7621SOL     OW34498   3.959   1.758   6.345 -0.5730 -0.0067  0.6244
 7621SOL    HW134499   4.040   1.709   6.360 -0.6069 -0.6127 -1.1483
 7621SOL    HW234500   3.960   1.843   6.388  0.4656  0.5493 -0.4670
 7622SOL     OW34501   1.680   3.094   3.070  0.1146 -0.7195  0.6748
 7622SOL    HW134502   1.759   3.124   3.025  0.5557 -0.8666  1.3536
 7622SOL    HW234503   1.629   3.175   3.076  1.2304  0.0441  0.0055
 7623SOL     OW34504   0.134   2.943   7.961  0.5617  0.4612  0.7615
 7623SOL    HW134505   0.222   2.979   7.950 -0.0009  1.5260 -0.3341
 7623SOL    HW234506   0.148   2.859   8.004  1.0358  0.0122 -0.2897
 7624SOL     OW34507   4.426   3.093   8.031  0.0209  0.1630  0.2059
 7624SOL    HW134508   4.441   3.151   8.106  1.7294  0.1203 -0.1163
 7624SOL    HW234509   4.492   3.026   8.048 -0.3656 -0.5378 -1.1298
 7625SOL     OW34510   2.190   3.822  11.754  0.2060 -0.8072 -0.2021
 7625SOL    HW134511   2.145   3.900  11.785  1.3306 -0.3082  0.1565
 7625SOL    HW234512   2.262   3.862  11.705 -0.9417 -1.1795 -2.2089
 7626SOL     OW34513   0.945   4.681   7.858  0.0133  0.2169 -0.2754
 7626SOL    HW134514   0.867   4.716   7.900 -1.3861 -0.8076 -2.0149
 7626SOL    HW234515   0.910   4.605   7.810 -0.6717  0.1267  0.3697
 7627SOL     OW34516   1.313   3.722   7.191 -0.7269  0.2081  0.2810
 7627SOL    HW134517   1.358   3.754   7.113  0.3920 -1.2450  0.3461
 7627SOL    HW234518   1.313   3.628   7.176  0.0097  0.2044  0.3309
 7628SOL     OW34519   4.007   1.609  10.629  0.6098  0.1050  0.0745
 7628SOL    HW134520   4.002   1.703  10.615 -0.7141 -0.2521 -1.8606
 7628SOL    HW234521   3.928   1.581  10.581  2.4436 -1.7501 -1.9053
 7629SOL     OW34522   0.805   2.420   8.324 -0.2950 -0.1838  0.7206
 7629SOL    HW134523   0.755   2.373   8.391  0.3545  0.7269  1.8553
 7629SOL    HW234524   0.829   2.499   8.373  0.4441  0.6821 -1.0608
 7630SOL     OW34525   4.376   4.056   9.400 -0.5295  0.3152 -0.0147
 7630SOL    HW134526   4.420   3.975   9.372 -1.0699 -0.0829  0.2935
 7630SOL    HW234527   4.298   4.059   9.344 -1.3182  0.4380  1.1063
 7631SOL     OW34528   2.327   1.153  17.328  0.1339  0.4473  0.1790
 7631SOL    HW134529   2.293   1.243  17.335 -2.4701 -0.5434  0.4000
 7631SOL    HW234530   2.247   1.103  17.310  1.4706 -0.9784 -1.7263
 7632SOL     OW34531   1.183   2.756   2.918  0.6992 -0.3524  0.4530
 7632SOL    HW134532   1.144   2.774   2.832  1.9280 -4.4254 -0.9473
 7632SOL    HW234533   1.190   2.845   2.954  1.5868 -0.3579  0.2931
 7633SOL     OW34534   1.832   4.659   7.986 -0.3262 -0.7193  0.4004
 7633SOL    HW134535   1.759   4.620   7.939  1.0588 -2.5100 -0.2319
 7633SOL    HW234536   1.897   4.592   7.967 -0.1698 -0.6459  0.6641
 7634SOL     OW34537   4.360   1.827   3.316  0.1721  0.3685 -0.5012
 7634SOL    HW134538   4.282   1.798   3.362  0.5966 -0.5247 -0.3436
 7634SOL    HW234539   4.390   1.894   3.377  1.9171 -1.9323  1.1556
 7635SOL     OW34540   2.015   1.070   5.908 -0.5496 -0.0850  0.0303
 7635SOL    HW134541   2.013   0.974   5.918 -0.6177 -0.1289 -0.3992
 7635SOL    HW234542   1.927   1.096   5.935 -0.5130 -0.0086  0.0753
 7636SOL     OW34543   3.958   2.603   4.123 -0.1273  0.0860 -0.0972
 7636SOL    HW134544   4.032   2.575   4.178  0.5004  3.0427  0.5958
 7636SOL    HW234545   3.901   2.527   4.132 -1.7133  1.3855  0.6968
 7637SOL     OW34546   0.661   0.796   9.578  0.0271 -0.4761  0.3201
 7637SOL    HW134547   0.688   0.710   9.547  1.5205  0.3530 -0.7004
 7637SOL    HW234548   0.606   0.821   9.504  0.0998 -0.1471  0.3770
 7638SOL     OW34549   0.140   2.325  11.459 -0.7700 -0.5312 -0.1230
 7638SOL    HW134550   0.081   2.400  11.458  0.3931  0.3977  0.8150
 7638SOL    HW234551   0.114   2.275  11.382  0.5472  2.1730 -2.3105
 7639SOL     OW34552   3.635   0.711   7.858  0.2109  0.4910  0.0569
 7639SOL    HW134553   3.608   0.731   7.768 -1.8421  0.8508  0.7708
 7639SOL    HW234554   3.705   0.777   7.860  0.4451  0.0711  4.1959
 7640SOL     OW34555   3.271   3.000   4.819 -0.0144 -0.3624  0.3981
 7640SOL    HW134556   3.222   3.042   4.748  2.9796  1.7296 -0.4121
 7640SOL    HW234557   3.358   3.019   4.783  0.0523 -0.3840  0.5475
 7641SOL     OW34558   4.696   4.423   0.993 -0.1567 -0.0228 -0.3172
 7641SOL    HW134559   4.601   4.431   0.998  0.0224 -0.1213  3.2027
 7641SOL    HW234560   4.711   4.514   0.967 -1.9322  0.1516 -0.7225
 7642SOL     OW34561   1.018   2.853   5.851 -0.2123  0.2375  0.5434
 7642SOL    HW134562   1.058   2.938   5.870 -1.6402  1.1340 -0.5294
 7642SOL    HW234563   1.056   2.802   5.923 -0.4978  1.6607  1.7108
 7643SOL     OW34564   1.772   2.611   8.530 -0.5485 -0.7762  0.2225
 7643SOL    HW134565   1.753   2.683   8.470  0.0745 -0.1746  0.7553
 7643SOL    HW234566   1.803   2.660   8.606 -0.6432 -1.4461  0.6940
 7644SOL     OW34567   3.273   2.276   5.839 -0.3073  0.3880 -0.3063
 7644SOL    HW134568   3.210   2.340   5.873 -0.0970  0.9952 -1.0631
 7644SOL    HW234569   3.353   2.307   5.882  1.6383 -2.8254 -1.6511
 7645SOL     OW34570   0.359   2.674   6.385  0.4286  0.6968 -0.7308
 7645SOL    HW134571   0.270   2.654   6.414  0.8635  2.2860  1.7807
 7645SOL    HW234572   0.395   2.721   6.461  1.2858 -0.0653 -0.6698
 7646SOL     OW34573   2.976   0.876  10.847 -0.2498 -0.3430  0.3824
 7646SOL    HW134574   2.903   0.907  10.901 -0.2661  0.0066  0.1558
 7646SOL    HW234575   3.054   0.883  10.902  0.2592  0.2500 -0.4299
 7647SOL     OW34576   2.902   1.469   3.956 -0.4160  0.2331 -0.8066
 7647SOL    HW134577   2.948   1.417   3.890 -1.6006 -2.4255  0.4848
 7647SOL    HW234578   2.977   1.501   4.005  0.3724 -2.3293 -0.3632
 7648SOL     OW34579   3.256   2.579   5.540 -0.4687  0.1177  0.3244
 7648SOL    HW134580   3.271   2.647   5.474  0.6500  1.1443  1.6266
 7648SOL    HW234581   3.162   2.564   5.543 -0.7693  1.4718 -2.3715
 7649SOL     OW34582   2.480   3.321   4.911  0.3003  0.0322  0.0202
 7649SOL    HW134583   2.535   3.399   4.919  2.1443 -1.5193  2.5361
 7649SOL    HW234584   2.435   3.343   4.830  2.0901  1.9752 -0.4348
 7650SOL     OW34585   2.608   1.896   8.598 -0.4141  0.2212 -0.0026
 7650SOL    HW134586   2.597   1.856   8.512  2.1849 -2.5405  0.9598
 7650SOL    HW234587   2.518   1.900   8.631  0.3164  0.0624  1.9784
 7651SOL     OW34588   2.051   4.670  10.654 -0.0062  0.3450 -0.4649
 7651SOL    HW134589   1.982   4.735  10.642 -0.1271  0.4573  0.8301
 7651SOL    HW234590   2.042   4.618  10.575  0.3370 -0.7233  0.1890
 7652SOL     OW34591   3.022   3.484  12.001 -0.2250  0.1586  0.2569
 7652SOL    HW134592   3.063   3.504  12.085 -2.4371  0.5458  1.2306
 7652SOL    HW234593   3.051   3.394  11.983 -1.0871 -0.4227  1.7897
 7653SOL     OW34594   3.310   4.614  16.613  0.0993 -0.1756  0.2862
 7653SOL    HW134595   3.359   4.560  16.552  0.4765 -0.0215  0.4453
 7653SOL    HW234596   3.247   4.662  16.559  1.8125  2.6735  0.8033
 7654SOL     OW34597   2.541   0.726   2.196 -0.4494  1.0227  0.3467
 7654SOL    HW134598   2.631   0.750   2.177 -0.5385  0.8739 -0.2644
 7654SOL    HW234599   2.489   0.791   2.148 -1.0900 -0.8571 -1.5189
 7655SOL     OW34600   0.464   0.538   3.467 -0.3602 -0.8613  0.6813
 7655SOL    HW134601   0.372   0.510   3.467 -1.0438  1.3885 -2.0487
 7655SOL    HW234602   0.504   0.452   3.457  1.5359  0.1551 -0.3607
 7656SOL     OW34603   2.151   4.571   7.272 -0.3517  0.4257 -0.4853
 7656SOL    HW134604   2.070   4.606   7.235 -0.9489 -0.0779  0.3650
 7656SOL    HW234605   2.128   4.556   7.363 -0.2587 -0.5680 -0.6272
 7657SOL     OW34606   0.923   0.431   0.365 -0.0966 -0.6090  0.1843
 7657SOL    HW134607   0.954   0.361   0.423  1.9377  0.1813  0.0682
 7657SOL    HW234608   0.859   0.389   0.308 -1.0843 -0.6005  1.2888
 7658SOL     OW34609   1.083   1.302   6.927  0.3098  0.4691 -0.0080
 7658SOL    HW134610   1.085   1.359   7.004  0.8418 -0.9845  1.0622
 7658SOL    HW234611   1.099   1.363   6.855  2.4539 -0.8420 -0.6554
 7659SOL     OW34612   2.622   3.829   3.018  0.1442 -0.1151  0.2663
 7659SOL    HW134613   2.625   3.756   2.956 -1.4981 -0.8129  1.0211
 7659SOL    HW234614   2.706   3.871   2.996 -1.3361  2.2145 -0.9044
 7660SOL     OW34615   2.689   0.265   3.368 -0.1860  0.2560  0.3377
 7660SOL    HW134616   2.621   0.332   3.371  0.2138  0.6808 -0.1962
 7660SOL    HW234617   2.674   0.230   3.456 -1.1220  1.1491  0.5374
 7661SOL     OW34618   3.335   4.509  13.537 -0.2470  0.4921  0.5876
 7661SOL    HW134619   3.289   4.432  13.504 -0.5709  1.5953 -1.5018
 7661SOL    HW234620   3.262   4.565  13.563  0.1202  0.7818  1.0086
 7662SOL     OW34621   4.222   4.552   5.302  0.5825 -0.8896 -0.6927
 7662SOL    HW134622   4.213   4.521   5.212 -0.8597  0.9589 -1.1968
 7662SOL    HW234623   4.138   4.515   5.330 -0.9439  1.5047 -2.0773
 7663SOL     OW34624   1.022   0.912   4.239 -0.2627 -0.2736 -0.5405
 7663SOL    HW134625   1.084   0.876   4.303 -0.1323 -1.7014 -1.4440
 7663SOL    HW234626   0.982   0.983   4.288 -0.0892 -0.2711 -0.4006
 7664SOL     OW34627   4.588   2.530  11.796 -0.0492 -0.1243 -0.0181
 7664SOL    HW134628   4.519   2.465  11.785 -1.1707  0.7951  1.4809
 7664SOL    HW234629   4.644   2.479  11.855  0.2478 -0.2181 -0.3836
 7665SOL     OW34630   0.361   2.099   6.883  0.2390  0.0687  0.2872
 7665SOL    HW134631   0.378   2.192   6.895  1.9810 -0.0179 -1.5231
 7665SOL    HW234632   0.445   2.061   6.911  0.3976 -0.3135 -0.7151
 7666SOL     OW34633   4.038   2.021   6.970 -0.2358 -0.3958 -0.9248
 7666SOL    HW134634   4.118   2.070   6.991 -1.1437  0.8311 -0.3768
 7666SOL    HW234635   3.977   2.078   7.017  1.1084  0.1134  0.2083
 7667SOL     OW34636   4.651   4.645  14.917  0.1891 -0.1012  0.1263
 7667SOL    HW134637   4.696   4.664  14.999 -1.8419 -2.1090  1.7133
 7667SOL    HW234638   4.563   4.672  14.943  0.1806  0.1076 -0.1270
 7668SOL     OW34639   3.092   2.949   6.034  0.6305  0.8886 -0.4527
 7668SOL    HW134640   3.050   3.033   6.052  0.0713  0.7648 -1.1903
 7668SOL    HW234641   3.181   2.983   6.033  1.4038 -1.1093  0.1556
 7669SOL     OW34642   1.199   0.069  11.961  0.9760 -0.2362 -0.3625
 7669SOL    HW134643   1.151   4.733  11.998  1.0724  0.1634  0.5833
 7669SOL    HW234644   1.279   0.055  12.011  0.1918  2.1640  1.6024
 7670SOL     OW34645   0.973   0.550   9.696 -0.3390  0.4327 -0.2567
 7670SOL    HW134646   0.882   0.576   9.713  0.3480  1.5230  1.8032
 7670SOL    HW234647   0.976   0.455   9.706 -2.5018  0.6504  2.5917
 7671SOL     OW34648   0.998   3.445   1.264  0.3383  0.7529  0.1490
 7671SOL    HW134649   0.918   3.467   1.215  0.1982  4.2163  1.9221
 7671SOL    HW234650   1.057   3.441   1.189  1.4265  1.4186  0.9712
 7672SOL     OW34651   0.835   1.527   4.191 -0.9738  0.5544 -0.5941
 7672SOL    HW134652   0.789   1.592   4.137  0.8431  1.3992 -1.1198
 7672SOL    HW234653   0.803   1.553   4.277  1.0860 -0.8649  0.5832
 7673SOL     OW34654   1.926   0.400   5.090 -0.6471  0.0352  0.1636
 7673SOL    HW134655   1.918   0.495   5.091  0.3232  0.1139  0.2328
 7673SOL    HW234656   1.837   0.366   5.078 -0.3254 -0.0577 -1.9133
 7674SOL     OW34657   0.366   4.356   5.217  0.1609  0.1125 -0.1370
 7674SOL    HW134658   0.280   4.370   5.256  0.6167 -0.6998  1.1602
 7674SOL    HW234659   0.370   4.394   5.129 -0.0343  0.8129  0.1634
 7675SOL     OW34660   3.450   0.454   3.404  0.1644  0.4274  0.3515
 7675SOL    HW134661   3.509   0.396   3.355  0.2998  1.0141 -0.1853
 7675SOL    HW234662   3.390   0.400   3.455  1.9441 -1.6268  0.2663
 7676SOL     OW34663   0.507   0.255   7.797  0.1261  0.2349 -0.1886
 7676SOL    HW134664   0.599   0.247   7.772  0.7194 -1.4639  2.4886
 7676SOL    HW234665   0.463   0.231   7.715 -0.1343  1.7578 -0.4919
 7677SOL     OW34666   0.163   3.473   0.961 -0.2508 -0.3476  0.2927
 7677SOL    HW134667   0.135   3.502   0.875 -0.3709  0.5929  0.6453
 7677SOL    HW234668   0.076   3.463   0.999 -0.8513  0.0286 -0.9938
 7678SOL     OW34669   4.606   0.274   7.488  0.0399 -0.3283 -0.0684
 7678SOL    HW134670   4.550   0.260   7.412 -2.1446  0.8723  1.2841
 7678SOL    HW234671   4.691   0.263   7.446  0.3871 -1.5966  0.9439
 7679SOL     OW34672   3.022   1.010   1.895  0.0206  0.0107 -0.1549
 7679SOL    HW134673   3.070   1.092   1.892  0.3764 -0.2946 -3.2101
 7679SOL    HW234674   3.051   0.963   1.816  0.0261  0.3388 -0.3463
 7680SOL     OW34675   2.169   2.032   7.148 -0.2751  0.3768  0.4653
 7680SOL    HW134676   2.196   2.089   7.219  0.9251  0.3844  0.0034
 7680SOL    HW234677   2.216   2.078   7.078  0.4333 -2.1579 -0.7280
 7681SOL     OW34678   4.308   3.490   2.509 -0.2228  0.1905  0.1912
 7681SOL    HW134679   4.356   3.527   2.435 -1.9710  0.3900 -0.8509
 7681SOL    HW234680   4.364   3.514   2.583  0.2872 -1.4857  0.3611
 7682SOL     OW34681   1.137   1.048   5.145  0.3953 -0.5013  0.1570
 7682SOL    HW134682   1.044   1.043   5.167  0.6339  0.3594  1.4135
 7682SOL    HW234683   1.175   1.044   5.233 -1.4080  0.0102  0.9588
 7683SOL     OW34684   4.613   1.969  11.413 -0.6053 -0.2051  0.5206
 7683SOL    HW134685   4.639   1.886  11.373 -1.6537 -0.4472  0.3528
 7683SOL    HW234686   4.527   1.977  11.372 -0.7987 -0.0346  0.9638
 7684SOL     OW34687   1.318   4.042   6.437 -0.5914 -0.2544  0.1958
 7684SOL    HW134688   1.285   4.106   6.374  1.7681 -0.1764 -0.9715
 7684SOL    HW234689   1.413   4.042   6.426 -0.9063  1.6656 -2.3794
 7685SOL     OW34690   0.730   3.861   3.123  0.3211 -0.2297  0.2061
 7685SOL    HW134691   0.646   3.891   3.157 -0.9465 -1.4274 -1.8298
 7685SOL    HW234692   0.797   3.864   3.191 -0.5550  1.8429  0.9578
 7686SOL     OW34693   2.501   3.868   8.268  0.5822  0.5206 -0.3486
 7686SOL    HW134694   2.422   3.921   8.273 -0.0695 -0.9114  3.9041
 7686SOL    HW234695   2.534   3.887   8.356 -1.9472 -1.3621  0.9831
 7687SOL     OW34696   0.620   2.871   2.357 -0.2973  0.7858  0.1068
 7687SOL    HW134697   0.696   2.929   2.365  0.0914  0.3350 -0.3299
 7687SOL    HW234698   0.658   2.791   2.320 -1.0003  0.8892 -0.8190
 7688SOL     OW34699   1.465   1.697   0.687 -0.0891 -0.5184 -0.2610
 7688SOL    HW134700   1.523   1.627   0.717  2.4523  1.1590 -1.2898
 7688SOL    HW234701   1.524   1.772   0.688 -0.6241 -0.0950 -0.4872
 7689SOL     OW34702   3.589   3.197   2.174  0.0415 -0.0956  0.1413
 7689SOL    HW134703   3.536   3.244   2.110  0.8024  0.2597 -0.2321
 7689SOL    HW234704   3.516   3.148   2.211  1.0442 -2.4260 -0.9395
 7690SOL     OW34705   0.223   4.611   4.153 -0.0697  0.6086  0.1951
 7690SOL    HW134706   0.262   4.539   4.203 -0.6146  0.6372  0.6585
 7690SOL    HW234707   0.290   4.675   4.177 -0.3986  1.1139 -0.2294
 7691SOL     OW34708   3.794   3.389   2.199  0.1846  0.5198 -0.4952
 7691SOL    HW134709   3.715   3.335   2.203  0.6061  0.1370  2.1243
 7691SOL    HW234710   3.863   3.323   2.196  1.4102  1.7495  0.9048
 7692SOL     OW34711   2.445   2.403   7.254  0.6667 -0.2568 -0.2682
 7692SOL    HW134712   2.422   2.368   7.168  0.4319  0.8949 -0.6698
 7692SOL    HW234713   2.509   2.468   7.224  0.4553 -0.3381 -0.8986
 7693SOL     OW34714   3.069   4.083  15.267 -0.1752 -0.5848 -0.5803
 7693SOL    HW134715   3.121   4.048  15.340  2.3763  1.5925 -1.3606
 7693SOL    HW234716   3.122   4.159  15.246  0.2332 -1.3443 -2.2586
 7694SOL     OW34717   2.765   0.917   1.778  0.7334  0.2544  0.1262
 7694SOL    HW134718   2.854   0.887   1.797  1.6800  2.5854 -0.6527
 7694SOL    HW234719   2.776   1.006   1.746 -0.5032  0.0861 -0.7542
 7695SOL     OW34720   4.257   3.318   7.170  0.1464 -0.1506  0.1492
 7695SOL    HW134721   4.191   3.337   7.103  1.1795  0.0955 -0.8061
 7695SOL    HW234722   4.211   3.354   7.246 -0.5781  0.5026 -0.6072
 7696SOL     OW34723   1.346   3.798   2.488  0.0189 -0.0626  0.1727
 7696SOL    HW134724   1.348   3.889   2.518  0.1650  0.4145 -1.2722
 7696SOL    HW234725   1.350   3.748   2.570 -1.4901 -1.3487 -0.5392
 7697SOL     OW34726   2.316   4.380   5.825  0.0011  0.5062  0.5139
 7697SOL    HW134727   2.370   4.364   5.747 -2.1245 -1.2312 -0.6047
 7697SOL    HW234728   2.258   4.449   5.792 -0.7071 -0.6663 -0.7116
 7698SOL     OW34729   4.699   2.458  12.743 -0.0518 -0.2430  0.2895
 7698SOL    HW134730   0.006   2.421  12.666  0.7542  1.0036  0.1521
 7698SOL    HW234731   4.624   2.492  12.694 -0.3112 -0.7878  0.2979
 7699SOL     OW34732   4.287   3.651   4.014  0.1512 -0.6447  0.4608
 7699SOL    HW134733   4.361   3.604   3.977  0.9472  0.4560  0.6509
 7699SOL    HW234734   4.322   3.740   4.013  0.2486 -0.6670  1.3508
 7700SOL     OW34735   1.290   0.658   3.336 -0.3500 -0.0128 -0.1657
 7700SOL    HW134736   1.220   0.593   3.339  0.3330 -0.7488 -0.2792
 7700SOL    HW234737   1.241   0.733   3.301  0.0573  1.8373  3.1901
 7701SOL     OW34738   0.031   3.970   1.952  0.2446  0.2929 -0.1156
 7701SOL    HW134739   0.067   3.900   2.007  0.5775  1.4359  1.1141
 7701SOL    HW234740   0.103   4.029   1.972  0.4176 -0.2214  0.7693
 7702SOL     OW34741   0.807   2.112   4.682 -0.3092  0.1841 -0.3800
 7702SOL    HW134742   0.886   2.090   4.632 -0.4965 -0.4890 -0.3747
 7702SOL    HW234743   0.847   2.137   4.765 -0.7032 -2.1504  0.4950
 7703SOL     OW34744   0.710   2.092   6.132  0.0298 -0.4000  0.2050
 7703SOL    HW134745   0.732   2.184   6.151 -1.7697 -0.0822  0.7003
 7703SOL    HW234746   0.783   2.065   6.076 -0.5851 -2.2160  0.2925
 7704SOL     OW34747   1.662   3.480   6.417 -0.0222  0.1438 -0.0487
 7704SOL    HW134748   1.607   3.435   6.481  1.4458 -0.5788  0.7240
 7704SOL    HW234749   1.707   3.539   6.477  1.8873 -0.8628 -0.4898
 7705SOL     OW34750   1.379   4.365  11.985 -0.0792  0.0172  0.0985
 7705SOL    HW134751   1.447   4.401  12.042  0.2079 -0.6561  0.1799
 7705SOL    HW234752   1.430   4.326  11.914  2.2363 -1.1438  2.4154
 7706SOL     OW34753   2.548   3.595   5.753 -0.1206 -0.0582  0.0137
 7706SOL    HW134754   2.502   3.520   5.715 -0.6877  0.6201 -0.6555
 7706SOL    HW234755   2.581   3.638   5.674 -2.7846  0.1791 -0.9753
 7707SOL     OW34756   0.953   1.827   1.853 -0.1818  0.4879  0.7320
 7707SOL    HW134757   1.034   1.864   1.887  0.9372 -0.5917 -0.7697
 7707SOL    HW234758   0.900   1.907   1.851 -0.8647  0.0242  0.1463
 7708SOL     OW34759   0.403   0.620   1.605 -0.9636 -0.0579  0.0165
 7708SOL    HW134760   0.400   0.525   1.614  2.0218  0.0566  2.1970
 7708SOL    HW234761   0.317   0.652   1.578  0.4639  2.3816 -1.6588
 7709SOL     OW34762   2.170   3.331   8.286  0.7717 -0.0854 -0.3058
 7709SOL    HW134763   2.123   3.411   8.263 -0.0685 -0.6018 -0.3434
 7709SOL    HW234764   2.248   3.378   8.317  1.1356  0.2407 -1.6782
 7710SOL     OW34765   4.159   0.450  16.308 -0.0087 -0.2197 -0.0038
 7710SOL    HW134766   4.082   0.474  16.359 -0.8717 -1.3650 -0.7839
 7710SOL    HW234767   4.194   0.375  16.357  2.4121  0.4070 -0.7365
 7711SOL     OW34768   0.548   0.826   1.485 -0.1543 -0.4199  0.3607
 7711SOL    HW134769   0.517   0.900   1.537 -1.6424  1.7654 -3.6161
 7711SOL    HW234770   0.499   0.753   1.523 -0.5391 -0.1956  0.3039
 7712SOL     OW34771   0.544   1.192   6.481  0.1258  0.0034 -0.1196
 7712SOL    HW134772   0.578   1.280   6.466  1.4472 -0.5288 -0.2269
 7712SOL    HW234773   0.588   1.163   6.561  2.0468  0.0633 -1.1798
 7713SOL     OW34774   2.264   4.116   2.507 -0.3392  0.3112 -0.6547
 7713SOL    HW134775   2.281   4.192   2.451  1.4119 -0.3165 -0.9618
 7713SOL    HW234776   2.174   4.141   2.530 -1.3691 -2.5395 -1.6119
 7714SOL     OW34777   0.525   0.638   7.581 -0.3767  0.5038  0.9449
 7714SOL    HW134778   0.436   0.630   7.615 -0.4109 -1.4092  0.3691
 7714SOL    HW234779   0.565   0.689   7.651 -3.3454  0.7303  2.4513
 7715SOL     OW34780   2.911   3.410   6.687 -0.3704  0.3489 -0.0966
 7715SOL    HW134781   2.850   3.372   6.624 -0.8659  1.5155 -0.3216
 7715SOL    HW234782   2.931   3.333   6.740  2.2888  0.2497 -1.2649
 7716SOL     OW34783   3.298   4.465  15.029  0.2612 -0.0857  0.0154
 7716SOL    HW134784   3.278   4.372  15.021  1.2508 -0.1362 -2.0302
 7716SOL    HW234785   3.354   4.477  14.952 -0.8802  1.8758 -0.5278
 7717SOL     OW34786   3.825   3.594   7.970  0.1963 -0.0778  0.2415
 7717SOL    HW134787   3.833   3.690   7.975 -1.0257  0.0121  0.5360
 7717SOL    HW234788   3.765   3.563   8.037 -0.1213 -0.0307 -0.0184
 7718SOL     OW34789   2.770   3.823   4.613 -0.3508  0.1073  0.1770
 7718SOL    HW134790   2.842   3.866   4.566  1.2559 -0.2056  2.3657
 7718SOL    HW234791   2.757   3.745   4.560  1.5695  0.6370 -1.0949
 7719SOL     OW34792   1.877   0.081   8.213  0.2834 -0.0387 -0.4893
 7719SOL    HW134793   1.851   0.022   8.143  0.1320 -0.7790  0.1911
 7719SOL    HW234794   1.879   0.164   8.165 -0.5196  0.9632  1.1964
 7720SOL     OW34795   2.354   0.255  15.583 -0.0460  0.1406  0.2950
 7720SOL    HW134796   2.340   0.341  15.544  1.8066  0.2380 -0.1391
 7720SOL    HW234797   2.390   0.274  15.669  1.2893 -0.1903 -0.1992
 7721SOL     OW34798   0.819   0.193   2.376  0.2339 -0.4032  0.3895
 7721SOL    HW134799   0.823   0.140   2.296 -1.0723 -0.4769  0.3811
 7721SOL    HW234800   0.731   0.174   2.407  0.8464  0.8026  2.9031
 7722SOL     OW34801   3.794   3.091  11.934 -0.1260 -0.4587 -0.1524
 7722SOL    HW134802   3.752   3.072  12.018 -0.6649  0.2048 -0.2636
 7722SOL    HW234803   3.767   3.013  11.886  0.6522 -1.6745  1.3961
 7723SOL     OW34804   4.006   1.335   1.748  0.7193 -0.4571  0.4059
 7723SOL    HW134805   4.006   1.294   1.662  0.8365  2.8531 -1.1834
 7723SOL    HW234806   3.971   1.267   1.805 -1.1795  0.1567 -0.0530
 7724SOL     OW34807   3.200   2.488  10.953 -0.0291  0.4286  0.5698
 7724SOL    HW134808   3.269   2.437  10.995 -0.1152 -0.4863 -0.4097
 7724SOL    HW234809   3.130   2.435  10.990  1.8127 -1.6397  1.0550
 7725SOL     OW34810   4.116   3.400   4.012  0.0315  0.3822 -0.0283
 7725SOL    HW134811   4.207   3.394   4.040 -0.5594 -0.1177  1.7475
 7725SOL    HW234812   4.078   3.467   4.069 -0.2232 -1.0243  1.4564
 7726SOL     OW34813   0.903   3.215   2.232  0.3092  0.0937 -0.7492
 7726SOL    HW134814   0.888   3.292   2.287  0.3729  0.0443 -0.6624
 7726SOL    HW234815   0.847   3.240   2.159 -1.3480  1.4273  0.9812
 7727SOL     OW34816   3.200   4.116   3.427  0.2451 -0.1810  0.4726
 7727SOL    HW134817   3.198   4.027   3.392  2.1295  0.4499 -1.2069
 7727SOL    HW234818   3.108   4.141   3.416  0.5464  0.1782 -1.1694
 7728SOL     OW34819   0.843   4.703   4.742  0.7694 -0.8388  0.0741
 7728SOL    HW134820   0.922   4.661   4.709  0.7546  0.1178 -1.1695
 7728SOL    HW234821   0.836   0.025   4.668  1.5893 -1.7994 -0.7864
 7729SOL     OW34822   0.376   3.186   3.123  0.3716 -0.0417 -0.1504
 7729SOL    HW134823   0.281   3.183   3.112  0.1291  0.0340  1.9110
 7729SOL    HW234824   0.395   3.094   3.105  1.7087  0.2675 -0.3003
 7730SOL     OW34825   4.301   0.552   0.436  0.2632 -0.7701  0.4389
 7730SOL    HW134826   4.385   0.550   0.389 -0.3237 -3.1178 -0.5188
 7730SOL    HW234827   4.261   0.608   0.370 -0.0439 -1.1354  0.3128
 7731SOL     OW34828   3.741   0.792   6.921 -0.1706 -0.0525  0.6890
 7731SOL    HW134829   3.667   0.737   6.945 -0.1398 -0.2425  0.3501
 7731SOL    HW234830   3.714   0.840   6.842  2.0047  0.9846  0.5753
 7732SOL     OW34831   3.935   1.453   2.560 -0.2279  0.1208 -0.7615
 7732SOL    HW134832   3.959   1.545   2.561 -0.0584  0.0590  1.2483
 7732SOL    HW234833   3.951   1.433   2.653 -0.6041  2.2726 -0.2521
 7733SOL     OW34834   4.619   1.724   5.437 -0.0207  0.2112  0.1744
 7733SOL    HW134835   4.614   1.750   5.529 -1.3902 -0.2384  0.2376
 7733SOL    HW234836   4.528   1.726   5.407  0.0406 -1.5825 -0.1377
 7734SOL     OW34837   1.786   4.729   2.563 -0.4711  0.0694 -0.1644
 7734SOL    HW134838   1.722   4.692   2.501  0.6945 -0.2647 -1.1539
 7734SOL    HW234839   1.725   0.062   2.584 -2.1239 -0.3830 -3.4162
 7735SOL     OW34840   0.396   3.458   8.947  0.1228  0.0870  0.2806
 7735SOL    HW134841   0.417   3.400   8.874  1.0971 -0.0196  0.6538
 7735SOL    HW234842   0.448   3.423   9.019  1.1803 -0.0063 -0.5243
 7736SOL     OW34843   0.394   1.045   3.672  0.3280 -0.2770  0.0465
 7736SOL    HW134844   0.376   1.001   3.755  0.8674 -0.2923  0.1549
 7736SOL    HW234845   0.403   1.136   3.703 -0.0076 -0.3715  0.4264
 7737SOL     OW34846   0.099   4.291   0.821 -0.3616 -0.2411 -0.0723
 7737SOL    HW134847   0.169   4.239   0.862  0.7864 -0.5220 -2.3794
 7737SOL    HW234848   0.047   4.323   0.895 -2.6658  0.5377 -2.0421
 7738SOL     OW34849   2.468   1.329   4.138  0.2118  0.1116 -0.0353
 7738SOL    HW134850   2.532   1.394   4.169 -1.3006  1.7673 -0.4111
 7738SOL    HW234851   2.535   1.263   4.119  0.8422  0.3025  1.5499
 7739SOL     OW34852   0.974   1.806  17.467  0.4123 -0.0071 -0.3376
 7739SOL    HW134853   0.898   1.864  17.473 -0.5488 -1.3642  0.4499
 7739SOL    HW234854   0.932   1.720  17.472  1.9680 -0.7034  0.8405
 7740SOL     OW34855   2.131   0.483  16.991 -0.0424 -0.3870 -0.3815
 7740SOL    HW134856   2.060   0.444  16.940  0.9023 -2.4834 -0.1072
 7740SOL    HW234857   2.097   0.572  17.000  0.5586 -0.1552 -0.4787
 7741SOL     OW34858   3.556   2.385  12.113 -0.6546 -0.2234 -0.6371
 7741SOL    HW134859   3.500   2.337  12.175  0.3903 -2.0740 -1.1436
 7741SOL    HW234860   3.487   2.442  12.079 -0.0628  1.5308  1.0802
 7742SOL     OW34861   3.745   3.883   9.536 -0.2426  0.1399 -0.2562
 7742SOL    HW134862   3.689   3.876   9.613 -1.4092 -1.0776 -1.2086
 7742SOL    HW234863   3.676   3.868   9.471  0.2767  0.7091 -0.9356
 7743SOL     OW34864   2.852   0.707  11.751 -0.1412 -0.4465 -0.1950
 7743SOL    HW134865   2.799   0.654  11.692 -0.3636 -0.4644  0.0216
 7743SOL    HW234866   2.905   0.768  11.699 -0.8947  0.8675  0.5805
 7744SOL     OW34867   3.456   1.453   2.475 -0.4024  0.1430 -0.6408
 7744SOL    HW134868   3.371   1.463   2.518  0.3384  0.2454  0.7784
 7744SOL    HW234869   3.432   1.471   2.384 -0.1689 -0.9677 -0.9270
 7745SOL     OW34870   0.344   4.294  14.688  0.4698 -0.1033  0.2224
 7745SOL    HW134871   0.366   4.327  14.600  0.1669  0.3497  0.3167
 7745SOL    HW234872   0.278   4.358  14.716  0.3743 -0.6261  1.1864
 7746SOL     OW34873   1.963   1.441   9.490  0.4075 -0.0144  0.6164
 7746SOL    HW134874   2.045   1.408   9.452  0.0187 -1.1396  0.7642
 7746SOL    HW234875   1.906   1.366   9.475  0.6023  0.0295 -0.3879
 7747SOL     OW34876   2.397   1.643   4.859 -0.3206 -0.5634 -0.1096
 7747SOL    HW134877   2.463   1.708   4.885  1.2120 -1.7076 -1.1411
 7747SOL    HW234878   2.362   1.673   4.776  0.8561 -2.3183 -1.2400
 7748SOL     OW34879   1.144   3.899   3.789  0.0300 -0.4230  0.4492
 7748SOL    HW134880   1.091   3.938   3.859 -0.7781 -1.1613  0.2419
 7748SOL    HW234881   1.116   3.809   3.777 -0.9609 -0.3408  2.2116
 7749SOL     OW34882   0.957   3.649   1.461  0.5384  0.2728 -0.6873
 7749SOL    HW134883   0.974   3.582   1.395 -2.9091 -0.4173 -0.8818
 7749SOL    HW234884   1.020   3.719   1.443 -0.6919  1.6604  0.4205
 7750SOL     OW34885   1.122   0.482   2.974 -0.3419 -0.0487  0.0240
 7750SOL    HW134886   1.058   0.532   2.924 -0.7321  1.0758  1.6385
 7750SOL    HW234887   1.168   0.561   3.003 -0.5794  0.0931  0.0123
 7751SOL     OW34888   3.089   1.224  13.793 -0.1283  0.0980  0.5434
 7751SOL    HW134889   3.024   1.295  13.792 -0.3288 -0.1005 -0.8236
 7751SOL    HW234890   3.170   1.262  13.827  0.3880  1.9145 -2.6718
 7752SOL     OW34891   0.313   0.780   7.283  0.4387  0.5591  0.4333
 7752SOL    HW134892   0.250   0.849   7.266  0.7949  1.2283  1.8421
 7752SOL    HW234893   0.329   0.800   7.375 -0.2772  0.0931  0.6549
 7753SOL     OW34894   4.393   0.676   4.580 -0.0494 -0.0173  0.1467
 7753SOL    HW134895   4.460   0.662   4.513 -0.8311 -1.6236 -0.2945
 7753SOL    HW234896   4.428   0.611   4.642 -0.3707 -0.1991  0.1403
 7754SOL     OW34897   3.361   1.119  11.189  0.1033 -0.2332 -0.1409
 7754SOL    HW134898   3.433   1.118  11.126  0.1948  1.7158 -0.0452
 7754SOL    HW234899   3.398   1.058  11.254  1.9802  1.7582  0.6543
 7755SOL     OW34900   4.124   3.292   0.665  0.1456 -0.2104 -0.1902
 7755SOL    HW134901   4.140   3.198   0.658  0.3822 -0.1407 -0.6315
 7755SOL    HW234902   4.175   3.310   0.744  0.7434  0.6522 -0.7651
 7756SOL     OW34903   3.563   0.588   0.568 -0.1502 -0.3205  0.3728
 7756SOL    HW134904   3.658   0.577   0.567  0.1839  2.4921 -2.6430
 7756SOL    HW234905   3.556   0.680   0.540 -1.3382 -0.3784  0.4789
 7757SOL     OW34906   4.232   0.673   5.487  0.4127 -0.6377  0.0778
 7757SOL    HW134907   4.320   0.710   5.483 -0.2637  0.4613 -4.4032
 7757SOL    HW234908   4.189   0.749   5.446 -1.1114  0.7505  4.2173
 7758SOL     OW34909   2.149   4.226  12.822  0.1841  0.2164 -0.4710
 7758SOL    HW134910   2.063   4.230  12.866 -0.7658 -0.3178 -2.3129
 7758SOL    HW234911   2.192   4.290  12.879  0.3640 -1.2380  1.0367
 7759SOL     OW34912   0.155   1.638   2.473  0.0112  0.5372 -0.0424
 7759SOL    HW134913   0.068   1.675   2.488  0.5895  2.4554 -1.3354
 7759SOL    HW234914   0.203   1.651   2.555 -1.0161  2.1339  0.3097
 7760SOL     OW34915   2.034   4.340   2.271 -0.0934 -0.1873  0.8694
 7760SOL    HW134916   2.128   4.330   2.257 -0.2903 -0.4397 -0.2589
 7760SOL    HW234917   2.017   4.403   2.201  0.4936 -0.8277  0.1608
 7761SOL     OW34918   4.131   0.484   4.718 -0.2137  0.2761 -0.0066
 7761SOL    HW134919   4.187   0.449   4.788 -1.0647 -0.1536  0.4668
 7761SOL    HW234920   4.059   0.536   4.754 -0.5268 -1.7300  2.2687
 7762SOL     OW34921   3.442   1.673  13.448 -0.0753  0.0234  0.6813
 7762SOL    HW134922   3.358   1.638  13.475  0.6526 -0.3317  2.4512
 7762SOL    HW234923   3.438   1.768  13.458  1.0275  0.1938 -0.4672
 7763SOL     OW34924   2.124   3.606   6.968  0.1406  0.3868  0.3758
 7763SOL    HW134925   2.190   3.673   6.949  2.3282 -1.9249 -0.2231
 7763SOL    HW234926   2.088   3.595   6.881  1.5070 -1.0505 -0.0001
 7764SOL     OW34927   3.926   3.667   5.668 -0.1023 -0.2050  0.3677
 7764SOL    HW134928   3.872   3.612   5.724 -1.4267 -0.1050 -0.8110
 7764SOL    HW234929   3.951   3.614   5.592  2.7122  0.5046  0.7737
 7765SOL     OW34930   3.205   1.382   1.261 -0.1532 -0.0818  0.4847
 7765SOL    HW134931   3.209   1.325   1.337  1.3324  1.7510  1.7859
 7765SOL    HW234932   3.254   1.337   1.192 -0.7744 -0.5316  0.3342
 7766SOL     OW34933   3.521   2.907  10.915 -0.3830 -0.0303 -0.0873
 7766SOL    HW134934   3.533   2.814  10.895 -0.9379 -0.4799  1.6338
 7766SOL    HW234935   3.592   2.916  10.979 -0.7095 -1.7378  0.5218
 7767SOL     OW34936   2.170   4.507   8.360 -0.0422 -0.1624 -0.0146
 7767SOL    HW134937   2.118   4.483   8.282  1.7327 -1.1965 -0.8920
 7767SOL    HW234938   2.173   4.601   8.345 -0.1076 -0.2806 -0.7936
 7768SOL     OW34939   3.468   4.087   2.583 -0.6610  0.0576 -0.4482
 7768SOL    HW134940   3.390   4.036   2.561 -0.0563  0.0974 -2.7006
 7768SOL    HW234941   3.528   4.015   2.602 -0.5326  0.6672  1.4987
 7769SOL     OW34942   2.008   2.149   9.973 -0.2517  0.1680  0.2217
 7769SOL    HW134943   2.026   2.087   9.903 -0.4587  2.6991 -2.0837
 7769SOL    HW234944   2.035   2.234   9.938  1.7647 -0.6339 -0.1829
 7770SOL     OW34945   0.336   3.449  10.010  0.8348 -0.1481 -0.0164
 7770SOL    HW134946   0.319   3.461  10.104  0.3167 -0.9158 -0.0089
 7770SOL    HW234947   0.417   3.500  10.005  2.3828 -2.4359  1.3982
 7771SOL     OW34948   3.610   0.408   9.551 -0.5914 -0.6202 -0.3286
 7771SOL    HW134949   3.589   0.322   9.514  0.4516 -0.9211 -0.2345
 7771SOL    HW234950   3.564   0.405   9.635  1.6644  0.0030  0.9423
 7772SOL     OW34951   3.073   3.831   7.091  0.3793  0.1482 -0.2002
 7772SOL    HW134952   2.987   3.814   7.130  0.6835  1.2285  0.9414
 7772SOL    HW234953   3.093   3.910   7.140 -0.2876 -0.9219  1.8031
 7773SOL     OW34954   4.353   2.082  14.012 -0.1327  0.3826  0.3566
 7773SOL    HW134955   4.447   2.100  14.010 -0.1091  0.1435 -0.5131
 7773SOL    HW234956   4.341   2.005  14.068  0.9361  0.7673  1.1355
 7774SOL     OW34957   2.426   3.080   3.055 -0.0454  0.1613  0.3870
 7774SOL    HW134958   2.418   3.170   3.086 -1.7546  0.1542 -0.0090
 7774SOL    HW234959   2.442   3.033   3.137 -0.2418 -1.1770 -0.3511
 7775SOL     OW34960   0.221   3.678   2.497 -0.2782  0.0095 -0.0458
 7775SOL    HW134961   0.316   3.675   2.505 -0.3199 -1.4477 -0.0538
 7775SOL    HW234962   0.208   3.771   2.515 -1.6138 -0.1458 -0.1955
 7776SOL     OW34963   2.558   1.913  10.456  0.1868 -0.2344  0.1135
 7776SOL    HW134964   2.475   1.958  10.441 -0.2596 -0.5169  1.7275
 7776SOL    HW234965   2.537   1.823  10.434  0.7281 -0.2486 -0.3366
 7777SOL     OW34966   3.954   3.766   1.726  0.2428  0.4049 -0.2532
 7777SOL    HW134967   3.908   3.798   1.648 -0.2359 -0.5284 -0.3647
 7777SOL    HW234968   3.906   3.808   1.796 -1.6973  0.6316 -1.7129
 7778SOL     OW34969   4.335   2.830   7.488 -0.1420  0.0566 -0.2245
 7778SOL    HW134970   4.271   2.901   7.488 -0.6317 -0.3865 -1.6498
 7778SOL    HW234971   4.390   2.868   7.419 -1.3097  0.7625 -0.7731
 7779SOL     OW34972   2.547   4.698   6.283  0.4669  0.2940  0.2048
 7779SOL    HW134973   2.560   4.734   6.371  2.1889  2.5852 -0.9637
 7779SOL    HW234974   2.597   0.027   6.236  0.4636 -0.3002 -0.6287
 7780SOL     OW34975   1.534   0.626   3.226  1.0874 -0.1694  0.4697
 7780SOL    HW134976   1.520   0.536   3.197 -2.2700 -0.0572  1.8078
 7780SOL    HW234977   1.447   0.658   3.246  1.2759 -0.1638  1.2970
 7781SOL     OW34978   1.145   1.598   3.048  0.1063 -0.6751 -0.3199
 7781SOL    HW134979   1.183   1.512   3.067 -0.2601 -0.9546 -0.8540
 7781SOL    HW234980   1.119   1.615   3.139 -0.8479  1.6131 -1.0359
 7782SOL     OW34981   0.954   4.260  12.321  0.3623 -0.8202  0.1049
 7782SOL    HW134982   0.942   4.215  12.237 -0.8158  0.6008 -0.4855
 7782SOL    HW234983   1.049   4.270  12.311  0.5177 -0.5340  1.8543
 7783SOL     OW34984   2.485   1.063   7.920 -0.1245 -0.6189 -0.2596
 7783SOL    HW134985   2.428   1.139   7.928  1.8916  0.8102  0.3063
 7783SOL    HW234986   2.449   1.037   7.835 -0.4997  1.0102 -0.5979
 7784SOL     OW34987   0.462   0.570  14.188  0.1802 -0.1680  0.3554
 7784SOL    HW134988   0.397   0.533  14.247  0.8692 -0.0674  1.1853
 7784SOL    HW234989   0.420   0.578  14.102  2.0254 -1.4648 -0.6727
 7785SOL     OW34990   3.666   0.852   8.530 -0.0674 -0.2422  0.5819
 7785SOL    HW134991   3.682   0.946   8.539 -1.6119  0.0873 -0.1127
 7785SOL    HW234992   3.757   0.824   8.535 -0.5743 -2.0537 -0.3772
 7786SOL     OW34993   2.457   3.417  12.569 -0.0858 -0.4143 -0.1179
 7786SOL    HW134994   2.408   3.434  12.649  1.6224  0.1951  0.7993
 7786SOL    HW234995   2.542   3.458  12.587 -0.7936  1.2162 -0.4798
 7787SOL     OW34996   3.711   2.106   7.532  0.1300 -0.3418 -0.6690
 7787SOL    HW134997   3.788   2.056   7.505  2.4190  3.0524 -0.3877
 7787SOL    HW234998   3.740   2.172   7.595 -1.1020  0.4118 -0.9042
 7788SOL     OW34999   4.667   3.770  10.316  0.2381 -0.8055 -0.3520
 7788SOL    HW135000   4.698   3.861  10.326 -2.3220 -0.1104  1.2265
 7788SOL    HW235001   0.010   3.723  10.335  1.0970  2.2338  3.5311
 7789SOL     OW35002   0.891   2.475   6.653 -0.1446  0.1411  0.0116
 7789SOL    HW135003   0.927   2.390   6.627 -0.5561  0.0136 -0.1488
 7789SOL    HW235004   0.973   2.517   6.679  1.7797 -2.1991 -2.3560
 7790SOL     OW35005   3.969   1.924   4.453 -0.0840  0.2391  0.2494
 7790SOL    HW135006   4.055   1.891   4.479  0.8230  2.6518  0.3460
 7790SOL    HW235007   3.984   1.932   4.358  1.3002 -1.8251  0.3023
 7791SOL     OW35008   4.382   0.649  14.973 -0.1220  0.1653  0.0216
 7791SOL    HW135009   4.465   0.603  14.960 -1.2876 -1.7253 -0.6878
 7791SOL    HW235010   4.411   0.729  15.017  0.9791  0.9831 -2.1922
 7792SOL     OW35011   0.744   0.588   5.016 -0.2966 -0.6189  0.4267
 7792SOL    HW135012   0.804   0.641   5.068 -1.2607  0.9332 -0.0389
 7792SOL    HW235013   0.807   0.546   4.958  0.2036  0.2065  0.3834
 7793SOL     OW35014   2.333   2.723   6.936  0.5848  0.0651 -0.2730
 7793SOL    HW135015   2.268   2.765   6.880  0.6894 -1.3251 -1.4129
 7793SOL    HW235016   2.353   2.637   6.900  0.1272  0.3003 -1.0950
 7794SOL     OW35017   3.362   3.057   3.966  0.1251 -0.0114  0.4458
 7794SOL    HW135018   3.454   3.069   3.989  0.7894 -1.8671 -1.2836
 7794SOL    HW235019   3.343   3.121   3.897 -1.7044 -0.2836  0.7055
 7795SOL     OW35020   4.658   4.190   8.240  0.4309 -0.4994 -0.0532
 7795SOL    HW135021   4.637   4.113   8.186  0.8258 -0.0816 -0.7943
 7795SOL    HW235022   4.686   4.143   8.318  1.0879 -0.3029 -0.1756
 7796SOL     OW35023   0.107   2.551   4.808  0.0378 -0.1689  0.7368
 7796SOL    HW135024   0.078   2.461   4.824 -0.8224 -0.4854 -2.7098
 7796SOL    HW235025   0.032   2.602   4.838 -0.2538 -0.0708 -0.1634
 7797SOL     OW35026   1.816   4.126   6.767 -0.4571  0.2152  0.0047
 7797SOL    HW135027   1.870   4.151   6.842 -0.1367  2.2308 -0.9040
 7797SOL    HW235028   1.826   4.200   6.707 -0.3814  1.7630  1.9005
 7798SOL     OW35029   4.293   1.592   4.133  0.3402 -0.0277  0.6425
 7798SOL    HW135030   4.222   1.531   4.115 -0.1752  1.5891 -2.8954
 7798SOL    HW235031   4.328   1.558   4.215  0.5985 -0.2985  0.4194
 7799SOL     OW35032   2.568   2.210  13.018 -0.2271 -0.4283 -0.8153
 7799SOL    HW135033   2.485   2.234  12.978 -0.1765 -1.1817 -1.3681
 7799SOL    HW235034   2.555   2.268  13.093 -3.0655 -0.9515 -0.9203
 7800SOL     OW35035   1.896   3.859   9.702 -0.3815 -0.3199  0.1144
 7800SOL    HW135036   1.925   3.817   9.621 -1.8071 -0.6856 -0.2121
 7800SOL    HW235037   1.973   3.898   9.743  1.8926 -0.6132 -3.8955
 7801SOL     OW35038   2.199   2.696   7.185 -0.8941 -0.1626  0.0766
 7801SOL    HW135039   2.198   2.601   7.199 -1.6638 -0.2840 -0.7660
 7801SOL    HW235040   2.243   2.711   7.102  1.0702  0.7348  1.2890
 7802SOL     OW35041   2.399   3.949   0.607 -0.3054 -0.8590  0.1510
 7802SOL    HW135042   2.394   4.006   0.530 -1.2165 -1.7931 -0.4850
 7802SOL    HW235043   2.337   3.994   0.664 -0.9932 -2.4905  0.6954
 7803SOL     OW35044   2.376   3.768   2.608 -0.0303  0.1934 -0.4580
 7803SOL    HW135045   2.311   3.697   2.609  2.1444 -1.7503  1.4161
 7803SOL    HW235046   2.397   3.778   2.515  1.1150 -0.8953 -0.3020
 7804SOL     OW35047   2.717   2.683   7.883 -0.0306  0.2818 -0.0519
 7804SOL    HW135048   2.640   2.724   7.844 -0.7896  1.6126  2.8269
 7804SOL    HW235049   2.736   2.736   7.961 -2.3157  2.4331 -0.9658
 7805SOL     OW35050   2.868   3.287  16.726 -0.2691  0.6224 -0.4141
 7805SOL    HW135051   2.963   3.302  16.726 -0.3092  0.8883  2.6111
 7805SOL    HW235052   2.832   3.348  16.662 -0.6751 -0.0663 -0.8389
 7806SOL     OW35053   0.704   2.965   1.394  0.0057 -0.1353  0.1037
 7806SOL    HW135054   0.722   2.887   1.447 -2.6168 -0.5421  0.3846
 7806SOL    HW235055   0.732   2.943   1.306 -1.1202  1.7914 -0.7294
 7807SOL     OW35056   1.313   2.964   2.689 -0.7241 -0.1722 -0.2743
 7807SOL    HW135057   1.322   3.056   2.665 -1.9444 -0.0285 -0.2243
 7807SOL    HW235058   1.285   2.976   2.780 -0.5425  2.5391 -0.5936
 7808SOL     OW35059   4.303   0.235   1.370  0.2854  0.0843 -0.0208
 7808SOL    HW135060   4.365   0.289   1.418 -0.1453  0.3943  0.1882
 7808SOL    HW235061   4.359   0.192   1.305 -1.7184 -0.5652 -1.3061
 7809SOL     OW35062   3.198   4.627  14.299  0.3814 -0.4721 -0.3093
 7809SOL    HW135063   3.291   4.618  14.277  0.2089 -2.7383 -0.0755
 7809SOL    HW235064   3.205   4.719  14.327 -0.8960 -0.8333  1.2040
 7810SOL     OW35065   3.793   4.082  15.038  0.4751  0.5622 -0.1518
 7810SOL    HW135066   3.705   4.108  15.013  0.0841  0.9885  1.6536
 7810SOL    HW235067   3.791   4.009  15.100 -0.6035  0.8438  0.1388
 7811SOL     OW35068   0.428   1.512   3.903  0.6677  0.3198  0.2217
 7811SOL    HW135069   0.354   1.564   3.873  0.6683  0.4693  0.4809
 7811SOL    HW235070   0.467   1.568   3.969  2.7664  0.0001 -0.7361
 7812SOL     OW35071   1.735   3.036  12.429 -0.1565 -0.1020 -0.1862
 7812SOL    HW135072   1.713   3.127  12.450 -0.6707 -0.3795  0.4921
 7812SOL    HW235073   1.726   2.986  12.511 -0.8212 -1.3771 -1.0343
 7813SOL     OW35074   1.769   4.039   3.541  0.0585 -0.0695  0.6730
 7813SOL    HW135075   1.861   4.066   3.539 -0.3196  1.0897 -1.3299
 7813SOL    HW235076   1.739   4.079   3.460  0.8608 -1.0235 -0.0978
 7814SOL     OW35077   2.289   3.746  17.626  0.3345 -0.3410  0.5533
 7814SOL    HW135078   2.296   3.839  17.646 -2.9074 -0.2962  1.5277
 7814SOL    HW235079   2.338   3.709  17.700  0.4086  0.1226  0.7341
 7815SOL     OW35080   4.698   0.002   5.627 -0.1940  0.0552 -0.0729
 7815SOL    HW135081   4.731   0.004   5.537  0.6189 -1.1712  0.1872
 7815SOL    HW235082   4.736   4.661   5.667  0.2046  0.0185 -0.5281
 7816SOL     OW35083   0.110   2.188   3.169 -0.1370 -0.0102 -0.1905
 7816SOL    HW135084   0.021   2.186   3.205  0.6206 -1.4709  1.6197
 7816SOL    HW235085   0.151   2.201   3.255 -1.6935  1.1630  0.3645
 7817SOL     OW35086   2.405   3.808   3.592 -0.0521 -0.0502 -0.1319
 7817SOL    HW135087   2.478   3.865   3.569 -3.1241  4.0020  0.2024
 7817SOL    HW235088   2.425   3.722   3.555  0.2933 -0.7354  1.6301
 7818SOL     OW35089   3.502   3.330  14.328 -0.1706 -0.5572  0.3635
 7818SOL    HW135090   3.436   3.323  14.259 -0.3446  0.6381  0.4058
 7818SOL    HW235091   3.497   3.247  14.375 -0.2672 -0.4229  0.5940
 7819SOL     OW35092   0.635   1.073  17.263 -0.6507 -0.0494  0.5404
 7819SOL    HW135093   0.634   1.164  17.293  1.0943  0.0226  0.3745
 7819SOL    HW235094   0.542   1.051  17.260 -1.0794  1.8797 -0.0445
 7820SOL     OW35095   1.621   3.436   5.410 -0.1804 -0.0090  0.3252
 7820SOL    HW135096   1.531   3.420   5.383  0.4311  0.8266 -2.1520
 7820SOL    HW235097   1.609   3.442   5.505 -1.8400  2.1176 -0.0219
 7821SOL     OW35098   0.352   0.249   7.302 -0.2474 -0.1082 -0.8030
 7821SOL    HW135099   0.339   0.208   7.217 -0.0866 -0.9328 -0.4416
 7821SOL    HW235100   0.438   0.216   7.329 -0.5884 -0.0508  0.3513
 7822SOL     OW35101   2.252   2.122   1.533 -0.2787  0.0219 -0.2535
 7822SOL    HW135102   2.217   2.094   1.617 -0.2740  3.0695  0.7504
 7822SOL    HW235103   2.333   2.164   1.563 -0.5616  1.3001 -1.2999
 7823SOL     OW35104   3.172   0.705   8.306 -0.1660  0.3187  0.0570
 7823SOL    HW135105   3.205   0.794   8.293 -0.5989  0.5857  0.8091
 7823SOL    HW235106   3.211   0.660   8.231 -0.5258  1.7535 -0.9812
 7824SOL     OW35107   0.607   1.930   0.876 -0.0723  0.1288 -0.0233
 7824SOL    HW135108   0.634   2.013   0.835  0.4308 -0.2237 -0.4140
 7824SOL    HW235109   0.545   1.899   0.810 -0.2219  2.1959 -0.8428
 7825SOL     OW35110   2.955   3.107   2.150  0.3655 -0.2177 -0.7809
 7825SOL    HW135111   2.915   3.192   2.133  0.3051  0.3045  1.9710
 7825SOL    HW235112   2.974   3.083   2.059 -3.4211  1.7547 -2.0887
 7826SOL     OW35113   0.016   0.721   7.127  0.2069  0.3329 -0.3833
 7826SOL    HW135114   4.707   0.779   7.067  0.3377  1.2227  0.3868
 7826SOL    HW235115   4.727   0.756   7.211 -0.9845  0.8432 -0.9675
 7827SOL     OW35116   3.893   3.482   8.733  0.5656 -0.0966  0.0605
 7827SOL    HW135117   3.873   3.432   8.812  2.0529  2.2683  1.9487
 7827SOL    HW235118   3.933   3.422   8.670  1.0206  0.9984 -0.7029
 7828SOL     OW35119   0.796   1.808   0.047  0.0193  0.1147  0.8337
 7828SOL    HW135120   0.748   1.825  17.716 -0.1324  0.4749  0.9994
 7828SOL    HW235121   0.749   1.729   0.073 -0.8842 -0.1529 -1.6421
 7829SOL     OW35122   2.888   4.225   7.914  0.1912 -0.1418  0.4668
 7829SOL    HW135123   2.920   4.286   7.980  0.6113  2.3054 -1.9902
 7829SOL    HW235124   2.963   4.224   7.854  0.1716 -0.2206  0.4438
 7830SOL     OW35125   0.160   1.016   4.882  0.5560 -0.0382 -0.0649
 7830SOL    HW135126   0.097   1.086   4.867  2.0313  1.2806 -0.0983
 7830SOL    HW235127   0.111   0.971   4.950 -0.5659 -0.6564 -1.2822
 7831SOL     OW35128   2.651   4.360  12.187 -0.0333 -0.2509  0.1152
 7831SOL    HW135129   2.713   4.372  12.258  1.0550 -0.8459 -0.7355
 7831SOL    HW235130   2.668   4.439  12.134 -3.2292  1.6624  1.9181
 7832SOL     OW35131   2.394   1.732  11.094 -0.8066  0.0903 -0.1886
 7832SOL    HW135132   2.479   1.763  11.065  0.3612 -1.4441  1.5579
 7832SOL    HW235133   2.347   1.712  11.013 -0.3562 -1.5643 -0.0371
 7833SOL     OW35134   1.145   3.323   6.127 -0.6092  0.4842  0.0192
 7833SOL    HW135135   1.218   3.385   6.125 -0.7566  0.7312  1.9827
 7833SOL    HW235136   1.075   3.377   6.165  0.8184 -0.0402  3.4283
 7834SOL     OW35137   2.383   3.307   7.700 -0.1629  0.9059  0.5031
 7834SOL    HW135138   2.391   3.364   7.623 -0.5996 -1.7340 -1.4938
 7834SOL    HW235139   2.474   3.301   7.730  0.2183  0.0318 -0.8106
 7835SOL     OW35140   3.022   0.906   7.206  0.1860  0.0193 -0.2085
 7835SOL    HW135141   3.035   0.972   7.273  1.3100 -0.4251  0.0029
 7835SOL    HW235142   2.972   0.958   7.142  2.6063  0.2615 -1.9111
 7836SOL     OW35143   0.470   0.420   9.143  0.1620 -0.4981  0.0950
 7836SOL    HW135144   0.560   0.449   9.159 -0.3203  0.5082  1.0430
 7836SOL    HW235145   0.474   0.375   9.059 -3.0127 -0.5843 -0.0324
 7837SOL     OW35146   2.654   3.280   2.496 -0.9926 -0.0819  0.0373
 7837SOL    HW135147   2.738   3.325   2.488 -1.5302  0.6537 -1.3620
 7837SOL    HW235148   2.602   3.360   2.500 -0.6229  0.1098  1.0194
 7838SOL     OW35149   3.780   4.639   6.902 -0.0417 -0.1303  0.0183
 7838SOL    HW135150   3.826   4.557   6.885 -2.5223 -1.2738 -1.0907
 7838SOL    HW235151   3.762   4.659   6.811  1.3370 -0.3949 -0.3100
 7839SOL     OW35152   1.107   4.008  16.091  0.2630 -0.2966  0.0936
 7839SOL    HW135153   1.052   3.931  16.086 -1.7743  1.2402 -1.3805
 7839SOL    HW235154   1.067   4.058  16.162  0.0348 -2.8017  1.7212
 7840SOL     OW35155   2.559   1.609   3.071  0.4672 -0.4848  0.1515
 7840SOL    HW135156   2.600   1.527   3.041 -1.5205 -0.9824 -1.2084
 7840SOL    HW235157   2.526   1.580   3.157  1.7861  0.6579  1.0453
 7841SOL     OW35158   3.697   0.509   4.381  0.1450 -0.3416 -0.1646
 7841SOL    HW135159   3.636   0.550   4.444 -0.0436  2.6268 -2.2488
 7841SOL    HW235160   3.697   0.416   4.402  0.6208 -0.7502 -2.0316
 7842SOL     OW35161   0.542   0.750   9.885 -0.3145 -0.3223 -0.2276
 7842SOL    HW135162   0.498   0.806   9.822 -1.1037 -2.0580 -1.1769
 7842SOL    HW235163   0.592   0.694   9.826  0.6438  1.5436 -1.1936
 7843SOL     OW35164   1.050   0.924   5.483  0.2714 -0.2515 -0.9490
 7843SOL    HW135165   1.077   1.012   5.454 -0.4745  0.0271 -0.8134
 7843SOL    HW235166   0.964   0.949   5.518  0.2783 -2.1111  0.3530
 7844SOL     OW35167   4.098   1.883   5.789 -0.2754 -0.1398 -0.4703
 7844SOL    HW135168   4.177   1.833   5.812 -0.4841  0.7173  2.1132
 7844SOL    HW235169   4.032   1.852   5.851 -0.0081 -1.5105 -0.8834
 7845SOL     OW35170   4.602   3.293   2.522  0.0213  0.0859  0.5783
 7845SOL    HW135171   4.547   3.217   2.538  0.2083 -0.4552 -1.3515
 7845SOL    HW235172   4.558   3.358   2.577  0.5210  0.1051  0.9529
 7846SOL     OW35173   1.587   2.424   6.294  0.0587 -0.0771 -0.5866
 7846SOL    HW135174   1.569   2.402   6.385  0.3674 -1.1808 -0.7870
 7846SOL    HW235175   1.651   2.494   6.309 -0.4524 -0.4081  3.0868
 7847SOL     OW35176   3.842   3.842   1.957  0.2493  0.1899  0.5443
 7847SOL    HW135177   3.819   3.787   2.032 -2.7360  0.8317  0.0918
 7847SOL    HW235178   3.937   3.852   1.967  0.2483  1.1669 -0.4381
 7848SOL     OW35179   1.105   4.349  12.046 -0.4326  0.6694 -0.5463
 7848SOL    HW135180   1.118   4.263  12.085 -0.6775  1.0513  0.3747
 7848SOL    HW235181   1.197   4.373  12.034 -0.3379 -0.3503 -1.8884
 7849SOL     OW35182   3.332   3.226   6.381 -0.0703  0.6088  0.0790
 7849SOL    HW135183   3.373   3.298   6.334 -0.9376  1.2677  0.3169
 7849SOL    HW235184   3.407   3.169   6.391 -0.6437 -0.2273 -0.3988
 7850SOL     OW35185   1.438   2.582  17.012 -0.0330  0.5648  0.3907
 7850SOL    HW135186   1.351   2.621  17.000 -0.4390 -0.4301  0.0618
 7850SOL    HW235187   1.494   2.659  17.013 -1.1006  1.3377  2.0851
 7851SOL     OW35188   1.647   0.188   9.330  0.1743  0.7096 -0.7581
 7851SOL    HW135189   1.681   0.197   9.241  1.8014  1.1973 -0.0884
 7851SOL    HW235190   1.617   0.277   9.347  1.5421  0.7881  1.2054
 7852SOL     OW35191   2.120   0.985   2.951 -0.5543 -0.2531  0.0798
 7852SOL    HW135192   2.178   1.002   3.025  1.1552 -0.4229 -1.2077
 7852SOL    HW235193   2.126   1.069   2.904 -1.3892 -0.1733  0.1266
 7853SOL     OW35194   0.600   0.243  12.820 -0.0486  0.4547  0.8848
 7853SOL    HW135195   0.517   0.232  12.773  0.8979 -2.9975 -0.0196
 7853SOL    HW235196   0.663   0.277  12.756 -1.0441 -2.2718 -1.5403
 7854SOL     OW35197   0.273   2.477   7.245 -0.3213  0.0090  0.2292
 7854SOL    HW135198   0.313   2.455   7.160 -1.0091  0.2406 -0.1543
 7854SOL    HW235199   0.282   2.572   7.251  0.2398 -0.1551  1.9956
 7855SOL     OW35200   3.893   2.328   5.599  0.3203 -0.2859  0.1154
 7855SOL    HW135201   3.927   2.289   5.679  0.7839  0.3084  0.1993
 7855SOL    HW235202   3.809   2.342   5.642 -0.0504  1.7067 -1.2897
 7856SOL     OW35203   1.901   4.314   6.188  0.7932 -0.0539  0.1363
 7856SOL    HW135204   1.973   4.275   6.139  1.0271 -0.5299  0.8566
 7856SOL    HW235205   1.943   4.397   6.209 -0.4865  0.6656 -0.1342
 7857SOL     OW35206   0.432   4.176  16.138  0.1280  0.3144 -0.3536
 7857SOL    HW135207   0.350   4.127  16.139  0.0060  0.5209  0.3532
 7857SOL    HW235208   0.394   4.263  16.121 -0.2899  0.3879  0.9516
 7858SOL     OW35209   4.708   4.351  11.106 -0.0951 -0.4345 -0.3878
 7858SOL    HW135210   0.059   4.376  11.132 -0.0876 -2.4434  1.5966
 7858SOL    HW235211   4.680   4.314  11.190  0.1875  1.4365  0.5273
 7859SOL     OW35212   3.528   1.894  15.727  0.1358  0.3675 -0.3447
 7859SOL    HW135213   3.497   1.863  15.642 -0.9228 -0.6103  0.3941
 7859SOL    HW235214   3.453   1.892  15.786  0.2280 -0.1951 -0.2544
 7860SOL     OW35215   1.834   3.283   2.648 -0.3281 -0.2088  0.5501
 7860SOL    HW135216   1.905   3.251   2.592 -1.6672 -0.2391 -1.1264
 7860SOL    HW235217   1.772   3.321   2.585 -1.5084 -0.3336  1.6482
 7861SOL     OW35218   4.385   1.916   2.033  0.2757  0.5713  0.2431
 7861SOL    HW135219   4.339   1.978   1.977 -0.3152  0.1242  0.2298
 7861SOL    HW235220   4.439   1.875   1.965  1.5708  0.6842  1.1923
 7862SOL     OW35221   2.285   4.420   9.243 -0.0642  0.1426 -0.0766
 7862SOL    HW135222   2.377   4.445   9.257 -0.4655  0.3018  2.2256
 7862SOL    HW235223   2.259   4.353   9.305  1.2584 -1.1038 -0.8624
 7863SOL     OW35224   2.384   3.466   7.054  0.1391  0.4996  0.1975
 7863SOL    HW135225   2.453   3.439   7.114  1.5671 -1.8484 -2.4805
 7863SOL    HW235226   2.361   3.558   7.066 -0.1954  0.4705 -0.1962
 7864SOL     OW35227   2.825   3.267   9.480  0.2192  0.0242 -0.6073
 7864SOL    HW135228   2.873   3.310   9.551 -1.5505 -0.5033  0.8902
 7864SOL    HW235229   2.821   3.345   9.425 -0.3796  0.5312  0.1517
 7865SOL     OW35230   4.415   4.477   7.323 -0.4455 -0.0470 -0.4022
 7865SOL    HW135231   4.397   4.443   7.411  0.7595 -1.2596 -0.6262
 7865SOL    HW235232   4.432   4.571   7.329  0.2614 -0.2377  0.5818
 7866SOL     OW35233   0.022   3.551   7.796 -0.4940 -0.0757  0.3377
 7866SOL    HW135234   4.707   3.493   7.851 -0.9684 -2.8129 -2.9757
 7866SOL    HW235235   4.700   3.554   7.721 -2.0056  0.0874  1.5468
 7867SOL     OW35236   3.854   0.074   8.331 -0.2677  0.2770  0.1237
 7867SOL    HW135237   3.802   0.008   8.378  0.8801  0.1614  1.2379
 7867SOL    HW235238   3.789   0.105   8.269 -0.8054  0.5701  0.8356
 7868SOL     OW35239   2.380   2.332  12.606  0.2730  0.3300 -0.4006
 7868SOL    HW135240   2.360   2.424  12.591  1.5331  0.5418 -0.7940
 7868SOL    HW235241   2.471   2.336  12.578  0.5251  0.7318  0.4633
 7869SOL     OW35242   0.428   3.596   8.514  0.6927 -0.6393  0.1163
 7869SOL    HW135243   0.386   3.668   8.561 -0.5056  0.4168 -2.5466
 7869SOL    HW235244   0.350   3.555   8.477  2.0397 -1.7972 -1.4436
 7870SOL     OW35245   1.386   1.487   7.484 -0.5785  0.8174 -0.1349
 7870SOL    HW135246   1.322   1.558   7.478 -0.9021  0.4753 -0.6955
 7870SOL    HW235247   1.334   1.415   7.449 -0.6138  0.6094  0.3467
 7871SOL     OW35248   1.182   4.576   8.908  1.1046  0.6905  0.2561
 7871SOL    HW135249   1.261   4.630   8.903  1.9907 -0.5709  0.5388
 7871SOL    HW235250   1.180   4.570   9.003  0.5280 -4.3956 -0.0772
 7872SOL     OW35251   2.996   0.476   4.211  0.5438  0.1597 -0.1659
 7872SOL    HW135252   3.074   0.430   4.241 -0.1839 -1.8458 -1.3835
 7872SOL    HW235253   3.038   0.559   4.187  1.8901  0.1145  2.0397
 7873SOL     OW35254   2.745   3.891   4.081  0.0688 -0.8801 -0.7995
 7873SOL    HW135255   2.804   3.845   4.021  0.3655 -0.5924 -0.7271
 7873SOL    HW235256   2.666   3.896   4.027  0.1305 -0.9507 -0.8956
 7874SOL     OW35257   0.305   0.991   7.531 -0.2914  0.1103 -0.1197
 7874SOL    HW135258   0.292   1.080   7.564 -0.5864 -0.1730  0.5360
 7874SOL    HW235259   0.256   0.936   7.593 -1.1826  1.4642  0.3665
 7875SOL     OW35260   0.959   3.714   3.730 -0.3618 -0.4955  0.2639
 7875SOL    HW135261   0.928   3.679   3.647 -1.6727 -0.9898  0.9531
 7875SOL    HW235262   0.886   3.772   3.747 -0.2494 -0.1058 -0.5959
 7876SOL     OW35263   2.174   0.485   9.352 -0.5805  0.0748 -0.0333
 7876SOL    HW135264   2.254   0.506   9.401 -1.1228 -0.6364  1.1598
 7876SOL    HW235265   2.153   0.571   9.317 -2.8227  0.1763  1.5147
 7877SOL     OW35266   3.078   4.269   4.575  0.2496 -0.3347 -0.6151
 7877SOL    HW135267   3.068   4.234   4.486  0.3953  1.9884 -1.5480
 7877SOL    HW235268   3.088   4.186   4.623  0.3860 -0.1860 -0.3855
 7878SOL     OW35269   3.946   4.246  11.088  0.1664 -0.0529  0.2578
 7878SOL    HW135270   3.997   4.193  11.027 -0.6643  0.8635 -1.2184
 7878SOL    HW235271   3.878   4.275  11.028 -1.4668 -0.1577  2.0624
 7879SOL     OW35272   2.055   0.456   0.061  0.0643  0.7007 -0.0533
 7879SOL    HW135273   2.030   0.492  17.726 -1.8867 -2.0720 -0.6661
 7879SOL    HW235274   1.970   0.419   0.084  0.2704 -2.4640 -4.4792
 7880SOL     OW35275   3.462   4.194   3.426 -0.0129  0.4093  0.1968
 7880SOL    HW135276   3.457   4.190   3.330  3.4949  0.4277  0.0093
 7880SOL    HW235277   3.377   4.158   3.447 -0.1315  1.8583  2.1721
 7881SOL     OW35278   3.635   3.831   0.231  0.0319 -0.6513 -0.2689
 7881SOL    HW135279   3.613   3.910   0.281  1.7302 -1.6852  2.0767
 7881SOL    HW235280   3.574   3.769   0.270 -0.3849 -0.0376  0.0591
 7882SOL     OW35281   3.826   4.257   2.776 -0.4948  0.0368  0.1250
 7882SOL    HW135282   3.899   4.314   2.799  0.5826 -1.0710 -0.5667
 7882SOL    HW235283   3.875   4.177   2.758 -1.8567 -1.0127  1.1261
 7883SOL     OW35284   2.362   0.260   3.845  0.0927  0.0226  0.1149
 7883SOL    HW135285   2.399   0.178   3.812 -0.3892  0.0537 -0.5111
 7883SOL    HW235286   2.388   0.326   3.781  0.2632  0.4681  0.6479
 7884SOL     OW35287   4.500   2.284  17.205  0.6136 -0.1644 -0.2251
 7884SOL    HW135288   4.515   2.303  17.297  1.3868 -0.5658 -0.2667
 7884SOL    HW235289   4.423   2.340  17.199 -0.6490 -1.8648  0.2412
 7885SOL     OW35290   2.327   4.328  13.010  0.3721  0.2538 -0.4899
 7885SOL    HW135291   2.348   4.286  13.094  0.2255 -1.7912 -1.5027
 7885SOL    HW235292   2.318   4.419  13.039 -2.2062 -0.4246  0.7989
 7886SOL     OW35293   4.037   4.072   7.654 -0.2979 -0.0061 -0.4895
 7886SOL    HW135294   4.001   3.987   7.632 -0.1715 -0.2399  0.2097
 7886SOL    HW235295   4.001   4.124   7.582 -3.1174  1.8151  2.2225
 7887SOL     OW35296   2.739   0.515  16.108 -0.2527 -0.0003 -0.1863
 7887SOL    HW135297   2.690   0.561  16.176  0.1353  0.7314 -0.3955
 7887SOL    HW235298   2.730   0.426  16.141 -0.6617  0.5201  1.1079
 7888SOL     OW35299   1.323   1.524  13.551  0.1322 -0.0934 -0.1698
 7888SOL    HW135300   1.415   1.520  13.526 -0.2466 -2.4188 -1.1771
 7888SOL    HW235301   1.296   1.434  13.531 -1.9397  0.2597  1.0066
 7889SOL     OW35302   4.115   0.371   3.134 -0.4820  0.4701 -0.4740
 7889SOL    HW135303   4.100   0.465   3.143 -0.9732  0.8675 -5.7031
 7889SOL    HW235304   4.210   0.371   3.140 -0.6238 -1.2548  1.8637
 7890SOL     OW35305   3.974   0.275  12.862  0.2491  0.0167  0.3187
 7890SOL    HW135306   4.004   0.207  12.923  1.7647 -0.4519 -0.9453
 7890SOL    HW235307   3.900   0.315  12.907  0.1472  0.8016 -0.5570
 7891SOL     OW35308   1.929   4.192   4.704 -0.0765  0.5032  0.3663
 7891SOL    HW135309   1.980   4.157   4.630 -0.9385  0.1587 -0.0626
 7891SOL    HW235310   1.843   4.194   4.663  0.9957 -0.0882 -1.9047
 7892SOL     OW35311   1.629   3.991  12.403  0.3274 -0.4771  0.3169
 7892SOL    HW135312   1.707   4.013  12.353  0.5845 -0.1281  0.8649
 7892SOL    HW235313   1.657   3.905  12.434  0.4248 -0.3778  0.5088
 7893SOL     OW35314   0.874   3.733   0.936 -0.4741 -0.1524 -0.1491
 7893SOL    HW135315   0.818   3.664   0.970  0.0557 -1.5061 -1.9973
 7893SOL    HW235316   0.954   3.712   0.985 -1.0174 -0.7860  0.4442
 7894SOL     OW35317   3.749   1.507   5.954  0.2974 -0.5280 -0.0799
 7894SOL    HW135318   3.743   1.449   5.877  1.0743 -1.1644  0.3388
 7894SOL    HW235319   3.773   1.591   5.914 -0.5517  0.2266  1.0030
 7895SOL     OW35320   2.683   1.236   1.393 -0.8480  0.2883  1.0947
 7895SOL    HW135321   2.764   1.219   1.344 -1.5276 -1.2447  0.5013
 7895SOL    HW235322   2.617   1.258   1.327  1.5133 -1.3627 -1.8231
 7896SOL     OW35323   3.463   2.092   5.483 -0.0089 -0.0939 -0.3157
 7896SOL    HW135324   3.418   2.176   5.489  0.3968  0.1347 -0.5029
 7896SOL    HW235325   3.425   2.055   5.563 -0.0645  2.6941  0.9592
 7897SOL     OW35326   0.928   4.023   9.968 -0.3158 -0.3760  0.0599
 7897SOL    HW135327   0.872   3.945   9.966 -0.3533 -0.2989 -2.0647
 7897SOL    HW235328   0.994   3.971  10.014  0.7709 -0.2623 -1.3773
 7898SOL     OW35329   4.644   1.982   6.118 -0.7437 -0.3773 -0.1540
 7898SOL    HW135330   4.669   1.942   6.034  1.1630  2.9435 -1.1877
 7898SOL    HW235331   4.563   2.029   6.100 -0.4279 -0.8949 -2.9214
 7899SOL     OW35332   1.131   4.611   7.120  0.7557 -0.1952 -0.0560
 7899SOL    HW135333   1.107   4.700   7.095 -1.6055 -0.2736  1.8423
 7899SOL    HW235334   1.195   4.647   7.183  0.9345  1.2321 -1.0658
 7900SOL     OW35335   3.101   3.045   3.073 -0.2104 -0.1086 -0.1458
 7900SOL    HW135336   3.120   2.977   3.137 -0.3056 -1.6616 -1.7580
 7900SOL    HW235337   3.013   3.067   3.102 -1.5004 -0.9106 -3.3677
 7901SOL     OW35338   3.794   4.075  17.652 -0.2428  0.5554 -0.0862
 7901SOL    HW135339   3.842   4.056  17.732 -0.8203  0.6366  0.2788
 7901SOL    HW235340   3.811   3.992  17.606  3.4037  2.1811 -1.6249
 7902SOL     OW35341   3.364   1.823   2.577  0.0683 -0.1937 -0.4158
 7902SOL    HW135342   3.301   1.758   2.546 -0.8098  0.4879 -0.0447
 7902SOL    HW235343   3.419   1.845   2.502  0.4931 -2.3250 -0.7278
 7903SOL     OW35344   1.811   1.832   5.592 -0.2284 -0.1838  0.2572
 7903SOL    HW135345   1.769   1.882   5.661 -0.5683 -1.1912  0.7909
 7903SOL    HW235346   1.891   1.884   5.588 -1.0782  0.8624 -2.7299
 7904SOL     OW35347   0.608   2.091   3.128  0.5660 -0.6010 -0.1125
 7904SOL    HW135348   0.604   2.175   3.174 -0.6025  1.1488 -3.4566
 7904SOL    HW235349   0.556   2.112   3.051  2.1842  0.7822 -0.7993
 7905SOL     OW35350   2.107   0.549   6.174 -0.2344  0.3579 -0.2559
 7905SOL    HW135351   2.152   0.555   6.258  0.3496 -0.2024 -0.5340
 7905SOL    HW235352   2.028   0.497   6.190 -0.8555  0.2110 -3.6726
 7906SOL     OW35353   1.395   0.280  12.992  0.1677  0.2969 -0.1787
 7906SOL    HW135354   1.471   0.315  12.946  1.8961 -0.3231  2.1578
 7906SOL    HW235355   1.421   0.192  13.018 -1.4627  0.4433  1.9723
 7907SOL     OW35356   0.312   3.262   4.966  0.3189  0.1736 -0.1273
 7907SOL    HW135357   0.317   3.298   4.878  2.5426  0.5001  0.1394
 7907SOL    HW235358   0.384   3.304   5.014  0.8472 -0.7135 -0.1438
 7908SOL     OW35359   1.302   3.534  11.900  0.5639  0.0733  0.5472
 7908SOL    HW135360   1.225   3.486  11.868  0.2724  0.0909  1.2254
 7908SOL    HW235361   1.360   3.535  11.824 -0.7420  0.8056 -0.4438
 7909SOL     OW35362   3.582   2.808  14.284 -0.1832 -0.2679 -0.2925
 7909SOL    HW135363   3.615   2.719  14.270 -2.4808 -1.2659  0.5367
 7909SOL    HW235364   3.581   2.805  14.379 -2.6876 -1.3718 -0.3465
 7910SOL     OW35365   4.249   3.832   7.637 -0.2972 -0.2510  0.2065
 7910SOL    HW135366   4.204   3.769   7.693  0.3944 -0.7921  0.1482
 7910SOL    HW235367   4.299   3.868   7.709 -0.7945  1.2490 -0.1957
 7911SOL     OW35368   2.158   1.481  16.257 -0.3971  0.1508  0.0931
 7911SOL    HW135369   2.114   1.488  16.341  2.9240  0.9741  1.7521
 7911SOL    HW235370   2.133   1.566  16.221 -0.6187 -0.1347 -0.4296
 7912SOL     OW35371   1.244   1.012   3.492  0.0346 -0.2798  0.1510
 7912SOL    HW135372   1.274   1.050   3.409  2.2506  1.5894  1.7953
 7912SOL    HW235373   1.193   0.936   3.467  0.1689 -0.5433  0.6931
 7913SOL     OW35374   4.144   2.739   7.269  0.1144 -0.6435  0.0205
 7913SOL    HW135375   4.096   2.816   7.297 -1.1659 -0.8683 -1.5388
 7913SOL    HW235376   4.224   2.772   7.229  0.2129 -0.0338  0.7222
 7914SOL     OW35377   0.817   1.488   4.810  0.5948  0.5030 -0.5405
 7914SOL    HW135378   0.721   1.486   4.800  0.4872  0.4712  0.5048
 7914SOL    HW235379   0.837   1.573   4.772 -1.5184  0.2060 -2.3527
 7915SOL     OW35380   4.128   4.495  10.683 -0.7055  0.2699 -0.0331
 7915SOL    HW135381   4.078   4.479  10.602 -0.5605  1.8721 -0.4504
 7915SOL    HW235382   4.181   4.416  10.693  0.5020  0.8450 -1.8030
 7916SOL     OW35383   2.349   3.432   9.741 -0.8963  0.3610  0.0596
 7916SOL    HW135384   2.295   3.353   9.740 -3.4944  2.0986  3.6859
 7916SOL    HW235385   2.381   3.447   9.652  0.0799  1.9621  0.6747
 7917SOL     OW35386   2.501   1.151  11.858  0.1824 -0.0409  0.2497
 7917SOL    HW135387   2.408   1.129  11.860  0.4640 -1.0190  2.3950
 7917SOL    HW235388   2.507   1.224  11.797  0.9736 -1.1073 -0.9454
 7918SOL     OW35389   2.180   0.596   2.158 -0.1912 -0.6339 -0.2895
 7918SOL    HW135390   2.107   0.544   2.125 -0.7382  0.3496 -0.6582
 7918SOL    HW235391   2.251   0.567   2.101 -1.0253 -1.4973 -0.8999
 7919SOL     OW35392   2.828   2.600   3.137  0.3486 -0.4734 -0.2272
 7919SOL    HW135393   2.802   2.561   3.220  0.2559 -2.1383 -1.0352
 7919SOL    HW235394   2.762   2.558   3.083  0.5060  1.8070 -2.2265
 7920SOL     OW35395   1.836   1.262   3.061  0.3354  0.2130  0.0911
 7920SOL    HW135396   1.776   1.288   2.991 -0.3868  1.3044  1.1222
 7920SOL    HW235397   1.787   1.211   3.124 -3.7856  2.1519 -1.5623
 7921SOL     OW35398   0.565   0.348  16.650  0.1178  0.5260 -0.0694
 7921SOL    HW135399   0.559   0.302  16.566  1.4390  0.0059  0.1226
 7921SOL    HW235400   0.561   0.276  16.713 -1.1424  0.0759 -0.6574
 7922SOL     OW35401   3.225   2.100   2.396  0.3301  0.2398 -0.7574
 7922SOL    HW135402   3.190   2.087   2.308 -0.0887  0.5632 -0.6393
 7922SOL    HW235403   3.237   2.009   2.421  0.2080  0.4286  0.0031
 7923SOL     OW35404   4.125   4.056   2.976  0.6574  0.4394 -0.0265
 7923SOL    HW135405   4.176   4.132   2.946 -0.9397  0.1342 -3.5978
 7923SOL    HW235406   4.092   4.095   3.057  1.1428  0.3381  0.2142
 7924SOL     OW35407   0.018   0.363   3.299  1.1311 -0.1604  0.3485
 7924SOL    HW135408   4.730   0.438   3.247 -0.2090 -1.4435 -0.8549
 7924SOL    HW235409   4.703   0.369   3.379 -1.1194  1.2603 -1.2416
 7925SOL     OW35410   1.635   4.064  13.634 -0.1518  0.0555 -0.1542
 7925SOL    HW135411   1.564   4.118  13.598  0.5851  1.7688  0.9414
 7925SOL    HW235412   1.676   4.128  13.692  1.4664 -0.6255 -0.5414
 7926SOL     OW35413   2.837   4.470   4.691  0.0143 -0.3216  0.0160
 7926SOL    HW135414   2.841   4.410   4.617  1.6059  0.5334 -0.5888
 7926SOL    HW235415   2.869   4.554   4.658  0.7042 -0.5213  0.1647
 7927SOL     OW35416   0.740   2.883   5.359 -0.3385 -0.0277 -0.3103
 7927SOL    HW135417   0.705   2.796   5.376  1.8720 -1.0857 -1.1006
 7927SOL    HW235418   0.707   2.938   5.430 -1.1787 -0.2248 -0.5528
 7928SOL     OW35419   1.030   2.205  10.212 -0.6138  0.0830  0.5300
 7928SOL    HW135420   1.097   2.273  10.213 -1.0419  0.5519 -1.4740
 7928SOL    HW235421   0.946   2.249  10.216 -1.9327 -2.4136  0.5209
 7929SOL     OW35422   2.339   0.069  17.442  0.0375 -0.4865 -0.3874
 7929SOL    HW135423   2.274   0.140  17.440 -0.4623 -0.8898  1.3374
 7929SOL    HW235424   2.417   0.104  17.401  1.0408 -2.5759 -0.2506
 7930SOL     OW35425   2.220   3.053   8.309 -0.3198  0.2984  0.3718
 7930SOL    HW135426   2.273   3.022   8.236  1.4454  1.6366  1.1136
 7930SOL    HW235427   2.187   3.139   8.283 -2.7859  0.1382  3.0057
 7931SOL     OW35428   0.230   3.146  10.619 -0.3239 -0.6822 -0.0210
 7931SOL    HW135429   0.147   3.111  10.586  1.3796 -3.8418 -0.9214
 7931SOL    HW235430   0.233   3.109  10.708  1.4812 -3.3831 -1.1879
 7932SOL     OW35431   2.708   1.313   8.940 -0.2135 -0.9198  0.3209
 7932SOL    HW135432   2.749   1.358   9.014 -2.0712  0.0150  0.7665
 7932SOL    HW235433   2.622   1.349   8.918  0.0426 -1.1434 -1.1072
 7933SOL     OW35434   0.206   3.083   5.138  0.1320 -0.6662  0.2979
 7933SOL    HW135435   0.275   3.024   5.169  0.7297 -1.2663 -2.1372
 7933SOL    HW235436   0.263   3.148   5.097 -0.8999 -1.5129 -2.5271
 7934SOL     OW35437   0.902   0.504   5.998 -0.0151  0.1635 -0.0060
 7934SOL    HW135438   0.916   0.597   6.017 -0.8562  0.1097  0.8567
 7934SOL    HW235439   0.920   0.467   6.085 -1.0133 -0.4281 -0.0602
 7935SOL     OW35440   3.743   4.393   7.952  0.7692  0.7543 -0.1775
 7935SOL    HW135441   3.668   4.381   8.010  1.6259  0.6134  0.8964
 7935SOL    HW235442   3.704   4.448   7.885  1.0212  0.0328 -0.9294
 7936SOL     OW35443   3.469   2.116   2.832 -0.4223 -0.7233 -0.5726
 7936SOL    HW135444   3.435   2.067   2.906 -0.9346  1.8367  0.9064
 7936SOL    HW235445   3.452   2.206   2.862 -0.4672 -0.6944 -0.6839
 7937SOL     OW35446   0.574   1.852   2.514 -0.1548 -0.0984  0.5014
 7937SOL    HW135447   0.596   1.792   2.586 -0.8003 -2.0441 -0.9112
 7937SOL    HW235448   0.519   1.921   2.550  0.2416  0.9180 -0.8687
 7938SOL     OW35449   3.421   4.074   5.326 -0.4669  0.6807 -0.0356
 7938SOL    HW135450   3.383   4.073   5.238  1.1335 -2.6412 -0.6942
 7938SOL    HW235451   3.382   4.001   5.374  0.9329  0.5044  0.8361
 7939SOL     OW35452   4.608   0.291   8.522 -0.5912 -0.4699 -0.7554
 7939SOL    HW135453   4.637   0.256   8.606 -0.1571 -1.6795 -1.4092
 7939SOL    HW235454   4.513   0.297   8.527 -0.4193  1.6609  0.1477
 7940SOL     OW35455   1.483   1.510   6.457  0.1695 -0.2404 -0.3320
 7940SOL    HW135456   1.501   1.461   6.377 -1.9807 -0.1365 -0.8793
 7940SOL    HW235457   1.467   1.597   6.419  1.4091  0.6268  1.0979
 7941SOL     OW35458   4.266   0.768   0.249 -0.1082 -0.1259 -0.4935
 7941SOL    HW135459   4.253   0.810   0.164 -0.0447  0.8727 -0.0115
 7941SOL    HW235460   4.258   0.847   0.302 -3.2404 -0.1542 -0.9126
 7942SOL     OW35461   1.818   2.955   2.436  0.0418 -0.2089 -0.3152
 7942SOL    HW135462   1.869   3.034   2.418  0.2369 -0.6070 -1.5148
 7942SOL    HW235463   1.797   2.930   2.346  1.4633 -1.9864 -0.1573
 7943SOL     OW35464   1.119   0.765   8.819  0.0421  0.1324  0.2334
 7943SOL    HW135465   1.143   0.691   8.875 -1.4349 -1.1114 -0.8012
 7943SOL    HW235466   1.200   0.813   8.803  0.7044 -1.0009  0.1669
 7944SOL     OW35467   2.934   0.401   5.768  0.1611  0.4719  0.6769
 7944SOL    HW135468   2.928   0.418   5.862  2.5184 -2.9733  1.4462
 7944SOL    HW235469   2.847   0.403   5.727  0.6365 -0.5749 -0.3716
 7945SOL     OW35470   2.546   0.369   7.399 -0.0991 -0.3847 -0.5298
 7945SOL    HW135471   2.565   0.277   7.379  1.2920 -0.5338  1.5234
 7945SOL    HW235472   2.473   0.361   7.460 -1.3210  0.7915 -1.8486
 7946SOL     OW35473   4.401   1.220   7.965 -0.6798 -0.2637 -0.6602
 7946SOL    HW135474   4.474   1.239   8.025  0.5041  0.2866 -2.2852
 7946SOL    HW235475   4.389   1.297   7.911  2.9993 -0.6803 -2.0959
 7947SOL     OW35476   3.634   2.361   5.693 -0.3472  0.1561  0.8015
 7947SOL    HW135477   3.555   2.349   5.745 -0.5616  3.1156  1.1945
 7947SOL    HW235478   3.596   2.413   5.621  0.0896 -0.4376  0.1423
 7948SOL     OW35479   1.942   3.292   4.008 -0.1923 -0.0587  0.2098
 7948SOL    HW135480   1.950   3.386   4.018  0.1875 -0.0957  0.2358
 7948SOL    HW235481   1.962   3.265   4.098  0.7062 -1.1709 -0.3273
 7949SOL     OW35482   2.448   1.919  16.066 -0.0886 -0.4906  0.2471
 7949SOL    HW135483   2.434   1.967  16.148  1.8411 -4.0424  2.6285
 7949SOL    HW235484   2.472   1.833  16.098 -0.5216 -0.4297  0.7383
 7950SOL     OW35485   2.317   3.329   5.877 -0.2246  0.1854  0.6501
 7950SOL    HW135486   2.226   3.329   5.909  1.0890 -2.2426  4.3939
 7950SOL    HW235487   2.355   3.355   5.961 -0.7231  2.3305  0.2178
 7951SOL     OW35488   1.538   2.751   4.477  0.4143  0.0396 -0.4914
 7951SOL    HW135489   1.559   2.657   4.480  0.5472  0.0794 -0.1359
 7951SOL    HW235490   1.619   2.796   4.502  0.7381 -1.4928  1.2289
 7952SOL     OW35491   3.958   0.028  12.153  0.3439  0.2420 -0.4529
 7952SOL    HW135492   3.923   0.006  12.239  0.3464 -2.7683 -1.2179
 7952SOL    HW235493   4.040   4.719  12.167  0.7357  1.0966  0.1389
 7953SOL     OW35494   4.280   0.779   8.123  0.5433 -0.2722 -0.1139
 7953SOL    HW135495   4.376   0.781   8.129  0.6188 -0.2411 -1.3603
 7953SOL    HW235496   4.264   0.845   8.055 -0.1712 -1.0923 -0.7395
 7954SOL     OW35497   0.005   4.141   2.324 -0.2289 -0.4865  0.0752
 7954SOL    HW135498   4.657   4.181   2.314 -0.3435 -0.7690 -0.0950
 7954SOL    HW235499   4.719   4.060   2.279 -1.7840 -0.0255  0.0815
 7955SOL     OW35500   0.521   4.314   5.622 -0.3715 -0.0311  0.2792
 7955SOL    HW135501   0.477   4.248   5.568  2.2610 -0.6082 -1.1446
 7955SOL    HW235502   0.609   4.293   5.592 -1.0191 -1.1954 -0.7930
 7956SOL     OW35503   0.927   1.534  15.455 -0.1810  0.5062  0.1194
 7956SOL    HW135504   0.836   1.536  15.425  0.2890  1.6809 -1.2495
 7956SOL    HW235505   0.968   1.511  15.371  1.5384  2.0579  0.5330
 7957SOL     OW35506   1.174   0.393   1.873  0.1442  0.5682 -0.3862
 7957SOL    HW135507   1.167   0.488   1.868  0.9113  0.5414 -1.8224
 7957SOL    HW235508   1.092   0.379   1.921 -0.5530  2.1114 -1.1525
 7958SOL     OW35509   0.742   0.510  14.245 -0.6166  0.6096  0.0844
 7958SOL    HW135510   0.724   0.467  14.329  3.8703  0.6002  1.0330
 7958SOL    HW235511   0.652   0.517  14.214 -1.1275 -3.4869  0.5115
 7959SOL     OW35512   0.107   3.229   7.652  0.1488 -0.1076  0.1902
 7959SOL    HW135513   0.131   3.151   7.601 -3.8380 -0.2076 -1.5410
 7959SOL    HW235514   0.181   3.287   7.633  0.0476 -0.6122 -1.8035
 7960SOL     OW35515   4.558   2.695   0.054 -0.3077 -0.4464 -0.2300
 7960SOL    HW135516   4.575   2.789   0.057  0.7892 -0.6941  1.1670
 7960SOL    HW235517   4.474   2.698   0.007 -0.5994 -0.2977  0.2954
 7961SOL     OW35518   0.809   3.886  16.586  0.5671  0.0973  0.2553
 7961SOL    HW135519   0.795   3.858  16.677 -0.1144  0.7543  0.3470
 7961SOL    HW235520   0.729   3.937  16.579  1.4193  1.1143 -1.9770
 7962SOL     OW35521   4.443   0.387   1.555 -0.1384 -0.1961  0.2690
 7962SOL    HW135522   4.462   0.334   1.633  1.7013 -0.2396 -0.2125
 7962SOL    HW235523   4.509   0.457   1.551 -0.2762 -0.3601 -3.8635
 7963SOL     OW35524   1.613   2.489   2.940 -0.4248  0.5873  0.3100
 7963SOL    HW135525   1.630   2.488   2.846 -2.5141 -0.8440 -0.0439
 7963SOL    HW235526   1.519   2.503   2.937 -0.3171  1.2801  0.1694
 7964SOL     OW35527   3.773   3.893   8.813  0.5481 -0.3367  0.6566
 7964SOL    HW135528   3.857   3.851   8.795  0.4993  0.3508 -1.2184
 7964SOL    HW235529   3.715   3.819   8.796  1.9169 -1.4857  1.0232
 7965SOL     OW35530   0.874   4.688   6.618  0.1140 -0.4200 -0.1345
 7965SOL    HW135531   0.902   4.669   6.528  0.8548  1.3085 -0.2593
 7965SOL    HW235532   0.782   4.659   6.613  0.6691 -1.9192 -1.6360
 7966SOL     OW35533   0.441   4.600   1.906 -0.2233 -0.6367 -0.0806
 7966SOL    HW135534   0.537   4.601   1.902 -0.1548  2.4970  2.2428
 7966SOL    HW235535   0.426   4.553   1.824  3.6092 -2.8898  0.5107
 7967SOL     OW35536   0.323   1.752   4.868 -0.0663 -0.7091 -0.2409
 7967SOL    HW135537   0.241   1.758   4.918  0.3783  0.7159  0.3281
 7967SOL    HW235538   0.351   1.841   4.890  2.3063 -1.4672 -0.1950
 7968SOL     OW35539   1.692   0.922   7.767 -0.4803  0.8787 -0.2801
 7968SOL    HW135540   1.660   0.844   7.721 -3.1632  1.2509  0.9586
 7968SOL    HW235541   1.708   0.894   7.857  1.3559 -0.7367 -1.1129
 7969SOL     OW35542   3.462   0.820   9.213 -0.1412 -0.5764  0.1684
 7969SOL    HW135543   3.480   0.735   9.253  0.5806 -0.4596  0.0881
 7969SOL    HW235544   3.541   0.868   9.236 -0.1995 -0.5977  0.4148
 7970SOL     OW35545   0.531   2.181   1.552 -0.3095 -0.0998 -0.0825
 7970SOL    HW135546   0.624   2.192   1.574 -0.5413 -1.0002  1.2984
 7970SOL    HW235547   0.505   2.261   1.596  0.8663  2.0217 -3.2730
 7971SOL     OW35548   0.492   4.652   5.901  0.3739  0.2691  0.4778
 7971SOL    HW135549   0.535   4.650   5.815  0.7105  0.1231  0.6498
 7971SOL    HW235550   0.404   4.624   5.875  0.3362  1.6692 -0.9531
 7972SOL     OW35551   2.477   1.174   1.183  0.0002 -0.5315 -0.1335
 7972SOL    HW135552   2.414   1.143   1.117 -0.2355 -1.1073  0.3625
 7972SOL    HW235553   2.532   1.096   1.181 -0.8771 -1.1357 -0.8297
 7973SOL     OW35554   1.931   0.675   7.719 -0.7656 -0.1773  0.3102
 7973SOL    HW135555   1.950   0.743   7.655 -0.5176 -0.3576  0.1955
 7973SOL    HW235556   1.835   0.685   7.720 -0.8541 -1.0489  0.4586
 7974SOL     OW35557   2.386   1.636  16.697 -0.1912 -0.0426  0.3279
 7974SOL    HW135558   2.445   1.684  16.639 -1.0229 -0.5273 -0.9214
 7974SOL    HW235559   2.450   1.568  16.719 -0.3523 -0.7334 -1.3710
 7975SOL     OW35560   4.127   0.118  13.061  0.4898 -0.0819  0.4807
 7975SOL    HW135561   4.087   0.031  13.067  2.2352 -0.9638 -1.0546
 7975SOL    HW235562   4.078   0.148  13.138  1.2582  0.5851  0.7009
 7976SOL     OW35563   1.340   3.153   8.647 -0.6389 -0.2524 -0.1048
 7976SOL    HW135564   1.393   3.191   8.577 -2.3840  2.0466 -0.1846
 7976SOL    HW235565   1.318   3.070   8.606 -0.5788  1.5158 -3.7122
 7977SOL     OW35566   3.844   4.604   2.738  0.2134  0.1483 -0.0275
 7977SOL    HW135567   3.798   4.658   2.802 -0.9949 -1.2364  0.2914
 7977SOL    HW235568   3.781   4.589   2.667 -0.6501  1.0156  0.5607
 7978SOL     OW35569   3.897   2.370   2.539 -0.2249 -0.0816  0.3952
 7978SOL    HW135570   3.884   2.325   2.622 -1.7007 -1.4579 -0.5699
 7978SOL    HW235571   3.810   2.353   2.501 -0.3909 -0.2540  0.8486
 7979SOL     OW35572   3.898   2.396  14.250  0.1335 -0.4502 -0.1059
 7979SOL    HW135573   3.812   2.429  14.224  1.1044  0.7985 -1.7292
 7979SOL    HW235574   3.935   2.477  14.287  0.0242  0.6986 -2.4842
 7980SOL     OW35575   4.729   1.872   4.559 -0.1911 -0.0759  0.3750
 7980SOL    HW135576   4.641   1.891   4.528  0.2814 -1.9159 -2.0949
 7980SOL    HW235577   4.729   1.777   4.569 -2.7345  0.0471  1.5286
 7981SOL     OW35578   1.610   0.820   3.668 -0.7356  0.3986  0.4905
 7981SOL    HW135579   1.700   0.808   3.699 -0.4580  0.0953 -0.4279
 7981SOL    HW235580   1.572   0.854   3.750 -0.1233  3.2085 -0.3924
 7982SOL     OW35581   0.382   2.561  16.022  0.1626  0.4052 -0.3516
 7982SOL    HW135582   0.346   2.609  15.947  1.1184  1.0130 -0.4266
 7982SOL    HW235583   0.406   2.484  15.972 -1.8837  0.0451 -0.8020
 7983SOL     OW35584   4.531   3.303  12.619 -0.1481 -0.0695  0.1389
 7983SOL    HW135585   4.570   3.364  12.556 -1.5629  0.7709  0.0769
 7983SOL    HW235586   4.605   3.303  12.680  0.3396  1.1123 -0.4477
 7984SOL     OW35587   2.864   2.204   3.629  0.0710  0.0468 -0.0796
 7984SOL    HW135588   2.777   2.243   3.627  0.2830  0.5833  1.1609
 7984SOL    HW235589   2.886   2.213   3.536  2.4247  1.8932  0.6554
 7985SOL     OW35590   4.496   1.424   0.088 -0.1964  0.3668 -0.2423
 7985SOL    HW135591   4.460   1.499   0.135 -0.6907  0.0031 -0.0386
 7985SOL    HW235592   4.585   1.458   0.084  0.3990 -1.3419 -1.3955
 7986SOL     OW35593   4.312   2.398  15.820  0.2678 -0.3273  0.2163
 7986SOL    HW135594   4.332   2.468  15.757  0.3239 -1.7020 -1.2700
 7986SOL    HW235595   4.217   2.400  15.832  0.0165  2.2336 -2.1221
 7987SOL     OW35596   2.425   0.733   4.311 -0.6152 -0.5129 -0.0227
 7987SOL    HW135597   2.346   0.773   4.277 -0.1224  0.3424 -0.1545
 7987SOL    HW235598   2.405   0.640   4.300  1.3577 -0.5801 -2.8075
 7988SOL     OW35599   0.656   1.865   8.899  0.0618  0.4180 -0.1469
 7988SOL    HW135600   0.736   1.908   8.926  0.8121 -1.0145 -0.0627
 7988SOL    HW235601   0.688   1.783   8.861  1.5266  1.6574 -1.6030
 7989SOL     OW35602   3.943   2.556  13.185  0.6070 -0.1073 -0.5483
 7989SOL    HW135603   4.036   2.550  13.205  0.4337 -1.9747 -0.3109
 7989SOL    HW235604   3.936   2.647  13.155  1.4032 -0.1702 -0.9066
 7990SOL     OW35605   4.101   2.733   2.666  0.2267  0.4939 -0.0863
 7990SOL    HW135606   4.084   2.754   2.757  0.4897 -0.4151  0.1710
 7990SOL    HW235607   4.016   2.701   2.636 -0.0599  0.6163  0.6058
 7991SOL     OW35608   2.068   3.893   5.808 -0.6135 -0.8630 -0.4342
 7991SOL    HW135609   1.989   3.873   5.757 -2.8255 -0.9163  2.9793
 7991SOL    HW235610   2.076   3.986   5.786 -1.2061 -1.2235 -2.1663
 7992SOL     OW35611   2.675   4.326   8.309 -0.8699 -0.5914 -0.5001
 7992SOL    HW135612   2.580   4.325   8.323 -0.5347 -0.6042  1.8305
 7992SOL    HW235613   2.678   4.307   8.215  0.0967 -0.9347 -0.4001
 7993SOL     OW35614   1.949   4.150   0.877  0.0664 -0.7815  0.3644
 7993SOL    HW135615   1.927   4.241   0.896  0.2138 -0.8361  0.7939
 7993SOL    HW235616   1.919   4.106   0.957 -2.8016  1.2882  0.4468
 7994SOL     OW35617   0.584   4.062  16.362 -0.4866  0.1315  0.3645
 7994SOL    HW135618   0.523   4.098  16.299 -0.0989  0.4188  0.1515
 7994SOL    HW235619   0.658   4.040  16.305 -0.7357  0.5760 -0.1166
 7995SOL     OW35620   2.935   0.448   6.584  0.4489  0.0983  0.6689
 7995SOL    HW135621   2.993   0.382   6.621  0.1552 -0.4057  0.2239
 7995SOL    HW235622   2.861   0.391   6.564  0.8792 -0.1037 -0.3538
 7996SOL     OW35623   0.044   1.013   2.805 -0.5157 -0.5561  0.5603
 7996SOL    HW135624   4.708   1.013   2.745 -1.5899  2.1083  1.8888
 7996SOL    HW235625   0.114   0.987   2.745 -1.0760  0.5021 -0.5377
 7997SOL     OW35626   3.296   1.054  16.760 -0.2596  0.4438 -0.1586
 7997SOL    HW135627   3.220   0.996  16.766 -1.2227  1.8533  1.1057
 7997SOL    HW235628   3.252   1.139  16.769 -0.7680  0.1715 -0.0493
 7998SOL     OW35629   3.799   0.274   5.252 -0.0294  0.4342 -0.1100
 7998SOL    HW135630   3.793   0.330   5.329  1.4637  1.7130 -0.9326
 7998SOL    HW235631   3.705   0.253   5.256 -0.0943  0.8572  0.5129
 7999SOL     OW35632   1.144   2.913   7.900 -0.0940  0.0879 -0.0855
 7999SOL    HW135633   1.138   2.925   7.805  0.5663  1.3768  0.0322
 7999SOL    HW235634   1.238   2.904   7.910  0.0859 -0.7191 -2.6374
 8000SOL     OW35635   4.619   0.164  13.587 -0.1720  0.0801 -0.5105
 8000SOL    HW135636   4.525   0.184  13.581 -0.2608  0.5238  2.4027
 8000SOL    HW235637   4.653   0.163  13.498 -0.3187 -1.7687 -0.5299
 8001SOL     OW35638   1.597   3.682   1.249 -0.1866 -0.5725 -0.2686
 8001SOL    HW135639   1.661   3.630   1.297 -1.0497 -1.4078 -0.0404
 8001SOL    HW235640   1.644   3.702   1.168  0.6738  3.2711  1.1602
 8002SOL     OW35641   3.611   3.418   8.735  0.1940  0.2358 -0.5475
 8002SOL    HW135642   3.698   3.388   8.711  0.9687  0.7644  1.6304
 8002SOL    HW235643   3.572   3.332   8.748  0.9222 -0.4360 -2.7566
 8003SOL     OW35644   0.846   0.368   7.315 -0.0527 -0.1660  0.5661
 8003SOL    HW135645   0.870   0.449   7.270 -0.6896 -0.2921  0.0009
 8003SOL    HW235646   0.934   0.343   7.342  0.2641  2.1445  1.7137
 8004SOL     OW35647   4.525   1.847   4.265  0.4554  0.3275  0.1865
 8004SOL    HW135648   4.473   1.846   4.345 -0.7467  1.0107 -0.5724
 8004SOL    HW235649   4.571   1.765   4.283 -0.0020  0.2828  1.1096
 8005SOL     OW35650   3.134   3.471  12.580 -0.3587 -0.4057 -0.4931
 8005SOL    HW135651   3.090   3.404  12.529  0.3325 -1.7766  0.7004
 8005SOL    HW235652   3.190   3.410  12.629 -0.2280 -0.2386 -0.4365
 8006SOL     OW35653   1.444   1.407   9.584  0.1581 -0.0255 -0.1068
 8006SOL    HW135654   1.459   1.313   9.577 -3.2154 -0.6404  1.3403
 8006SOL    HW235655   1.384   1.419   9.657  0.0531  2.8959 -0.6754
 8007SOL     OW35656   4.496   2.955   1.308 -0.8481 -0.1577  0.6954
 8007SOL    HW135657   4.538   2.911   1.381 -0.2178  0.7013  0.8507
 8007SOL    HW235658   4.517   3.045   1.330 -0.5380  0.1199 -0.7167
 8008SOL     OW35659   3.117   4.468  15.449  0.7649 -0.6418  0.4529
 8008SOL    HW135660   3.157   4.412  15.383 -3.5972 -0.3578 -2.4743
 8008SOL    HW235661   3.130   4.422  15.532  0.4181  0.3455  1.0578
 8009SOL     OW35662   0.494   2.874   6.539 -0.3613  0.5293  0.2388
 8009SOL    HW135663   0.587   2.895   6.532 -0.1791 -0.8238 -1.4068
 8009SOL    HW235664   0.449   2.958   6.525 -2.5726 -0.4673  1.2404
 8010SOL     OW35665   0.709   1.606   3.304  0.6310  0.2528  0.0779
 8010SOL    HW135666   0.660   1.678   3.264 -0.1074 -0.4893 -0.3667
 8010SOL    HW235667   0.680   1.537   3.243  0.8923 -1.5630  2.0114
 8011SOL     OW35668   1.965   1.577   4.950  0.2303  0.1499 -0.2950
 8011SOL    HW135669   2.020   1.632   5.006  1.8793 -2.0304  0.2116
 8011SOL    HW235670   1.907   1.528   5.008  1.3835 -1.1127 -0.2139
 8012SOL     OW35671   2.235   1.751   0.259 -0.1272  0.0821  0.5193
 8012SOL    HW135672   2.225   1.690   0.332 -0.7995  1.0789  1.2583
 8012SOL    HW235673   2.312   1.723   0.210  0.0406 -1.4701  1.6487
 8013SOL     OW35674   0.610   3.049   7.979  0.0804 -0.4444  0.5021
 8013SOL    HW135675   0.570   3.037   7.893  0.0115 -0.3701  0.5234
 8013SOL    HW235676   0.661   3.129   7.967 -1.5458  0.3824 -0.9226
 8014SOL     OW35677   0.723   1.897   4.402  0.1321 -0.9382 -0.1723
 8014SOL    HW135678   0.709   1.918   4.495 -2.5199 -1.1278 -0.5267
 8014SOL    HW235679   0.723   1.982   4.358  0.8294 -1.2696 -0.7954
 8015SOL     OW35680   4.493   4.334   5.233  0.4258 -0.2204  0.0251
 8015SOL    HW135681   4.565   4.297   5.181  1.2375  0.7150  0.4717
 8015SOL    HW235682   4.526   4.407   5.285  3.2732 -0.4515 -1.4571
 8016SOL     OW35683   2.543   4.149   3.103 -0.4932  0.0031 -0.3055
 8016SOL    HW135684   2.595   4.080   3.145  0.8115  1.0316 -0.2661
 8016SOL    HW235685   2.602   4.218   3.132 -0.6962  0.9068 -2.0277
 8017SOL     OW35686   0.736   1.497  17.723 -0.3365  0.0693 -0.2082
 8017SOL    HW135687   0.664   1.540   0.018  0.0516  1.2973 -0.7401
 8017SOL    HW235688   0.733   1.404  17.745 -1.4836 -0.0399 -0.8203
 8018SOL     OW35689   4.410   3.119  12.106  0.4706  0.0829  0.4391
 8018SOL    HW135690   4.451   3.046  12.154 -0.4054 -0.9744 -0.4307
 8018SOL    HW235691   4.450   3.195  12.148  1.7360 -0.5174  0.3350
 8019SOL     OW35692   4.309   4.398   9.070 -0.1870  0.1435  0.0946
 8019SOL    HW135693   4.274   4.309   9.068 -0.4766  0.3143 -1.9121
 8019SOL    HW235694   4.241   4.446   9.117 -2.7840 -2.3416 -1.1067
 8020SOL     OW35695   3.457   4.514  16.423 -0.0610  0.0396 -0.1023
 8020SOL    HW135696   3.498   4.431  16.398 -2.2481 -1.2571  0.6000
 8020SOL    HW235697   3.505   4.574  16.365 -1.7460  1.9760  0.4911
 8021SOL     OW35698   4.619   2.653   9.898 -0.2190 -0.1723 -0.0604
 8021SOL    HW135699   4.626   2.560   9.918  0.7962 -0.3102 -1.0367
 8021SOL    HW235700   4.711   2.676   9.886  0.0740 -1.1145  0.3762
 8022SOL     OW35701   2.471   3.924   9.804 -0.0517 -0.2525 -0.1612
 8022SOL    HW135702   2.407   3.982   9.763  1.1325  0.2380 -1.2984
 8022SOL    HW235703   2.416   3.850   9.830  0.0154 -0.3739 -0.3729
 8023SOL     OW35704   1.382   1.232   1.979  0.4871 -0.0588  0.5439
 8023SOL    HW135705   1.426   1.169   1.922 -1.7857  0.3597 -1.6712
 8023SOL    HW235706   1.425   1.310   1.944  0.0411 -1.1283 -2.4298
 8024SOL     OW35707   0.302   2.867   4.241  0.0054  0.8137 -0.9322
 8024SOL    HW135708   0.319   2.884   4.333 -2.0471 -0.9663 -0.2441
 8024SOL    HW235709   0.314   2.958   4.213  2.4132  0.4821 -0.9615
 8025SOL     OW35710   0.644   0.363   5.573 -0.5325  0.1341 -0.2674
 8025SOL    HW135711   0.673   0.411   5.650  0.9419 -0.9080 -0.1822
 8025SOL    HW235712   0.592   0.427   5.523 -0.7182 -0.9780 -1.5062
 8026SOL     OW35713   0.585   3.435   7.488  0.4268  0.3130 -0.5122
 8026SOL    HW135714   0.672   3.462   7.518 -1.2944  3.1415  1.9576
 8026SOL    HW235715   0.584   3.479   7.403  0.8104 -0.5533 -0.9671
 8027SOL     OW35716   3.057   2.223  12.591  0.1106  0.0166  0.3331
 8027SOL    HW135717   3.059   2.268  12.675  1.1644  2.6722 -1.1083
 8027SOL    HW235718   3.026   2.137  12.619 -1.4802  0.4176 -0.1738
 8028SOL     OW35719   4.148   1.051   7.714  0.0015  0.6350 -0.3243
 8028SOL    HW135720   4.208   1.087   7.648 -0.5326  0.5349 -0.8661
 8028SOL    HW235721   4.081   1.024   7.651 -0.5632 -1.5942  1.2206
 8029SOL     OW35722   3.726   4.576   9.805  0.6278 -0.1711 -0.3872
 8029SOL    HW135723   3.723   4.597   9.712 -1.7338 -0.9872 -0.4774
 8029SOL    HW235724   3.720   4.481   9.803  0.6429 -0.1806  0.0071
 8030SOL     OW35725   1.003   2.456   7.501 -0.8548 -0.4194  0.1913
 8030SOL    HW135726   0.980   2.452   7.408  1.4644  2.2415 -0.4879
 8030SOL    HW235727   0.935   2.400   7.538 -1.7150  0.9630  0.7321
 8031SOL     OW35728   2.204   0.856   2.210 -0.5236  0.0418 -0.2436
 8031SOL    HW135729   2.207   0.765   2.181  0.9528  0.2342 -0.6982
 8031SOL    HW235730   2.227   0.837   2.301 -0.4037 -2.5475 -0.7959
 8032SOL     OW35731   4.672   1.350   3.060 -0.3186  0.6193  0.2635
 8032SOL    HW135732   4.619   1.429   3.073 -1.1100  0.2929 -0.9711
 8032SOL    HW235733   4.620   1.304   2.995 -0.5697  0.3197  0.6795
 8033SOL     OW35734   0.302   3.444   4.741 -0.2709 -0.5597  0.2208
 8033SOL    HW135735   0.207   3.446   4.731 -0.1334  0.6535 -0.8693
 8033SOL    HW235736   0.325   3.513   4.679  0.9124 -1.2399 -0.1064
 8034SOL     OW35737   2.165   0.286  17.165 -0.4691 -0.2071 -0.0912
 8034SOL    HW135738   2.243   0.335  17.191 -1.9780  1.3655  1.5666
 8034SOL    HW235739   2.138   0.338  17.090 -1.3077 -0.0486  0.3130
 8035SOL     OW35740   3.110   4.483   0.255 -0.1367 -0.4177  0.1295
 8035SOL    HW135741   3.167   4.551   0.291  0.0931 -0.4354 -0.1997
 8035SOL    HW235742   3.024   4.511   0.286 -0.2514  0.7559 -1.2290
 8036SOL     OW35743   2.889   1.149   2.517  0.5684 -0.2073 -0.2638
 8036SOL    HW135744   2.819   1.169   2.580  0.5767  0.2292 -0.3954
 8036SOL    HW235745   2.968   1.186   2.557  2.7062 -2.7586 -2.1086
 8037SOL     OW35746   3.952   0.582   4.420  0.2454 -0.0062  0.0483
 8037SOL    HW135747   3.992   0.502   4.455  2.3129  0.5354 -1.1115
 8037SOL    HW235748   3.863   0.552   4.398  0.2603 -1.1206  1.4413
 8038SOL     OW35749   1.484   3.900   9.033 -0.3759 -0.4322 -0.0874
 8038SOL    HW135750   1.401   3.880   9.075  0.1256  0.5946  1.3755
 8038SOL    HW235751   1.490   3.821   8.979  0.2248 -0.5914  0.2094
 8039SOL     OW35752   2.249   4.286  14.729  0.3568  0.6357 -0.6263
 8039SOL    HW135753   2.341   4.309  14.713  1.3041 -0.8489  2.7300
 8039SOL    HW235754   2.242   4.196  14.699  2.7419 -0.7236  2.9153
 8040SOL     OW35755   1.868   4.542   4.924 -0.2611  0.1709  0.3025
 8040SOL    HW135756   1.791   4.593   4.899 -0.6801 -0.4363  0.3321
 8040SOL    HW235757   1.884   4.498   4.841 -1.4452  0.1313  0.0970
 8041SOL     OW35758   3.140   3.829   2.763 -0.1031  0.4192  0.7663
 8041SOL    HW135759   3.223   3.788   2.786 -0.2163  0.3638  1.0754
 8041SOL    HW235760   3.072   3.761   2.767 -1.2407  1.5196  0.1206
 8042SOL     OW35761   4.262   4.701  14.899  0.4976  0.1690 -0.0662
 8042SOL    HW135762   4.307   4.633  14.950  0.8372  0.0097 -0.5822
 8042SOL    HW235763   4.236   4.669  14.813  0.2875  0.0172  0.0533
 8043SOL     OW35764   4.288   1.595   1.480  0.1549  0.2315 -0.5069
 8043SOL    HW135765   4.220   1.662   1.476  0.7250  0.7884 -0.8471
 8043SOL    HW235766   4.239   1.538   1.421 -0.5372  1.5022 -1.1466
 8044SOL     OW35767   3.551   0.913   8.277  0.4525 -0.2742  0.1509
 8044SOL    HW135768   3.637   0.953   8.268 -0.4563  1.3866 -1.1021
 8044SOL    HW235769   3.556   0.874   8.364  1.2397  0.7731  0.5768
 8045SOL     OW35770   0.741   3.442   3.242 -0.1567 -0.5859 -0.3212
 8045SOL    HW135771   0.789   3.453   3.159  0.5122  0.1624  0.1590
 8045SOL    HW235772   0.744   3.349   3.263  0.6168 -0.4828  0.0196
 8046SOL     OW35773   2.899   1.144   8.774  0.0555 -0.3709  0.0023
 8046SOL    HW135774   2.823   1.187   8.814  0.8601 -0.5131  1.6666
 8046SOL    HW235775   2.967   1.192   8.821 -0.0393  0.8315 -1.1011
 8047SOL     OW35776   3.692   0.192   8.987 -0.1155 -0.1152 -0.2563
 8047SOL    HW135777   3.614   0.136   8.986  0.3817 -0.7849 -1.0936
 8047SOL    HW235778   3.710   0.187   8.894 -1.5574  0.0477 -0.5542
 8048SOL     OW35779   3.781   3.059  12.218  0.4959 -0.0099  0.0458
 8048SOL    HW135780   3.863   3.024  12.182  0.2137  0.5951 -1.1876
 8048SOL    HW235781   3.776   3.009  12.299 -1.7304  0.7599  0.3647
 8049SOL     OW35782   3.039   1.880  15.587  0.4591 -0.0731  0.3415
 8049SOL    HW135783   2.981   1.913  15.519 -0.9994 -0.6816  1.2879
 8049SOL    HW235784   3.062   1.801  15.539  3.2299  0.9528 -0.0358
 8050SOL     OW35785   2.763   1.066  12.711 -0.8143  0.9247 -0.2432
 8050SOL    HW135786   2.715   0.985  12.727  1.4569 -0.3178  0.3124
 8050SOL    HW235787   2.757   1.115  12.793  0.4095  0.7696 -0.0481
 8051SOL     OW35788   3.620   3.591   7.671  0.0680  0.3656 -0.3355
 8051SOL    HW135789   3.638   3.660   7.607  0.7067  1.4199  0.9837
 8051SOL    HW235790   3.631   3.638   7.753  0.7855 -0.7906  0.2248
 8052SOL     OW35791   4.053   1.719   1.498 -0.2081  0.3410 -0.3825
 8052SOL    HW135792   4.024   1.802   1.461 -2.3309 -0.4238 -0.4121
 8052SOL    HW235793   3.985   1.700   1.562 -0.5377 -4.7459 -2.2213
 8053SOL     OW35794   0.528   1.319   8.051  0.1545 -0.0237 -0.2197
 8053SOL    HW135795   0.578   1.399   8.065 -0.2921  0.1019  0.6679
 8053SOL    HW235796   0.458   1.328   8.116  1.7659  1.6953  1.2641
 8054SOL     OW35797   3.291   3.134   6.051 -0.4164  0.4153  0.4586
 8054SOL    HW135798   3.230   3.205   6.071 -2.0027 -0.5783 -0.8401
 8054SOL    HW235799   3.304   3.151   5.958 -0.8535  1.6496  0.6215
 8055SOL     OW35800   1.686   4.486  11.833 -0.2709 -0.0857  0.1977
 8055SOL    HW135801   1.641   4.410  11.797  0.7242  0.4867 -2.3184
 8055SOL    HW235802   1.770   4.490  11.787 -1.9290 -2.2802 -2.9892
 8056SOL     OW35803   3.057   1.573   6.625  0.5535  0.0176 -0.1153
 8056SOL    HW135804   2.975   1.537   6.659 -0.8931  0.8883 -2.6435
 8056SOL    HW235805   3.028   1.601   6.538  0.1499 -0.1399 -0.0320
 8057SOL     OW35806   1.464   0.541   8.914 -0.3529  0.2199  0.0009
 8057SOL    HW135807   1.369   0.549   8.904 -0.4993 -1.0645  0.2498
 8057SOL    HW235808   1.493   0.513   8.828  1.3539 -0.7175  0.8734
 8058SOL     OW35809   1.608   2.965   2.197  0.1454  0.2212  0.2179
 8058SOL    HW135810   1.551   3.033   2.162  0.8894  0.1774 -1.0726
 8058SOL    HW235811   1.541   2.907   2.234  1.2548 -0.3573  1.3056
 8059SOL     OW35812   1.999   4.154   1.921  0.8220 -0.3128  0.3260
 8059SOL    HW135813   1.949   4.126   1.997  2.4918 -0.3344  1.4067
 8059SOL    HW235814   2.088   4.159   1.955  0.5737  0.3337  0.8805
 8060SOL     OW35815   2.769   3.048   3.123 -0.4600 -0.0605 -0.2398
 8060SOL    HW135816   2.758   3.141   3.102 -0.8671 -0.5635 -2.2415
 8060SOL    HW235817   2.766   3.050   3.219  0.6329 -0.9918 -0.1902
 8061SOL     OW35818   2.737   3.720   3.574  0.5133 -0.2830 -0.1334
 8061SOL    HW135819   2.666   3.665   3.607  0.2982  0.0040 -0.1195
 8061SOL    HW235820   2.809   3.658   3.582 -0.6114 -1.6656 -0.7820
 8062SOL     OW35821   2.534   4.143   2.632  0.6273 -0.1984 -0.3611
 8062SOL    HW135822   2.456   4.099   2.598 -0.1698  1.4235 -0.5978
 8062SOL    HW235823   2.530   4.221   2.577  2.3872  0.5656  0.5968
 8063SOL     OW35824   4.255   4.022   1.559 -0.2110  0.8334  0.0170
 8063SOL    HW135825   4.282   4.088   1.622 -0.2283 -0.3194  1.2314
 8063SOL    HW235826   4.339   3.993   1.522 -0.5082  0.1964 -0.1606
 8064SOL     OW35827   0.555   2.634   4.645  0.1241  0.2995  0.4648
 8064SOL    HW135828   0.530   2.542   4.634  1.6608  0.1513 -1.7547
 8064SOL    HW235829   0.465   2.666   4.635 -0.1676 -0.4976  0.4941
 8065SOL     OW35830   2.388   2.207  16.195  0.2627 -0.6392 -0.6154
 8065SOL    HW135831   2.467   2.167  16.231  0.2283 -0.5011 -0.3857
 8065SOL    HW235832   2.407   2.243  16.109 -1.9939 -0.9206 -1.2377
 8066SOL     OW35833   0.072   3.941   6.654  0.4925  0.4495 -0.3533
 8066SOL    HW135834   0.062   3.852   6.622 -0.0623 -0.5078  2.5407
 8066SOL    HW235835   0.068   3.929   6.749  0.0755  2.3743 -0.1157
 8067SOL     OW35836   0.707   1.401  10.659  0.3614 -0.3181 -1.1074
 8067SOL    HW135837   0.751   1.440  10.735  0.0163  0.3720 -1.2604
 8067SOL    HW235838   0.615   1.404  10.686  0.6275  0.8014 -0.2945
 8068SOL     OW35839   4.649   3.277  11.541  0.2571  0.3068 -0.1284
 8068SOL    HW135840   4.710   3.312  11.476  2.2903  3.5373  3.5275
 8068SOL    HW235841   4.593   3.350  11.563  0.8222  0.9296 -0.7435
 8069SOL     OW35842   3.774   1.769   6.747 -0.3067 -0.1334 -0.1970
 8069SOL    HW135843   3.865   1.799   6.748 -0.0802 -0.8503  0.2473
 8069SOL    HW235844   3.752   1.785   6.839  1.7665  2.1559 -0.1088
 8070SOL     OW35845   4.037   2.875   8.885  0.0770  0.3122  0.2277
 8070SOL    HW135846   4.075   2.825   8.958  0.3006  1.1345  0.6684
 8070SOL    HW235847   4.107   2.865   8.820  0.6795 -1.0854  1.0975
 8071SOL     OW35848   2.652   0.963   1.181  0.1608 -0.4931  0.4691
 8071SOL    HW135849   2.642   0.910   1.102  2.6149 -0.6294  0.2547
 8071SOL    HW235850   2.730   0.923   1.220  0.5660 -2.0508 -1.9318
 8072SOL     OW35851   1.691   0.984   9.425  0.1609  0.0257 -0.4086
 8072SOL    HW135852   1.640   0.907   9.400 -0.9971  0.0434  1.9112
 8072SOL    HW235853   1.627   1.038   9.471  0.2547 -2.1638  2.2687
 8073SOL     OW35854   0.535   3.193   3.535  0.4236 -0.3922  0.1187
 8073SOL    HW135855   0.568   3.143   3.609  1.4139 -0.8403 -0.6166
 8073SOL    HW235856   0.443   3.170   3.549  0.3497  0.4563  0.9468
 8074SOL     OW35857   0.574   0.097  15.139 -0.2210  0.3642  0.1597
 8074SOL    HW135858   0.522   0.038  15.194 -0.7380  1.0482  0.4080
 8074SOL    HW235859   0.653   0.046  15.121 -0.6977 -0.0555 -0.7948
 8075SOL     OW35860   3.972   1.468   6.514 -0.2828  0.4987 -1.1335
 8075SOL    HW135861   3.886   1.504   6.535  0.0012 -0.3213  1.3833
 8075SOL    HW235862   3.986   1.505   6.427 -1.9070  4.6143  0.3291
 8076SOL     OW35863   4.287   0.617   3.278  0.2385  0.6285 -0.0166
 8076SOL    HW135864   4.353   0.566   3.231  2.2725  0.8425  2.5500
 8076SOL    HW235865   4.304   0.575   3.363  2.0941 -0.6404 -1.0134
 8077SOL     OW35866   2.114   4.434   4.058  0.0868  0.4027 -0.0197
 8077SOL    HW135867   2.087   4.505   4.116 -1.2966 -0.2090  0.0883
 8077SOL    HW235868   2.142   4.483   3.981  3.4344 -0.3471  0.7242
 8078SOL     OW35869   2.449   0.428   0.651 -0.2342 -0.2907  0.1253
 8078SOL    HW135870   2.375   0.442   0.593 -0.9427  1.6111  1.4654
 8078SOL    HW235871   2.425   0.478   0.730  0.4707  1.8719 -1.0123
 8079SOL     OW35872   2.380   1.705  16.996 -0.2035 -0.0844  0.1017
 8079SOL    HW135873   2.298   1.738  17.033  1.6682  1.9188  2.4705
 8079SOL    HW235874   2.352   1.677  16.909  2.5349  0.8380 -1.0788
 8080SOL     OW35875   4.632   4.663   3.232 -0.6977  0.0954 -0.0969
 8080SOL    HW135876   4.654   4.714   3.310 -0.9651 -0.9154  0.6443
 8080SOL    HW235877   4.647   4.724   3.160  1.3945 -1.2203 -0.7727
 8081SOL     OW35878   2.644   2.486   5.361 -0.8854  0.0123 -0.0705
 8081SOL    HW135879   2.642   2.393   5.339  0.9642 -1.0390  4.2199
 8081SOL    HW235880   2.652   2.531   5.277 -0.2145  0.9375  0.4756
 8082SOL     OW35881   3.677   2.359   2.408  0.2027  0.7172  0.1459
 8082SOL    HW135882   3.599   2.349   2.463  1.3145 -0.8878  1.4139
 8082SOL    HW235883   3.641   2.348   2.320  1.5788  0.5007 -0.3875
 8083SOL     OW35884   1.518   2.183   6.179 -0.7798  0.6159 -1.0237
 8083SOL    HW135885   1.454   2.155   6.245  0.2179 -0.8582 -0.6660
 8083SOL    HW235886   1.561   2.257   6.222 -2.2033  1.1463 -0.5075
 8084SOL     OW35887   3.029   3.498   0.602  0.3656 -0.0825  0.3602
 8084SOL    HW135888   2.934   3.507   0.590  0.6437 -0.6444 -2.2014
 8084SOL    HW235889   3.039   3.408   0.570  0.8344 -0.0623  0.4516
 8085SOL     OW35890   2.925   3.421   6.225  0.1793  0.1307  0.0389
 8085SOL    HW135891   2.846   3.386   6.184 -1.8064  4.1356  0.4137
 8085SOL    HW235892   2.901   3.411   6.318  1.6254 -2.3688  0.1325
 8086SOL     OW35893   1.481   1.871   3.751  0.7184  0.2635 -0.2955
 8086SOL    HW135894   1.419   1.909   3.689  2.0459 -0.1165 -1.8523
 8086SOL    HW235895   1.447   1.781   3.747  2.4192 -0.3457 -0.7837
 8087SOL     OW35896   0.517   0.959  12.298 -0.4472  0.5837  0.0611
 8087SOL    HW135897   0.467   0.943  12.378  0.4014 -1.2278  0.2159
 8087SOL    HW235898   0.605   0.948  12.333 -0.7642 -2.0439  0.0263
 8088SOL     OW35899   3.520   1.397   2.789 -0.1291  0.2465 -0.4528
 8088SOL    HW135900   3.477   1.321   2.751  0.1503 -0.5443  0.7919
 8088SOL    HW235901   3.553   1.446   2.714  2.4571 -0.0321  0.5072
 8089SOL     OW35902   2.303   2.614  11.369  0.4844 -0.6014 -0.2951
 8089SOL    HW135903   2.254   2.619  11.287  3.5958 -0.7018 -2.1637
 8089SOL    HW235904   2.253   2.546  11.415  2.1534 -0.6621  1.4301
 8090SOL     OW35905   2.559   4.727   4.212  0.4168 -0.5817  0.3010
 8090SOL    HW135906   2.545   4.665   4.140  1.5214 -0.8902  0.3509
 8090SOL    HW235907   2.633   4.689   4.259  0.8212  1.5510  1.3525
 8091SOL     OW35908   2.078   1.498   6.786  0.5735 -0.0329  0.3685
 8091SOL    HW135909   1.984   1.502   6.768  0.5535 -2.0876  0.0102
 8091SOL    HW235910   2.080   1.549   6.866  2.1901  0.8250 -0.2218
 8092SOL     OW35911   0.867   2.634   3.481  0.2265  0.6122  0.0734
 8092SOL    HW135912   0.950   2.681   3.484  0.5005  0.1142  0.2761
 8092SOL    HW235913   0.860   2.627   3.386 -2.6255 -2.6952  0.5411
 8093SOL     OW35914   2.814   1.797   4.188 -0.3468 -0.2643  0.2358
 8093SOL    HW135915   2.749   1.793   4.119  0.6379  1.6647 -0.7817
 8093SOL    HW235916   2.797   1.886   4.218 -0.4851 -0.9720  2.2834
 8094SOL     OW35917   3.591   0.467  13.003 -0.1905  0.6512  0.1895
 8094SOL    HW135918   3.617   0.535  12.941  0.6944  1.2554  1.2419
 8094SOL    HW235919   3.516   0.422  12.962  1.4290 -0.5280 -1.5186
 8095SOL     OW35920   0.378   1.541   7.790 -0.2297 -0.1014 -0.2072
 8095SOL    HW135921   0.448   1.606   7.789  0.0939 -0.4038  1.6254
 8095SOL    HW235922   0.315   1.599   7.749 -0.2301 -0.6745 -1.0127
 8096SOL     OW35923   3.541   4.116   2.888  0.1664 -0.0840 -0.1237
 8096SOL    HW135924   3.465   4.058   2.878 -1.3339  1.8118  0.3027
 8096SOL    HW235925   3.552   4.164   2.806 -1.0868  2.1680  1.0365
 8097SOL     OW35926   1.016   4.352   3.409 -0.1444 -0.5971 -0.4458
 8097SOL    HW135927   0.928   4.370   3.375 -0.1367  1.3257  0.5999
 8097SOL    HW235928   1.040   4.269   3.367 -2.4880 -1.7695  0.5439
 8098SOL     OW35929   1.697   4.025   8.003 -0.0004  0.1455 -0.1982
 8098SOL    HW135930   1.616   4.077   7.999  1.1468  1.8143 -1.4819
 8098SOL    HW235931   1.666   3.953   8.059  0.0946 -0.9795 -1.5977
 8099SOL     OW35932   3.483   0.880  11.728 -0.3969  0.0734 -0.2867
 8099SOL    HW135933   3.444   0.918  11.807 -0.1763 -1.0276  0.3458
 8099SOL    HW235934   3.562   0.932  11.718  0.6321 -1.3603  0.3168
 8100SOL     OW35935   2.231   3.476  17.543 -0.1177  0.0865  0.1564
 8100SOL    HW135936   2.272   3.562  17.551  0.1648  0.1185 -1.5122
 8100SOL    HW235937   2.173   3.481  17.619  0.5075 -2.4836  0.8132
 8101SOL     OW35938   4.627   3.731   2.558 -0.1536 -0.5152  0.1105
 8101SOL    HW135939   4.695   3.734   2.625  0.1087 -2.6401 -0.0480
 8101SOL    HW235940   4.551   3.767   2.604  0.2606  0.3415  0.1290
 8102SOL     OW35941   4.221   0.073   5.903 -0.0161 -0.3595  0.2485
 8102SOL    HW135942   4.227   0.110   5.815  1.1333  0.0810  0.5051
 8102SOL    HW235943   4.312   0.042   5.900  0.0161 -0.1123 -1.8482
 8103SOL     OW35944   0.608   3.107   0.338 -0.4155  0.0896  0.0113
 8103SOL    HW135945   0.652   3.025   0.317 -1.2650 -0.5642  0.8258
 8103SOL    HW235946   0.602   3.150   0.253  1.0826  1.0778  0.3933
 8104SOL     OW35947   2.396   3.399   5.224  0.3544  0.0079 -0.0316
 8104SOL    HW135948   2.365   3.485   5.195  1.4579  0.1897 -0.6610
 8104SOL    HW235949   2.487   3.427   5.233 -0.3239  2.3614 -0.3859
 8105SOL     OW35950   0.208   0.542   2.393  0.5540  0.2795  0.0484
 8105SOL    HW135951   0.172   0.586   2.316  1.1641  1.0251  0.1896
 8105SOL    HW235952   0.129   0.491   2.407 -0.4400  1.9021  0.2552
 8106SOL     OW35953   3.549   3.081   5.688  0.4763  0.0809 -0.1445
 8106SOL    HW135954   3.553   3.162   5.739  0.6227 -0.2680  0.4052
 8106SOL    HW235955   3.512   3.109   5.605  0.1698 -0.2662 -0.1273
 8107SOL     OW35956   4.043   3.053   0.045  0.5423  0.1292 -0.0493
 8107SOL    HW135957   3.994   3.090   0.119  1.5268 -0.7008  1.0231
 8107SOL    HW235958   3.983   3.084  17.727  2.6237  2.4649 -0.8121
 8108SOL     OW35959   2.483   1.771   6.265 -0.0135 -0.1126  0.5285
 8108SOL    HW135960   2.499   1.692   6.214 -0.9916  1.8089 -2.7341
 8108SOL    HW235961   2.506   1.840   6.203 -2.8594  0.5332  0.1918
 8109SOL     OW35962   2.261   4.684   1.780 -0.4176 -0.0231  0.0651
 8109SOL    HW135963   2.240   4.591   1.787  0.9630 -0.0554  3.9271
 8109SOL    HW235964   2.191   4.724   1.830 -1.5654 -1.3676 -0.4627
 8110SOL     OW35965   2.068   1.991   8.009  0.6561  0.9389  0.2121
 8110SOL    HW135966   2.080   2.026   8.097  0.0154  1.6666 -0.0004
 8110SOL    HW235967   2.012   1.917   8.033  0.8435  1.0577  1.0462
 8111SOL     OW35968   1.327   2.022   6.296 -0.1660  0.1573  0.4878
 8111SOL    HW135969   1.406   1.973   6.319  1.2426  2.2951  0.1718
 8111SOL    HW235970   1.282   1.963   6.236  1.1449 -1.2738  0.9163
 8112SOL     OW35971   4.353   0.150   7.846  0.3494 -0.8865  0.1596
 8112SOL    HW135972   4.398   0.230   7.873 -0.7171  0.1203 -1.0709
 8112SOL    HW235973   4.427   0.096   7.819  0.5353  0.4675 -2.0206
 8113SOL     OW35974   4.580   4.367   8.705 -0.3016  0.0868  0.1695
 8113SOL    HW135975   4.555   4.447   8.751 -1.7344  1.0639 -2.3124
 8113SOL    HW235976   4.660   4.341   8.751  0.8134  1.7464 -0.8552
 8114SOL     OW35977   3.841   0.762   5.535  0.8374 -0.1269 -0.0045
 8114SOL    HW135978   3.914   0.725   5.487  0.1988 -3.4598  1.6174
 8114SOL    HW235979   3.892   0.784   5.613  0.4101  0.6524  0.0545
 8115SOL     OW35980   2.296   3.421   4.718  0.6050  0.0407  0.1669
 8115SOL    HW135981   2.214   3.379   4.743 -1.4132  1.7384 -3.5892
 8115SOL    HW235982   2.273   3.445   4.628 -0.4961 -0.7752  0.2317
 8116SOL     OW35983   4.609   0.079   1.700 -0.3521  0.0143 -0.7368
 8116SOL    HW135984   4.671   0.142   1.738 -1.7244  1.8155 -1.5245
 8116SOL    HW235985   4.663   0.004   1.676 -0.1211 -0.0261 -0.0984
 8117SOL     OW35986   3.525   0.747  15.986  0.4377 -0.0674  0.4202
 8117SOL    HW135987   3.562   0.773  15.902 -0.6295  2.6639  0.7904
 8117SOL    HW235988   3.501   0.832  16.024  2.2765  1.2324 -1.2786
 8118SOL     OW35989   4.637   4.149   0.692 -0.4115 -0.8875  0.0861
 8118SOL    HW135990   4.714   4.201   0.714  1.0443 -1.5859 -3.3367
 8118SOL    HW235991   4.589   4.149   0.775  2.2869 -2.5240  1.6516
 8119SOL     OW35992   2.839   3.151   7.317 -0.5727 -0.7843  0.3712
 8119SOL    HW135993   2.885   3.209   7.256 -1.6151 -0.2606  0.0783
 8119SOL    HW235994   2.869   3.062   7.296 -1.0124 -0.6335 -0.8634
 8120SOL     OW35995   2.485   0.965   5.796 -0.0823 -0.0361 -0.1516
 8120SOL    HW135996   2.460   0.934   5.709  0.4742  0.9480 -0.6651
 8120SOL    HW235997   2.405   1.015   5.815  0.3297  1.3779 -2.1450
 8121SOL     OW35998   4.439   0.959   0.034 -0.2046 -0.2607  0.5694
 8121SOL    HW135999   4.496   0.973   0.110  1.4862 -1.1631 -0.5353
 8121SOL    HW236000   4.364   1.015   0.053  0.3939  1.0769 -0.9675
 8122SOL     OW36001   0.168   2.265   7.840  0.0386  0.4465  0.4628
 8122SOL    HW136002   0.188   2.209   7.765  0.6384  0.1586  0.8497
 8122SOL    HW236003   0.124   2.344   7.806  1.8295  1.7572  1.2026
 8123SOL     OW36004   4.391   0.388   7.666  0.2847 -0.7073 -0.2082
 8123SOL    HW136005   4.310   0.360   7.624 -0.4244 -0.7589  1.2173
 8123SOL    HW236006   4.459   0.338   7.620  0.5047 -0.4120 -0.2022
 8124SOL     OW36007   3.490   0.391   6.627  0.3694 -0.8172  0.0368
 8124SOL    HW136008   3.536   0.308   6.615 -0.8005 -1.3196 -0.9834
 8124SOL    HW236009   3.406   0.373   6.584 -1.3135  2.0612  2.1303
 8125SOL     OW36010   0.878   2.255   3.979 -0.8218 -0.1763  0.4136
 8125SOL    HW136011   0.917   2.271   3.894  3.0290 -0.0455  2.2119
 8125SOL    HW236012   0.792   2.234   3.944  0.4473  0.8753 -3.3213
 8126SOL     OW36013   3.553   3.512   9.270  0.3225  0.0533  0.2318
 8126SOL    HW136014   3.533   3.576   9.203  1.3009  0.1454  0.0225
 8126SOL    HW236015   3.562   3.565   9.349 -1.1004 -0.9475  1.0641
 8127SOL     OW36016   1.612   3.657  11.964  0.0282 -0.2280  0.2713
 8127SOL    HW136017   1.614   3.685  12.056  3.8702 -0.0246  0.1549
 8127SOL    HW236018   1.642   3.568  11.982 -0.2695 -0.0872  1.4863
 8128SOL     OW36019   2.571   0.149  17.286  0.1970  0.3679  0.0719
 8128SOL    HW136020   2.538   0.110  17.205  2.3952  0.8315 -1.0413
 8128SOL    HW236021   2.608   0.231  17.254 -0.6957 -0.3336 -2.7423
 8129SOL     OW36022   0.434   2.449   5.901 -0.4493  0.4338  0.6146
 8129SOL    HW136023   0.424   2.472   5.994 -0.6489  1.5734  0.3067
 8129SOL    HW236024   0.523   2.413   5.902 -0.5470  0.2014  1.3804
 8130SOL     OW36025   1.685   3.248   1.803 -0.1835 -0.7417 -0.4045
 8130SOL    HW136026   1.775   3.245   1.771  0.0258 -0.7083  0.1805
 8130SOL    HW236027   1.631   3.284   1.733 -0.0697  1.2275  0.5065
 8131SOL     OW36028   0.011   1.074   0.133 -0.3300 -0.4752  0.2803
 8131SOL    HW136029   4.688   1.076   0.207 -1.1583  0.6544 -0.4241
 8131SOL    HW236030   4.722   1.138   0.068 -1.2550 -0.4801  0.6601
 8132SOL     OW36031   3.536   2.632   5.783  0.2765  0.1631 -0.7167
 8132SOL    HW136032   3.532   2.696   5.713 -1.0215 -0.7905 -1.5047
 8132SOL    HW236033   3.618   2.654   5.829  1.1805 -0.0111 -2.2426
 8133SOL     OW36034   0.897   3.616   4.882 -0.2440 -0.0219  0.4291
 8133SOL    HW136035   0.902   3.521   4.876 -1.3459 -0.0660  0.3041
 8133SOL    HW236036   0.841   3.624   4.805  0.3122  3.1795  0.3550
 8134SOL     OW36037   4.334   2.810  17.694 -0.2657 -0.0505 -0.0726
 8134SOL    HW136038   4.288   2.830   0.025 -0.1616 -0.6309  0.1278
 8134SOL    HW236039   4.350   2.900  17.667  1.9030 -0.5309 -0.4188
 8135SOL     OW36040   1.078   4.328   6.644  0.0695 -0.2255  0.4652
 8135SOL    HW136041   1.115   4.266   6.706  1.3786  0.4266  0.3559
 8135SOL    HW236042   1.145   4.397   6.651  1.3196 -1.7549  3.8247
 8136SOL     OW36043   3.186   3.911   7.984 -0.0355  0.4198 -0.1624
 8136SOL    HW136044   3.092   3.919   8.000  0.1011  0.4535  0.6498
 8136SOL    HW236045   3.211   3.978   8.048  0.7387 -0.2164  0.2015
 8137SOL     OW36046   2.733   0.144   9.346  0.1664  0.2806  0.3539
 8137SOL    HW136047   2.754   0.052   9.363  0.5003  0.4052  0.6171
 8137SOL    HW236048   2.778   0.163   9.265 -1.5770 -0.7489 -0.8576
 8138SOL     OW36049   3.438   3.206   9.804 -0.7012  0.1694 -0.6154
 8138SOL    HW136050   3.435   3.124   9.755  1.9542 -1.5072  2.0612
 8138SOL    HW236051   3.531   3.220   9.816 -0.1721 -2.3134 -1.7443
 8139SOL     OW36052   0.475   4.283   8.160 -0.4232 -0.0469 -0.1662
 8139SOL    HW136053   0.546   4.316   8.105  0.3514 -0.6123  0.5015
 8139SOL    HW236054   0.400   4.274   8.101  0.7853  2.8950 -2.1183
 8140SOL     OW36055   0.234   1.742   7.633 -0.8494  0.0943 -0.0089
 8140SOL    HW136056   0.207   1.834   7.635  4.3081  1.6126  0.5898
 8140SOL    HW236057   0.250   1.739   7.539  1.0859  0.7066  0.2989
 8141SOL     OW36058   2.314   1.588   9.049 -0.3058  0.0031 -0.0674
 8141SOL    HW136059   2.396   1.565   9.006 -2.2693 -0.1188 -3.7296
 8141SOL    HW236060   2.273   1.633   8.975 -2.3328 -1.3414  0.2508
 8142SOL     OW36061   2.897   3.444   4.593 -0.6366 -0.2753  0.7820
 8142SOL    HW136062   2.912   3.427   4.686  1.0194 -0.5651  0.4671
 8142SOL    HW236063   2.905   3.357   4.554  0.2363 -0.5012  1.4635
 8143SOL     OW36064   0.494   3.370   7.151 -0.6436 -0.8036  0.5895
 8143SOL    HW136065   0.548   3.384   7.073 -0.9267  2.7990  1.0470
 8143SOL    HW236066   0.526   3.446   7.199 -1.8214  0.6240 -0.8681
 8144SOL     OW36067   0.569   1.382   6.029 -0.3411 -0.5994  0.5326
 8144SOL    HW136068   0.562   1.302   6.081 -0.9135 -0.8945  0.0042
 8144SOL    HW236069   0.503   1.437   6.073  1.5749  2.3000 -0.2204
 8145SOL     OW36070   1.766   2.566  16.893 -0.5115  0.2537 -0.1017
 8145SOL    HW136071   1.690   2.509  16.899 -0.3190  0.3510  3.0117
 8145SOL    HW236072   1.807   2.530  16.814  0.3045  3.9479 -1.3768
 8146SOL     OW36073   4.522   0.357   4.742 -0.0763  0.0390 -0.4180
 8146SOL    HW136074   4.466   0.283   4.765 -0.8894  1.4558  2.2777
 8146SOL    HW236075   4.543   0.336   4.651 -1.4748 -0.0474 -0.7193
 8147SOL     OW36076   4.533   0.364   9.293 -0.3417 -0.4217 -0.2760
 8147SOL    HW136077   4.599   0.297   9.311  0.7337  0.3239 -1.4385
 8147SOL    HW236078   4.565   0.426   9.359 -0.1522  0.2704 -1.0197
 8148SOL     OW36079   0.437   3.876  14.983  0.4916 -0.4966  0.4387
 8148SOL    HW136080   0.512   3.836  15.027 -0.1795 -0.1189  1.9520
 8148SOL    HW236081   0.475   3.939  14.922 -2.3305 -1.4358 -2.2790
 8149SOL     OW36082   3.195   1.145  10.901  0.4371  0.3703 -0.5124
 8149SOL    HW136083   3.153   1.190  10.974 -1.0166 -2.0211  0.1237
 8149SOL    HW236084   3.236   1.216  10.852  0.8702  0.6705  0.2926
 8150SOL     OW36085   0.119   3.280   3.805 -0.3063 -0.2826  0.1341
 8150SOL    HW136086   0.029   3.254   3.786 -0.1958  0.9439 -2.0726
 8150SOL    HW236087   0.131   3.343   3.734  1.4522 -0.6208  0.1119
 8151SOL     OW36088   3.059   0.679   1.419 -0.1972  0.2958  0.6715
 8151SOL    HW136089   3.073   0.601   1.366 -2.1181  1.0223 -0.8754
 8151SOL    HW236090   3.095   0.657   1.505  0.0896 -0.9698  0.2271
 8152SOL     OW36091   4.526   3.988   4.529  0.0928 -0.3944  0.5315
 8152SOL    HW136092   4.470   4.065   4.541  0.7056 -0.0164  0.9991
 8152SOL    HW236093   4.472   3.916   4.563  0.2030 -0.2598  0.9968
 8153SOL     OW36094   4.470   0.013   7.353 -0.1138 -0.6577 -1.0174
 8153SOL    HW136095   4.449   0.103   7.331 -0.2358 -0.0059  1.7709
 8153SOL    HW236096   4.565   0.011   7.338 -0.4865  0.4996 -3.5966
 8154SOL     OW36097   2.376   3.741   7.622 -0.8185 -0.0850 -0.2292
 8154SOL    HW136098   2.436   3.673   7.652  0.9153  0.2886 -2.8706
 8154SOL    HW236099   2.431   3.813   7.591 -1.5139  0.7424  0.4553
 8155SOL     OW36100   3.357   2.153  15.846 -0.3330  0.2293  0.4069
 8155SOL    HW136101   3.284   2.141  15.785  0.9552 -1.8694 -0.7101
 8155SOL    HW236102   3.338   2.095  15.920 -2.9574  0.1890 -0.2840
 8156SOL     OW36103   4.125   1.255   2.978 -0.0694 -0.3044  0.1620
 8156SOL    HW136104   4.094   1.280   3.066 -3.0035 -0.9530 -0.6811
 8156SOL    HW236105   4.159   1.167   2.994 -0.9255 -0.2748  2.1776
 8157SOL     OW36106   3.138   2.348   0.682  0.3569  0.4505 -0.0731
 8157SOL    HW136107   3.190   2.395   0.747  0.8314 -1.5621  1.0229
 8157SOL    HW236108   3.116   2.422   0.626  1.1476 -0.0892 -1.0910
 8158SOL     OW36109   3.063   0.923   1.648 -0.3374 -0.2578  0.0545
 8158SOL    HW136110   3.119   0.958   1.578 -0.5197 -0.5165 -0.2230
 8158SOL    HW236111   3.084   0.830   1.654 -0.2509 -0.0864  2.3593
 8159SOL     OW36112   1.641   3.970   7.419  0.2206  0.0738 -0.2157
 8159SOL    HW136113   1.627   3.876   7.435 -1.7422  0.3696 -0.1695
 8159SOL    HW236114   1.575   4.015   7.472 -0.6834  0.0247 -1.2926
 8160SOL     OW36115   2.626   2.550   7.114  0.6628  0.5331 -0.6473
 8160SOL    HW136116   2.550   2.540   7.055  0.1966  1.2164 -0.1620
 8160SOL    HW236117   2.639   2.644   7.104 -1.7437  1.0579  1.2503
 8161SOL     OW36118   3.378   0.949   4.271 -0.2526 -0.7570  0.5138
 8161SOL    HW136119   3.286   0.925   4.268 -0.2947 -0.2251 -2.0144
 8161SOL    HW236120   3.427   0.902   4.204 -1.9752  0.3648 -1.5171
 8162SOL     OW36121   1.771   1.933   0.175  0.1872  0.1915 -0.2252
 8162SOL    HW136122   1.849   1.880   0.163  0.0995 -0.0904  0.4629
 8162SOL    HW236123   1.792   2.006   0.117  2.5285 -1.1735 -1.0689
 8163SOL     OW36124   0.835   1.532  10.846 -0.0101  0.2491 -0.4918
 8163SOL    HW136125   0.838   1.600  10.914  0.0919  2.4286 -2.7061
 8163SOL    HW236126   0.906   1.555  10.786  0.0503  1.0300 -0.1247
 8164SOL     OW36127   3.852   1.598   8.696 -0.5518 -0.0778  0.0577
 8164SOL    HW136128   3.942   1.630   8.693 -0.9912  1.2347  1.2195
 8164SOL    HW236129   3.816   1.641   8.774 -0.6138  0.8325 -0.4768
 8165SOL     OW36130   3.810   1.769   1.011 -0.2139 -0.0336 -0.0207
 8165SOL    HW136131   3.819   1.812   1.096  0.2105 -0.3716  0.0982
 8165SOL    HW236132   3.720   1.736   1.009 -1.1395  2.5727 -1.1096
 8166SOL     OW36133   3.425   0.861   6.720 -0.3084 -0.2324 -0.1126
 8166SOL    HW136134   3.414   0.951   6.750  1.4803 -0.8801  2.4509
 8166SOL    HW236135   3.340   0.819   6.738 -0.0881 -0.7692 -0.3093
 8167SOL     OW36136   1.667   4.307  16.784  0.0275 -0.5041 -0.2652
 8167SOL    HW136137   1.609   4.324  16.710 -0.3579  2.1832  0.6498
 8167SOL    HW236138   1.612   4.283  16.859 -0.3210  3.4060  0.7062
 8168SOL     OW36139   3.837   0.138   7.416 -0.3145 -0.4083 -0.2862
 8168SOL    HW136140   3.872   0.170   7.499 -0.8370  2.0870 -1.0491
 8168SOL    HW236141   3.897   0.176   7.351 -1.9320  1.7688 -0.4896
 8169SOL     OW36142   3.266   2.799   4.164  0.2283  0.2961 -0.0102
 8169SOL    HW136143   3.183   2.765   4.130 -0.5044 -0.9948  3.0028
 8169SOL    HW236144   3.326   2.752   4.105 -0.4298  2.3387 -2.2923
 8170SOL     OW36145   0.320   3.153   1.409  0.1451  0.5806 -0.6418
 8170SOL    HW136146   0.377   3.229   1.399  2.1166 -1.2116 -3.0230
 8170SOL    HW236147   0.243   3.174   1.462  0.0350 -0.1797 -0.4913
 8171SOL     OW36148   2.614   2.686  17.109  0.4155 -0.2426 -0.0143
 8171SOL    HW136149   2.639   2.699  17.200  1.0759  2.3754 -0.5632
 8171SOL    HW236150   2.638   2.770  17.070  0.9185 -0.4405 -0.1268
 8172SOL     OW36151   4.378   4.467  15.181  0.4701  0.5431  0.9385
 8172SOL    HW136152   4.473   4.466  15.189  0.6796  1.6910 -1.2728
 8172SOL    HW236153   4.370   4.435  15.091  1.3358  1.6203  0.4790
 8173SOL     OW36154   4.050   0.648   3.134  0.2516  0.6005 -0.9008
 8173SOL    HW136155   4.119   0.661   3.199  0.3584 -0.4453 -0.8034
 8173SOL    HW236156   3.970   0.651   3.186 -0.5621  1.6131 -2.2053
 8174SOL     OW36157   4.032   3.198   9.515 -0.0572 -0.1120  0.2391
 8174SOL    HW136158   4.018   3.179   9.608 -0.6803  1.6944  0.5072
 8174SOL    HW236159   4.122   3.174   9.494  0.7588  1.7864  1.5489
 8175SOL     OW36160   2.011   4.142   3.470 -0.2745 -0.0716 -0.1751
 8175SOL    HW136161   2.006   4.238   3.464  0.8314  0.0179  0.3056
 8175SOL    HW236162   2.069   4.125   3.396 -0.2983 -1.5225  0.1371
 8176SOL     OW36163   3.568   3.357   4.687  0.4900 -0.0558  0.2955
 8176SOL    HW136164   3.586   3.360   4.594  1.6718 -1.4030  0.4887
 8176SOL    HW236165   3.625   3.426   4.720 -1.2234  0.6067  1.9103
 8177SOL     OW36166   1.659   4.057   1.417 -0.2592 -0.1534 -0.0091
 8177SOL    HW136167   1.592   4.003   1.459  0.8383 -1.8508 -0.4227
 8177SOL    HW236168   1.634   4.130   1.473  0.2782  0.0435 -0.0281
 8178SOL     OW36169   1.053   3.548  15.212 -0.1452  0.0740 -0.2083
 8178SOL    HW136170   1.117   3.619  15.203 -1.1193  0.7801 -1.5061
 8178SOL    HW236171   0.996   3.569  15.286  1.7210 -0.0658  1.2788
 8179SOL     OW36172   1.615   4.259   7.539  0.9344  0.0314  0.3126
 8179SOL    HW136173   1.611   4.183   7.597 -4.3091  0.5002  0.5056
 8179SOL    HW236174   1.529   4.270   7.500  2.1847  1.5793 -2.0256
 8180SOL     OW36175   0.689   3.818   8.496  0.3749  0.0866  0.0187
 8180SOL    HW136176   0.596   3.802   8.483 -0.2906  2.0651  2.4341
 8180SOL    HW236177   0.691   3.902   8.541  1.0337 -0.9998  1.9940
 8181SOL     OW36178   2.779   1.651   4.401  0.3540  0.1822  0.0820
 8181SOL    HW136179   2.803   1.726   4.455  0.4705 -1.8919  2.8923
 8181SOL    HW236180   2.807   1.693   4.319  0.5931  1.0887  0.6268
 8182SOL     OW36181   0.035   3.034   5.989  0.1702 -0.0401 -0.0153
 8182SOL    HW136182   0.078   3.100   5.934 -0.8940  0.5553 -0.1222
 8182SOL    HW236183   4.680   3.053   5.983  0.2631  0.2909 -0.4196
 8183SOL     OW36184   4.222   0.244   2.019  0.0214  0.4107  0.2897
 8183SOL    HW136185   4.195   0.294   1.942  1.0136  0.6009  0.0660
 8183SOL    HW236186   4.284   0.181   1.981 -0.6379 -1.1126  1.7155
 8184SOL     OW36187   4.610   1.807   0.179  0.2147 -0.1383  0.6649
 8184SOL    HW136188   4.639   1.864   0.108  1.9818 -0.4367  1.1626
 8184SOL    HW236189   4.660   1.727   0.159 -0.3673 -0.1060 -0.9345
 8185SOL     OW36190   4.411   2.694   4.317 -0.1630  0.1274  0.1425
 8185SOL    HW136191   4.370   2.779   4.337 -0.2964 -0.0329  0.5523
 8185SOL    HW236192   4.428   2.656   4.403  0.5385 -1.3296 -0.6462
 8186SOL     OW36193   3.081   0.010   1.178 -0.5792 -0.3168  0.5464
 8186SOL    HW136194   3.000   4.698   1.176 -0.4083 -0.5376 -1.2148
 8186SOL    HW236195   3.074   0.062   1.258  0.6651 -0.6288  0.8725
 8187SOL     OW36196   3.800   1.461   7.683  0.2972  0.5373 -0.0202
 8187SOL    HW136197   3.848   1.383   7.712 -0.8618 -0.1727 -0.0314
 8187SOL    HW236198   3.856   1.525   7.727  0.0339  2.3902 -2.3909
 8188SOL     OW36199   3.897   3.876   5.138  0.2835  0.4260  0.1350
 8188SOL    HW136200   3.940   3.896   5.221  0.5744  1.3205 -0.2330
 8188SOL    HW236201   3.813   3.921   5.144 -0.0892 -0.0800 -1.1624
 8189SOL     OW36202   4.415   1.381  12.784 -0.0221  0.1977 -0.0182
 8189SOL    HW136203   4.421   1.454  12.846  1.1003  1.1277 -1.2221
 8189SOL    HW236204   4.409   1.312  12.850  2.5690 -0.7968 -0.7963
 8190SOL     OW36205   0.202   4.546   6.260 -0.1358 -0.4598  0.3149
 8190SOL    HW136206   0.275   4.513   6.207  0.2251  0.8603 -0.0253
 8190SOL    HW236207   0.140   4.479   6.234 -1.6389  0.9400  0.3393
 8191SOL     OW36208   1.576   3.782   3.832 -0.6498  0.1902  0.0626
 8191SOL    HW136209   1.662   3.797   3.793  0.0187 -2.2901  0.5840
 8191SOL    HW236210   1.527   3.752   3.756  0.5603 -0.0442 -0.6201
 8192SOL     OW36211   1.666   3.036   8.177 -0.2709  0.1003  0.0108
 8192SOL    HW136212   1.589   3.042   8.121  0.3067  0.0909 -0.7949
 8192SOL    HW236213   1.672   3.119   8.223  1.3279 -0.3170  0.5637
 8193SOL     OW36214   1.655   0.489   8.345  1.2026  0.3761 -0.3807
 8193SOL    HW136215   1.727   0.542   8.381 -0.1390  1.5830  0.5254
 8193SOL    HW236216   1.686   0.403   8.373  0.8298  0.3755  0.0348
 8194SOL     OW36217   1.322   4.725   0.894  0.3394 -1.0134  0.3624
 8194SOL    HW136218   1.230   4.703   0.906 -0.5069  1.5336 -1.6024
 8194SOL    HW236219   1.315   0.074   0.933 -0.6579 -0.7952 -0.3096
 8195SOL     OW36220   0.528   4.385   4.974  0.2595  0.0405 -0.1924
 8195SOL    HW136221   0.623   4.393   4.987  0.3728  0.9552 -1.5431
 8195SOL    HW236222   0.525   4.290   4.966  1.6713 -0.1323  1.0861
 8196SOL     OW36223   1.075   1.342   4.298 -0.1449  0.1898 -0.1032
 8196SOL    HW136224   1.007   1.409   4.297  0.4535  0.7231 -3.6031
 8196SOL    HW236225   1.034   1.260   4.326 -1.9793  1.7478  1.6799
 8197SOL     OW36226   2.514   0.924   1.972  0.5278 -0.4680 -0.1144
 8197SOL    HW136227   2.431   0.944   1.929 -0.4346  1.1645  2.5558
 8197SOL    HW236228   2.564   0.871   1.909  0.7178 -0.7682  0.2864
 8198SOL     OW36229   2.537   1.131  17.489 -0.1965  0.3650 -0.0961
 8198SOL    HW136230   2.507   1.212  17.529 -0.5008 -0.2099  0.8370
 8198SOL    HW236231   2.464   1.132  17.427 -0.1725 -0.1578 -0.1327
 8199SOL     OW36232   0.647   3.469   5.348  0.4498  0.4164  0.2042
 8199SOL    HW136233   0.698   3.434   5.421  3.4403  0.5381 -1.8231
 8199SOL    HW236234   0.603   3.541   5.393  2.4190  1.5072  0.3960
 8200SOL     OW36235   0.258   4.296   7.344  0.3613  0.3160 -0.1565
 8200SOL    HW136236   0.263   4.276   7.437  0.3655 -1.8646 -0.6304
 8200SOL    HW236237   0.192   4.366   7.343 -0.5956 -0.5990 -0.4734
 8201SOL     OW36238   1.091   0.443   5.564  0.2817 -0.4291 -0.0026
 8201SOL    HW136239   1.122   0.513   5.621 -3.2728 -0.1361  1.6080
 8201SOL    HW236240   1.103   0.370   5.625  1.3010 -1.6825 -1.7055
 8202SOL     OW36241   3.067   0.738   3.280 -0.3706 -0.0708  0.3348
 8202SOL    HW136242   3.001   0.669   3.288 -1.2126  0.6291 -0.4407
 8202SOL    HW236243   3.119   0.722   3.359 -0.8059  1.2194  0.8998
 8203SOL     OW36244   2.020   2.010  13.305  0.0328 -0.1724  0.6126
 8203SOL    HW136245   1.956   2.080  13.287  1.1658  0.4306 -1.0292
 8203SOL    HW236246   1.963   1.936  13.325 -0.4230  0.6575  2.4342
 8204SOL     OW36247   1.035   3.064   3.284 -0.1842  0.2017  0.1128
 8204SOL    HW136248   1.056   3.148   3.243 -0.4571  0.4252  0.4374
 8204SOL    HW236249   1.105   3.056   3.349 -0.8229 -0.7948  0.6739
 8205SOL     OW36250   1.759   1.871   3.725 -0.8064 -0.2947  0.2061
 8205SOL    HW136251   1.792   1.849   3.812 -1.9168 -2.4905  0.0881
 8205SOL    HW236252   1.665   1.870   3.741 -0.5805 -2.2254  1.4678
 8206SOL     OW36253   3.968   0.870   3.797  0.4483 -0.3928 -0.1729
 8206SOL    HW136254   3.962   0.922   3.717  3.8868 -1.2433 -0.9814
 8206SOL    HW236255   4.009   0.788   3.769 -0.3379  0.0474 -2.6053
 8207SOL     OW36256   3.308   4.498   6.425 -0.2757 -0.0634 -0.1735
 8207SOL    HW136257   3.304   4.510   6.330 -2.5882  0.5671 -0.0091
 8207SOL    HW236258   3.230   4.443   6.435 -0.9535  0.2899 -3.4145
 8208SOL     OW36259   0.866   2.692   6.939 -0.4119  0.3169  0.0385
 8208SOL    HW136260   0.795   2.633   6.915 -1.3590 -0.4069  4.7870
 8208SOL    HW236261   0.922   2.703   6.861 -1.6913 -0.2389 -0.9580
 8209SOL     OW36262   3.611   2.594   2.808 -0.3270  0.7315  0.4352
 8209SOL    HW136263   3.699   2.570   2.835 -0.3140 -1.0657 -1.2374
 8209SOL    HW236264   3.612   2.690   2.810 -0.3764  0.7105  1.3344
 8210SOL     OW36265   3.948   1.808  16.335 -0.0200 -0.0569 -0.1079
 8210SOL    HW136266   4.007   1.733  16.331 -0.3386 -0.2810 -0.5228
 8210SOL    HW236267   3.923   1.813  16.243  0.0290  1.9202 -0.0187
 8211SOL     OW36268   0.053   2.213   3.681  0.6968 -0.8207  0.9495
 8211SOL    HW136269   0.095   2.227   3.766  2.9051  0.8181 -0.4178
 8211SOL    HW236270   4.698   2.231   3.690  0.9435  0.7244  0.4413
 8212SOL     OW36271   2.228   3.811   6.731 -0.4666 -0.8446  0.5836
 8212SOL    HW136272   2.265   3.899   6.721  0.2989 -1.1372  0.8251
 8212SOL    HW236273   2.137   3.840   6.733 -0.3718 -0.5262  0.2791
 8213SOL     OW36274   2.031   1.433  17.605 -0.3491 -0.0589 -0.3799
 8213SOL    HW136275   2.023   1.352  17.556 -0.2222 -1.2424  1.5352
 8213SOL    HW236276   1.942   1.468  17.611  0.4758  1.8847  0.5120
 8214SOL     OW36277   4.383   3.420   3.025 -0.0635 -0.0042 -0.4258
 8214SOL    HW136278   4.385   3.398   2.932  0.1230 -0.7667 -0.2399
 8214SOL    HW236279   4.398   3.342   3.078 -2.7385 -0.0010  0.3464
 8215SOL     OW36280   2.457   4.182   3.941  0.1687  0.4427 -0.4565
 8215SOL    HW136281   2.455   4.196   3.847  0.3858  0.1264 -0.5095
 8215SOL    HW236282   2.428   4.268   3.971  0.1590  1.3385 -3.0689
 8216SOL     OW36283   0.137   3.466   0.453 -0.1989 -0.0900  0.1813
 8216SOL    HW136284   0.126   3.375   0.427  0.7802 -0.5444  1.3410
 8216SOL    HW236285   0.067   3.506   0.402  1.0950 -2.3057 -3.2983
 8217SOL     OW36286   2.409   1.117   6.584  0.2062  0.5619 -0.1030
 8217SOL    HW136287   2.384   1.026   6.596 -0.8814  0.8910  0.1146
 8217SOL    HW236288   2.373   1.154   6.665 -1.7159  0.8556 -1.1130
 8218SOL     OW36289   0.650   0.384  15.562 -0.6351 -0.4977 -0.4117
 8218SOL    HW136290   0.600   0.461  15.535  0.5284  0.1895 -0.6338
 8218SOL    HW236291   0.622   0.377  15.653 -2.2411  0.2986 -0.8496
 8219SOL     OW36292   2.074   3.635   4.668  0.4147 -0.4127  0.0563
 8219SOL    HW136293   2.165   3.662   4.676  0.2600 -0.1124  0.7995
 8219SOL    HW236294   2.029   3.708   4.626  1.0407 -0.5496 -0.8477
 8220SOL     OW36295   2.395   4.521   1.504 -0.3306  0.7201  0.2544
 8220SOL    HW136296   2.426   4.454   1.443  0.6602  1.5288 -0.1271
 8220SOL    HW236297   2.301   4.506   1.491 -0.6290  1.9252  1.0147
 8221SOL     OW36298   4.044   1.794   7.156 -0.0068  0.1352  0.2221
 8221SOL    HW136299   4.080   1.839   7.232 -0.1470 -1.2307  1.1180
 8221SOL    HW236300   4.044   1.869   7.098  0.9239  0.5418  0.7424
 8222SOL     OW36301   4.490   1.946  10.451 -0.4203  0.0439  0.3888
 8222SOL    HW136302   4.488   1.856  10.416  0.9793 -0.2048  0.9457
 8222SOL    HW236303   4.531   1.984  10.373 -1.7984 -3.4160 -2.0474
 8223SOL     OW36304   0.604   1.532   1.005 -0.3852  0.3359 -0.0951
 8223SOL    HW136305   0.586   1.528   1.099  2.5126  0.3446  0.4405
 8223SOL    HW236306   0.626   1.440   0.989 -0.3912  0.2852  0.1916
 8224SOL     OW36307   4.672   1.417   2.044 -0.7153 -0.2741  0.5573
 8224SOL    HW136308   4.643   1.465   2.121  1.8938  2.1540 -0.0038
 8224SOL    HW236309   4.601   1.437   1.983 -0.7448 -0.9913  0.3543
 8225SOL     OW36310   1.998   1.183   5.213 -0.2663 -0.3479 -0.3477
 8225SOL    HW136311   1.989   1.265   5.261  0.2517 -0.9832  0.8397
 8225SOL    HW236312   2.045   1.212   5.134  0.0155  0.1552  0.0064
 8226SOL     OW36313   2.529   2.248   3.313  0.0275 -0.1873  0.1629
 8226SOL    HW136314   2.454   2.306   3.327  0.7177  1.2188 -1.9080
 8226SOL    HW236315   2.502   2.222   3.225  0.0677  0.6787 -0.1038
 8227SOL     OW36316   0.201   0.956   8.725 -0.2891 -0.7879  0.8213
 8227SOL    HW136317   0.274   0.965   8.787 -0.5579  1.5501  0.7916
 8227SOL    HW236318   0.203   0.866   8.692 -1.0300 -1.0516  1.4982
 8228SOL     OW36319   2.885   1.232   4.689 -0.7398 -0.5870  0.0220
 8228SOL    HW136320   2.824   1.180   4.741 -0.6906 -0.9318 -0.2573
 8228SOL    HW236321   2.838   1.313   4.668  0.6434  0.0589 -0.5998
 8229SOL     OW36322   1.500   1.113   9.217  0.0141 -0.0866  0.2729
 8229SOL    HW136323   1.573   1.115   9.155  0.8334  0.7010  1.2531
 8229SOL    HW236324   1.426   1.105   9.157 -0.0301  0.7982  0.2062
 8230SOL     OW36325   1.460   3.960  12.868  0.1295 -0.6268  0.0983
 8230SOL    HW136326   1.405   4.005  12.932  2.6338 -0.1093  1.9151
 8230SOL    HW236327   1.498   3.892  12.924  0.2566 -1.4722 -1.0322
 8231SOL     OW36328   2.304   0.487   0.158 -0.5766  0.0606  0.0071
 8231SOL    HW136329   2.315   0.395   0.134  0.5313  0.6227 -1.6543
 8231SOL    HW236330   2.214   0.496   0.128 -0.2459  0.5640 -0.8081
 8232SOL     OW36331   4.253   1.598   2.814 -0.4045 -0.1741  0.2500
 8232SOL    HW136332   4.186   1.648   2.862 -0.8726  0.4217 -1.0023
 8232SOL    HW236333   4.307   1.675   2.793 -0.9161 -0.1902 -1.1295
 8233SOL     OW36334   0.682   3.409  17.101  0.5063 -0.0295  0.3613
 8233SOL    HW136335   0.644   3.467  17.035 -2.7473 -1.4933  0.9731
 8233SOL    HW236336   0.685   3.322  17.062  0.6730  0.0670  0.1548
 8234SOL     OW36337   1.343   4.433   2.285 -0.3368 -0.4535 -0.3313
 8234SOL    HW136338   1.278   4.388   2.232 -0.6606  1.0213 -1.1754
 8234SOL    HW236339   1.366   4.503   2.224 -2.0702 -1.2140 -1.8443
 8235SOL     OW36340   2.271   0.413   9.122  0.3167  0.1809  0.6195
 8235SOL    HW136341   2.228   0.328   9.111 -0.7758  0.8350 -0.1257
 8235SOL    HW236342   2.230   0.433   9.207 -1.9800  1.5091 -0.8184
 8236SOL     OW36343   0.634   2.206   3.879  0.4082 -1.6024  0.5484
 8236SOL    HW136344   0.555   2.229   3.928 -0.3360 -0.9618 -0.9297
 8236SOL    HW236345   0.612   2.207   3.785 -0.3385  1.1738  0.7364
 8237SOL     OW36346   0.171   3.198   1.689  0.2940 -0.5179 -0.5755
 8237SOL    HW136347   0.210   3.220   1.774 -0.3437 -1.9223  0.0848
 8237SOL    HW236348   0.104   3.265   1.675  0.8126  0.5382  1.8945
 8238SOL     OW36349   3.545   2.889   8.882  0.8885  0.0349  0.4746
 8238SOL    HW136350   3.476   2.883   8.948  0.6710  1.0889  0.3479
 8238SOL    HW236351   3.513   2.836   8.810  0.4904 -1.2466  1.5952
 8239SOL     OW36352   1.026   2.841  16.813  0.7261  0.3994 -0.3734
 8239SOL    HW136353   0.990   2.762  16.773  0.6012  1.1780 -1.7889
 8239SOL    HW236354   1.094   2.867  16.751  3.3345 -0.8229  1.9610
 8240SOL     OW36355   1.149   2.703   5.146  0.1148 -0.4982  0.2529
 8240SOL    HW136356   1.069   2.651   5.147 -1.3725  1.7920  2.5385
 8240SOL    HW236357   1.153   2.719   5.052  1.3517 -0.0946  0.3703
 8241SOL     OW36358   4.223   0.972   9.801 -0.0936  0.2675 -0.4454
 8241SOL    HW136359   4.246   0.976   9.708  1.3298 -0.3110 -0.1319
 8241SOL    HW236360   4.312   0.972   9.838  0.6891  0.7590 -2.2923
 8242SOL     OW36361   4.001   1.265  10.998 -0.0551  0.4615  0.1254
 8242SOL    HW136362   4.025   1.357  10.987 -1.1625  0.7592  0.1519
 8242SOL    HW236363   3.936   1.275  11.067  1.3182  1.3572  1.2923
 8243SOL     OW36364   2.269   2.615   8.311  0.2876 -0.6846  0.4502
 8243SOL    HW136365   2.321   2.653   8.381  0.5458 -1.3258  0.6025
 8243SOL    HW236366   2.272   2.524   8.341  1.1873 -0.4992  0.9249
 8244SOL     OW36367   1.852   3.452   7.119 -0.1535  0.5736 -0.3023
 8244SOL    HW136368   1.822   3.495   7.039 -2.0394  0.7837  0.5292
 8244SOL    HW236369   1.943   3.434   7.094 -0.4845  0.5008 -1.4205
 8245SOL     OW36370   4.268   3.452  11.470 -0.4972 -0.1361 -0.0974
 8245SOL    HW136371   4.358   3.466  11.501 -1.1790  2.9830  0.4996
 8245SOL    HW236372   4.260   3.520  11.403 -1.0337  0.3057  0.4120
 8246SOL     OW36373   2.346   0.182   7.633 -0.3209  0.3493  0.1816
 8246SOL    HW136374   2.345   0.231   7.715 -0.2802 -0.2672  0.5503
 8246SOL    HW236375   2.322   0.254   7.575  0.2517  3.2156  3.5448
 8247SOL     OW36376   2.816   2.590   5.953 -0.1534 -0.1725 -0.6963
 8247SOL    HW136377   2.838   2.681   5.934  0.3443 -0.1044  0.1960
 8247SOL    HW236378   2.720   2.587   5.953 -0.0647 -3.7825 -1.4258
 8248SOL     OW36379   2.045   0.932   8.175  0.3893  0.8287 -0.1081
 8248SOL    HW136380   2.066   0.843   8.203 -0.0102  0.8493  0.2690
 8248SOL    HW236381   1.998   0.975   8.247 -1.3105  0.1490 -0.8033
 8249SOL     OW36382   2.336   4.576  16.384 -0.0202  0.3304 -0.1382
 8249SOL    HW136383   2.308   4.667  16.381 -1.6128 -0.0379  3.6496
 8249SOL    HW236384   2.360   4.565  16.292  2.1352  1.5331  0.2929
 8250SOL     OW36385   4.232   0.992   7.970  0.1931 -0.1570  0.1775
 8250SOL    HW136386   4.189   1.013   7.886  0.3187  1.3903  0.4925
 8250SOL    HW236387   4.294   1.064   7.981  2.6902 -1.9550 -2.0734
 8251SOL     OW36388   1.526   1.091   1.755  0.0100 -0.1934  0.1048
 8251SOL    HW136389   1.584   1.016   1.750 -1.2803 -1.1538 -0.4434
 8251SOL    HW236390   1.581   1.167   1.738  0.3051 -0.5938 -0.6946
 8252SOL     OW36391   4.111   0.267   2.757 -0.4282  0.4357 -0.0937
 8252SOL    HW136392   4.152   0.182   2.740  1.4617  1.1195  0.9584
 8252SOL    HW236393   4.062   0.264   2.675  0.2194 -1.8093 -0.4004
 8253SOL     OW36394   0.136   1.191   1.646  0.1954 -0.7077  0.0671
 8253SOL    HW136395   0.131   1.099   1.618 -0.8052 -0.6108 -0.0551
 8253SOL    HW236396   0.104   1.189   1.736 -1.2570 -5.1321 -0.5223
 8254SOL     OW36397   3.278   2.099   4.620 -0.2935 -0.1077  0.7070
 8254SOL    HW136398   3.349   2.106   4.556 -1.7433  1.8398 -0.6667
 8254SOL    HW236399   3.331   2.094   4.700  1.4434  1.1961 -0.3429
 8255SOL     OW36400   1.529   0.369   3.932 -0.0445 -0.0663 -0.7195
 8255SOL    HW136401   1.535   0.391   4.025 -0.5345 -3.1291  0.0373
 8255SOL    HW236402   1.524   0.273   3.935 -1.9942  0.0217 -0.7486
 8256SOL     OW36403   1.814   1.474   1.922  0.3428  0.6351 -0.1658
 8256SOL    HW136404   1.722   1.457   1.945  1.1406 -1.5675  1.3655
 8256SOL    HW236405   1.828   1.454   1.829 -0.7713 -1.3257  0.0754
 8257SOL     OW36406   2.178   4.725   4.906  0.4318  0.2808  0.4100
 8257SOL    HW136407   2.133   4.683   4.979 -2.4412  0.5219 -1.2304
 8257SOL    HW236408   2.115   0.059   4.901  0.2133 -0.0133 -1.1264
 8258SOL     OW36409   2.962   2.771   1.328  0.5332  0.0714  0.4694
 8258SOL    HW136410   2.885   2.826   1.348 -0.4804 -0.7990 -1.0234
 8258SOL    HW236411   3.006   2.781   1.412 -2.4727  0.4859  2.0036
 8259SOL     OW36412   1.255   0.924   4.049  0.3891 -0.1522  0.4731
 8259SOL    HW136413   1.236   0.846   3.997  1.5788 -0.9585  1.2403
 8259SOL    HW236414   1.174   0.933   4.100 -0.3554  2.1425 -1.1150
 8260SOL     OW36415   1.372   2.818   2.349  0.0640 -0.6857 -0.3066
 8260SOL    HW136416   1.437   2.822   2.418  0.5092 -1.3352 -0.6858
 8260SOL    HW236417   1.388   2.728   2.320 -2.3131 -1.4913  0.8898
 8261SOL     OW36418   1.264   3.267   5.104 -0.1151  0.0402 -0.0743
 8261SOL    HW136419   1.225   3.250   5.018  2.7472 -1.8115 -0.9988
 8261SOL    HW236420   1.192   3.244   5.163  0.3081  0.0791  0.4581
 8262SOL     OW36421   4.152   3.109   5.686 -0.1402 -0.3593 -0.5085
 8262SOL    HW136422   4.084   3.042   5.683 -1.8582  1.1995  2.9434
 8262SOL    HW236423   4.191   3.097   5.773 -1.0812  0.1332 -0.0099
 8263SOL     OW36424   3.734   1.533   5.642  0.8793  0.0812  0.1171
 8263SOL    HW136425   3.793   1.497   5.576  0.7256  0.1162 -0.0397
 8263SOL    HW236426   3.711   1.445   5.672  1.1240  0.1460  0.5032
 8264SOL     OW36427   3.086   2.761   3.148  0.1284  0.4721  0.2385
 8264SOL    HW136428   3.029   2.703   3.097 -1.2934  0.7435  1.5345
 8264SOL    HW236429   3.028   2.758   3.224 -0.8108 -1.7051 -0.5569
 8265SOL     OW36430   0.192   2.802   7.688 -0.7630 -0.2857 -0.4133
 8265SOL    HW136431   0.257   2.847   7.742 -1.7214 -0.3063  0.7625
 8265SOL    HW236432   0.171   2.736   7.755 -1.9003 -0.3461 -0.8241
 8266SOL     OW36433   1.559   3.626  14.311 -0.3329 -0.0442  0.4806
 8266SOL    HW136434   1.567   3.595  14.401  3.5627 -0.7989 -0.1371
 8266SOL    HW236435   1.494   3.560  14.287  1.9297 -1.6128 -1.4201
 8267SOL     OW36436   1.751   4.066   6.219  0.5791 -0.9364  0.0561
 8267SOL    HW136437   1.821   4.018   6.175  1.2936 -0.4384  0.6562
 8267SOL    HW236438   1.800   4.139   6.254  1.2171 -0.7424 -1.2588
 8268SOL     OW36439   3.370   3.440   8.578 -0.6740  0.1817 -0.1106
 8268SOL    HW136440   3.375   3.485   8.493  0.4666 -0.5567 -0.4404
 8268SOL    HW236441   3.433   3.485   8.634 -0.3326  0.8047 -0.9759
 8269SOL     OW36442   0.942   3.706   9.986 -0.0008  0.1708  0.2133
 8269SOL    HW136443   0.890   3.635   9.948 -0.0881 -0.1009  0.8338
 8269SOL    HW236444   1.015   3.649  10.010 -0.7141 -0.6123  0.5105
 8270SOL     OW36445   3.103   0.289  12.650  0.5031  0.1673 -0.0453
 8270SOL    HW136446   3.151   0.270  12.569 -0.6043 -0.9925 -0.4351
 8270SOL    HW236447   3.157   0.243  12.714 -0.7876 -2.3862 -0.7818
 8271SOL     OW36448   4.607   3.086  16.757  0.0095  0.6460  0.1378
 8271SOL    HW136449   4.663   3.009  16.744 -0.7064 -0.2358  2.4512
 8271SOL    HW236450   4.605   3.125  16.669 -2.2815  1.2731  0.4694
 8272SOL     OW36451   1.316   4.463   4.017  0.2676  0.3365 -0.4294
 8272SOL    HW136452   1.340   4.527   3.950 -0.7602  2.2429  1.0051
 8272SOL    HW236453   1.334   4.381   3.972  1.3728  0.7773 -0.7863
 8273SOL     OW36454   4.311   2.888  10.391  0.8438  0.2287  0.5799
 8273SOL    HW136455   4.297   2.983  10.386 -2.3150 -0.3376 -1.0897
 8273SOL    HW236456   4.266   2.859  10.471  1.4232  0.8177  1.1223
 8274SOL     OW36457   0.607   2.639   0.007  0.0544 -0.0742 -0.0966
 8274SOL    HW136458   0.559   2.560   0.035  1.3639 -0.7292  0.2912
 8274SOL    HW236459   0.693   2.620   0.045 -0.5734 -0.8810  0.9305
 8275SOL     OW36460   2.264   3.810  14.164 -0.0514  0.0114  0.2437
 8275SOL    HW136461   2.251   3.812  14.258 -2.0719  1.2130 -0.0629
 8275SOL    HW236462   2.192   3.754  14.135  0.0235 -1.2861  2.5694
 8276SOL     OW36463   4.703   2.579   1.576 -0.0134 -0.2534  0.0120
 8276SOL    HW136464   4.720   2.491   1.609  3.8045  0.7048  0.5905
 8276SOL    HW236465   0.030   2.595   1.508  1.8472 -3.1708  1.1424
 8277SOL     OW36466   3.248   3.520   5.659  0.2345 -0.5877 -0.0428
 8277SOL    HW136467   3.290   3.479   5.584 -1.0693  2.0043 -2.1986
 8277SOL    HW236468   3.154   3.520   5.637  0.2632  1.6515 -0.2137
 8278SOL     OW36469   1.667   3.763   4.525  0.7458 -0.0494 -0.2650
 8278SOL    HW136470   1.729   3.745   4.596  0.1217 -2.0389 -0.2241
 8278SOL    HW236471   1.602   3.810   4.578 -0.9332 -2.8205  0.1729
 8279SOL     OW36472   2.612   3.339   5.394 -0.6575 -0.4924  0.1703
 8279SOL    HW136473   2.696   3.352   5.438  0.0416  0.1819 -1.3820
 8279SOL    HW236474   2.548   3.356   5.464 -0.8655 -0.0012 -0.1383
 8280SOL     OW36475   3.106   0.444   2.287  0.3194  0.0430  0.1050
 8280SOL    HW136476   3.184   0.395   2.313  0.4244 -1.0682 -2.3133
 8280SOL    HW236477   3.134   0.505   2.219 -4.6400 -0.3026 -2.1999
 8281SOL     OW36478   1.474   0.783   9.658 -0.0033  0.1276  0.4608
 8281SOL    HW136479   1.492   0.781   9.564  0.6477 -2.6617  0.6616
 8281SOL    HW236480   1.379   0.769   9.661  0.2876 -1.2889  3.1183
 8282SOL     OW36481   1.544   2.636   3.834 -0.0856  0.3169 -0.5022
 8282SOL    HW136482   1.531   2.597   3.920  1.1178  0.0439 -0.4495
 8282SOL    HW236483   1.612   2.579   3.799  0.3528  1.1589 -1.0236
 8283SOL     OW36484   2.093   2.004  12.619 -0.2396 -0.4253  0.0916
 8283SOL    HW136485   1.999   2.018  12.623 -0.2967 -0.9886  0.8801
 8283SOL    HW236486   2.105   1.942  12.548  0.3747  0.0134 -0.1920
 8284SOL     OW36487   4.011   1.422   6.062  0.0735 -0.3021 -0.0374
 8284SOL    HW136488   3.978   1.363   6.130  1.6946 -0.5557  0.5262
 8284SOL    HW236489   3.924   1.445   6.030 -0.5066 -1.9761  0.3065
 8285SOL     OW36490   3.771   1.772   0.029 -0.2985  0.6934 -0.2363
 8285SOL    HW136491   3.701   1.711   0.050 -0.1353  1.2505  1.9001
 8285SOL    HW236492   3.740   1.850   0.075  0.7287  0.1544  1.3751
 8286SOL     OW36493   3.655   1.952   9.343  0.4621 -0.2748 -0.0941
 8286SOL    HW136494   3.739   1.985   9.313  1.4145 -0.3412  2.5094
 8286SOL    HW236495   3.597   1.988   9.277 -0.6783 -1.1537  0.4233
 8287SOL     OW36496   3.334   1.041   9.880 -0.0073  0.1688  0.2313
 8287SOL    HW136497   3.419   1.082   9.866  0.9591 -2.0062 -0.3387
 8287SOL    HW236498   3.267   1.108   9.874  0.5806  0.7448  0.1193
 8288SOL     OW36499   1.281   0.176   0.433 -0.3222  0.5080 -0.4131
 8288SOL    HW136500   1.274   0.179   0.338 -0.1320  1.5437 -0.3942
 8288SOL    HW236501   1.301   0.270   0.441 -1.0976  0.6209  0.1812
 8289SOL     OW36502   1.909   1.274   3.461  0.0647  0.0654 -0.2013
 8289SOL    HW136503   1.876   1.185   3.447  0.2227 -0.1744  0.9531
 8289SOL    HW236504   1.829   1.327   3.462 -0.1764 -0.2920 -0.7154
 8290SOL     OW36505   0.643   1.516   1.904  0.3037  0.0493 -0.1999
 8290SOL    HW136506   0.565   1.469   1.877 -0.3867 -0.2190  2.2405
 8290SOL    HW236507   0.712   1.451   1.915 -0.3082 -0.9188 -2.2687
 8291SOL     OW36508   3.824   1.516   3.005 -0.1652 -0.5749  0.2827
 8291SOL    HW136509   3.911   1.537   3.041 -0.1362 -0.5604  0.2045
 8291SOL    HW236510   3.800   1.604   2.977  0.1731 -1.0142 -1.3552
 8292SOL     OW36511   2.236   0.712   0.775 -0.5539 -0.2968  0.0706
 8292SOL    HW136512   2.182   0.633   0.786 -0.2016 -0.4148  0.9917
 8292SOL    HW236513   2.235   0.722   0.680  2.2857 -1.4709 -0.0797
 8293SOL     OW36514   1.449   1.132   9.515 -0.1831 -0.3186 -0.7802
 8293SOL    HW136515   1.355   1.151   9.519 -0.1952 -0.5002 -0.1635
 8293SOL    HW236516   1.460   1.128   9.420 -2.1816  0.6944 -1.0749
 8294SOL     OW36517   4.243   2.360   7.369 -0.0719  0.3212  0.1974
 8294SOL    HW136518   4.149   2.373   7.366 -0.0858  0.2664  0.3839
 8294SOL    HW236519   4.260   2.385   7.460 -1.3114 -0.0647  0.5324
 8295SOL     OW36520   3.475   4.616   8.640 -0.1230 -0.4439  0.1964
 8295SOL    HW136521   3.413   4.559   8.595 -0.0089 -0.7947  0.4875
 8295SOL    HW236522   3.468   4.695   8.586  0.5336 -0.2566  0.3760
 8296SOL     OW36523   3.879   3.917   6.302  0.1396 -0.0587  0.9595
 8296SOL    HW136524   3.833   3.842   6.263 -1.3345  0.6345  1.3306
 8296SOL    HW236525   3.941   3.937   6.233  0.6659  1.6427  1.9433
 8297SOL     OW36526   3.527   0.152   5.954  0.3497 -0.0618 -0.1795
 8297SOL    HW136527   3.528   0.082   5.888 -0.8718  0.7104 -1.0035
 8297SOL    HW236528   3.614   0.147   5.994  0.8799 -0.8257 -1.4313
 8298SOL     OW36529   3.970   2.874  16.138  0.4108 -0.4548 -0.7575
 8298SOL    HW136530   3.973   2.885  16.233  1.4251  0.3355 -0.8820
 8298SOL    HW236531   3.995   2.961  16.108  1.4009 -0.3994  0.1779
 8299SOL     OW36532   3.393   0.839   0.246  0.0679  0.2902 -0.5585
 8299SOL    HW136533   3.474   0.843   0.297  0.4273  2.1776 -1.2564
 8299SOL    HW236534   3.432   0.822   0.160  2.5247  1.9885  0.2200
 8300SOL     OW36535   1.869   0.293  17.590 -0.6071  0.1897  0.3713
 8300SOL    HW136536   1.819   0.321  17.667 -1.7314  0.6183 -0.5111
 8300SOL    HW236537   1.909   0.212  17.621 -1.2017 -0.5839 -0.8736
 8301SOL     OW36538   2.346   2.767   5.538 -0.1529 -0.8155  0.1186
 8301SOL    HW136539   2.432   2.792   5.503 -0.1726 -0.3503  0.3982
 8301SOL    HW236540   2.290   2.813   5.475 -0.9951 -2.2387 -0.1638
 8302SOL     OW36541   4.133   1.040   5.059 -0.3088  0.2454 -0.3752
 8302SOL    HW136542   4.079   1.039   5.138  3.0105  0.2936  1.8840
 8302SOL    HW236543   4.059   1.026   4.999  0.0757  0.6588 -0.9379
 8303SOL     OW36544   3.502   3.500   1.912  0.1463  0.5709  0.0279
 8303SOL    HW136545   3.582   3.492   1.861  0.4681  0.4468  0.5506
 8303SOL    HW236546   3.496   3.596   1.917  1.8474  0.5466  2.5187
 8304SOL     OW36547   3.102   3.721  11.850 -0.0859 -0.0468 -0.2459
 8304SOL    HW136548   3.115   3.638  11.805  0.3330  0.6113 -1.3345
 8304SOL    HW236549   3.037   3.698  11.916  0.4126  1.6929  0.8780
 8305SOL     OW36550   2.930   4.700   6.390  0.2364  0.1176  0.1704
 8305SOL    HW136551   2.981   0.033   6.351 -1.8258  1.9630  0.8085
 8305SOL    HW236552   2.844   4.724   6.356  0.8035 -0.8690 -1.9414
 8306SOL     OW36553   0.562   2.375   5.431 -0.0688  0.0908  0.8381
 8306SOL    HW136554   0.483   2.330   5.401  0.9045 -1.6111  0.7611
 8306SOL    HW236555   0.532   2.383   5.522  1.5244  1.0197  1.2712
 8307SOL     OW36556   2.283   3.182  17.503 -0.0992 -0.4814  0.2878
 8307SOL    HW136557   2.293   3.165  17.409 -0.7571 -0.0731  0.1372
 8307SOL    HW236558   2.265   3.276  17.509  0.1042 -0.3824 -0.5679
 8308SOL     OW36559   4.118   3.046   6.022  1.0549 -0.2162  0.1906
 8308SOL    HW136560   4.193   3.106   6.018  1.1937 -0.4387 -0.6182
 8308SOL    HW236561   4.043   3.104   6.009  1.0889 -0.3868 -0.8120
 8309SOL     OW36562   1.497   2.246  17.318  0.2167  0.2815  0.0697
 8309SOL    HW136563   1.558   2.261  17.391  1.4875  1.4351 -1.2166
 8309SOL    HW236564   1.442   2.173  17.345 -0.0886  0.6080  0.3300
 8310SOL     OW36565   4.054   3.775   6.966 -0.1693 -0.0638  0.1456
 8310SOL    HW136566   4.093   3.801   6.882 -1.2771 -0.6423 -0.5584
 8310SOL    HW236567   4.121   3.798   7.030  1.7816 -2.7592 -0.9342
 8311SOL     OW36568   4.086   1.734   1.958 -0.3214 -0.2022  0.0212
 8311SOL    HW136569   4.130   1.656   1.924  0.3455 -2.1939  5.4122
 8311SOL    HW236570   4.133   1.797   1.902 -2.2022  1.5266  0.4084
 8312SOL     OW36571   3.910   0.669   3.404  0.0917  0.2450 -0.3859
 8312SOL    HW136572   3.846   0.731   3.441 -0.3671 -0.6357  0.2850
 8312SOL    HW236573   3.865   0.595   3.364 -1.4382  2.1163 -2.1703
 8313SOL     OW36574   0.336   2.147   8.154  0.1166 -0.1315 -0.5081
 8313SOL    HW136575   0.395   2.218   8.178 -0.0517  0.0831 -0.7287
 8313SOL    HW236576   0.357   2.083   8.222  1.4887  1.1161  0.2348
 8314SOL     OW36577   0.632   0.290   8.318 -0.0666  1.0602  0.1542
 8314SOL    HW136578   0.651   0.274   8.225  0.6403 -0.0349  0.4781
 8314SOL    HW236579   0.551   0.340   8.321 -0.5088  0.4927 -2.3354
 8315SOL     OW36580   3.730   1.721   8.024  0.1599 -0.5699 -0.0558
 8315SOL    HW136581   3.758   1.791   8.084  1.9159 -1.3068 -0.0025
 8315SOL    HW236582   3.729   1.764   7.939 -0.1345 -2.0306 -0.7807
 8316SOL     OW36583   0.284   1.454   4.283 -0.7575  0.5532 -0.1944
 8316SOL    HW136584   0.261   1.487   4.370 -0.3569 -0.1046  0.1614
 8316SOL    HW236585   0.285   1.359   4.296  0.0587  0.9318  2.4025
 8317SOL     OW36586   3.018   2.329   1.571 -0.0430  0.4706 -0.2553
 8317SOL    HW136587   3.051   2.389   1.638  0.7852  0.0544 -0.2853
 8317SOL    HW236588   3.022   2.389   1.497 -0.6397 -0.1868 -0.8188
 8318SOL     OW36589   2.486   0.655   0.275 -0.1549  0.0856  0.4480
 8318SOL    HW136590   2.417   0.607   0.230 -0.2587  0.7936 -0.1559
 8318SOL    HW236591   2.545   0.585   0.302  0.4578  0.3407 -0.2302
 8319SOL     OW36592   4.338   2.637   5.571 -0.0762  0.4697 -0.0061
 8319SOL    HW136593   4.253   2.591   5.569  0.2058  0.0057 -1.5558
 8319SOL    HW236594   4.353   2.644   5.665  0.6676  1.5727 -0.2093
 8320SOL     OW36595   4.145   3.088   9.135  0.0330  0.1225  0.2148
 8320SOL    HW136596   4.222   3.051   9.177 -0.9198 -1.1537  0.8372
 8320SOL    HW236597   4.073   3.024   9.131  0.8723 -0.7934 -0.2439
 8321SOL     OW36598   4.636   3.232  11.036 -0.4336  0.5481  0.2381
 8321SOL    HW136599   4.550   3.229  10.993 -0.2008 -0.2990 -0.1739
 8321SOL    HW236600   4.639   3.139  11.057 -2.4250  1.3989  4.1932
 8322SOL     OW36601   0.493   1.108  10.975 -0.2061  0.2883 -0.4625
 8322SOL    HW136602   0.580   1.070  10.991 -1.2485 -1.6306  0.6649
 8322SOL    HW236603   0.507   1.200  10.997  0.6853  0.2220 -0.7413
 8323SOL     OW36604   1.175   0.712  15.388  0.0013 -0.0577 -0.2798
 8323SOL    HW136605   1.195   0.648  15.320  0.4213  0.8304 -0.9793
 8323SOL    HW236606   1.242   0.778  15.370 -0.2335 -0.6436 -3.2575
 8324SOL     OW36607   3.314   3.295   8.917 -0.0945  0.1084 -0.6446
 8324SOL    HW136608   3.361   3.293   9.000 -1.1122  0.0366 -0.0610
 8324SOL    HW236609   3.387   3.254   8.871  0.9615  1.1864  0.0822
 8325SOL     OW36610   1.365   0.762   4.908 -0.3436 -0.3748 -0.2973
 8325SOL    HW136611   1.361   0.793   4.999 -2.8464 -0.7529 -0.2748
 8325SOL    HW236612   1.317   0.680   4.904 -1.5573  0.3145  0.1190
 8326SOL     OW36613   4.582   2.962  17.722 -0.0917  0.3318 -0.1181
 8326SOL    HW136614   4.507   3.020  17.708  0.4975  1.3547  0.9137
 8326SOL    HW236615   4.659   3.018  17.718  0.6558 -0.7837 -1.2009
 8327SOL     OW36616   1.918   4.700   4.019  0.1023  0.2686 -0.0866
 8327SOL    HW136617   1.989   0.017   3.986  1.3191 -1.0284  0.3874
 8327SOL    HW236618   1.878   0.016   4.087 -2.2246 -2.1921  0.5139
 8328SOL     OW36619   1.545   1.513   1.976 -0.8654 -0.5851 -0.4424
 8328SOL    HW136620   1.487   1.514   2.052 -0.7870  1.4727 -0.4033
 8328SOL    HW236621   1.488   1.511   1.900 -2.3048  1.4142  0.5760
 8329SOL     OW36622   3.915   3.167  12.735 -0.1425 -0.2335  0.5408
 8329SOL    HW136623   3.938   3.163  12.642  1.4486 -3.4247  1.0657
 8329SOL    HW236624   3.831   3.213  12.734  0.6797  1.2249 -2.1651
 8330SOL     OW36625   3.726   4.195   4.015  0.1065  0.1830 -0.0682
 8330SOL    HW136626   3.701   4.196   4.107 -1.9303 -2.2073 -0.5748
 8330SOL    HW236627   3.796   4.129   4.020 -0.4869 -0.3397  1.3100
 8331SOL     OW36628   0.811   2.999   6.854  0.2655 -0.3138 -0.5444
 8331SOL    HW136629   0.723   2.974   6.881  0.5690 -1.2310 -0.3875
 8331SOL    HW236630   0.825   2.958   6.768  0.8910 -0.7881 -0.2210
 8332SOL     OW36631   2.011   0.007   5.961  0.9450  0.2381  0.0538
 8332SOL    HW136632   2.029   4.656   5.993  2.7632  0.4645 -0.3858
 8332SOL    HW236633   2.096   0.039   5.934  0.4547  2.0958  0.7116
 8333SOL     OW36634   4.580   4.712   3.570 -0.6028  0.4181  0.0759
 8333SOL    HW136635   4.515   4.723   3.639 -0.5737  0.2374  0.1319
 8333SOL    HW236636   4.550   4.625   3.545 -2.2748  0.5590  1.6624
 8334SOL     OW36637   2.106   0.875  10.280 -0.0931  0.2141 -1.0244
 8334SOL    HW136638   2.022   0.829  10.276 -0.7965  1.4764 -0.7940
 8334SOL    HW236639   2.125   0.875  10.374  1.9853 -0.4147 -1.4450
 8335SOL     OW36640   3.635   3.596   9.550  0.5220  0.0056  0.1039
 8335SOL    HW136641   3.614   3.633   9.635 -0.4142 -0.7067  0.1835
 8335SOL    HW236642   3.695   3.529   9.583 -0.6204 -0.3587  1.3810
 8336SOL     OW36643   3.734   4.596   8.429 -0.1789 -0.3694 -0.3950
 8336SOL    HW136644   3.643   4.569   8.417 -0.8180  0.6578  2.0223
 8336SOL    HW236645   3.774   4.529   8.485  0.1179  0.9903  1.0369
 8337SOL     OW36646   2.665   0.483   8.371  0.0242  0.2044  0.5428
 8337SOL    HW136647   2.741   0.519   8.325 -1.2485  2.7212  0.4170
 8337SOL    HW236648   2.706   0.462   8.455  0.2145  2.1619  0.9492
 8338SOL     OW36649   1.404   0.635   9.182 -0.2021 -0.6017  1.1211
 8338SOL    HW136650   1.437   0.602   9.098 -2.9550  1.4834 -0.7697
 8338SOL    HW236651   1.309   0.622   9.182 -0.1569 -0.9036  1.9398
 8339SOL     OW36652   4.215   2.464  16.955 -0.1938  0.0427 -0.0679
 8339SOL    HW136653   4.239   2.447  17.046  0.2672 -0.7144 -0.3335
 8339SOL    HW236654   4.119   2.472  16.958 -0.2656  0.3568 -2.7309
 8340SOL     OW36655   4.660   0.873   4.763  0.1586  0.1038 -0.5769
 8340SOL    HW136656   0.017   0.863   4.752 -0.1714 -0.7068 -2.7061
 8340SOL    HW236657   4.654   0.820   4.843  0.3701 -3.1263 -2.7047
 8341SOL     OW36658   4.598   2.885   9.028  0.1800 -0.0520 -0.0662
 8341SOL    HW136659   4.550   2.949   8.975 -2.1380 -0.8426  1.0968
 8341SOL    HW236660   4.555   2.806   8.997 -0.7687  1.1478 -1.7880
 8342SOL     OW36661   1.026   4.699   1.999 -0.1391 -0.1612 -0.0985
 8342SOL    HW136662   1.035   4.677   2.091  3.5394  1.0010 -0.2165
 8342SOL    HW236663   1.072   4.627   1.956 -0.1889  0.7082 -1.6311
 8343SOL     OW36664   3.661   2.882   0.896 -0.2249 -0.5692  0.2821
 8343SOL    HW136665   3.749   2.844   0.890 -0.4875 -0.9590 -1.2308
 8343SOL    HW236666   3.616   2.810   0.938 -1.8273  0.5000  0.3914
 8344SOL     OW36667   4.315   2.512   4.011 -0.2296  0.0323  0.3105
 8344SOL    HW136668   4.393   2.464   4.038 -0.5904 -0.5443  0.3333
 8344SOL    HW236669   4.252   2.491   4.081  0.2326  1.2329  1.0730
 8345SOL     OW36670   2.356   0.307   2.203  0.5900  0.7182 -0.2143
 8345SOL    HW136671   2.424   0.285   2.267 -0.1056  3.0384  1.3285
 8345SOL    HW236672   2.398   0.375   2.151  0.7430 -0.0447 -1.0802
 8346SOL     OW36673   2.613   0.873   4.570 -0.2725 -0.6450 -0.0440
 8346SOL    HW136674   2.647   0.828   4.492 -3.0109 -0.5645 -1.3060
 8346SOL    HW236675   2.656   0.958   4.569 -1.2451 -0.1449  0.5264
 8347SOL     OW36676   0.775   0.192   3.199 -0.2186 -0.4803 -0.4249
 8347SOL    HW136677   0.789   0.098   3.212  0.1868 -0.1353  1.5824
 8347SOL    HW236678   0.849   0.218   3.144  1.2741 -0.0893  1.7915
 8348SOL     OW36679   0.194   2.322   4.928  0.1968  0.0097  0.0655
 8348SOL    HW136680   0.253   2.292   4.860 -1.5665 -0.7031 -1.1550
 8348SOL    HW236681   0.256   2.325   5.001 -1.0959  0.5643  1.1394
 8349SOL     OW36682   3.997   4.605   4.938 -0.1281  0.3247 -0.0408
 8349SOL    HW136683   3.917   4.609   4.884 -0.6768  0.1274  0.7597
 8349SOL    HW236684   3.983   4.670   5.007  0.0982 -0.0498  0.3567
 8350SOL     OW36685   4.541   3.955  16.514  0.4718  0.3023  0.1231
 8350SOL    HW136686   4.551   3.867  16.477  1.4993  2.0781 -3.8523
 8350SOL    HW236687   4.619   3.960  16.568 -0.2252  0.6377  1.0900
 8351SOL     OW36688   0.622   3.929  11.200 -0.1306 -0.0663 -0.1038
 8351SOL    HW136689   0.599   3.837  11.191  1.5856 -0.5835  0.7354
 8351SOL    HW236690   0.670   3.944  11.119 -1.2752 -2.1173 -1.1496
 8352SOL     OW36691   1.697   1.161  11.071  0.4679  0.0194 -0.6463
 8352SOL    HW136692   1.690   1.229  11.005 -2.6194 -0.5088 -0.8684
 8352SOL    HW236693   1.776   1.117  11.040 -0.0193 -1.6361  0.4474
 8353SOL     OW36694   2.992   0.923  12.643  0.0061 -0.0339 -0.1174
 8353SOL    HW136695   2.940   0.960  12.714  0.2774  1.4987 -0.7394
 8353SOL    HW236696   3.073   0.961  12.678 -0.1789 -0.2644  0.5593
 8354SOL     OW36697   0.303   0.988   7.870 -0.1643 -0.3288  0.5355
 8354SOL    HW136698   0.245   0.922   7.831 -0.3532 -0.3379  0.8315
 8354SOL    HW236699   0.244   1.063   7.874  0.5622  0.3527 -1.5835
 8355SOL     OW36700   0.504   0.928  10.330  0.0745 -0.6243 -0.2724
 8355SOL    HW136701   0.456   0.882  10.261 -1.4520 -0.4819  0.6889
 8355SOL    HW236702   0.573   0.862  10.329  0.7014  0.0343 -0.5881
 8356SOL     OW36703   0.696   4.082   4.600  0.6411  0.2311  0.1270
 8356SOL    HW136704   0.769   4.022   4.585  0.5706  0.6420 -1.9026
 8356SOL    HW236705   0.625   4.023   4.574  1.1803 -0.1300 -0.5303
 8357SOL     OW36706   2.754   3.356   4.164  0.3076 -0.4638 -0.0539
 8357SOL    HW136707   2.783   3.266   4.147  2.3222 -0.1739  1.8514
 8357SOL    HW236708   2.822   3.383   4.225 -0.3169  1.4384 -0.2160
 8358SOL     OW36709   3.850   3.044   9.384  0.1123  0.0641  0.0174
 8358SOL    HW136710   3.914   3.088   9.440 -0.0619 -2.0685  1.8611
 8358SOL    HW236711   3.803   3.120   9.351  1.9522  0.1319 -2.4472
 8359SOL     OW36712   4.577   2.675  11.572 -0.2219 -0.5863 -0.0819
 8359SOL    HW136713   4.578   2.635  11.659 -0.0234  1.1513  0.7160
 8359SOL    HW236714   4.617   2.757  11.601  0.6820 -1.5940  1.4760
 8360SOL     OW36715   4.581   3.977   2.764  0.4513 -0.0338  0.1829
 8360SOL    HW136716   4.517   3.967   2.834 -2.1276  1.2916 -1.9858
 8360SOL    HW236717   4.568   4.072   2.764 -0.9652 -0.2332  1.9106
 8361SOL     OW36718   4.075   3.338   6.950  0.0824  0.1294 -0.8611
 8361SOL    HW136719   4.008   3.290   6.901  0.0267 -1.2491  0.5919
 8361SOL    HW236720   4.148   3.281   6.928  0.1921 -0.3041  0.6549
 8362SOL     OW36721   2.000   0.850   4.433 -0.3789 -0.4752 -0.0656
 8362SOL    HW136722   1.914   0.888   4.414  0.1410  0.4356 -0.5771
 8362SOL    HW236723   1.999   0.860   4.528 -1.2542 -1.0207 -0.0059
 8363SOL     OW36724   2.740   0.681   5.478 -0.4541 -0.0189  0.1818
 8363SOL    HW136725   2.659   0.726   5.454  0.5998  1.8580  0.1240
 8363SOL    HW236726   2.763   0.745   5.545  0.2764 -0.8276  0.7069
 8364SOL     OW36727   0.716   2.145   4.258  0.7326  0.0768  0.9056
 8364SOL    HW136728   0.710   2.238   4.279  2.1523  0.1024  1.2341
 8364SOL    HW236729   0.693   2.138   4.165  3.4533  0.8450  0.1574
 8365SOL     OW36730   1.614   4.072  16.178  0.1519  0.1594  0.5124
 8365SOL    HW136731   1.598   3.982  16.204  0.7885  0.4382  1.8823
 8365SOL    HW236732   1.695   4.096  16.224  0.8258  0.1752 -0.6617
 8366SOL     OW36733   4.607   2.499  12.995  0.0073 -0.3676  0.3909
 8366SOL    HW136734   4.669   2.569  13.014  2.2072 -2.0629 -0.6104
 8366SOL    HW236735   4.652   2.456  12.923 -0.7933 -0.0085 -0.3285
 8367SOL     OW36736   4.317   1.433  15.959  0.3727 -0.0365  0.3823
 8367SOL    HW136737   4.224   1.431  15.934  0.1807  0.1670  1.0772
 8367SOL    HW236738   4.348   1.381  15.885 -0.0186  1.0844 -0.5837
 8368SOL     OW36739   0.757   2.714   2.967  0.3558 -0.5476  0.6758
 8368SOL    HW136740   0.682   2.765   2.998  1.1565 -0.2357  2.1274
 8368SOL    HW236741   0.817   2.748   3.033 -0.0632 -0.9603  1.2700
 8369SOL     OW36742   1.755   3.273  16.877 -0.4391  0.2760  0.3524
 8369SOL    HW136743   1.794   3.208  16.820 -4.8344 -2.0140 -0.0459
 8369SOL    HW236744   1.812   3.284  16.954  0.6330 -1.6559 -0.1790
 8370SOL     OW36745   4.011   4.307   5.620 -0.0449  0.2497 -0.2180
 8370SOL    HW136746   3.927   4.274   5.649  0.6216 -1.3817 -0.1424
 8370SOL    HW236747   4.063   4.316   5.700 -3.4275 -0.6409  2.0372
 8371SOL     OW36748   3.157   0.006   5.503  0.4524 -0.0591  0.0529
 8371SOL    HW136749   3.142   4.664   5.552  0.8234  0.5073  1.0882
 8371SOL    HW236750   3.242   0.031   5.539  1.3093 -0.6849 -1.5395
 8372SOL     OW36751   2.324   4.563   6.413 -0.2701 -0.1640 -0.1431
 8372SOL    HW136752   2.415   4.533   6.418 -0.5858 -1.4483 -2.1000
 8372SOL    HW236753   2.328   4.581   6.320 -0.4675  0.2596 -0.0695
 8373SOL     OW36754   2.635   2.792  15.489 -0.2051 -0.4075 -0.0903
 8373SOL    HW136755   2.662   2.822  15.576  0.5477 -0.4206 -0.3215
 8373SOL    HW236756   2.545   2.825  15.492  0.0810  0.3273  0.5137
 8374SOL     OW36757   2.463   0.454   3.358 -0.1987  0.3083 -0.1208
 8374SOL    HW136758   2.390   0.445   3.296  0.3502  0.5509 -0.8007
 8374SOL    HW236759   2.513   0.521   3.313 -1.5026  1.1317 -0.3485
 8375SOL     OW36760   4.653   4.307   4.698 -0.6154 -0.0550  0.0032
 8375SOL    HW136761   4.634   4.376   4.761  1.3570 -0.2111  0.7685
 8375SOL    HW236762   4.610   4.230   4.736 -0.1123 -0.2698  0.1395
 8376SOL     OW36763   0.434   4.203  17.254  0.2059 -0.2421  0.0125
 8376SOL    HW136764   0.430   4.292  17.290  0.5487  0.4707 -1.7202
 8376SOL    HW236765   0.469   4.152  17.327 -0.0145 -1.0253 -0.4253
 8377SOL     OW36766   2.451   4.246   3.656  0.6110  0.0966  0.2034
 8377SOL    HW136767   2.468   4.167   3.606 -0.2052 -0.8271  1.3919
 8377SOL    HW236768   2.532   4.295   3.642 -0.3754  1.7558  0.1889
 8378SOL     OW36769   2.033   1.141   8.826  0.0983 -0.1077  0.3389
 8378SOL    HW136770   2.120   1.182   8.821  0.3990 -0.8922 -0.8119
 8378SOL    HW236771   1.998   1.201   8.892 -1.8220 -1.1284  0.2449
 8379SOL     OW36772   2.041   3.712   5.008 -0.1873  0.0292  0.0488
 8379SOL    HW136773   2.096   3.780   4.967 -1.4852 -0.0423 -1.8325
 8379SOL    HW236774   1.967   3.764   5.039  0.1037 -0.5540  1.6692
 8380SOL     OW36775   3.458   4.353  17.389  0.0045 -0.0393 -0.5713
 8380SOL    HW136776   3.381   4.333  17.336 -0.6078  0.0732  0.2860
 8380SOL    HW236777   3.439   4.279  17.447  1.2477  0.3375  0.3106
 8381SOL     OW36778   2.515   0.384   8.067  0.2624  0.7928 -0.1032
 8381SOL    HW136779   2.531   0.476   8.048 -0.1878  0.6911 -0.9719
 8381SOL    HW236780   2.462   0.387   8.147  0.1663 -0.0849 -0.1364
 8382SOL     OW36781   3.151   0.179   2.707  0.2397  0.1382  0.5151
 8382SOL    HW136782   3.171   0.099   2.756 -1.2734 -0.0415  0.8394
 8382SOL    HW236783   3.114   0.144   2.626  1.5694 -2.1842  0.9044
 8383SOL     OW36784   3.659   4.605   3.293 -0.5114  0.3182 -0.3616
 8383SOL    HW136785   3.648   4.651   3.210  1.5548  1.5208  0.0423
 8383SOL    HW236786   3.647   4.676   3.356 -1.8744 -0.6921  0.5232
 8384SOL     OW36787   3.370   4.660   4.082  0.2669 -0.4861 -0.0216
 8384SOL    HW136788   3.422   4.733   4.048  0.0428  0.5519  1.8765
 8384SOL    HW236789   3.299   4.664   4.019  1.2273  1.6618 -0.9657
 8385SOL     OW36790   0.217   3.158  14.283 -0.0943 -0.0556  0.1140
 8385SOL    HW136791   0.126   3.142  14.256 -0.3370 -0.3812  1.1258
 8385SOL    HW236792   0.213   3.253  14.294  0.5455  0.1647 -1.5495
 8386SOL     OW36793   4.637   2.049   4.109 -0.2731  0.1068 -0.0378
 8386SOL    HW136794   4.593   1.996   4.175 -0.1875 -0.6599 -0.6018
 8386SOL    HW236795   4.730   2.045   4.131 -0.1622 -1.3694 -0.7562
 8387SOL     OW36796   1.793   3.767   6.193 -0.9106 -0.2351 -0.3111
 8387SOL    HW136797   1.829   3.744   6.279  2.0177  2.4356 -0.8185
 8387SOL    HW236798   1.845   3.844   6.170 -0.8054 -0.1526  0.2046
 8388SOL     OW36799   4.600   4.201  15.545 -0.4250 -0.3765  0.3883
 8388SOL    HW136800   4.546   4.280  15.532 -1.8476 -1.8608 -2.7742
 8388SOL    HW236801   4.608   4.176  15.453 -2.4038  2.8529 -0.6721
 8389SOL     OW36802   3.875   2.998   6.831  0.3203 -0.2734 -0.1327
 8389SOL    HW136803   3.860   3.084   6.792  0.3990  0.1111  0.6892
 8389SOL    HW236804   3.925   3.022   6.909  0.1403 -0.4020  0.0232
 8390SOL     OW36805   4.390   1.149  12.231 -0.2012 -0.5742 -0.9068
 8390SOL    HW136806   4.375   1.236  12.194  2.2529  1.2067  2.2156
 8390SOL    HW236807   4.339   1.096  12.170  0.2200 -1.8109 -0.1681
 8391SOL     OW36808   1.434   1.812   0.977  0.3266 -0.3360 -0.8016
 8391SOL    HW136809   1.524   1.822   1.009 -0.6651  0.6910  1.6710
 8391SOL    HW236810   1.434   1.839   0.885 -1.9857 -0.0297 -0.7231
 8392SOL     OW36811   3.569   3.226   7.250  0.0392  0.4641  0.2780
 8392SOL    HW136812   3.493   3.168   7.252  2.1004 -2.2101  1.2236
 8392SOL    HW236813   3.563   3.287   7.324 -0.2987 -2.0530  2.3337
 8393SOL     OW36814   2.677   0.860   7.587  0.3400  0.1119 -0.7435
 8393SOL    HW136815   2.663   0.770   7.617  1.9896  0.3353  0.7394
 8393SOL    HW236816   2.772   0.871   7.595  0.0867  0.2211  2.0686
 8394SOL     OW36817   3.075   4.363   6.013  0.4308  0.3261 -0.0923
 8394SOL    HW136818   3.021   4.323   5.944  1.1923 -0.5093 -0.2060
 8394SOL    HW236819   3.008   4.389   6.076  2.0443 -2.5222  2.7938
 8395SOL     OW36820   3.347   3.399   5.877 -0.4808 -0.0142  0.0789
 8395SOL    HW136821   3.299   3.439   5.805  0.6120 -0.9137 -1.1487
 8395SOL    HW236822   3.283   3.389   5.948 -2.4631 -1.9664 -1.9964
 8396SOL     OW36823   2.113   2.801  11.598 -0.3003  0.2906  0.1983
 8396SOL    HW136824   2.171   2.729  11.574 -0.3745  0.0152  0.8465
 8396SOL    HW236825   2.174   2.867  11.631 -0.9402  2.1469 -2.3233
 8397SOL     OW36826   4.026   0.481   6.521  0.1659 -0.5203 -0.0723
 8397SOL    HW136827   3.962   0.516   6.459  0.9988 -1.2560 -1.3471
 8397SOL    HW236828   4.104   0.533   6.501  0.2764 -0.0637  1.6022
 8398SOL     OW36829   3.256   3.894  17.568 -0.2210  0.2766  0.0524
 8398SOL    HW136830   3.308   3.876  17.646  0.5075 -0.9068 -0.6947
 8398SOL    HW236831   3.262   3.811  17.520 -0.8093  0.3894 -0.2173
 8399SOL     OW36832   0.022   2.946   4.677  0.3580  0.5504 -0.6276
 8399SOL    HW136833   0.097   2.967   4.732  0.2266 -0.9313  0.1226
 8399SOL    HW236834   4.715   2.887   4.738  2.0884  2.2993  2.3361
 8400SOL     OW36835   0.166   2.072  15.052 -0.5779 -0.7899 -0.2879
 8400SOL    HW136836   0.252   2.110  15.070 -0.6426 -0.6700 -0.2361
 8400SOL    HW236837   0.189   2.000  14.994 -0.5105 -1.4536  0.5690
 8401SOL     OW36838   2.331   3.227  11.848  0.4096 -0.0378 -0.9339
 8401SOL    HW136839   2.338   3.133  11.868 -2.5372  0.1925  1.1919
 8401SOL    HW236840   2.292   3.265  11.926 -2.2426 -0.3026 -2.1221
 8402SOL     OW36841   4.435   2.413   6.263  0.2174 -0.4053 -0.0512
 8402SOL    HW136842   4.382   2.423   6.342 -0.2134  0.6675 -0.4687
 8402SOL    HW236843   4.520   2.388   6.300  0.2099  1.3727  1.1670
 8403SOL     OW36844   1.014   0.458   2.465 -0.3091  0.7542 -0.0746
 8403SOL    HW136845   1.086   0.489   2.520 -0.4540 -0.1989  0.6699
 8403SOL    HW236846   0.939   0.448   2.524 -0.4510  1.1036 -0.1989
 8404SOL     OW36847   3.161   1.178  13.401  0.1688  0.5664  0.4295
 8404SOL    HW136848   3.117   1.099  13.368  1.4342  0.6691 -1.4915
 8404SOL    HW236849   3.140   1.238  13.330 -0.9766 -0.4307 -0.0720
 8405SOL     OW36850   1.713   1.236   6.245 -0.0750 -0.5072 -0.5448
 8405SOL    HW136851   1.622   1.233   6.274  0.2834 -0.0076  0.6494
 8405SOL    HW236852   1.723   1.195   6.159 -1.2543  0.1551 -1.0102
 8406SOL     OW36853   2.532   4.699  16.563  0.5066  0.3280  0.1696
 8406SOL    HW136854   2.500   4.650  16.487  0.1528  1.3860 -0.3567
 8406SOL    HW236855   2.517   4.634  16.632 -0.6087  1.0277  0.5709
 8407SOL     OW36856   4.673   0.726   3.906 -0.0281  0.2210  0.1950
 8407SOL    HW136857   0.025   0.695   3.895 -0.4042 -0.8970  0.3043
 8407SOL    HW236858   4.683   0.821   3.902 -0.2847  0.3679  3.4420
 8408SOL     OW36859   0.006   3.461   5.100  0.2503 -0.2061 -0.3441
 8408SOL    HW136860   0.076   3.418   5.149 -0.3555  1.4616  2.0354
 8408SOL    HW236861   4.715   3.387   5.047 -0.3779  0.0136 -0.3140
 8409SOL     OW36862   0.674   3.014   3.700  0.1868 -0.0389 -0.5688
 8409SOL    HW136863   0.670   2.971   3.785 -2.1355  0.9533 -0.1820
 8409SOL    HW236864   0.667   2.935   3.647  0.6059 -0.5900  0.2003
 8410SOL     OW36865   2.970   4.391   8.116 -0.3089 -0.5046 -0.9705
 8410SOL    HW136866   2.900   4.409   8.179  0.7308 -2.0537  0.6123
 8410SOL    HW236867   3.019   4.474   8.114  0.8271 -1.1481  0.5077
 8411SOL     OW36868   1.568   0.945   6.161  0.1014 -0.2930 -0.3692
 8411SOL    HW136869   1.508   0.871   6.161  0.1123 -0.3065 -0.9871
 8411SOL    HW236870   1.523   1.010   6.215  0.1573  0.0678 -0.7495
 8412SOL     OW36871   2.916   0.606   4.684 -0.3806 -0.3399  0.4116
 8412SOL    HW136872   2.938   0.687   4.638 -0.1223 -0.8320 -0.3332
 8412SOL    HW236873   2.830   0.612   4.726 -0.1911  1.7754  0.5141
 8413SOL     OW36874   1.403   3.103  10.922 -0.2018 -0.4551  0.2160
 8413SOL    HW136875   1.457   3.051  10.863 -0.8524  1.4213 -2.0349
 8413SOL    HW236876   1.463   3.162  10.969 -0.2920  0.5667 -0.9476
 8414SOL     OW36877   4.312   3.989   4.303  0.1147  0.0701 -0.3523
 8414SOL    HW136878   4.399   3.971   4.266 -0.9126 -0.3081 -2.6230
 8414SOL    HW236879   4.323   4.064   4.361 -1.4648 -0.0122  0.0411
 8415SOL     OW36880   4.273   3.663   1.043  0.2766  0.3496  0.2202
 8415SOL    HW136881   4.270   3.713   1.124  0.3018  2.8328 -1.2989
 8415SOL    HW236882   4.364   3.633   1.037  0.9532  2.8700 -2.7723
 8416SOL     OW36883   2.027   1.019  11.175  0.4523 -0.1826  0.2016
 8416SOL    HW136884   2.106   0.984  11.133 -1.5363 -2.5652 -1.6118
 8416SOL    HW236885   1.970   0.945  11.153 -1.2027  1.1609 -0.0663
 8417SOL     OW36886   4.582   3.333   8.944 -0.1549  0.5142 -0.3510
 8417SOL    HW136887   4.497   3.297   8.919 -1.0969  0.8747  2.3397
 8417SOL    HW236888   4.634   3.256   8.923 -1.3095 -0.2204 -0.5070
 8418SOL     OW36889   3.923   2.527   6.778  0.0906 -0.1722  0.1490
 8418SOL    HW136890   3.830   2.543   6.792 -0.0309  1.0037 -2.1359
 8418SOL    HW236891   3.957   2.605   6.823 -1.0810  0.6066 -0.3274
 8419SOL     OW36892   0.880   1.211   9.455 -0.0963  0.0712  0.1589
 8419SOL    HW136893   0.896   1.306   9.455 -0.3727  0.1199  0.5427
 8419SOL    HW236894   0.808   1.209   9.518  0.6072  1.8342  1.0195
 8420SOL     OW36895   2.166   0.729  11.455  0.7972 -0.2430  0.1261
 8420SOL    HW136896   2.074   0.716  11.428  0.4236 -1.3938  1.9632
 8420SOL    HW236897   2.209   0.707  11.372 -1.3315  1.2737 -1.4003
 8421SOL     OW36898   3.137   4.505  11.380 -0.2969 -0.3757  0.3442
 8421SOL    HW136899   3.087   4.566  11.326 -2.0904 -2.0069  0.2020
 8421SOL    HW236900   3.144   4.560  11.459 -1.1026  0.4083 -0.1236
 8422SOL     OW36901   4.607   2.789   1.115 -0.1101  0.1528 -0.2346
 8422SOL    HW136902   4.683   2.790   1.173 -0.0493  0.6057 -0.3185
 8422SOL    HW236903   4.558   2.863   1.151  0.9258  0.3394  0.7930
 8423SOL     OW36904   0.500   2.551   3.773  0.3951 -0.3900 -0.1621
 8423SOL    HW136905   0.531   2.526   3.860 -0.9178  1.7991  0.9479
 8423SOL    HW236906   0.546   2.632   3.750  0.7448 -0.6668 -0.4300
 8424SOL     OW36907   2.723   4.175   2.123 -0.3447 -0.2083  0.0775
 8424SOL    HW136908   2.654   4.240   2.114  1.1192  1.0183 -2.3841
 8424SOL    HW236909   2.709   4.118   2.048  2.8346  0.2284 -0.8822
 8425SOL     OW36910   2.070   2.445   4.821 -0.0546 -0.1480 -0.2327
 8425SOL    HW136911   2.111   2.530   4.803 -0.6847  0.2127  0.0588
 8425SOL    HW236912   2.108   2.430   4.908  0.2216  2.5985  0.1410
 8426SOL     OW36913   2.020   1.209  14.635  0.2334 -0.3427 -0.0781
 8426SOL    HW136914   1.934   1.245  14.616  1.3408  1.8743 -0.8770
 8426SOL    HW236915   2.006   1.223  14.728 -0.0146  0.4634 -0.2416
 8427SOL     OW36916   3.135   3.051   4.127 -0.0995  0.0781  0.2214
 8427SOL    HW136917   3.223   3.065   4.093 -0.1083 -0.7868 -0.1556
 8427SOL    HW236918   3.149   2.975   4.184  1.0856 -0.2110 -0.4383
 8428SOL     OW36919   0.580   4.731   5.158 -0.4049  0.1764 -0.2932
 8428SOL    HW136920   0.512   4.708   5.095 -0.5370 -0.7564  0.1806
 8428SOL    HW236921   0.651   0.040   5.115 -0.0827 -0.2718 -0.2520
 8429SOL     OW36922   2.382   4.049  15.420 -0.3199  0.9228  0.1707
 8429SOL    HW136923   2.364   3.979  15.358  0.2714  0.0333  0.9919
 8429SOL    HW236924   2.474   4.032  15.442 -1.1036 -0.5893  2.2937
 8430SOL     OW36925   2.953   1.179   9.143 -0.0048 -0.3527 -0.1238
 8430SOL    HW136926   2.909   1.229   9.212 -0.9673  0.4618 -1.3423
 8430SOL    HW236927   2.897   1.102   9.143 -0.0891 -0.2889 -1.0168
 8431SOL     OW36928   3.486   4.462   5.996  0.4959 -0.7384  0.4125
 8431SOL    HW136929   3.488   4.368   5.978  1.5681 -0.1069 -2.8430
 8431SOL    HW236930   3.407   4.456   6.050 -0.9475 -0.0935 -1.6106
 8432SOL     OW36931   3.693   3.276   9.867  0.7116 -0.3504  0.6112
 8432SOL    HW136932   3.650   3.332   9.931 -0.1512 -0.3359  0.0156
 8432SOL    HW236933   3.724   3.215   9.935 -0.7011 -1.8792 -0.1248
 8433SOL     OW36934   4.432   1.222   7.109  0.1058  0.3898 -0.0170
 8433SOL    HW136935   4.378   1.301   7.101 -0.1829  0.1324 -0.5813
 8433SOL    HW236936   4.462   1.207   7.020 -3.1891 -1.6385 -0.7980
 8434SOL     OW36937   2.802   4.028   2.646  0.0148 -0.6604 -0.4529
 8434SOL    HW136938   2.791   3.934   2.663  1.7506 -0.5733  1.1331
 8434SOL    HW236939   2.714   4.065   2.655  0.3272 -0.0411  0.0733
 8435SOL     OW36940   2.520   0.566  17.700 -0.4038 -1.0469  0.2093
 8435SOL    HW136941   2.490   0.655  17.684 -0.2278 -1.1902 -0.8969
 8435SOL    HW236942   2.453   0.527   0.006 -1.6421  0.4677 -0.2333
 8436SOL     OW36943   3.596   2.655   5.113  0.2037  0.4645  0.1876
 8436SOL    HW136944   3.571   2.740   5.076 -2.3993  0.2224  1.4602
 8436SOL    HW236945   3.685   2.674   5.141 -0.3840  0.4264  2.0485
 8437SOL     OW36946   2.380   0.682   2.427 -0.2532 -0.0636  0.2179
 8437SOL    HW136947   2.420   0.617   2.485  2.5701  1.2963 -0.2125
 8437SOL    HW236948   2.446   0.682   2.357  0.1517  1.2753  0.6084
 8438SOL     OW36949   1.768   1.157   6.535 -0.1672  0.5827  0.0116
 8438SOL    HW136950   1.696   1.104   6.502  1.2448 -2.4825  1.8059
 8438SOL    HW236951   1.827   1.170   6.461 -0.0543  0.9737  0.1731
 8439SOL     OW36952   3.580   3.171   4.348 -0.4660  0.1539 -0.0629
 8439SOL    HW136953   3.609   3.093   4.301 -0.0225 -0.4396  1.2081
 8439SOL    HW236954   3.647   3.178   4.416 -0.9944  0.8053  0.3987
 8440SOL     OW36955   2.093   1.360   0.133 -0.1576  0.1779 -0.0518
 8440SOL    HW136956   2.097   1.382   0.040 -0.5420  0.8942  0.1057
 8440SOL    HW236957   2.001   1.360   0.157  0.0059  2.1220  0.6288
 8441SOL     OW36958   3.657   1.038   9.256  0.7832 -0.0105  0.9419
 8441SOL    HW136959   3.725   1.003   9.312  1.6929 -2.1477 -1.5015
 8441SOL    HW236960   3.585   1.045   9.319  0.3086  1.3457  0.2523
 8442SOL     OW36961   4.557   3.831   0.282  0.0263 -0.1784 -0.1596
 8442SOL    HW136962   4.580   3.899   0.345 -2.0435 -0.6517  1.0988
 8442SOL    HW236963   4.467   3.856   0.264  0.9326  2.8630 -0.3877
 8443SOL     OW36964   1.351   0.436   7.630  0.1468 -0.2772 -0.9226
 8443SOL    HW136965   1.317   0.349   7.654 -1.5050  0.5704 -0.2167
 8443SOL    HW236966   1.436   0.430   7.673 -0.3298  1.4188  0.2187
 8444SOL     OW36967   2.666   3.560   7.300 -0.1351 -0.5787 -0.0919
 8444SOL    HW136968   2.586   3.610   7.319 -0.6316 -1.7429  0.8563
 8444SOL    HW236969   2.616   3.480   7.281  0.9853 -1.2651 -0.1349
 8445SOL     OW36970   2.015   1.000   1.041  0.4277  0.0240 -0.3070
 8445SOL    HW136971   2.021   0.935   1.111 -2.0237 -0.7778 -0.8374
 8445SOL    HW236972   1.980   1.075   1.090 -0.3474  0.6160 -1.7792
 8446SOL     OW36973   2.627   0.130   9.662 -0.6221  0.4776  0.5238
 8446SOL    HW136974   2.547   0.182   9.659 -1.4717 -0.7252  2.1750
 8446SOL    HW236975   2.694   0.183   9.618 -0.1710 -1.0271 -0.5958
 8447SOL     OW36976   2.774   0.892  15.116  0.3644  0.2862  0.1928
 8447SOL    HW136977   2.688   0.856  15.094  0.8022 -0.8672  0.3465
 8447SOL    HW236978   2.751   0.981  15.091  0.5690  0.2488 -0.1257
 8448SOL     OW36979   1.009   1.002   9.574 -0.2185 -0.2363 -0.4663
 8448SOL    HW136980   1.097   1.040   9.572  0.5419 -1.8651  2.4186
 8448SOL    HW236981   0.958   1.082   9.559 -0.8762 -0.6982 -0.7121
 8449SOL     OW36982   1.435   4.516   8.335 -0.0585  0.2632  0.2102
 8449SOL    HW136983   1.361   4.566   8.302 -0.5381 -0.3250  0.3964
 8449SOL    HW236984   1.412   4.512   8.428  1.2851 -1.8619  0.4722
 8450SOL     OW36985   1.889   1.887  14.579  0.0423 -0.1822 -0.4060
 8450SOL    HW136986   1.881   1.970  14.532  1.0001  0.5563  0.7700
 8450SOL    HW236987   1.922   1.923  14.661  1.3026  2.2928 -1.9944
 8451SOL     OW36988   2.351   4.558   2.310 -0.6980 -0.0047  0.0282
 8451SOL    HW136989   2.306   4.632   2.350  1.3828 -0.1498  2.6028
 8451SOL    HW236990   2.386   4.601   2.232 -0.2585 -1.1642 -0.4241
 8452SOL     OW36991   3.317   3.350  11.949 -0.6738 -0.5319 -0.0482
 8452SOL    HW136992   3.305   3.419  11.884 -0.5537 -0.7418 -0.2927
 8452SOL    HW236993   3.398   3.312  11.915  0.3316  0.4260  1.3032
 8453SOL     OW36994   4.721   2.837   9.525  0.0759 -0.2733  0.1394
 8453SOL    HW136995   4.687   2.859   9.439  1.1483  1.0957  0.0682
 8453SOL    HW236996   0.067   2.806   9.489  0.0192  0.0029 -0.2244
 8454SOL     OW36997   1.469   3.642   8.813 -0.0096  0.0084  0.2376
 8454SOL    HW136998   1.424   3.651   8.729 -0.3765  1.8912  0.6180
 8454SOL    HW236999   1.408   3.615   8.881  1.5204  0.6458  1.8611
 8455SOL     OW37000   4.549   3.026  15.853 -0.7041 -0.1316 -0.0591
 8455SOL    HW137001   4.617   3.087  15.824 -0.1799 -1.1151 -0.8643
 8455SOL    HW237002   4.600   2.950  15.880 -0.5481 -1.3311 -3.8424
 8456SOL     OW37003   3.245   1.039   5.007 -0.1088 -0.5220  0.1101
 8456SOL    HW137004   3.216   0.983   5.078 -3.1578  0.7062 -0.1318
 8456SOL    HW237005   3.167   1.091   4.989  0.7976  0.4072 -1.2055
 8457SOL     OW37006   0.519   0.274   2.064  0.2881  0.0294  0.3345
 8457SOL    HW137007   0.511   0.337   2.135 -0.1653  0.8748 -0.4724
 8457SOL    HW237008   0.592   0.313   2.016  0.1972  0.8209  0.8334
 8458SOL     OW37009   0.033   4.501   5.722 -0.0679 -0.1909  0.0461
 8458SOL    HW137010   0.112   4.467   5.680  1.3875  2.3130  0.7846
 8458SOL    HW237011   4.726   4.425   5.761 -2.0063  1.2596  0.6504
 8459SOL     OW37012   1.382   2.698   0.517  0.1644  0.0134 -0.2821
 8459SOL    HW137013   1.308   2.642   0.492 -0.0394 -0.5378  1.5532
 8459SOL    HW237014   1.451   2.664   0.459  0.3845 -0.4486  0.2490
 8460SOL     OW37015   2.488   3.939  17.119  0.4771  0.0503  0.0779
 8460SOL    HW137016   2.528   3.869  17.066  0.9263  0.7795 -0.5437
 8460SOL    HW237017   2.422   3.962  17.054 -0.9518 -1.8698  0.8417
 8461SOL     OW37018   0.785   1.034   2.554  0.4046  0.5962 -0.2927
 8461SOL    HW137019   0.757   1.031   2.463 -1.0002  0.4689  0.1478
 8461SOL    HW237020   0.845   1.108   2.554 -1.0640  1.7912  0.8232
 8462SOL     OW37021   2.307   2.449   6.380 -0.0722 -0.3396  0.1599
 8462SOL    HW137022   2.401   2.437   6.392  0.1859  1.9591  0.4399
 8462SOL    HW237023   2.298   2.392   6.304 -0.6472 -0.3874  0.2670
 8463SOL     OW37024   3.550   2.692   2.271  0.0910  0.2272  0.3923
 8463SOL    HW137025   3.490   2.661   2.339 -0.9254 -0.6693 -0.9020
 8463SOL    HW237026   3.523   2.636   2.198  1.3500  0.4441 -0.2389
 8464SOL     OW37027   1.694   1.302   8.352  0.3438  0.2274 -0.3524
 8464SOL    HW137028   1.655   1.225   8.394  0.9290 -0.6388 -1.3744
 8464SOL    HW237029   1.621   1.345   8.309  2.1096  1.9046 -1.6481
 8465SOL     OW37030   0.405   2.922  14.207  0.1340 -1.0499  0.0194
 8465SOL    HW137031   0.403   2.950  14.115  2.7143  1.8662  0.8496
 8465SOL    HW237032   0.338   2.982  14.240  1.7531  0.5996  0.3232
 8466SOL     OW37033   2.668   4.406   5.074  0.2474  0.1086  0.1095
 8466SOL    HW137034   2.634   4.489   5.108 -1.2192 -1.0152  1.3885
 8466SOL    HW237035   2.637   4.409   4.984  0.7418  3.6170  0.0496
 8467SOL     OW37036   1.512   2.538   4.136  0.1526  0.5785 -1.0249
 8467SOL    HW137037   1.471   2.470   4.083  2.3871  0.3288 -2.4386
 8467SOL    HW237038   1.585   2.488   4.174 -1.1529 -0.2167  0.4440
 8468SOL     OW37039   1.661   2.370   8.506  0.1319 -0.3520 -0.3014
 8468SOL    HW137040   1.674   2.323   8.588  0.1767  0.0567 -0.0757
 8468SOL    HW237041   1.708   2.451   8.525 -1.5549  0.3063  1.0335
 8469SOL     OW37042   3.501   3.453  16.011  0.1278 -0.2777 -0.4346
 8469SOL    HW137043   3.485   3.398  15.934 -0.6683  1.1426 -1.2926
 8469SOL    HW237044   3.515   3.539  15.970  0.4001 -0.3261 -0.4396
 8470SOL     OW37045   4.213   1.697  15.072 -0.1938  0.1269  0.3045
 8470SOL    HW137046   4.295   1.651  15.093  0.7912  1.0834 -1.4348
 8470SOL    HW237047   4.253   1.766  15.019 -2.2594  0.6205 -0.6205
 8471SOL     OW37048   2.368   0.789   7.345 -0.1454 -0.1183 -0.3587
 8471SOL    HW137049   2.338   0.731   7.415 -1.6750 -1.1894 -1.9126
 8471SOL    HW237050   2.302   0.859   7.353 -0.0905 -0.0938 -0.1096
 8472SOL     OW37051   0.186   4.359  11.307 -0.3644 -0.2461 -0.7073
 8472SOL    HW137052   0.252   4.351  11.375  0.5521  0.9484 -1.4622
 8472SOL    HW237053   0.140   4.442  11.324  0.3827  0.0788 -0.2691
 8473SOL     OW37054   1.099   3.861  17.033  0.0767  0.3064  0.0353
 8473SOL    HW137055   1.192   3.851  17.013 -0.2697  0.9391 -1.9276
 8473SOL    HW237056   1.109   3.946  17.075  0.2027  0.3535 -0.0891
 8474SOL     OW37057   2.806   0.943   2.796 -0.5636  0.2230  0.8333
 8474SOL    HW137058   2.833   0.915   2.884  0.4038  2.8202  1.3775
 8474SOL    HW237059   2.784   1.036   2.811  0.2671  0.8396 -1.7772
 8475SOL     OW37060   4.033   0.007   6.576  0.2094 -0.0927 -0.4894
 8475SOL    HW137061   3.960   0.017   6.637  2.2564  1.8948  1.6146
 8475SOL    HW237062   3.989   4.708   6.499 -0.4525 -0.3975  0.0397
 8476SOL     OW37063   4.078   2.406   6.990  0.2681 -0.1903  0.5826
 8476SOL    HW137064   4.027   2.427   6.911 -0.6563 -1.8868  0.7275
 8476SOL    HW237065   4.047   2.478   7.045 -0.5098 -0.1026  0.0357
 8477SOL     OW37066   3.468   3.227  12.917  0.4068 -0.0730 -0.0090
 8477SOL    HW137067   3.530   3.253  12.986  2.8155 -1.0272 -1.8220
 8477SOL    HW237068   3.441   3.140  12.946 -0.1935  0.7720  1.9649
 8478SOL     OW37069   1.610   4.244   9.885  0.5764  0.1467  0.0177
 8478SOL    HW137070   1.631   4.168   9.938 -3.4871  0.4418  2.0847
 8478SOL    HW237071   1.529   4.265   9.932  0.5679 -0.9587  0.4826
 8479SOL     OW37072   0.070   0.960   9.825  0.0570  0.3452  0.1001
 8479SOL    HW137073   0.030   0.924   9.746  1.5371 -0.9164 -0.0929
 8479SOL    HW237074   0.102   0.879   9.865 -2.0675 -0.6240 -0.1793
 8480SOL     OW37075   4.457   3.214   5.778 -0.2005  0.1357  0.1686
 8480SOL    HW137076   4.448   3.160   5.856 -0.5879 -2.4546 -1.6669
 8480SOL    HW237077   4.542   3.255   5.794  0.9415 -2.2082  0.1006
 8481SOL     OW37078   2.205   2.597  16.035 -0.4563 -0.3683 -0.3860
 8481SOL    HW137079   2.215   2.575  16.128 -0.6991  2.6834  0.3690
 8481SOL    HW237080   2.186   2.689  16.056  0.5512 -0.4353  0.8412
 8482SOL     OW37081   3.273   4.393   8.940 -0.4241  0.1614  0.0555
 8482SOL    HW137082   3.345   4.388   8.878 -0.8850 -2.5658 -0.2531
 8482SOL    HW237083   3.203   4.429   8.885 -1.3930  0.0203  1.1642
 8483SOL     OW37084   3.366   0.490   8.458 -0.2239 -0.5244  0.2204
 8483SOL    HW137085   3.322   0.566   8.421 -0.2568 -1.9281 -2.6046
 8483SOL    HW237086   3.458   0.514   8.457 -0.5040  0.4988 -1.3298
 8484SOL     OW37087   3.015   1.230   4.905  0.1866 -0.6371 -0.1912
 8484SOL    HW137088   2.954   1.240   4.832 -0.3414  2.0450  0.6251
 8484SOL    HW237089   3.101   1.245   4.866  0.5281 -0.1602  0.7552
 8485SOL     OW37090   2.350   1.231  16.791 -0.1915  0.0012 -0.2007
 8485SOL    HW137091   2.309   1.180  16.721  0.5677 -1.4948  0.4495
 8485SOL    HW237092   2.277   1.240  16.853  0.7703 -0.6465  1.0139
 8486SOL     OW37093   4.312   3.658   2.011 -0.2804  0.6625  0.1130
 8486SOL    HW137094   4.400   3.676   1.977 -0.0651  1.1472  0.9277
 8486SOL    HW237095   4.276   3.667   1.924 -0.6987  0.3571  0.2540
 8487SOL     OW37096   3.316   1.476   5.218  0.2085 -0.4311  0.5637
 8487SOL    HW137097   3.392   1.533   5.206  0.7869 -0.9650  1.6378
 8487SOL    HW237098   3.264   1.523   5.284  1.2394 -1.5340  2.1296
 8488SOL     OW37099   4.346   4.285   1.323  0.5617 -0.2086  0.2659
 8488SOL    HW137100   4.253   4.296   1.344  0.9393  0.0676  1.8246
 8488SOL    HW237101   4.388   4.277   1.409  3.3014 -0.6443 -1.1213
 8489SOL     OW37102   2.544   4.469   5.650 -0.6057  0.7017  0.4920
 8489SOL    HW137103   2.592   4.445   5.571 -0.7894 -2.0698  1.1994
 8489SOL    HW237104   2.464   4.421   5.628  0.4772 -0.7392 -0.2597
 8490SOL     OW37105   4.041   0.821  15.266  0.2684  0.4841 -0.1291
 8490SOL    HW137106   3.962   0.804  15.215 -0.3263  2.7514  0.0232
 8490SOL    HW237107   4.011   0.903  15.306  0.7672  1.0900 -0.9845
 8491SOL     OW37108   0.962   1.098   8.929  0.5053  0.1011  0.0303
 8491SOL    HW137109   0.980   1.095   8.835 -1.9365  4.0206 -0.5689
 8491SOL    HW237110   0.885   1.041   8.924  0.7518 -0.1135 -1.3508
 8492SOL     OW37111   2.515   4.032   3.489  0.0695  0.0248  0.3142
 8492SOL    HW137112   2.441   4.063   3.438 -0.0021 -0.1326  0.3230
 8492SOL    HW237113   2.576   4.010   3.418 -0.4343  2.1381 -0.7624
 8493SOL     OW37114   0.741   2.549   5.714  0.4792  0.2684 -0.4718
 8493SOL    HW137115   0.823   2.595   5.697  0.8009 -0.7766 -1.7096
 8493SOL    HW237116   0.688   2.584   5.642 -0.3648 -0.7037 -0.3308
 8494SOL     OW37117   0.142   2.367  11.720  0.6146  0.5469 -0.1932
 8494SOL    HW137118   0.149   2.462  11.716  3.7517  0.2799 -0.8265
 8494SOL    HW237119   0.144   2.338  11.629 -0.6352 -0.1924  0.0129
 8495SOL     OW37120   1.635   2.387   7.957  0.7321 -0.2628 -0.3453
 8495SOL    HW137121   1.633   2.350   7.868 -0.7675 -0.8067 -0.0827
 8495SOL    HW237122   1.726   2.414   7.971  0.0161  2.2951 -0.5359
 8496SOL     OW37123   0.286   4.596   2.824  0.3097 -0.2777  0.0090
 8496SOL    HW137124   0.254   4.576   2.912  0.6093  1.0410  0.4120
 8496SOL    HW237125   0.294   4.691   2.821 -0.2086 -0.3031 -2.2419
 8497SOL     OW37126   2.526   4.388  14.703  0.8819 -0.1520  0.0302
 8497SOL    HW137127   2.566   4.413  14.787  0.6654  0.3845 -0.0282
 8497SOL    HW237128   2.549   4.467  14.654  0.9320 -0.6711 -0.7827
 8498SOL     OW37129   2.607   3.101   2.694  0.3395  0.0808 -0.3321
 8498SOL    HW137130   2.527   3.144   2.724  0.6981  0.4524  0.1061
 8498SOL    HW237131   2.628   3.167   2.628 -0.8599  1.3303  0.5252
 8499SOL     OW37132   2.939   2.657  17.093 -0.0888 -0.4132  0.0223
 8499SOL    HW137133   2.883   2.719  17.140  0.3095  0.7410 -1.0266
 8499SOL    HW237134   2.960   2.599  17.166 -0.8401 -1.3250 -0.4772
 8500SOL     OW37135   2.134   0.700   5.096 -0.5739 -0.5756 -0.5313
 8500SOL    HW137136   2.084   0.776   5.123  0.7304 -0.1778  0.7944
 8500SOL    HW237137   2.120   0.638   5.168  0.5199 -0.2443 -0.0271
 8501SOL     OW37138   2.675   1.971   6.370 -0.5390 -0.6928  0.3790
 8501SOL    HW137139   2.593   1.980   6.417 -0.7319 -1.4062  0.1671
 8501SOL    HW237140   2.702   1.887   6.407  0.9023  0.2433  1.4557
 8502SOL     OW37141   2.892   3.681   6.292 -0.1301 -0.5328 -0.3643
 8502SOL    HW137142   2.912   3.605   6.237 -0.6501  0.1149 -1.4433
 8502SOL    HW237143   2.810   3.665   6.339 -1.2609 -1.6748 -2.7426
 8503SOL     OW37144   3.206   1.612   4.286 -0.0596  0.7318  0.2327
 8503SOL    HW137145   3.156   1.683   4.324  0.0439  1.6875 -1.3993
 8503SOL    HW237146   3.184   1.542   4.347  0.8068  0.2765  0.0293
 8504SOL     OW37147   4.265   3.118   1.202  0.7099 -0.9224 -0.4304
 8504SOL    HW137148   4.316   3.148   1.278 -1.1195  1.4467 -0.1073
 8504SOL    HW237149   4.329   3.127   1.132  1.8945 -0.0766  0.7461
 8505SOL     OW37150   0.387   0.191   1.795 -0.0482  0.3016  0.2264
 8505SOL    HW137151   0.470   0.173   1.750 -0.3237  1.1033 -0.5985
 8505SOL    HW237152   0.413   0.157   1.881 -0.1658 -0.9196 -0.2122
 8506SOL     OW37153   4.124   2.297   9.527 -0.2656  0.4020  0.0447
 8506SOL    HW137154   4.097   2.354   9.599 -1.0806  1.6604 -1.2662
 8506SOL    HW237155   4.118   2.209   9.563  1.1302 -0.1279 -1.0140
 8507SOL     OW37156   1.682   0.492   9.062 -0.0043  0.0373  0.3559
 8507SOL    HW137157   1.723   0.567   9.019  1.6840 -1.7696 -1.1911
 8507SOL    HW237158   1.592   0.503   9.033 -0.1654 -2.9148 -0.2449
 8508SOL     OW37159   0.587   2.300   5.008  0.4195  0.3616  0.6708
 8508SOL    HW137160   0.628   2.226   5.053  3.2799  2.5688  1.7009
 8508SOL    HW237161   0.501   2.311   5.047 -0.6209 -1.5822 -1.0907
 8509SOL     OW37162   1.831   3.313  13.044 -0.2344  0.5029  0.2667
 8509SOL    HW137163   1.855   3.263  12.966  2.4053  1.4176  0.5012
 8509SOL    HW237164   1.784   3.389  13.010  0.9921  1.2825  0.3101
 8510SOL     OW37165   0.537   3.659   8.791 -0.2621 -0.0790  0.6314
 8510SOL    HW137166   0.562   3.572   8.825  2.2114 -0.4615 -2.1418
 8510SOL    HW237167   0.471   3.643   8.724  1.6986 -1.6347 -0.9122
 8511SOL     OW37168   3.000   2.703   5.589 -0.0601  0.1361  0.0398
 8511SOL    HW137169   2.957   2.626   5.624  0.0789 -0.3639 -0.8987
 8511SOL    HW237170   2.986   2.707   5.494  0.2799  0.1480 -0.0115
 8512SOL     OW37171   0.034   2.276   2.674 -0.5522  0.1033 -0.1845
 8512SOL    HW137172   4.724   2.319   2.744  1.0881  0.2639  0.8174
 8512SOL    HW237173   0.116   2.323   2.662  0.3870 -1.2284  1.0856
 8513SOL     OW37174   4.266   0.552   7.825 -0.0237 -0.0731  0.3815
 8513SOL    HW137175   4.297   0.636   7.793  0.0824 -0.3273 -0.1715
 8513SOL    HW237176   4.318   0.496   7.768  1.9351  0.9000  1.2130
 8514SOL     OW37177   3.220   0.985   8.231  0.2218  0.5162 -0.0730
 8514SOL    HW137178   3.254   1.047   8.167 -0.2261  0.3014 -0.5217
 8514SOL    HW237179   3.148   1.031   8.275  1.3990  0.3784  1.9696
 8515SOL     OW37180   2.689   3.634   6.522  0.7251  0.3585  0.3125
 8515SOL    HW137181   2.691   3.724   6.489  0.9195  0.4248  0.5043
 8515SOL    HW237182   2.656   3.649   6.611 -1.0013  0.3667 -0.3324
 8516SOL     OW37183   1.784   4.271  13.741 -0.2268 -0.1744 -0.1852
 8516SOL    HW137184   1.798   4.366  13.741 -0.6713 -0.1083  1.3286
 8516SOL    HW237185   1.746   4.253  13.827  1.4179  0.1951  0.6331
 8517SOL     OW37186   1.926   2.572   2.854  0.1692 -0.0976  0.2487
 8517SOL    HW137187   1.933   2.639   2.922 -2.4406 -0.7766  1.2136
 8517SOL    HW237188   1.878   2.612   2.782 -0.2509 -0.4902  0.3114
 8518SOL     OW37189   4.318   3.881  15.664  0.5882 -0.1813  0.6345
 8518SOL    HW137190   4.358   3.924  15.740 -0.5034  0.2400  0.9596
 8518SOL    HW237191   4.227   3.903  15.680  0.9750  0.7768  1.5368
 8519SOL     OW37192   1.378   4.490   7.551  0.4711 -0.2147  0.6686
 8519SOL    HW137193   1.390   4.417   7.490  0.1186  1.1832 -1.0700
 8519SOL    HW237194   1.366   4.440   7.631  1.0337 -0.4658  0.6002
 8520SOL     OW37195   3.168   2.634   8.414  0.0341  0.2933 -0.0716
 8520SOL    HW137196   3.115   2.674   8.484  0.5475  0.0583  0.4496
 8520SOL    HW237197   3.186   2.548   8.451  0.6038  1.7615  3.0964
 8521SOL     OW37198   2.422   4.497  14.233  0.4115 -0.0236  0.6764
 8521SOL    HW137199   2.443   4.442  14.308 -0.1380  0.9711  1.5601
 8521SOL    HW237200   2.471   4.453  14.163 -1.0180 -0.7673  0.1406
 8522SOL     OW37201   2.848   4.095  17.088 -0.7214 -0.2738  1.0481
 8522SOL    HW137202   2.834   4.189  17.083 -0.1822 -0.4098 -2.8501
 8522SOL    HW237203   2.851   4.077  17.182  1.6912  0.2215  1.0788
 8523SOL     OW37204   3.000   0.881   5.569 -0.0178  0.1462  0.2695
 8523SOL    HW137205   3.079   0.827   5.572 -0.0463  0.1562  1.2520
 8523SOL    HW237206   2.949   0.849   5.644  2.1653 -0.7976  1.3550
 8524SOL     OW37207   3.938   0.670   4.783  0.2810 -0.3304 -0.0279
 8524SOL    HW137208   3.871   0.727   4.822  0.5063 -0.0860  0.0086
 8524SOL    HW237209   4.000   0.736   4.752  0.8630 -1.0364 -0.3522
 8525SOL     OW37210   4.271   1.989   6.276  0.1988  0.0984  0.2053
 8525SOL    HW137211   4.347   2.048   6.271  0.0302  0.4564  1.8408
 8525SOL    HW237212   4.312   1.905   6.296  0.1201  0.2622  1.0592
 8526SOL     OW37213   4.407   0.562  17.540 -0.1275  0.0749  0.0561
 8526SOL    HW137214   4.370   0.578  17.453  1.2100 -0.9542 -0.7070
 8526SOL    HW237215   4.498   0.547  17.513  0.1897  1.4140  0.4077
 8527SOL     OW37216   2.650   0.599   9.132  0.0710 -0.3827 -0.6260
 8527SOL    HW137217   2.611   0.562   9.052 -2.0556 -0.6935  0.5735
 8527SOL    HW237218   2.578   0.647   9.172  1.3650  1.4498 -0.4972
 8528SOL     OW37219   1.079   0.411   8.619 -0.3858 -0.6348  0.6295
 8528SOL    HW137220   1.071   0.497   8.578 -1.1597 -1.4562 -0.9611
 8528SOL    HW237221   1.016   0.362   8.565  1.7113 -1.2274 -1.3012
 8529SOL     OW37222   2.143   2.618   4.483 -0.1563  0.1151 -0.3159
 8529SOL    HW137223   2.185   2.594   4.401  2.6688 -0.1181  1.2140
 8529SOL    HW237224   2.099   2.694   4.444  1.4279  0.2131 -1.9001
 8530SOL     OW37225   3.216   0.158  13.097  0.2333 -0.2130 -0.4131
 8530SOL    HW137226   3.129   0.145  13.060 -0.5013  1.1955  0.7923
 8530SOL    HW237227   3.209   0.080  13.153  0.7522 -1.2340 -1.7963
 8531SOL     OW37228   3.233   0.275  15.780 -0.3813  0.1454  0.8428
 8531SOL    HW137229   3.328   0.276  15.792 -0.3182 -2.7318  0.5971
 8531SOL    HW237230   3.209   0.362  15.809  0.8941  0.3248  1.3749
 8532SOL     OW37231   4.369   2.216   5.795  0.0617  0.2869 -0.3368
 8532SOL    HW137232   4.414   2.159   5.732 -2.1186 -0.6776 -1.0147
 8532SOL    HW237233   4.281   2.211   5.758  0.6808 -0.1619 -1.7531
 8533SOL     OW37234   1.742   1.177   9.682  0.0236 -0.1807 -0.1983
 8533SOL    HW137235   1.667   1.118   9.694  1.6107 -2.1715 -0.1229
 8533SOL    HW237236   1.759   1.196   9.774 -0.2952 -0.4492 -0.0821
 8534SOL     OW37237   2.375   2.228   1.869 -0.1334  0.1763 -0.6273
 8534SOL    HW137238   2.418   2.212   1.785  0.1171 -0.1064 -0.4423
 8534SOL    HW237239   2.298   2.174   1.848 -0.6755 -0.5117  3.1863
 8535SOL     OW37240   3.496   2.143   4.471  0.0058  0.4280 -0.0393
 8535SOL    HW137241   3.508   2.208   4.402  0.0499  0.3346 -0.1207
 8535SOL    HW237242   3.569   2.081   4.459 -1.1964 -0.9241 -0.3398
 8536SOL     OW37243   0.068   0.971   3.082  0.2305  0.0194  0.2686
 8536SOL    HW137244   0.003   1.038   3.104 -0.7498 -1.0788  0.7310
 8536SOL    HW237245   0.046   0.971   2.989  0.5871 -0.0524  0.1847
 8537SOL     OW37246   2.972   4.226  17.554  0.0153  0.0559  0.0654
 8537SOL    HW137247   2.960   4.292  17.485 -0.9793 -1.3685 -1.1195
 8537SOL    HW237248   3.025   4.162  17.507  1.4054 -0.3531  2.1945
 8538SOL     OW37249   0.863   0.423   4.845 -0.2863  0.5111  0.0498
 8538SOL    HW137250   0.926   0.448   4.777  0.0478 -1.8664 -0.5484
 8538SOL    HW237251   0.817   0.349   4.803 -1.4219  1.1169  0.2418
 8539SOL     OW37252   1.414   3.231   2.651  0.3190  0.4567 -0.3254
 8539SOL    HW137253   1.430   3.266   2.563  1.0830 -0.5859 -0.6038
 8539SOL    HW237254   1.484   3.166   2.657 -1.4626 -1.1430  3.1597
 8540SOL     OW37255   0.864   2.417   1.334  0.3835 -0.0069  0.0875
 8540SOL    HW137256   0.842   2.330   1.365 -0.3867  0.3193  0.4533
 8540SOL    HW237257   0.797   2.423   1.266  1.3257 -1.5746 -0.9855
 8541SOL     OW37258   1.149   2.221   4.970 -0.5794 -0.1097 -0.4700
 8541SOL    HW137259   1.230   2.174   4.987  0.6431  1.5594 -1.6533
 8541SOL    HW237260   1.158   2.280   5.045 -0.0404 -0.4780 -0.2426
 8542SOL     OW37261   3.523   2.428  17.437  0.3329 -0.1389 -0.7583
 8542SOL    HW137262   3.507   2.523  17.439  2.1665  0.1533 -0.5394
 8542SOL    HW237263   3.438   2.391  17.411 -1.5159  2.0101  2.1577
 8543SOL     OW37264   4.573   1.066   6.535 -0.1692  0.5308 -0.5826
 8543SOL    HW137265   4.579   1.161   6.538 -1.1865  0.6070 -1.2419
 8543SOL    HW237266   4.651   1.055   6.480  0.2868  1.9816 -0.2203
 8544SOL     OW37267   3.826   2.338  15.833  0.0240  0.4279  0.1957
 8544SOL    HW137268   3.754   2.278  15.819  1.1286 -0.6369 -0.8785
 8544SOL    HW237269   3.777   2.403  15.884 -0.3051 -0.4951  1.0399
 8545SOL     OW37270   4.409   4.515   3.502 -0.3566  0.4004 -0.0001
 8545SOL    HW137271   4.317   4.491   3.508 -0.7883  1.6008 -2.0056
 8545SOL    HW237272   4.445   4.445   3.448  0.9996  0.5074  0.7636
 8546SOL     OW37273   0.594   0.106   1.407  0.2137 -0.5813 -0.0084
 8546SOL    HW137274   0.523   0.064   1.358  1.8277 -3.4253  0.1039
 8546SOL    HW237275   0.625   0.166   1.339 -1.6686  0.1994 -0.2059
 8547SOL     OW37276   2.809   0.963   8.601 -0.1497  0.1351  0.0669
 8547SOL    HW137277   2.839   1.024   8.669 -0.3874  0.9895 -0.5922
 8547SOL    HW237278   2.874   0.981   8.533  0.3249  0.1189  0.5135
 8548SOL     OW37279   1.065   2.633   7.948 -0.5560 -0.4454  0.4858
 8548SOL    HW137280   1.116   2.612   8.026  0.6652 -1.5552 -0.5865
 8548SOL    HW237281   1.012   2.708   7.972  0.5956 -0.4457  2.9596
 8549SOL     OW37282   1.869   4.116  16.317 -0.2475  0.0469 -0.7214
 8549SOL    HW137283   1.907   4.153  16.397 -1.8879  1.7154 -0.7061
 8549SOL    HW237284   1.882   4.185  16.252 -0.7578 -0.6735 -1.5915
 8550SOL     OW37285   2.396   3.872   5.715  0.0430  0.5893  0.0019
 8550SOL    HW137286   2.404   3.808   5.786  0.7512 -1.8044 -2.2373
 8550SOL    HW237287   2.309   3.903   5.740  1.0981  1.1880  2.9361
 8551SOL     OW37288   3.783   2.935  15.163 -0.0687 -0.1347  0.6012
 8551SOL    HW137289   3.838   2.960  15.089 -3.0482  0.5003 -1.3739
 8551SOL    HW237290   3.776   2.842  15.143 -2.0968  0.2746 -0.5509
 8552SOL     OW37291   2.985   4.381   0.052 -0.7783 -0.3542 -0.0286
 8552SOL    HW137292   2.979   4.443  17.729 -2.4672 -1.3774 -0.7498
 8552SOL    HW237293   3.051   4.418   0.111 -1.0375 -0.5871  0.4058
 8553SOL     OW37294   0.642   4.438  11.819  0.2074 -0.0989 -0.5038
 8553SOL    HW137295   0.561   4.418  11.865 -1.0852 -3.6650 -4.4362
 8553SOL    HW237296   0.708   4.427  11.888 -2.0398 -2.0667  1.3225
 8554SOL     OW37297   0.489   1.274   3.406  0.5163 -0.5226  0.2866
 8554SOL    HW137298   0.503   1.314   3.492 -2.0451 -0.4797  0.6777
 8554SOL    HW237299   0.407   1.236   3.437  0.5801 -1.8997 -1.2171
 8555SOL     OW37300   4.666   0.646   6.239 -0.8884  0.2298  0.8914
 8555SOL    HW137301   4.675   0.558   6.276 -0.5686 -0.5783 -1.0668
 8555SOL    HW237302   4.587   0.633   6.186 -0.0304  0.2124 -0.3752
 8556SOL     OW37303   0.538   3.418   2.990  0.2284  0.4396 -0.0273
 8556SOL    HW137304   0.473   3.463   3.043  1.7322 -0.4440  2.5573
 8556SOL    HW237305   0.484   3.345   2.958 -0.6976  1.2122 -0.2220
 8557SOL     OW37306   0.803   2.189   1.533 -1.0137  0.3463  0.7952
 8557SOL    HW137307   0.847   2.107   1.555 -2.1979 -0.7608 -1.0047
 8557SOL    HW237308   0.862   2.254   1.571  0.8613 -1.2971  0.7345
 8558SOL     OW37309   4.074   2.820   2.935  0.4501 -0.3048 -0.2503
 8558SOL    HW137310   4.008   2.882   2.965  2.2817  1.3829  0.2616
 8558SOL    HW237311   4.092   2.773   3.016 -1.8955 -1.0588 -0.1640
 8559SOL     OW37312   4.368   1.155   9.262 -0.0180  0.5330 -0.0266
 8559SOL    HW137313   4.319   1.190   9.188  0.5097 -0.5644 -0.9000
 8559SOL    HW237314   4.371   1.229   9.323  2.2333  1.0321 -0.7201
 8560SOL     OW37315   0.386   1.971  10.976 -0.2209  0.0479  0.0922
 8560SOL    HW137316   0.388   1.930  11.063  1.4589 -0.1079 -0.0101
 8560SOL    HW237317   0.421   1.894  10.931 -0.3645  0.1517 -0.1999
 8561SOL     OW37318   1.891   1.853   4.777  0.1914  0.3205  0.1254
 8561SOL    HW137319   1.971   1.887   4.819  0.1805  0.1652  0.2723
 8561SOL    HW237320   1.877   1.771   4.824 -1.7405  1.9705  2.4277
 8562SOL     OW37321   3.992   2.358   1.457 -0.3311  0.0918  0.5755
 8562SOL    HW137322   4.053   2.304   1.407  0.9592  0.6668  1.5412
 8562SOL    HW237323   4.015   2.447   1.430 -2.5948  0.1467 -1.1487
 8563SOL     OW37324   0.589   4.349   7.773 -0.0382  0.8222 -0.0699
 8563SOL    HW137325   0.567   4.359   7.866  0.6894 -0.4276  0.2363
 8563SOL    HW237326   0.500   4.342   7.739  0.0361 -0.3779 -0.0042
 8564SOL     OW37327   4.432   3.760   7.434 -0.3977 -0.2722 -0.4321
 8564SOL    HW137328   4.459   3.804   7.515 -1.1680 -0.5645 -0.0163
 8564SOL    HW237329   4.337   3.769   7.444 -0.3269 -0.1309  0.1442
 8565SOL     OW37330   0.422   2.042  14.734  0.5882 -0.0381  0.3409
 8565SOL    HW137331   0.508   2.013  14.762  0.2990  1.4549  2.7728
 8565SOL    HW237332   0.412   1.999  14.649  0.2823  0.3850  0.1574
 8566SOL     OW37333   0.457   1.598   9.616  0.1693 -0.1223 -0.1718
 8566SOL    HW137334   0.421   1.584   9.529 -0.7452  0.2946  0.1449
 8566SOL    HW237335   0.397   1.659   9.659  0.8753  0.7867 -0.4720
 8567SOL     OW37336   1.941   4.148  11.270 -0.4853 -0.4686 -0.1099
 8567SOL    HW137337   1.937   4.062  11.228  1.4657 -0.7999  0.3811
 8567SOL    HW237338   1.881   4.201  11.218 -1.5705 -0.5125  1.1116
 8568SOL     OW37339   3.426   4.008   7.388 -0.7626  0.1168 -0.3025
 8568SOL    HW137340   3.449   4.024   7.296  1.1869  0.0332  0.1706
 8568SOL    HW237341   3.510   3.989   7.430 -0.3898  0.3610 -0.9354
 8569SOL     OW37342   2.025   1.900  16.610 -0.3026 -0.3322  0.2710
 8569SOL    HW137343   2.074   1.823  16.637  2.0217  1.7108  1.9680
 8569SOL    HW237344   2.033   1.960  16.685 -2.2016 -1.2836  1.2099
 8570SOL     OW37345   2.840   0.221   1.841 -0.1183 -0.3189 -0.2902
 8570SOL    HW137346   2.879   0.275   1.772 -0.3374 -1.6079 -1.4319
 8570SOL    HW237347   2.872   0.257   1.923 -1.0313  0.0496 -0.1021
 8571SOL     OW37348   2.593   1.232   1.934  0.5466  0.3669 -0.4193
 8571SOL    HW137349   2.681   1.215   1.969  0.2771  1.3569  0.7293
 8571SOL    HW237350   2.575   1.158   1.876 -1.2164 -0.2106  0.8680
 8572SOL     OW37351   1.208   4.362   1.664  0.2139 -0.3039  0.0181
 8572SOL    HW137352   1.204   4.338   1.756 -3.4517 -1.2009 -0.3519
 8572SOL    HW237353   1.196   4.272   1.634 -0.5990 -0.1993  0.0246
 8573SOL     OW37354   4.425   2.799  11.791 -0.7208 -1.1908 -0.2510
 8573SOL    HW137355   4.505   2.783  11.841 -1.7380 -1.8187  1.1764
 8573SOL    HW237356   4.382   2.713  11.792  0.2880 -1.6987 -1.4577
 8574SOL     OW37357   3.162   0.007   8.400  0.4781  0.6504 -0.3883
 8574SOL    HW137358   3.238   4.737   8.457 -0.8391 -0.8793  1.1805
 8574SOL    HW237359   3.138   0.099   8.407 -0.3236  0.4127  0.0647
 8575SOL     OW37360   3.702   1.736   4.993  0.1587  0.4274  0.3815
 8575SOL    HW137361   3.762   1.676   4.948 -2.2449 -2.3395  0.9090
 8575SOL    HW237362   3.617   1.693   5.000 -0.6851  2.2183  1.1903
 8576SOL     OW37363   1.842   2.401  16.649  0.4728 -0.3606 -0.0764
 8576SOL    HW137364   1.835   2.366  16.560  0.5639 -1.1916  0.2384
 8576SOL    HW237365   1.806   2.322  16.690 -1.1700 -0.4440 -1.6899
 8577SOL     OW37366   4.623   4.481  10.025  0.2538 -0.2719  0.0949
 8577SOL    HW137367   4.682   4.498   9.951 -0.4801  1.3841 -0.0963
 8577SOL    HW237368   4.612   4.567  10.067  2.3857  0.4163 -0.7224
 8578SOL     OW37369   1.003   1.762  10.851 -0.9330  0.4271 -0.0273
 8578SOL    HW137370   1.066   1.734  10.917 -1.3016 -0.9682 -0.2739
 8578SOL    HW237371   1.062   1.805  10.788 -2.2610 -3.1428 -3.6876
 8579SOL     OW37372   1.416   2.837   7.301 -0.7291  0.3490 -0.4002
 8579SOL    HW137373   1.489   2.849   7.240  0.1729  0.5371  0.7258
 8579SOL    HW237374   1.339   2.827   7.245  0.9673 -2.5229 -2.2013
 8580SOL     OW37375   1.954   3.773   7.129 -0.0027 -0.0485  0.3312
 8580SOL    HW137376   1.982   3.733   7.211  0.2059 -3.9622 -1.6830
 8580SOL    HW237377   2.005   3.722   7.067  0.2533  0.0089  0.4942
 8581SOL     OW37378   0.031   1.446   8.200 -0.3673  0.0034  0.2155
 8581SOL    HW137379   4.694   1.472   8.148 -1.0724 -1.0523  0.7091
 8581SOL    HW237380   4.722   1.418   8.278  1.3450 -2.2748  0.4316
 8582SOL     OW37381   1.347   0.981   1.605 -0.2902  0.4134 -0.2712
 8582SOL    HW137382   1.393   1.039   1.666 -0.3320  0.3988 -0.2254
 8582SOL    HW237383   1.418   0.919   1.588 -0.6740 -0.1513  0.2053
 8583SOL     OW37384   3.265   0.531   8.970  0.3356  0.1185 -0.6361
 8583SOL    HW137385   3.249   0.584   8.892 -2.2144  1.6834  0.9632
 8583SOL    HW237386   3.175   0.525   9.000 -0.0520  2.6416 -1.2556
 8584SOL     OW37387   2.797   1.916  15.175  0.2727  0.0160 -0.3251
 8584SOL    HW137388   2.832   1.956  15.255  0.0939  2.0034 -1.2264
 8584SOL    HW237389   2.724   1.975  15.154  2.3211  2.0970 -1.6266
 8585SOL     OW37390   2.541   4.481  10.198  0.3586  0.3016 -0.2351
 8585SOL    HW137391   2.477   4.471  10.268  0.4443 -0.0176 -0.2004
 8585SOL    HW237392   2.614   4.509  10.253  0.6517 -0.3364 -0.2971
 8586SOL     OW37393   1.788   3.765  15.975 -0.3787  0.2046 -0.3904
 8586SOL    HW137394   1.771   3.765  15.881 -0.7750  0.1963 -0.3158
 8586SOL    HW237395   1.835   3.846  15.996 -0.9705  1.0783 -2.4845
 8587SOL     OW37396   4.361   2.248   0.924 -0.2754 -0.5484 -0.2569
 8587SOL    HW137397   4.414   2.288   0.993 -1.3219 -0.5233  0.5343
 8587SOL    HW237398   4.313   2.317   0.881  0.0559  0.2867  0.7101
 8588SOL     OW37399   0.826   4.240  13.030  0.3227 -0.4138  0.4523
 8588SOL    HW137400   0.795   4.273  13.114 -0.0556  0.6810 -0.1062
 8588SOL    HW237401   0.808   4.323  12.984  0.3411 -0.5083  0.2765
 8589SOL     OW37402   3.442   0.814   2.133 -0.1141  0.3447  0.3518
 8589SOL    HW137403   3.459   0.908   2.136  1.6091  0.0134  1.0271
 8589SOL    HW237404   3.347   0.812   2.126  0.0935 -1.4115 -1.9749
 8590SOL     OW37405   3.515   3.891   3.248  0.3853 -1.1023 -0.3581
 8590SOL    HW137406   3.558   3.977   3.248  0.8663 -1.3357 -2.1692
 8590SOL    HW237407   3.560   3.867   3.329  0.6471 -1.7375 -0.6951
 8591SOL     OW37408   4.467   1.159  10.185 -0.3042  0.6878  0.0248
 8591SOL    HW137409   4.550   1.133  10.224 -0.5972 -2.7855 -1.6558
 8591SOL    HW237410   4.479   1.131  10.094  1.1574  0.8410  0.1633
 8592SOL     OW37411   1.697   1.885  11.329  0.0545  0.3711 -0.1142
 8592SOL    HW137412   1.604   1.886  11.355  0.2989  4.3406  0.5218
 8592SOL    HW237413   1.692   1.793  11.302 -1.3876  0.2681  0.4794
 8593SOL     OW37414   4.081   0.893   2.794 -0.0880 -0.5918  0.1433
 8593SOL    HW137415   4.030   0.938   2.862  1.7157  0.2471  0.9513
 8593SOL    HW237416   4.010   0.876   2.733 -0.3357  3.9915 -0.8084
 8594SOL     OW37417   4.378   3.386   4.128 -0.2247  0.1980  0.5439
 8594SOL    HW137418   4.455   3.335   4.101 -0.2623  1.1217 -1.3002
 8594SOL    HW237419   4.409   3.472   4.101 -2.0811  0.3600 -1.0434
 8595SOL     OW37420   0.995   4.028   5.659 -0.3507  0.7911  0.1122
 8595SOL    HW137421   1.038   3.949   5.694 -0.7657  0.1806 -0.7751
 8595SOL    HW237422   1.053   4.096   5.694 -0.5480  1.1277 -0.2161
 8596SOL     OW37423   1.791   2.659   5.559 -0.1331 -0.3882 -0.8471
 8596SOL    HW137424   1.815   2.749   5.582 -1.9087  0.6365 -3.0629
 8596SOL    HW237425   1.875   2.627   5.528  0.1116  0.6319 -1.2406
 8597SOL     OW37426   0.073   1.510   9.120 -0.1216 -0.1995  1.0776
 8597SOL    HW137427   4.721   1.507   9.088  0.3121 -1.4565 -0.0175
 8597SOL    HW237428   0.068   1.463   9.203  2.7378 -0.2070  1.2753
 8598SOL     OW37429   3.589   2.471   7.624 -0.4898 -0.1071  0.3543
 8598SOL    HW137430   3.508   2.450   7.672 -1.4914 -0.8257 -1.6709
 8598SOL    HW237431   3.585   2.566   7.609 -1.7440 -0.2535 -0.2291
 8599SOL     OW37432   0.562   3.951   8.888  0.1668 -0.0066 -0.2356
 8599SOL    HW137433   0.633   3.970   8.827 -2.3804  0.8946 -2.9536
 8599SOL    HW237434   0.567   3.856   8.876  2.5783  0.0709  0.2305
 8600SOL     OW37435   4.079   3.455   4.774  0.1192  0.3328 -0.2825
 8600SOL    HW137436   4.038   3.428   4.692 -1.0808  0.6502  0.2089
 8600SOL    HW237437   4.153   3.507   4.742  1.3625 -0.6101  1.0291
 8601SOL     OW37438   4.469   1.901  13.779  0.3475 -0.1687 -0.1202
 8601SOL    HW137439   4.489   1.850  13.858 -4.0743  0.2564  1.2920
 8601SOL    HW237440   4.381   1.937  13.786  1.4352  2.0455  2.1214
 8602SOL     OW37441   1.609   0.650   4.159  0.2808 -0.4508  0.5904
 8602SOL    HW137442   1.604   0.561   4.194  0.8430 -1.3490 -1.6004
 8602SOL    HW237443   1.682   0.635   4.099 -1.1204  0.3646 -1.3210
 8603SOL     OW37444   4.393   1.823   8.659  0.4269 -0.7544  0.4770
 8603SOL    HW137445   4.363   1.736   8.634 -1.0335  0.0561 -0.5761
 8603SOL    HW237446   4.368   1.866   8.577  0.3831 -0.0501  0.8577
 8604SOL     OW37447   2.296   3.245   2.418 -0.4476 -0.3870  0.3961
 8604SOL    HW137448   2.344   3.197   2.350 -0.1318 -0.0195  0.3622
 8604SOL    HW237449   2.358   3.317   2.423 -0.7701 -0.1511  1.0412
 8605SOL     OW37450   1.175   1.415   6.377  0.1105 -0.1329 -0.6703
 8605SOL    HW137451   1.237   1.462   6.433 -1.0144  0.1391  0.3639
 8605SOL    HW237452   1.138   1.347   6.434 -1.5672 -0.1042 -1.7130
 8606SOL     OW37453   3.135   2.719   2.555 -0.1781  0.6273  0.0672
 8606SOL    HW137454   3.107   2.739   2.645  0.2197  0.3490  0.2545
 8606SOL    HW237455   3.048   2.695   2.526  0.0426  3.4270 -2.8304
 8607SOL     OW37456   2.632   3.939  10.677  0.1625 -0.5211 -0.3212
 8607SOL    HW137457   2.549   3.941  10.629  0.6173  0.4042 -1.0671
 8607SOL    HW237458   2.596   3.893  10.754  0.3890 -1.2697 -0.6661
 8608SOL     OW37459   1.614   2.833  11.259 -0.3206  0.0262 -0.9902
 8608SOL    HW137460   1.564   2.773  11.203 -0.3523 -0.8661 -0.0046
 8608SOL    HW237461   1.697   2.787  11.241 -0.3102 -0.5085  0.4537
 8609SOL     OW37462   0.993   1.522  16.777  0.2050  0.0338  0.6294
 8609SOL    HW137463   1.039   1.448  16.817 -0.8376 -1.8062 -1.5659
 8609SOL    HW237464   1.066   1.574  16.742 -2.5047  3.3723 -0.1106
 8610SOL     OW37465   4.046   0.662   7.711 -0.4756 -0.3691  0.4360
 8610SOL    HW137466   4.115   0.638   7.772  1.2818 -0.9235 -1.8103
 8610SOL    HW237467   4.099   0.671   7.632 -1.4512  0.6082 -0.1193
 8611SOL     OW37468   1.125   3.141  11.645  0.6217  0.2487 -0.1595
 8611SOL    HW137469   1.081   3.217  11.684 -0.0939  0.5050 -1.4775
 8611SOL    HW237470   1.216   3.168  11.652 -0.3612  3.2875  0.8932
 8612SOL     OW37471   3.817   2.386   5.886 -0.3820  0.4215  0.3252
 8612SOL    HW137472   3.728   2.387   5.850 -0.6477 -0.1077  0.9584
 8612SOL    HW237473   3.818   2.294   5.914 -0.7761  0.1651 -0.4850
 8613SOL     OW37474   1.579   1.808  12.203 -0.1267 -0.2805  0.3873
 8613SOL    HW137475   1.619   1.773  12.124  3.2413  0.4100  1.7874
 8613SOL    HW237476   1.645   1.813  12.272  0.6116 -1.5819 -0.2466
 8614SOL     OW37477   2.958   3.146   2.439  0.2837  0.0351 -0.2191
 8614SOL    HW137478   2.916   3.232   2.432  0.4027  0.1214  0.1314
 8614SOL    HW237479   2.951   3.116   2.348 -0.7877 -0.9552  0.1940
 8615SOL     OW37480   1.843   1.231   4.924  0.1316  0.1182  0.2515
 8615SOL    HW137481   1.754   1.265   4.918  0.9046  2.1186 -0.0491
 8615SOL    HW237482   1.858   1.198   4.835  0.3274 -0.1992  0.4045
 8616SOL     OW37483   1.303   2.254  14.653  0.7611 -0.6240 -0.0276
 8616SOL    HW137484   1.280   2.180  14.598 -0.3559 -0.7618  0.6285
 8616SOL    HW237485   1.377   2.287  14.602  0.3547  0.0915 -0.1548
 8617SOL     OW37486   2.331   1.509   6.062 -0.3714  0.7054  0.3007
 8617SOL    HW137487   2.267   1.453   6.107 -0.6142 -0.4481 -1.4742
 8617SOL    HW237488   2.410   1.474   6.103  0.4826 -0.5962 -2.4261
 8618SOL     OW37489   2.741   0.188   4.143 -0.1517  0.1093 -0.2746
 8618SOL    HW137490   2.669   0.126   4.132  0.9604 -0.9810 -1.2991
 8618SOL    HW237491   2.724   0.245   4.068 -0.1596  0.4301 -0.0299
 8619SOL     OW37492   1.687   4.501  12.534 -0.0518 -0.2187 -0.3284
 8619SOL    HW137493   1.674   4.474  12.444 -1.9296 -1.1783  0.2192
 8619SOL    HW237494   1.783   4.505  12.539 -0.0978 -0.0830  0.4973
 8620SOL     OW37495   3.667   1.585   6.199  0.3841 -0.2295 -1.0248
 8620SOL    HW137496   3.683   1.548   6.113  3.8262 -2.0032  0.4025
 8620SOL    HW237497   3.574   1.560   6.194  0.2498  0.3832 -1.5663
 8621SOL     OW37498   3.816   0.690   8.795  0.4440  0.2203 -0.8370
 8621SOL    HW137499   3.807   0.629   8.869  0.4847 -0.8149 -1.6939
 8621SOL    HW237500   3.729   0.679   8.757 -0.5091  0.4147  1.2596
 8622SOL     OW37501   1.432   3.373  12.952 -0.2299  0.3962 -0.0099
 8622SOL    HW137502   1.454   3.352  13.042 -0.4179  0.1221 -0.0300
 8622SOL    HW237503   1.344   3.409  12.967 -0.2951  1.2538 -2.4001
 8623SOL     OW37504   1.057   1.449   6.107 -0.0992  0.5411  0.3407
 8623SOL    HW137505   1.082   1.470   6.197  2.6614  0.1262 -0.3360
 8623SOL    HW237506   0.965   1.428   6.123  0.2625 -1.4881 -0.2672
 8624SOL     OW37507   2.465   3.558  12.080  0.4516  0.0648  0.8497
 8624SOL    HW137508   2.456   3.517  12.166  1.4568 -1.1970  0.3524
 8624SOL    HW237509   2.559   3.576  12.077  0.8211 -1.9852 -0.2602
 8625SOL     OW37510   1.988   1.707   7.605  0.2675  0.1911  0.0876
 8625SOL    HW137511   1.996   1.621   7.563 -0.0481  0.3450 -0.2831
 8625SOL    HW237512   1.914   1.749   7.562 -0.8574 -1.3382  0.5303
 8626SOL     OW37513   0.337   1.325   2.004 -0.1751  0.5923  0.3439
 8626SOL    HW137514   0.413   1.314   2.062 -1.7564 -0.5489  2.2288
 8626SOL    HW237515   0.270   1.308   2.071 -0.5434 -3.7172 -1.1184
 8627SOL     OW37516   1.419   1.293   6.838 -1.0367 -0.2980  0.7499
 8627SOL    HW137517   1.491   1.232   6.822  0.8627  2.0578  0.4762
 8627SOL    HW237518   1.385   1.262   6.922  0.7419 -1.3610  1.0873
 8628SOL     OW37519   1.726   1.575   7.541  1.0733 -0.0567  0.1018
 8628SOL    HW137520   1.725   1.515   7.466 -1.4258  1.0857 -0.7999
 8628SOL    HW237521   1.661   1.638   7.509  0.7650 -1.0672 -1.2607
 8629SOL     OW37522   1.569   0.881  17.184  0.3298  0.1846 -0.0520
 8629SOL    HW137523   1.622   0.803  17.168 -2.5667 -1.3346 -2.1611
 8629SOL    HW237524   1.558   0.919  17.097  2.0014 -0.8725 -0.7280
 8630SOL     OW37525   4.013   2.959  12.118  0.1209 -0.1924  0.4727
 8630SOL    HW137526   4.086   2.933  12.061 -2.3528 -0.0315 -2.8061
 8630SOL    HW237527   4.049   2.927  12.201  2.4111 -2.3591 -1.3340
 8631SOL     OW37528   1.765   2.893   5.232 -0.5034 -0.0432  0.2683
 8631SOL    HW137529   1.674   2.913   5.211 -0.6427  0.6272  1.5189
 8631SOL    HW237530   1.760   2.800   5.210 -0.3628  0.0265 -0.0552
 8632SOL     OW37531   1.445   3.699   5.641 -0.1402  0.2135 -0.2333
 8632SOL    HW137532   1.501   3.649   5.700  1.3405  1.5449 -0.4862
 8632SOL    HW237533   1.449   3.647   5.561 -0.5613 -2.0961  1.2654
 8633SOL     OW37534   0.403   4.359   2.784 -0.1722  0.4221  0.3967
 8633SOL    HW137535   0.471   4.378   2.848 -0.1731  1.5340  0.0651
 8633SOL    HW237536   0.337   4.425   2.804  1.9163  2.0203  1.9195
 8634SOL     OW37537   1.093   0.351   5.847  0.3513 -0.1932 -0.4804
 8634SOL    HW137538   1.146   0.411   5.899  2.2870 -1.0651 -1.4537
 8634SOL    HW237539   1.009   0.376   5.887  0.1764 -1.7254  0.1161
 8635SOL     OW37540   1.021   2.605  15.551  0.6014  0.0824  0.1346
 8635SOL    HW137541   0.929   2.601  15.525  0.0959 -1.3114  2.1448
 8635SOL    HW237542   1.024   2.585  15.644 -1.2977  1.6453  0.5342
 8636SOL     OW37543   0.318   3.540   5.139  0.0244 -0.1090 -0.5142
 8636SOL    HW137544   0.296   3.605   5.072 -1.0706 -0.7530 -0.7719
 8636SOL    HW237545   0.408   3.512   5.124  0.0426 -0.4492  0.2687
 8637SOL     OW37546   0.266   1.657   2.729 -0.1157 -0.3359 -0.1550
 8637SOL    HW137547   0.266   1.579   2.784 -0.3253  1.5832  2.5649
 8637SOL    HW237548   0.336   1.702   2.775 -1.0792 -0.3959  1.3746
 8638SOL     OW37549   0.171   4.248   7.780 -0.0199  0.4012 -0.0945
 8638SOL    HW137550   0.179   4.170   7.726  0.7154 -0.0082  0.6058
 8638SOL    HW237551   0.081   4.281   7.772 -0.0566  0.4577  0.5618
 8639SOL     OW37552   0.639   3.920   1.300 -0.1470  0.2664  0.3280
 8639SOL    HW137553   0.636   4.007   1.339  0.0289  0.0823  0.7460
 8639SOL    HW237554   0.632   3.953   1.210 -0.0003  0.7725  0.5040
 8640SOL     OW37555   3.986   0.033   8.908 -0.1026  0.3074  0.3806
 8640SOL    HW137556   3.958   0.048   8.818  1.2860 -1.7562 -0.4068
 8640SOL    HW237557   3.999   4.676   8.913  2.1902  0.5848 -0.0706
 8641SOL     OW37558   1.185   3.454   2.856  0.2552  0.3921 -0.3711
 8641SOL    HW137559   1.169   3.405   2.775 -3.1654  0.5272  0.2217
 8641SOL    HW237560   1.134   3.397   2.915 -1.5641  1.0322 -1.3184
 8642SOL     OW37561   4.122   0.316   6.250 -0.2854  0.0687 -0.7446
 8642SOL    HW137562   4.159   0.287   6.333 -0.3028  2.7586  0.1992
 8642SOL    HW237563   4.197   0.338   6.195 -0.1413  0.0957 -0.5344
 8643SOL     OW37564   3.222   4.003   8.448  0.2766 -0.0635  0.3374
 8643SOL    HW137565   3.179   3.920   8.471  1.7057 -0.5246  1.3697
 8643SOL    HW237566   3.186   4.064   8.512  0.8880  0.0528  0.5673
 8644SOL     OW37567   3.137   1.691  17.523  0.3631 -0.0892  0.5162
 8644SOL    HW137568   3.117   1.768  17.577 -1.3055 -0.7323  0.8101
 8644SOL    HW237569   3.145   1.741  17.442 -1.5967 -1.7817 -0.7143
 8645SOL     OW37570   2.207   4.621   5.388 -0.6389 -0.4701  0.4931
 8645SOL    HW137571   2.297   4.641   5.415 -0.7559  0.9802 -0.1903
 8645SOL    HW237572   2.225   4.564   5.314 -1.1854 -0.4900  0.3745
 8646SOL     OW37573   1.508   3.732   6.220  0.0647 -0.3349  0.8720
 8646SOL    HW137574   1.602   3.728   6.238 -0.4797 -2.6630  3.1973
 8646SOL    HW237575   1.509   3.794   6.147  1.9841 -2.3522 -0.8511
 8647SOL     OW37576   3.130   4.681  13.610 -0.3098  0.2417 -0.2387
 8647SOL    HW137577   3.040   4.652  13.616 -0.5967  1.1148 -0.3378
 8647SOL    HW237578   3.124   0.014  13.674  0.7012 -1.7797  2.0926
 8648SOL     OW37579   3.459   0.959   8.959 -0.5439  0.7223 -0.4123
 8648SOL    HW137580   3.526   1.023   8.983  0.0812  0.2551 -0.9272
 8648SOL    HW237581   3.456   0.906   9.040  0.6331 -1.3836 -1.7504
 8649SOL     OW37582   2.020   3.427   5.130 -0.0397  0.6504 -0.2408
 8649SOL    HW137583   1.965   3.459   5.201  0.4569  2.1301 -0.5228
 8649SOL    HW237584   2.054   3.505   5.085  2.4856  0.3868  1.2300
 8650SOL     OW37585   3.132   0.148  11.290 -0.0576 -0.1240 -0.3982
 8650SOL    HW137586   3.045   0.122  11.261 -0.4465 -0.1965  0.8279
 8650SOL    HW237587   3.125   0.241  11.270 -0.4952  0.1279  0.8948
 8651SOL     OW37588   2.556   3.573  10.952  0.1945  0.1197 -0.0605
 8651SOL    HW137589   2.634   3.547  10.903  0.6462  2.8927 -0.7913
 8651SOL    HW237590   2.564   3.515  11.028  1.3949  0.5539  0.1495
 8652SOL     OW37591   3.300   3.893  15.884 -0.4207  0.6870 -0.4223
 8652SOL    HW137592   3.372   3.906  15.822 -0.9465 -1.5051 -1.5169
 8652SOL    HW237593   3.333   3.880  15.973  0.6566  2.2899 -0.5954
 8653SOL     OW37594   1.578   0.030   8.536  0.4742  0.0087  0.0686
 8653SOL    HW137595   1.497   4.733   8.574  1.1018 -0.5469  0.9002
 8653SOL    HW237596   1.643   0.003   8.601  0.6602 -1.1012 -0.5885
 8654SOL     OW37597   1.392   1.611   3.767  0.0882  0.1535  0.1513
 8654SOL    HW137598   1.298   1.620   3.752  0.1986  2.8289  1.1206
 8654SOL    HW237599   1.403   1.624   3.861 -0.8238  0.6145  0.1892
 8655SOL     OW37600   3.213   3.234   7.041 -0.3169  0.0339  0.0955
 8655SOL    HW137601   3.240   3.320   7.007 -1.3726  0.1015 -0.5388
 8655SOL    HW237602   3.299   3.208   7.076  0.2671 -0.1662 -1.5219
 8656SOL     OW37603   2.570   1.261   5.895  0.5224 -0.0157 -0.1551
 8656SOL    HW137604   2.574   1.347   5.853 -0.4237 -0.0163 -0.2422
 8656SOL    HW237605   2.483   1.234   5.864  0.9823  0.1515 -1.5836
 8657SOL     OW37606   2.832   0.394  12.175 -0.0327 -0.3774 -0.3211
 8657SOL    HW137607   2.763   0.348  12.128  0.8802 -2.7517  0.6848
 8657SOL    HW237608   2.888   0.422  12.103 -1.2688 -0.6451 -1.3858
 8658SOL     OW37609   3.125   1.103   5.878 -0.3501 -0.3896  0.0469
 8658SOL    HW137610   3.194   1.045   5.845  1.6513  1.9083  0.2147
 8658SOL    HW237611   3.083   1.059   5.952  0.2996 -2.6752 -0.9509
 8659SOL     OW37612   3.294   1.325   4.679 -1.1017  0.3588  0.3480
 8659SOL    HW137613   3.300   1.350   4.771  1.3069 -0.6427  0.4522
 8659SOL    HW237614   3.387   1.311   4.659 -0.9514 -0.3124  1.5266
 8660SOL     OW37615   4.502   0.776   2.723 -0.2895 -0.4385  0.6838
 8660SOL    HW137616   4.480   0.865   2.749  0.4658  0.4184 -1.5465
 8660SOL    HW237617   4.519   0.739   2.809 -1.3611 -1.2118  0.5593
 8661SOL     OW37618   3.217   3.530   2.510 -0.3062 -0.0595  0.2030
 8661SOL    HW137619   3.194   3.473   2.437 -1.0988  0.4120  0.0938
 8661SOL    HW237620   3.258   3.474   2.576  1.6091 -0.0825 -0.9917
 8662SOL     OW37621   0.561   1.341  17.384 -0.2509 -0.3215 -0.1205
 8662SOL    HW137622   0.487   1.301  17.340 -0.1300 -1.4084  0.6677
 8662SOL    HW237623   0.570   1.420  17.331 -0.2373  1.4689  2.5379
 8663SOL     OW37624   1.756   0.090  14.690  0.2151  0.1594 -0.8470
 8663SOL    HW137625   1.693   0.116  14.757  0.2858  1.7189 -1.3838
 8663SOL    HW237626   1.735   4.734  14.683 -2.6347  0.8113 -1.1031
 8664SOL     OW37627   3.003   3.279   4.242 -0.2848 -0.3091 -0.2329
 8664SOL    HW137628   3.031   3.224   4.315  0.4309  0.7944  0.3226
 8664SOL    HW237629   3.052   3.238   4.171 -1.1522 -1.1964 -0.3199
 8665SOL     OW37630   3.723   2.837   3.505 -0.7417  0.0132 -0.0397
 8665SOL    HW137631   3.628   2.832   3.507 -0.7931  0.5083 -1.9276
 8665SOL    HW237632   3.751   2.746   3.499  0.7934  0.3318  2.2268
 8666SOL     OW37633   4.557   4.697   9.740  0.1935  0.2252 -0.4776
 8666SOL    HW137634   4.621   0.010   9.692  1.1449 -0.0017  0.5580
 8666SOL    HW237635   4.574   4.609   9.706  3.0474  1.0547 -1.1559
 8667SOL     OW37636   4.701   1.063   7.509 -0.2436 -0.2546  0.2835
 8667SOL    HW137637   4.710   1.098   7.421 -0.4836  0.1520  0.4223
 8667SOL    HW237638   4.731   1.136   7.563 -0.3246  0.5151 -0.7285
 8668SOL     OW37639   2.066   4.401  13.488 -0.2147  0.4515 -0.0930
 8668SOL    HW137640   2.013   4.334  13.531  0.6017 -0.9573 -1.2803
 8668SOL    HW237641   1.995   4.462  13.470 -0.0676  0.6526  0.0109
 8669SOL     OW37642   0.180   2.848  13.862  0.1061 -0.0654  0.3157
 8669SOL    HW137643   0.166   2.889  13.777 -0.0105 -0.2035  0.2681
 8669SOL    HW237644   0.247   2.900  13.907 -3.4444  2.6849  2.4941
 8670SOL     OW37645   4.356   0.638  17.268  0.0588 -0.4949 -0.2731
 8670SOL    HW137646   4.302   0.636  17.189  0.0516  1.0591 -0.3099
 8670SOL    HW237647   4.403   0.721  17.257 -0.1204 -0.4556 -0.7482
 8671SOL     OW37648   2.988   1.376   6.938  0.7420 -0.8540  0.2594
 8671SOL    HW137649   2.952   1.351   7.024 -1.5023  0.1166 -0.4104
 8671SOL    HW237650   3.060   1.314   6.927  0.2584 -0.9025 -2.5612
 8672SOL     OW37651   3.702   3.225   7.566  0.4883 -0.9928 -0.6261
 8672SOL    HW137652   3.656   3.306   7.544  0.8931 -0.4682  0.4680
 8672SOL    HW237653   3.631   3.179   7.611 -1.9681  1.9095 -1.5168
 8673SOL     OW37654   4.492   2.966   6.465  0.2420 -0.3730 -0.7153
 8673SOL    HW137655   4.459   2.889   6.418 -1.7734  0.8190 -1.2647
 8673SOL    HW237656   4.437   3.034   6.426  0.0441 -0.4866 -0.6351
 8674SOL     OW37657   2.999   4.585  17.613 -0.0724  0.3736 -0.2201
 8674SOL    HW137658   3.093   4.578  17.630 -0.8645 -2.5060  3.0203
 8674SOL    HW237659   2.991   4.531  17.534 -3.5956 -0.5531  0.7725
 8675SOL     OW37660   0.413   1.255  11.866  0.3254  0.2695 -0.4194
 8675SOL    HW137661   0.500   1.283  11.838 -0.4934  0.5224 -2.6811
 8675SOL    HW237662   0.418   1.270  11.960 -0.3599  0.2208 -0.3725
 8676SOL     OW37663   1.877   0.519   4.105  0.0279  0.0370  0.1483
 8676SOL    HW137664   1.943   0.484   4.165  0.2380 -2.5714 -1.5891
 8676SOL    HW237665   1.904   0.611   4.112  0.0147  0.1199 -0.8314
 8677SOL     OW37666   1.686   3.199   5.703  0.1298  0.5652  0.7439
 8677SOL    HW137667   1.781   3.206   5.711 -0.0233  1.6935  1.4899
 8677SOL    HW237668   1.650   3.285   5.684 -1.8577 -0.3910  0.1287
 8678SOL     OW37669   2.472   1.435  15.457 -0.2981  0.0101  0.5964
 8678SOL    HW137670   2.461   1.522  15.420  0.5137 -0.2078 -0.1497
 8678SOL    HW237671   2.522   1.453  15.537  0.2313 -2.9827  0.9392
 8679SOL     OW37672   2.788   1.060   5.030  0.6221  0.4143  0.0723
 8679SOL    HW137673   2.729   1.060   5.105  0.4070  1.0305 -0.1017
 8679SOL    HW237674   2.750   1.128   4.975 -0.6104 -0.8939 -0.6710
 8680SOL     OW37675   0.995   3.797  13.040  0.0778  0.3669  0.3087
 8680SOL    HW137676   0.985   3.851  13.118  1.9340  1.1560  0.0067
 8680SOL    HW237677   0.911   3.811  12.997  0.9319  1.0841 -1.1409
 8681SOL     OW37678   1.624   4.105   8.920 -0.0605 -0.7206 -0.3879
 8681SOL    HW137679   1.678   4.107   8.999  0.1372  0.1752 -0.5422
 8681SOL    HW237680   1.569   4.032   8.949 -0.5089 -0.0639  0.4027
 8682SOL     OW37681   3.360   3.301   2.021 -0.3869 -0.4030 -0.4130
 8682SOL    HW137682   3.416   3.370   1.987  0.7427 -0.9142  0.4177
 8682SOL    HW237683   3.291   3.282   1.958 -0.3966  1.6729 -1.0431
 8683SOL     OW37684   4.430   2.717   0.318 -0.2570  0.0572 -0.2742
 8683SOL    HW137685   4.466   2.703   0.230 -1.7578  0.6946 -0.9905
 8683SOL    HW237686   4.506   2.746   0.369  1.1826  0.0606 -2.4110
 8684SOL     OW37687   1.881   1.629   2.787  0.3799 -0.6365 -0.5993
 8684SOL    HW137688   1.951   1.604   2.848 -1.4462  0.2393  1.8425
 8684SOL    HW237689   1.835   1.694   2.839 -1.4232 -0.3723 -2.4883
 8685SOL     OW37690   4.442   4.490   3.137  0.5724  0.9915 -0.3342
 8685SOL    HW137691   4.504   4.540   3.190 -0.5238  0.5115  1.3870
 8685SOL    HW237692   4.502   4.480   3.063  1.1062 -0.3695  0.2836
 8686SOL     OW37693   0.405   0.863   4.472 -0.3690 -0.0776  0.0150
 8686SOL    HW137694   0.469   0.901   4.532 -0.6273 -0.3494  0.4603
 8686SOL    HW237695   0.400   0.780   4.519 -2.2047 -0.5377 -0.9805
 8687SOL     OW37696   3.730   0.025   4.126 -0.5564  0.3761 -0.2651
 8687SOL    HW137697   3.768   0.094   4.182 -0.4890  1.6982 -1.9418
 8687SOL    HW237698   3.643   0.060   4.108  0.1472  3.4206  2.1019
 8688SOL     OW37699   2.815   0.432   8.587  0.1106 -0.1950 -0.3255
 8688SOL    HW137700   2.817   0.475   8.673  2.4094  1.3120 -1.1625
 8688SOL    HW237701   2.890   0.470   8.543  0.0442 -0.4916 -0.6969
 8689SOL     OW37702   4.460   3.039   7.360 -0.4723 -0.0163 -0.4081
 8689SOL    HW137703   4.489   3.102   7.426  0.3142 -0.8455  0.0406
 8689SOL    HW237704   4.537   3.043   7.304 -1.0186 -0.3666 -1.1927
 8690SOL     OW37705   3.200   0.495   3.831 -0.2138  0.1503 -0.1582
 8690SOL    HW137706   3.142   0.567   3.855  1.2377  1.4153 -0.4972
 8690SOL    HW237707   3.144   0.417   3.832  0.8121 -0.5921 -0.1202
 8691SOL     OW37708   3.306   0.346  12.915 -0.0284  0.0378 -0.0803
 8691SOL    HW137709   3.274   0.298  12.991 -1.6795 -1.8371 -1.9388
 8691SOL    HW237710   3.325   0.268  12.863  0.2053  1.2335 -1.8129
 8692SOL     OW37711   3.602   1.122  13.361 -0.2314 -0.4984 -0.5327
 8692SOL    HW137712   3.659   1.162  13.427 -1.0724  1.4074 -0.9627
 8692SOL    HW237713   3.586   1.200  13.308  1.6437 -0.2155 -0.6790
 8693SOL     OW37714   4.627   1.146   4.553 -0.1237 -0.1322 -0.2189
 8693SOL    HW137715   4.682   1.077   4.517 -1.2148 -1.1052 -0.0240
 8693SOL    HW237716   4.638   1.221   4.495 -0.4851 -0.1746 -0.3407
 8694SOL     OW37717   1.132   3.302   2.648 -0.2043 -0.0173 -0.4567
 8694SOL    HW137718   1.200   3.270   2.589  0.0342  0.7597 -0.5986
 8694SOL    HW237719   1.053   3.253   2.624  0.6097 -0.8136 -1.5127
 8695SOL     OW37720   0.130   1.470   9.491  0.6546 -0.0816 -0.1299
 8695SOL    HW137721   0.058   1.521   9.527  0.2840 -0.1982 -0.7071
 8695SOL    HW237722   0.113   1.380   9.518 -0.3656  0.1331 -0.0913
 8696SOL     OW37723   4.483   0.729   8.559  0.1276 -0.1604  0.0672
 8696SOL    HW137724   4.474   0.801   8.497  3.1020  2.1797  2.3741
 8696SOL    HW237725   4.394   0.701   8.579 -0.6679  2.0145 -0.3964
 8697SOL     OW37726   1.697   2.045   9.340  0.4249 -0.0366  0.2816
 8697SOL    HW137727   1.667   1.992   9.266 -1.0290 -0.2964  1.0676
 8697SOL    HW237728   1.715   1.983   9.411 -1.3630  0.1595  0.9058
 8698SOL     OW37729   3.303   3.935   0.847 -0.5239 -0.8972 -0.5581
 8698SOL    HW137730   3.375   3.883   0.812  0.2329 -0.6779  0.6942
 8698SOL    HW237731   3.283   3.997   0.777  0.8569  0.6024  0.4039
 8699SOL     OW37732   0.009   2.789   2.287  0.1436  0.3884 -0.1201
 8699SOL    HW137733   0.054   2.708   2.314 -1.5664 -0.5645 -0.1133
 8699SOL    HW237734   0.076   2.856   2.273  0.9290  0.0510  2.0060
 8700SOL     OW37735   0.710   1.882   8.268 -0.7354  0.6709  0.5932
 8700SOL    HW137736   0.704   1.899   8.174  0.6633  0.0403  0.3937
 8700SOL    HW237737   0.799   1.910   8.290  0.3595 -2.4003  0.0378
 8701SOL     OW37738   0.095   0.509   4.431  0.3484 -0.2229  0.3531
 8701SOL    HW137739   0.087   0.419   4.400  1.8179 -1.1182  2.5674
 8701SOL    HW237740   0.105   0.548   4.345  2.1672  1.8339  1.4977
 8702SOL     OW37741   3.441   3.705   0.421 -0.2444  0.1529  0.2003
 8702SOL    HW137742   3.461   3.641   0.489 -0.5125 -2.5732 -2.2725
 8702SOL    HW237743   3.366   3.663   0.378  0.7360 -1.0149 -0.3888
 8703SOL     OW37744   3.983   3.919   5.638 -0.3539  0.0398 -0.1230
 8703SOL    HW137745   3.906   3.970   5.665 -0.9370 -0.8306 -0.1127
 8703SOL    HW237746   3.961   3.828   5.659  1.0844  0.2442  2.3437
 8704SOL     OW37747   3.493   4.609   5.369  0.0757 -0.0422  0.7388
 8704SOL    HW137748   3.470   4.680   5.428 -0.7737 -0.9719  1.5206
 8704SOL    HW237749   3.409   4.592   5.326 -0.4109  3.1588  0.3929
 8705SOL     OW37750   3.912   4.712   3.609 -0.6540  0.6142  0.0110
 8705SOL    HW137751   3.865   4.719   3.692  0.0305  2.5588  0.2435
 8705SOL    HW237752   3.881   0.053   3.564 -0.1311  2.0067  2.0393
 8706SOL     OW37753   1.815   1.768   5.180  0.5415  0.3240 -0.1684
 8706SOL    HW137754   1.886   1.726   5.132  0.1679 -0.1537 -0.2957
 8706SOL    HW237755   1.758   1.778   5.104  0.7402  1.2025 -0.2019
 8707SOL     OW37756   0.379   1.505   9.381 -0.3929 -0.2130 -0.3552
 8707SOL    HW137757   0.438   1.430   9.384 -0.4285 -0.2332 -0.1529
 8707SOL    HW237758   0.295   1.471   9.413 -1.4157  0.8391 -1.8999
 8708SOL     OW37759   0.258   3.742   8.657  0.0273  0.0278 -0.5115
 8708SOL    HW137760   0.174   3.701   8.676  0.7159 -1.2722 -0.2619
 8708SOL    HW237761   0.279   3.777   8.744  0.2613  0.0317 -0.5686
 8709SOL     OW37762   0.951   0.991   3.033 -0.1278 -0.0767 -0.0551
 8709SOL    HW137763   0.856   1.002   3.035 -0.1405 -0.4667  1.3402
 8709SOL    HW237764   0.959   0.950   2.946  2.0843  0.0757  0.0622
 8710SOL     OW37765   4.610   3.699  13.697  0.1848  0.1951  0.1727
 8710SOL    HW137766   4.652   3.767  13.645 -1.1178 -0.2108 -1.4254
 8710SOL    HW237767   4.628   3.616  13.652 -1.8004  0.1170 -0.5005
 8711SOL     OW37768   1.968   2.994  13.073 -0.4387 -0.0468 -0.1187
 8711SOL    HW137769   1.910   3.014  13.000 -0.6883  1.1965  0.4287
 8711SOL    HW237770   2.029   3.068  13.071 -1.6283  1.0443  3.1841
 8712SOL     OW37771   2.598   1.751   5.220  0.2135 -0.1410  0.1184
 8712SOL    HW137772   2.685   1.771   5.184  0.5155  1.2364  1.6196
 8712SOL    HW237773   2.600   1.657   5.202 -1.1861 -0.5933  2.4455
 8713SOL     OW37774   3.223   1.033  11.474 -0.4151 -0.0110  0.1458
 8713SOL    HW137775   3.130   1.027  11.493 -0.7678 -1.0040 -1.9155
 8713SOL    HW237776   3.241   1.116  11.518 -0.9847  1.0083 -1.5531
 8714SOL     OW37777   0.642   4.554   2.292 -0.3160  0.4016 -0.4982
 8714SOL    HW137778   0.578   4.570   2.362 -0.2780  3.3819 -1.1400
 8714SOL    HW237779   0.691   4.475   2.313  0.3019 -0.3104 -4.5632
 8715SOL     OW37780   2.767   0.682   6.018  0.5536 -0.1199  0.0888
 8715SOL    HW137781   2.762   0.777   6.027  1.6920 -0.1628  1.1668
 8715SOL    HW237782   2.678   0.652   6.038 -0.5439  2.6240 -0.6418
 8716SOL     OW37783   1.739   2.958   4.594 -0.1565 -0.8812 -0.2587
 8716SOL    HW137784   1.773   2.951   4.683  0.4909  1.1949 -0.3278
 8716SOL    HW237785   1.790   3.029   4.555 -0.1970 -0.6822  0.0513
 8717SOL     OW37786   3.452   0.762   3.468  0.4956  0.4793 -0.4353
 8717SOL    HW137787   3.373   0.710   3.483  0.8331 -0.0702 -0.5560
 8717SOL    HW237788   3.518   0.693   3.468 -0.2976 -0.2801 -1.9645
 8718SOL     OW37789   1.020   0.960   2.318 -0.1730 -0.5473 -0.6126
 8718SOL    HW137790   1.053   1.034   2.267  2.8723 -0.8260  0.9064
 8718SOL    HW237791   0.930   0.969   2.287 -0.7584 -2.7069  0.4628
 8719SOL     OW37792   0.013   3.288   5.769  0.7891 -0.3508  0.0839
 8719SOL    HW137793   0.034   3.219   5.707 -1.2651  0.6703 -1.7420
 8719SOL    HW237794   0.055   3.366   5.732 -0.0435 -0.1562 -0.4376
 8720SOL     OW37795   3.771   4.230   7.141  0.3856 -0.0481  0.1410
 8720SOL    HW137796   3.833   4.177   7.091 -0.0463 -0.9506  0.5458
 8720SOL    HW237797   3.824   4.251   7.218 -0.2545 -1.4342  0.9759
 8721SOL     OW37798   2.604   1.791   3.740  0.0908 -0.1409 -0.5169
 8721SOL    HW137799   2.644   1.706   3.756 -0.2799 -0.3622 -0.7746
 8721SOL    HW237800   2.675   1.833   3.691 -1.7064 -0.1753 -3.1160
 8722SOL     OW37801   2.284   4.366  12.114 -0.4480  0.9458  0.0318
 8722SOL    HW137802   2.299   4.304  12.043 -0.5250  1.0478 -0.0745
 8722SOL    HW237803   2.327   4.322  12.187 -2.0620 -1.0275 -0.2005
 8723SOL     OW37804   3.863   1.968  14.084  0.3559 -0.3601 -0.7034
 8723SOL    HW137805   3.902   2.050  14.052 -0.7992  0.2016 -0.6794
 8723SOL    HW237806   3.918   1.897  14.051  4.0096  2.2545 -0.1977
 8724SOL     OW37807   1.023   2.412   4.336  0.3344 -0.2747  0.0171
 8724SOL    HW137808   0.975   2.471   4.393 -0.4419 -0.0492 -0.8595
 8724SOL    HW237809   1.006   2.454   4.251  0.5613 -0.7461 -0.2628
 8725SOL     OW37810   1.263   1.937   7.597  0.0132  0.1427  0.3570
 8725SOL    HW137811   1.259   2.028   7.567 -0.0449  0.5391  1.5455
 8725SOL    HW237812   1.234   1.947   7.688  1.7636  0.0183  0.9332
 8726SOL     OW37813   0.309   0.475   3.768  0.4994  0.2163 -0.0800
 8726SOL    HW137814   0.402   0.454   3.772  0.7064  1.4354  1.5986
 8726SOL    HW237815   0.279   0.421   3.695 -0.2336  0.2474  0.2033
 8727SOL     OW37816   0.967   2.975   8.095  0.2544  0.3024 -0.0655
 8727SOL    HW137817   0.961   3.066   8.124 -0.1785  0.4931 -0.7592
 8727SOL    HW237818   1.020   2.980   8.016 -0.0540 -0.2445 -0.3039
 8728SOL     OW37819   4.129   3.506   3.046  0.6028 -0.3497 -0.5493
 8728SOL    HW137820   4.222   3.486   3.040  1.2133  1.6590  2.1012
 8728SOL    HW237821   4.110   3.455   3.124  1.5894 -0.0727 -0.1353
 8729SOL     OW37822   2.374   4.537   6.143  0.3794 -0.4544  0.1003
 8729SOL    HW137823   2.454   4.576   6.179  0.1201  0.6634 -0.5236
 8729SOL    HW237824   2.419   4.471   6.090  1.8795  0.6887 -0.0441
 8730SOL     OW37825   2.091   0.748   8.647  0.5510 -0.3479  0.4883
 8730SOL    HW137826   2.153   0.694   8.597 -1.1286 -0.3534 -1.5967
 8730SOL    HW237827   2.056   0.679   8.703  0.1170 -2.9659 -2.9455
 8731SOL     OW37828   3.968   4.525  11.083 -0.4532 -0.6279 -0.1059
 8731SOL    HW137829   4.026   4.589  11.125 -0.6423 -1.0087  0.7291
 8731SOL    HW237830   4.010   4.442  11.105 -0.1159 -0.7616 -1.2948
 8732SOL     OW37831   4.532   3.512  11.585  0.7217  0.5923 -0.3251
 8732SOL    HW137832   4.523   3.600  11.549 -0.5750 -0.1557 -1.8273
 8732SOL    HW237833   4.543   3.531  11.678 -0.3206  0.2128 -0.1145
 8733SOL     OW37834   3.577   2.686   1.077  0.2625  0.0254  0.1022
 8733SOL    HW137835   3.498   2.727   1.113  1.3289 -1.7539  4.4256
 8733SOL    HW237836   3.648   2.738   1.114 -0.9037  1.6764  0.0540
 8734SOL     OW37837   1.920   4.185   3.084  0.1762 -0.1248  0.5921
 8734SOL    HW137838   1.976   4.204   3.008  0.2883 -0.3046  0.6303
 8734SOL    HW237839   1.880   4.100   3.068 -2.3476  1.0277  0.9241
 8735SOL     OW37840   2.481   0.044   3.729  0.5227 -0.2210 -0.8251
 8735SOL    HW137841   2.457   0.036   3.636 -1.7783 -0.4369 -0.2193
 8735SOL    HW237842   2.575   0.058   3.720  0.8648 -0.0838  3.0820
 8736SOL     OW37843   0.212   3.495   8.375 -0.0341  0.1678  0.4164
 8736SOL    HW137844   0.201   3.469   8.284  0.7618  3.0605 -0.4978
 8736SOL    HW237845   0.147   3.443   8.422  0.5554 -1.0810 -0.1837
 8737SOL     OW37846   0.936   3.095   4.574 -0.5849  0.1309 -0.1519
 8737SOL    HW137847   0.949   3.190   4.566 -1.7471  0.1425 -1.8344
 8737SOL    HW237848   0.892   3.092   4.659 -1.4811  1.3745 -0.5674
 8738SOL     OW37849   3.337   0.564  15.919 -0.1338  0.4093  0.3774
 8738SOL    HW137850   3.266   0.621  15.889  1.6867  2.5750  0.1740
 8738SOL    HW237851   3.404   0.623  15.955  0.8166 -0.6766  0.3773
 8739SOL     OW37852   2.174   0.810  15.028  0.3134 -0.2497 -0.6645
 8739SOL    HW137853   2.125   0.739  14.985 -0.1296 -0.8900  0.8723
 8739SOL    HW237854   2.202   0.857  14.950 -0.4497 -0.4952 -1.0807
 8740SOL     OW37855   0.882   0.711   8.688 -0.1700 -0.0282 -0.3222
 8740SOL    HW137856   0.896   0.703   8.594 -1.2177  0.4257 -0.5111
 8740SOL    HW237857   0.970   0.745   8.709 -1.0851  2.2303 -0.1337
 8741SOL     OW37858   2.955   1.661  14.238  0.2979  0.5947  0.1443
 8741SOL    HW137859   2.995   1.733  14.190 -1.0311  0.7810 -0.6695
 8741SOL    HW237860   2.992   1.670  14.326  0.2918 -4.0605  0.6234
 8742SOL     OW37861   0.301   3.726   8.963  0.2825 -0.1999  0.3799
 8742SOL    HW137862   0.391   3.693   8.959  0.6398  1.4199 -4.3286
 8742SOL    HW237863   0.267   3.637   8.967  1.2184 -0.5476  0.6604
 8743SOL     OW37864   0.730   1.794   5.549 -0.2639  0.0108 -0.0441
 8743SOL    HW137865   0.674   1.770   5.475  0.9179  1.0993 -1.2880
 8743SOL    HW237866   0.698   1.881   5.571  0.7234  0.2676  0.3724
 8744SOL     OW37867   2.027   2.176   1.206  0.1187  0.0070  0.3084
 8744SOL    HW137868   2.063   2.225   1.280 -1.4823  2.3867 -0.4873
 8744SOL    HW237869   2.096   2.117   1.175 -0.4758 -0.8674  0.6803
 8745SOL     OW37870   3.953   2.433  16.895  0.1662  0.6355  0.4809
 8745SOL    HW137871   3.888   2.503  16.886  1.5527  1.6339 -1.7051
 8745SOL    HW237872   3.911   2.394  16.972 -0.8788 -1.0985 -0.9659
 8746SOL     OW37873   3.153   2.399  13.776  0.5385 -0.2725  0.2301
 8746SOL    HW137874   3.115   2.373  13.692  0.1983  3.0867 -0.6714
 8746SOL    HW237875   3.074   2.439  13.812  1.4195 -0.3385  2.2414
 8747SOL     OW37876   1.281   4.063   2.570 -0.1104  0.1510  0.0979
 8747SOL    HW137877   1.250   4.044   2.659 -0.5086 -2.1632 -0.5271
 8747SOL    HW237878   1.371   4.088   2.592 -0.1435 -0.3073  0.7795
 8748SOL     OW37879   1.397   2.472   6.647  0.6012 -0.3889 -0.2155
 8748SOL    HW137880   1.376   2.393   6.597 -0.8106  0.6599 -1.2733
 8748SOL    HW237881   1.490   2.477   6.624  0.2044 -1.5683 -2.0448
 8749SOL     OW37882   4.144   0.883   8.343 -0.4530  0.5344  0.2392
 8749SOL    HW137883   4.097   0.930   8.273 -0.1028 -1.5504 -1.3942
 8749SOL    HW237884   4.216   0.863   8.283 -1.0665 -0.6756 -0.0937
 8750SOL     OW37885   4.088   3.688   7.864  0.2646  0.2462 -0.1514
 8750SOL    HW137886   4.017   3.629   7.889  0.1892  0.6223  0.5276
 8750SOL    HW237887   4.146   3.682   7.940  2.5018 -1.3655 -1.9879
 8751SOL     OW37888   1.243   0.743   6.774 -0.2535 -0.0021 -0.5958
 8751SOL    HW137889   1.285   0.668   6.817 -0.6766  1.0046  1.5384
 8751SOL    HW237890   1.207   0.792   6.848 -3.0227  0.7483 -2.4304
 8752SOL     OW37891   0.622   1.833   3.185 -0.2250 -0.3883  0.0621
 8752SOL    HW137892   0.575   1.819   3.103 -0.0807 -0.4693 -0.0077
 8752SOL    HW237893   0.629   1.928   3.188 -0.0214 -0.4423  1.3686
 8753SOL     OW37894   1.693   1.492   3.828  0.3177  0.4601  0.5307
 8753SOL    HW137895   1.718   1.565   3.884 -3.3389  0.9891  1.4914
 8753SOL    HW237896   1.685   1.534   3.742  2.5587 -0.3093 -0.0340
 8754SOL     OW37897   2.114   3.345   7.059 -0.0720 -0.1197 -0.0629
 8754SOL    HW137898   2.138   3.428   7.020  0.2039 -1.0626 -1.8842
 8754SOL    HW237899   2.200   3.310   7.083  0.1029 -0.7426 -1.5918
 8755SOL     OW37900   1.975   2.340   3.012  0.2549  0.2550  0.3114
 8755SOL    HW137901   1.973   2.398   2.936  1.8993  1.3924  1.1446
 8755SOL    HW237902   1.989   2.397   3.088 -2.8241 -1.2617  2.0470
 8756SOL     OW37903   0.543   4.194  15.872 -0.1373 -0.7669  0.3547
 8756SOL    HW137904   0.567   4.168  15.961  1.0016  0.4142  0.3941
 8756SOL    HW237905   0.447   4.193  15.873 -0.1717  2.4736  1.1081
 8757SOL     OW37906   0.157   2.874  11.369  0.3708  0.4074  0.3146
 8757SOL    HW137907   0.095   2.836  11.308  1.9571 -2.7112  0.6224
 8757SOL    HW237908   0.210   2.801  11.401 -0.6834 -0.0133  1.0718
 8758SOL     OW37909   3.636   4.296  16.345 -0.2645  0.4130  0.1086
 8758SOL    HW137910   3.669   4.225  16.400  0.0195  1.8297  1.7447
 8758SOL    HW237911   3.677   4.271  16.262  0.3823  1.9959 -0.0386
 8759SOL     OW37912   1.400   3.410   6.588 -0.5109 -0.0865  0.0420
 8759SOL    HW137913   1.402   3.495   6.545 -2.2505  1.2748  2.6775
 8759SOL    HW237914   1.310   3.380   6.574 -0.5560  0.3537 -0.5803
 8760SOL     OW37915   0.319   3.864   1.805 -0.1127  0.5128  0.5093
 8760SOL    HW137916   0.375   3.915   1.863 -0.5892 -0.1095  1.5096
 8760SOL    HW237917   0.383   3.827   1.745  0.9560  3.2581 -0.0526
 8761SOL     OW37918   4.676   3.641   4.762 -0.1735  0.1230  0.1468
 8761SOL    HW137919   4.581   3.656   4.769  0.1819  1.5682  1.8724
 8761SOL    HW237920   4.681   3.551   4.730 -2.2529 -0.1327  0.5125
 8762SOL     OW37921   0.339   1.629  14.908 -0.7406  0.3472 -0.9679
 8762SOL    HW137922   0.391   1.552  14.884  0.4458 -0.0453  2.8399
 8762SOL    HW237923   0.273   1.583  14.961 -1.1391  0.7744 -1.0970
 8763SOL     OW37924   4.700   1.361   7.835  0.4064  0.3727 -0.2314
 8763SOL    HW137925   0.057   1.347   7.842  0.2454  0.3633  1.9606
 8763SOL    HW237926   4.699   1.456   7.828 -2.1687  0.1421 -3.0230
 8764SOL     OW37927   0.300   2.568   2.085  0.3766 -0.3507 -0.3598
 8764SOL    HW137928   0.208   2.586   2.064  0.0320  0.1331  1.5366
 8764SOL    HW237929   0.327   2.631   2.152 -2.7363 -1.2572  1.7648
 8765SOL     OW37930   0.156   2.573   3.541 -0.1749  0.4990 -0.2891
 8765SOL    HW137931   0.143   2.664   3.566 -0.6854  0.2640  0.3088
 8765SOL    HW237932   0.066   2.541   3.545 -0.1232  0.4892  0.7918
 8766SOL     OW37933   0.110   2.970   0.749 -0.2673  0.6276 -0.1918
 8766SOL    HW137934   0.066   3.030   0.808 -0.0577  1.1764 -0.5943
 8766SOL    HW237935   0.081   3.003   0.664  1.6340  2.5006 -0.1000
 8767SOL     OW37936   0.201   3.901   4.351  0.4085  0.2761  0.1229
 8767SOL    HW137937   0.249   3.910   4.269  1.4742 -0.8690  0.6178
 8767SOL    HW237938   0.107   3.907   4.333  0.5924  0.2494 -0.8254
 8768SOL     OW37939   3.844   2.247  17.102  0.2210 -0.5823  0.1226
 8768SOL    HW137940   3.753   2.276  17.103  0.1355 -0.9027  1.1877
 8768SOL    HW237941   3.834   2.157  17.070  0.0011 -1.1602  1.8582
 8769SOL     OW37942   3.433   0.790   8.762  0.3862 -0.4008 -0.0531
 8769SOL    HW137943   3.478   0.854   8.706  1.8575 -1.7158 -0.3908
 8769SOL    HW237944   3.472   0.821   8.844 -0.6604 -1.5469  0.8733
 8770SOL     OW37945   2.285   1.611   5.537  0.0184 -0.1104 -0.2313
 8770SOL    HW137946   2.199   1.573   5.557 -0.8386  1.6138 -0.6556
 8770SOL    HW237947   2.262   1.702   5.518 -1.0081 -0.3170  0.0230
 8771SOL     OW37948   3.571   0.984   7.286  0.5267  0.1430  0.3305
 8771SOL    HW137949   3.654   1.014   7.325  1.3611  0.2346 -1.5048
 8771SOL    HW237950   3.512   1.057   7.306  0.1342  0.2860 -1.3121
 8772SOL     OW37951   4.424   1.545   6.221 -0.2236  0.1493 -0.7471
 8772SOL    HW137952   4.492   1.496   6.268  1.9876  1.4406 -2.6302
 8772SOL    HW237953   4.437   1.506   6.135  0.2840 -1.8655  0.2368
 8773SOL     OW37954   0.850   0.175   9.131  0.1358  0.9305 -0.1475
 8773SOL    HW137955   0.875   0.086   9.157  1.7878  1.3413 -0.3562
 8773SOL    HW237956   0.758   0.171   9.158 -0.2047  0.4322 -1.4112
 8774SOL     OW37957   2.406   3.600   6.782 -0.5949 -0.3697  0.4534
 8774SOL    HW137958   2.368   3.688   6.785 -1.9766 -0.8832 -1.9161
 8774SOL    HW237959   2.357   3.560   6.710  0.4232 -0.6853 -0.0626
 8775SOL     OW37960   1.615   4.062   7.732 -0.4482  0.0474  0.6369
 8775SOL    HW137961   1.618   3.966   7.733  2.2657  0.1319  0.5366
 8775SOL    HW237962   1.665   4.082   7.811 -0.9061  0.2936  0.8667
 8776SOL     OW37963   3.138   4.728   7.433  0.0682 -0.0426 -0.2037
 8776SOL    HW137964   3.134   4.638   7.403 -1.4707 -0.0101 -0.0884
 8776SOL    HW237965   3.204   0.030   7.376  0.0081  0.0881 -0.1824
 8777SOL     OW37966   3.678   0.001   7.896 -1.0246  0.6016  0.4035
 8777SOL    HW137967   3.692   0.001   7.991  0.3894 -0.2304  0.1870
 8777SOL    HW237968   3.618   4.665   7.889 -2.0822  1.2767  2.3212
 8778SOL     OW37969   1.865   3.068   6.665 -0.0665  0.8571 -0.6966
 8778SOL    HW137970   1.888   2.988   6.619 -1.0330 -0.8310  1.7458
 8778SOL    HW237971   1.939   3.126   6.643  1.2392 -0.3430  0.5405
 8779SOL     OW37972   3.262   4.420   7.907  0.0140 -0.2907 -0.4296
 8779SOL    HW137973   3.210   4.378   7.839  0.6242 -0.5705 -0.7220
 8779SOL    HW237974   3.214   4.503   7.914 -0.2963 -0.6454  1.5422
 8780SOL     OW37975   0.345   1.826   6.452  0.3428 -0.0498 -0.2548
 8780SOL    HW137976   0.276   1.891   6.439  1.5148  1.2348 -0.0975
 8780SOL    HW237977   0.387   1.832   6.366  3.3507  0.1103  1.2116
 8781SOL     OW37978   2.027   0.111  17.715  0.1743  0.4567 -0.0334
 8781SOL    HW137979   2.015   0.017  17.698  0.7800  0.6823 -1.6598
 8781SOL    HW237980   2.070   0.111   0.051 -0.5688 -1.0325  0.3383
 8782SOL     OW37981   3.304   0.607   4.297  0.1199  0.2696  0.2495
 8782SOL    HW137982   3.324   0.669   4.367  1.8906 -0.6299  0.5356
 8782SOL    HW237983   3.291   0.524   4.341 -0.0188  0.0718 -0.1625
 8783SOL     OW37984   4.057   1.062   8.159  0.6214 -0.5276 -0.2568
 8783SOL    HW137985   4.093   1.016   8.083 -1.3644 -1.8011 -0.4380
 8783SOL    HW237986   4.064   1.155   8.135 -1.4130 -1.5065 -4.7429
 8784SOL     OW37987   1.543   3.800  13.298 -0.7099  0.6584  0.7126
 8784SOL    HW137988   1.630   3.782  13.333 -0.2182  0.3163 -0.6670
 8784SOL    HW237989   1.494   3.727  13.335  2.1150 -1.0224  1.1330
 8785SOL     OW37990   0.121   0.314   6.716  0.1612  0.6455 -0.1860
 8785SOL    HW137991   0.088   0.291   6.629 -0.6362  0.3527  0.1938
 8785SOL    HW237992   0.217   0.313   6.713  0.2643 -0.2310  3.6145
 8786SOL     OW37993   3.101   0.633   4.935  0.1258  0.2076  0.5683
 8786SOL    HW137994   3.080   0.631   4.842 -2.6487 -0.4068  1.2138
 8786SOL    HW237995   3.047   0.706   4.965 -1.3909 -1.6747  2.3642
 8787SOL     OW37996   2.011   3.054  17.321 -0.6798 -0.2549  0.6636
 8787SOL    HW137997   2.083   3.021  17.375  0.4947  0.6131 -0.3782
 8787SOL    HW237998   1.949   2.982  17.328 -2.4185  1.1777 -0.0678
 8788SOL     OW37999   4.051   0.847   2.447 -0.3644 -0.2932 -0.5052
 8788SOL    HW138000   3.979   0.868   2.507  1.3782 -0.1784  1.5568
 8788SOL    HW238001   4.023   0.759   2.421 -0.3731 -0.9517  1.7278
 8789SOL     OW38002   4.218   2.158   4.119  0.2550  0.2356 -0.1023
 8789SOL    HW138003   4.228   2.205   4.201  0.6331 -1.1019  0.6254
 8789SOL    HW238004   4.231   2.064   4.136 -1.6164 -0.1239 -0.6307
 8790SOL     OW38005   2.947   0.934   5.320 -0.3439 -0.2174  0.4551
 8790SOL    HW138006   2.852   0.923   5.323 -0.1556 -1.9711  0.5615
 8790SOL    HW238007   2.976   0.946   5.411 -1.3296 -0.0127  0.7423
 8791SOL     OW38008   2.052   1.957   7.714  0.1354 -0.1191  0.4679
 8791SOL    HW138009   1.970   1.955   7.764  1.3924 -1.0422  2.4795
 8791SOL    HW238010   2.042   1.878   7.660  1.8551  0.8496 -1.2655
 8792SOL     OW38011   1.128   3.743   4.810  0.2468  0.0323 -0.5767
 8792SOL    HW138012   1.156   3.695   4.732 -0.6186  0.5646 -1.2117
 8792SOL    HW238013   1.052   3.697   4.846  2.4142 -1.5614  2.0177
 8793SOL     OW38014   1.852   3.362   7.699 -0.6053 -0.5336  0.4622
 8793SOL    HW138015   1.884   3.277   7.727 -1.3918 -0.1701  2.4180
 8793SOL    HW238016   1.778   3.347   7.639 -0.9612  0.0953  0.7433
 8794SOL     OW38017   0.386   2.433   3.542  0.0869  0.2269 -0.7494
 8794SOL    HW138018   0.301   2.476   3.555  0.7233  1.5622 -0.9349
 8794SOL    HW238019   0.432   2.460   3.621  0.0501 -0.2868 -0.5573
 8795SOL     OW38020   1.442   0.243  11.232  0.1491 -0.4115  0.3735
 8795SOL    HW138021   1.515   0.183  11.217  0.2564 -0.2657  0.3124
 8795SOL    HW238022   1.437   0.229  11.326 -3.7781  1.7911  0.4822
 8796SOL     OW38023   4.203   2.339   7.900 -0.0396 -0.4224  0.0860
 8796SOL    HW138024   4.249   2.312   7.979 -0.1294 -1.7715 -0.3269
 8796SOL    HW238025   4.243   2.424   7.882 -1.5765 -0.1630 -2.0880
 8797SOL     OW38026   0.958   1.384   3.356 -0.7150  0.2860  0.1375
 8797SOL    HW138027   0.942   1.305   3.304 -1.9406  0.6257 -0.0194
 8797SOL    HW238028   0.872   1.427   3.353 -1.6883 -1.6955 -0.4584
 8798SOL     OW38029   4.659   0.809  17.328  0.5211 -0.6046 -0.2170
 8798SOL    HW138030   4.637   0.881  17.269 -1.4087 -0.5117  0.6099
 8798SOL    HW238031   4.633   0.845  17.413  0.2323 -1.3801  0.0294
 8799SOL     OW38032   4.439   1.344  11.436  0.3176  0.1408  0.2765
 8799SOL    HW138033   4.501   1.290  11.388 -0.2460  0.7522 -1.1307
 8799SOL    HW238034   4.364   1.287  11.421  1.3582 -1.4135  0.9841
 8800SOL     OW38035   3.770   0.521   8.997 -0.1594  0.1325 -0.0971
 8800SOL    HW138036   3.788   0.427   8.999 -0.2910  0.1089 -0.0332
 8800SOL    HW238037   3.677   0.525   8.976 -0.0242  3.0775 -0.0481
 8801SOL     OW38038   4.279   1.842  15.927  0.2935 -0.0438 -0.0760
 8801SOL    HW138039   4.252   1.920  15.976  0.5775  1.0423 -1.6699
 8801SOL    HW238040   4.221   1.839  15.851 -0.4146  1.8046  0.3820
 8802SOL     OW38041   0.829   0.123  10.778 -0.1651  0.0569  0.2126
 8802SOL    HW138042   0.803   0.185  10.846  0.2601 -0.2053  0.6131
 8802SOL    HW238043   0.745   0.100  10.738  1.3443  0.0130 -2.9295
 8803SOL     OW38044   3.983   2.320   6.171  1.1455  0.2931  0.3620
 8803SOL    HW138045   3.904   2.346   6.124  1.1545 -1.1463 -0.4498
 8803SOL    HW238046   3.966   2.351   6.259 -0.6890 -1.5837  0.6687
 8804SOL     OW38047   1.513   1.438   9.290  0.2752  0.0753  0.2165
 8804SOL    HW138048   1.576   1.369   9.313  0.1617 -0.0990  0.0153
 8804SOL    HW238049   1.460   1.434   9.370  1.3460 -0.8572  0.8819
 8805SOL     OW38050   0.367   2.045   7.403 -0.1545  0.3079  0.0923
 8805SOL    HW138051   0.370   1.991   7.482  0.9445  1.0012  0.5235
 8805SOL    HW238052   0.292   2.098   7.429 -0.4101 -0.9392  1.9101
 8806SOL     OW38053   1.654   1.376   3.496  0.2235  0.1472  0.3033
 8806SOL    HW138054   1.631   1.448   3.437  0.7261 -1.0595 -1.3665
 8806SOL    HW238055   1.569   1.346   3.527 -0.2720  1.3018  0.0490
 8807SOL     OW38056   2.928   4.356   8.702  0.5413 -0.7873  0.6896
 8807SOL    HW138057   2.970   4.436   8.734 -0.1063 -0.0700 -0.2314
 8807SOL    HW238058   2.841   4.362   8.742 -0.1919 -2.3618 -0.6782
 8808SOL     OW38059   4.283   4.139   1.104 -0.0656  0.2246 -0.4370
 8808SOL    HW138060   4.223   4.077   1.145 -0.0727 -1.0703 -2.4088
 8808SOL    HW238061   4.306   4.200   1.175  1.1832 -3.1453  2.0820
 8809SOL     OW38062   1.637   3.471   4.770 -0.1792 -0.1199  0.0986
 8809SOL    HW138063   1.680   3.555   4.785 -0.9728  0.6181 -1.8006
 8809SOL    HW238064   1.706   3.420   4.814 -0.2048  0.9615  1.4019
 8810SOL     OW38065   4.022   1.805   2.855 -0.7748  0.6777 -0.2428
 8810SOL    HW138066   4.018   1.897   2.882  1.3026  0.7566 -0.1917
 8810SOL    HW238067   3.957   1.762   2.911 -0.7784  0.0691 -0.7209
 8811SOL     OW38068   2.075   2.041  15.074 -0.2186  0.3041 -0.4113
 8811SOL    HW138069   2.170   2.036  15.085 -0.3851 -1.9553  0.0450
 8811SOL    HW238070   2.048   1.964  15.125  1.0171 -0.0024 -0.2227
 8812SOL     OW38071   3.054   3.886  16.930 -0.3451  0.1964  0.5345
 8812SOL    HW138072   3.111   3.882  17.007 -1.9287 -0.5278  1.6788
 8812SOL    HW238073   2.993   3.945  16.976 -0.8816  1.0518 -1.2785
 8813SOL     OW38074   4.233   0.692  12.646  0.0931  0.0236 -0.1825
 8813SOL    HW138075   4.203   0.602  12.663  0.6200 -0.5053 -1.9865
 8813SOL    HW238076   4.314   0.683  12.596  0.7015 -1.6964  1.1161
 8814SOL     OW38077   2.607   1.824   4.924 -0.4375  0.7611 -0.2995
 8814SOL    HW138078   2.574   1.911   4.949 -2.1450  0.7596 -2.5306
 8814SOL    HW238079   2.694   1.838   4.961 -0.4240 -2.5270  0.9054
 8815SOL     OW38080   4.237   3.293   5.980  0.0363 -0.5211 -0.2128
 8815SOL    HW138081   4.294   3.369   5.967  1.3340 -1.4182  0.2952
 8815SOL    HW238082   4.178   3.302   5.905  0.3036  0.0676 -0.3564
 8816SOL     OW38083   4.264   2.397   6.579 -0.1549 -0.2279 -0.2038
 8816SOL    HW138084   4.327   2.326   6.574 -0.5722 -0.4890 -1.7203
 8816SOL    HW238085   4.194   2.357   6.631 -0.7925  1.1319 -0.0058
 8817SOL     OW38086   0.689   1.299   9.141  0.0217 -0.5716  0.3825
 8817SOL    HW138087   0.625   1.277   9.209  0.2808 -0.9728  0.4973
 8817SOL    HW238088   0.627   1.343   9.083  0.5116 -1.0886 -0.5269
 8818SOL     OW38089   1.068   0.188  10.664  0.4091  0.3140 -0.2804
 8818SOL    HW138090   1.098   0.126  10.731 -0.3446  0.4739  0.2073
 8818SOL    HW238091   0.975   0.186  10.687  0.4601  0.6793 -0.0427
 8819SOL     OW38092   1.046   3.472   3.820 -0.0464  0.1422  0.0261
 8819SOL    HW138093   1.020   3.419   3.745  0.0499  0.7072 -0.4074
 8819SOL    HW238094   1.024   3.558   3.784  3.5860  0.9223 -0.2647
 8820SOL     OW38095   4.431   2.470  10.077  0.0414 -0.9734  0.3681
 8820SOL    HW138096   4.472   2.545  10.122  0.0909 -0.1446 -1.0616
 8820SOL    HW238097   4.347   2.476  10.121  0.5141 -4.9437  1.8400
 8821SOL     OW38098   2.939   2.511  13.929 -0.6827 -0.5744  0.3820
 8821SOL    HW138099   2.881   2.585  13.913 -0.5148 -0.0683  2.1379
 8821SOL    HW238100   3.013   2.550  13.976 -1.7463  0.1326  1.4471
 8822SOL     OW38101   2.261   2.527  10.558 -0.3709  0.6501 -0.2609
 8822SOL    HW138102   2.275   2.433  10.553 -0.9578  0.5659 -0.3518
 8822SOL    HW238103   2.233   2.535  10.650 -1.5951  1.3261 -0.6812
 8823SOL     OW38104   2.828   2.484   4.353  0.2115  0.2290  0.4074
 8823SOL    HW138105   2.872   2.558   4.395  0.9186  0.5513 -0.8674
 8823SOL    HW238106   2.742   2.483   4.396  0.3928 -4.5011  0.6374
 8824SOL     OW38107   3.114   4.435   5.417  0.5228 -0.0007 -0.2201
 8824SOL    HW138108   3.054   4.384   5.471  0.4883 -0.3728 -0.6073
 8824SOL    HW238109   3.201   4.413   5.452  1.3116  3.7902  0.1990
 8825SOL     OW38110   3.551   2.666   3.130  0.1664  0.4119 -0.2087
 8825SOL    HW138111   3.511   2.626   3.207 -0.9998 -0.6779 -1.3783
 8825SOL    HW238112   3.495   2.634   3.059  1.3620 -0.9543 -0.5154
 8826SOL     OW38113   1.037   2.787   7.481  0.2357  0.1089  0.3469
 8826SOL    HW138114   1.023   2.782   7.386 -1.4867 -2.5851  0.7189
 8826SOL    HW238115   1.052   2.695   7.503 -4.1163 -1.0247 -1.3598
 8827SOL     OW38116   3.273   2.090  11.852 -0.1777 -0.3915 -0.4586
 8827SOL    HW138117   3.358   2.120  11.882  0.5602 -4.3483  1.3825
 8827SOL    HW238118   3.286   1.998  11.832  1.1289 -0.5759  1.2352
 8828SOL     OW38119   3.437   4.700   2.608  0.2003 -0.1483  0.2196
 8828SOL    HW138120   3.410   4.609   2.614  0.3226  0.0359  3.6685
 8828SOL    HW238121   3.352   0.000   2.629 -0.4150 -2.0490  1.1589
 8829SOL     OW38122   0.410   2.224   1.042  0.5767  0.3952  0.2218
 8829SOL    HW138123   0.426   2.266   1.126  0.9803  2.3917 -0.8446
 8829SOL    HW238124   0.453   2.290   0.988  1.4606  0.1313  0.5959
 8830SOL     OW38125   4.643   1.378   5.139  0.6553  0.5710  0.5710
 8830SOL    HW138126   4.623   1.387   5.232  0.6687 -2.3120  0.8570
 8830SOL    HW238127   4.719   1.319   5.148  0.7961  0.3106 -2.5593
 8831SOL     OW38128   2.825   4.378  17.069  0.4487 -0.4771 -0.2492
 8831SOL    HW138129   2.753   4.438  17.086  0.8960  0.0735 -0.2688
 8831SOL    HW238130   2.846   4.390  16.976 -1.8424 -0.4310 -0.7412
 8832SOL     OW38131   3.243   0.286   3.501 -0.1923  0.4892  0.2229
 8832SOL    HW138132   3.172   0.230   3.534  0.1773 -0.5301 -0.7014
 8832SOL    HW238133   3.298   0.219   3.461  0.4885  1.2534 -0.0961
 8833SOL     OW38134   2.035   0.064   2.217  0.0833  0.1957 -0.3522
 8833SOL    HW138135   2.112   0.051   2.272  0.1730 -0.0247 -0.5279
 8833SOL    HW238136   1.999   4.714   2.200 -0.0593  0.3213 -0.7168
 8834SOL     OW38137   4.678   0.653   2.279  0.3218 -0.1116  0.8508
 8834SOL    HW138138   4.649   0.629   2.367  0.1050  0.8021  1.0278
 8834SOL    HW238139   0.017   0.702   2.307  0.1526  0.4012  0.4211
 8835SOL     OW38140   4.179   2.666   6.601 -0.2423  0.3924  0.2500
 8835SOL    HW138141   4.209   2.583   6.564  1.6498  0.9886  0.4115
 8835SOL    HW238142   4.125   2.641   6.675  0.7756 -0.6293  0.6422
 8836SOL     OW38143   1.571   1.137   1.415 -0.1302 -0.1153  0.3368
 8836SOL    HW138144   1.629   1.111   1.343  0.4216  1.5327  0.1760
 8836SOL    HW238145   1.601   1.084   1.488 -0.0992 -1.4344 -0.6437
 8837SOL     OW38146   1.339   3.073  17.647 -0.3772 -0.6629  0.1164
 8837SOL    HW138147   1.398   3.005  17.679  0.0468 -0.6400 -0.6224
 8837SOL    HW238148   1.380   3.157  17.669 -2.7720  0.3661  0.6287
 8838SOL     OW38149   4.570   1.711   6.729  0.4588  0.0491 -0.0927
 8838SOL    HW138150   4.545   1.627   6.692  1.0650  0.1455 -0.7354
 8838SOL    HW238151   4.568   1.700   6.824 -1.4346  0.9077 -0.0381
 8839SOL     OW38152   4.734   2.291   6.034 -0.2873  0.1905 -0.3305
 8839SOL    HW138153   0.036   2.372   6.065 -0.7205  0.5057 -0.6102
 8839SOL    HW238154   0.016   2.228   6.104 -1.3563 -0.4626 -0.6273
 8840SOL     OW38155   4.523   0.801  12.587  0.5326 -0.4502  0.2969
 8840SOL    HW138156   4.524   0.879  12.532 -1.5640 -0.9571 -0.4442
 8840SOL    HW238157   4.534   0.729  12.525 -1.3391 -1.2641  0.9076
 8841SOL     OW38158   0.341   4.131  14.118 -0.0698 -0.2249  0.1566
 8841SOL    HW138159   0.356   4.176  14.034 -1.4063  0.1092  0.1046
 8841SOL    HW238160   0.425   4.151  14.159 -0.4154 -2.8704  2.0974
 8842SOL     OW38161   3.833   1.468   4.018  0.0704 -0.2677  0.2382
 8842SOL    HW138162   3.759   1.516   4.055  1.4977  1.4239  0.9386
 8842SOL    HW238163   3.794   1.382   4.008 -0.1974 -0.4358  2.8338
 8843SOL     OW38164   3.107   3.705   6.486 -0.5759  0.0872  1.1309
 8843SOL    HW138165   3.125   3.797   6.509  1.0551 -0.1356  0.7507
 8843SOL    HW238166   3.025   3.705   6.437 -1.0114  0.1526  1.8798
 8844SOL     OW38167   3.685   2.036  16.449  0.1098 -0.0800  0.5348
 8844SOL    HW138168   3.639   2.109  16.406  0.0562  0.7345  1.9818
 8844SOL    HW238169   3.774   2.056  16.419 -0.0862 -1.4108 -0.9182
 8845SOL     OW38170   4.599   2.144   3.267 -0.2702 -0.1270  0.1389
 8845SOL    HW138171   4.589   2.052   3.292  0.3409 -0.3633 -0.5025
 8845SOL    HW238172   4.577   2.184   3.351  0.7032  0.1961  0.2325
 8846SOL     OW38173   2.319   2.451   2.957 -0.1115 -0.3413  0.6889
 8846SOL    HW138174   2.353   2.532   2.917  0.0825  0.3972  2.3119
 8846SOL    HW238175   2.300   2.405   2.876 -1.9505  0.4369  0.6726
 8847SOL     OW38176   0.210   1.312   3.105 -0.1194 -0.3570  0.1768
 8847SOL    HW138177   0.123   1.291   3.073  0.9396 -0.7737 -2.4696
 8847SOL    HW238178   0.178   1.383   3.160 -1.8426  0.6552 -2.1901
 8848SOL     OW38179   0.214   1.178   2.524  0.1479 -0.4022  0.5003
 8848SOL    HW138180   0.124   1.168   2.555  0.2974  0.0290  1.0787
 8848SOL    HW238181   0.199   1.121   2.449  0.3825 -2.3330  1.9017
 8849SOL     OW38182   4.040   1.188  15.871  0.3123 -0.4762  0.5812
 8849SOL    HW138183   4.051   1.282  15.885  0.6271 -0.4073 -0.1687
 8849SOL    HW238184   3.984   1.184  15.794  2.2386  0.7388 -0.8771
 8850SOL     OW38185   0.307   2.506   4.320  0.8938 -0.0783 -0.2620
 8850SOL    HW138186   0.344   2.485   4.405 -1.4399 -0.6288  0.5941
 8850SOL    HW238187   0.238   2.441   4.323 -0.5592  1.5167  0.5451
 8851SOL     OW38188   0.382   3.520  13.045 -0.1156  0.2886 -0.1914
 8851SOL    HW138189   0.406   3.431  13.017  0.7314  0.0290  1.3685
 8851SOL    HW238190   0.468   3.560  13.030 -0.9971  2.0307 -0.6027
 8852SOL     OW38191   1.411   0.324  14.075 -0.9478  0.8843 -0.0773
 8852SOL    HW138192   1.472   0.330  14.002 -2.0126 -0.9723 -1.1302
 8852SOL    HW238193   1.407   0.228  14.075  0.3578  0.8387  1.0106
 8853SOL     OW38194   3.294   2.621   2.376 -0.2456 -0.1888  0.6550
 8853SOL    HW138195   3.239   2.661   2.443 -0.9857 -0.5959  0.2858
 8853SOL    HW238196   3.317   2.539   2.419  1.6960  0.3907  0.7303
 8854SOL     OW38197   0.618   4.558   4.405 -0.3021  0.5483 -0.0795
 8854SOL    HW138198   0.640   4.536   4.496  1.3765  1.0347 -0.3790
 8854SOL    HW238199   0.696   4.609   4.385  0.7099 -0.5043  1.1933
 8855SOL     OW38200   4.623   2.801   7.453  0.4329  0.3385  0.0386
 8855SOL    HW138201   4.671   2.733   7.501  0.7547 -0.9998 -2.1923
 8855SOL    HW238202   4.537   2.798   7.494 -0.9731 -1.8486 -3.1669
 8856SOL     OW38203   3.465   3.173  17.318 -0.2100  0.5525  0.3235
 8856SOL    HW138204   3.482   3.207  17.230 -1.0258  0.2803  0.0560
 8856SOL    HW238205   3.520   3.235  17.365  0.8056  0.1072 -0.2863
 8857SOL     OW38206   1.339   2.059   7.212  0.0197  0.4396 -0.4704
 8857SOL    HW138207   1.247   2.077   7.232 -0.1852 -1.1039  0.0106
 8857SOL    HW238208   1.375   2.143   7.240  1.4789 -0.3082 -0.1126
 8858SOL     OW38209   2.528   0.831   0.933  0.3115  0.1331 -0.1314
 8858SOL    HW138210   2.536   0.870   0.846  0.4887  0.3629 -0.0124
 8858SOL    HW238211   2.453   0.880   0.967  1.3848  0.3916  1.8711
 8859SOL     OW38212   2.206   2.102   2.880  0.2631  0.3978 -0.0142
 8859SOL    HW138213   2.290   2.101   2.835  0.9075  0.7986  1.1750
 8859SOL    HW238214   2.143   2.065   2.818  0.9654  1.8139 -1.5429
 8860SOL     OW38215   3.931   1.345   2.099 -0.5358  0.3495 -0.0668
 8860SOL    HW138216   3.937   1.406   2.173  2.2229 -1.4937  1.2299
 8860SOL    HW238217   3.970   1.392   2.026 -0.5328  2.5823  1.3668
 8861SOL     OW38218   1.223   1.499  15.447 -0.3062 -0.0228  0.5663
 8861SOL    HW138219   1.206   1.586  15.484 -1.0194  1.1742 -2.6299
 8861SOL    HW238220   1.285   1.475  15.516  1.0364  2.3687  0.2027
 8862SOL     OW38221   0.237   0.463   8.841 -0.3552 -0.3429 -0.0039
 8862SOL    HW138222   0.274   0.397   8.783  0.2319 -1.0086  1.1188
 8862SOL    HW238223   0.144   0.441   8.840 -0.9903  2.3968 -0.6827
 8863SOL     OW38224   1.157   4.444   4.425  0.3507 -0.3706  0.3326
 8863SOL    HW138225   1.226   4.480   4.369 -0.8150 -0.1915 -0.9946
 8863SOL    HW238226   1.186   4.354   4.435 -1.0805 -0.9223 -0.4511
 8864SOL     OW38227   0.588   2.349   3.219  0.4461  0.1255 -0.3353
 8864SOL    HW138228   0.656   2.411   3.194  1.4037 -0.8867 -0.2197
 8864SOL    HW238229   0.510   2.403   3.236  0.2555 -1.0782  2.5841
 8865SOL     OW38230   4.328   4.028  11.898  0.4085  0.2078  0.0647
 8865SOL    HW138231   4.410   3.979  11.902 -1.0681 -2.2487  0.0556
 8865SOL    HW238232   4.284   4.007  11.815 -0.3295 -0.7220  0.6887
 8866SOL     OW38233   3.744   4.353   3.301  0.3550 -0.4861  0.4751
 8866SOL    HW138234   3.750   4.338   3.207  0.2464  1.2652  0.1986
 8866SOL    HW238235   3.731   4.447   3.308  0.5411 -0.2573 -2.2075
 8867SOL     OW38236   0.601   3.667  11.884  0.5129 -0.2629  0.1376
 8867SOL    HW138237   0.666   3.629  11.944 -0.1992  0.6830  1.4942
 8867SOL    HW238238   0.556   3.727  11.942 -0.0441 -0.8099  0.2638
 8868SOL     OW38239   2.894   4.663  11.292 -0.4573 -0.4933  0.4479
 8868SOL    HW138240   2.825   4.617  11.244  0.3917 -0.6911 -0.5896
 8868SOL    HW238241   2.969   4.660  11.232 -1.5199 -1.8419 -0.8082
 8869SOL     OW38242   4.246   0.646   6.481 -0.2683  0.1381  0.3991
 8869SOL    HW138243   4.318   0.600   6.524  1.5389  0.5524 -2.2025
 8869SOL    HW238244   4.256   0.735   6.514 -1.3990  0.8441 -1.1612
 8870SOL     OW38245   2.733   4.180   5.596  0.4403  0.2144  0.4987
 8870SOL    HW138246   2.678   4.101   5.594 -2.5020  2.2876 -1.1989
 8870SOL    HW238247   2.690   4.232   5.528 -2.1663 -1.3209  0.9494
 8871SOL     OW38248   4.063   4.332   4.342 -0.6077  0.0753 -0.4096
 8871SOL    HW138249   4.036   4.386   4.268 -0.2845  0.9548  0.1012
 8871SOL    HW238250   3.994   4.356   4.405 -0.3781 -2.4574  0.7913
 8872SOL     OW38251   4.040   4.392   4.726  0.1400 -0.4479 -0.5570
 8872SOL    HW138252   4.108   4.452   4.759  0.5058 -0.4153 -1.3766
 8872SOL    HW238253   3.983   4.446   4.671  0.3429  1.0116  0.6452
 8873SOL     OW38254   2.101   4.208   5.730  0.4524 -0.1728  0.2533
 8873SOL    HW138255   2.102   4.239   5.640  0.7956  0.5635  0.5147
 8873SOL    HW238256   2.196   4.215   5.739  0.4630 -1.1718  0.9429
 8874SOL     OW38257   2.249   3.800  11.015 -0.2436 -0.1540  0.4140
 8874SOL    HW138258   2.200   3.717  11.008 -0.6809 -0.0572  2.2925
 8874SOL    HW238259   2.245   3.805  11.110  0.3947  0.5244  0.4011
 8875SOL     OW38260   1.776   1.898   7.503 -0.6328 -1.0284 -0.1908
 8875SOL    HW138261   1.688   1.862   7.491 -0.7901 -0.8425  0.4335
 8875SOL    HW238262   1.758   1.968   7.566 -0.5519 -0.6985 -0.5328
 8876SOL     OW38263   3.874   2.114  12.078 -0.0217 -0.5012  0.1162
 8876SOL    HW138264   3.899   2.144  12.165  0.3111 -0.8059  0.1272
 8876SOL    HW238265   3.779   2.122  12.087 -0.0821  1.0697 -1.7906
 8877SOL     OW38266   2.306   4.197   8.557 -0.0853  0.1080 -0.0055
 8877SOL    HW138267   2.272   4.179   8.645  1.2883 -0.8890  0.3257
 8877SOL    HW238268   2.234   4.156   8.509  0.4695  0.4571 -1.1535
 8878SOL     OW38269   1.087   0.564   7.282  0.2585 -0.2191 -0.1486
 8878SOL    HW138270   1.171   0.581   7.325  1.1301  0.9519 -2.3358
 8878SOL    HW238271   1.026   0.622   7.328  0.3314 -0.9192  0.8345
 8879SOL     OW38272   1.646   0.724   5.482  0.5274 -0.2780 -0.1858
 8879SOL    HW138273   1.736   0.751   5.500  0.1046  1.1370 -0.2284
 8879SOL    HW238274   1.599   0.773   5.549  0.6189 -0.8693  0.3136
 8880SOL     OW38275   3.289   3.598   4.321 -0.3594  0.6029 -0.1630
 8880SOL    HW138276   3.374   3.643   4.327  0.2156 -0.5935  0.7008
 8880SOL    HW238277   3.285   3.577   4.414 -2.8941 -0.4566 -0.5152
 8881SOL     OW38278   1.530   3.786   8.142  0.0936 -0.3122 -0.4384
 8881SOL    HW138279   1.621   3.761   8.154 -0.0074 -0.6857 -0.4243
 8881SOL    HW238280   1.520   3.831   8.226 -1.6015  0.8100 -1.2416
 8882SOL     OW38281   0.822   1.275  17.446  0.0871 -0.1953 -0.2072
 8882SOL    HW138282   0.746   1.324  17.415 -0.3006  1.6922  3.6920
 8882SOL    HW238283   0.783   1.194  17.478  2.3025 -2.0021 -2.0395
 8883SOL     OW38284   2.215   2.806   6.705 -0.8115 -0.7163 -0.1171
 8883SOL    HW138285   2.236   2.713   6.702  1.7420 -0.2754  3.2964
 8883SOL    HW238286   2.289   2.842   6.655 -1.8440 -0.5283 -1.4963
 8884SOL     OW38287   3.962   0.083  13.533  0.1935  0.8244  0.3773
 8884SOL    HW138288   3.872   0.095  13.564 -0.3476 -1.1575 -0.4009
 8884SOL    HW238289   3.951   0.092  13.438 -0.8808 -0.4990  0.3724
 8885SOL     OW38290   2.672   2.041   8.871 -0.0024  0.1976 -0.2458
 8885SOL    HW138291   2.647   2.104   8.802  0.3856  0.8362  0.1976
 8885SOL    HW238292   2.734   1.985   8.824  1.4918  0.1329  1.8164
 8886SOL     OW38293   4.328   3.252   4.815  0.2864 -0.0614  0.1286
 8886SOL    HW138294   4.312   3.214   4.729  1.2127 -0.8449  0.3014
 8886SOL    HW238295   4.264   3.321   4.832 -0.1688 -0.5413  0.3953
 8887SOL     OW38296   1.999   4.286  11.947  0.4804  0.2643 -0.3119
 8887SOL    HW138297   1.952   4.253  12.024 -0.7529 -0.1482 -1.2279
 8887SOL    HW238298   2.063   4.215  11.940  2.2249  1.7208  1.0503
 8888SOL     OW38299   2.126   0.846   2.495  0.3537 -0.7805  0.6881
 8888SOL    HW138300   2.197   0.781   2.500 -0.2818 -1.5444 -0.2459
 8888SOL    HW238301   2.076   0.831   2.576 -2.3690 -0.1276 -0.8898
 8889SOL     OW38302   2.186   1.513   0.392  0.1629 -0.1878 -0.1316
 8889SOL    HW138303   2.106   1.562   0.413  0.2932 -0.0721  0.0947
 8889SOL    HW238304   2.178   1.482   0.302  1.6300  1.8765 -0.9704
 8890SOL     OW38305   1.872   3.943   8.483 -0.2692  0.3955 -0.2257
 8890SOL    HW138306   1.796   3.965   8.537 -0.1428  0.3337 -0.0266
 8890SOL    HW238307   1.921   3.876   8.530 -0.1475 -0.9643 -2.2553
 8891SOL     OW38308   4.587   2.073   7.830  0.1387  0.3119 -0.2439
 8891SOL    HW138309   4.621   2.079   7.919  1.3392  2.4220 -0.8530
 8891SOL    HW238310   4.527   1.999   7.845 -1.2814  1.7488  1.1153
 8892SOL     OW38311   0.438   0.975   9.739  0.3231 -0.5397 -0.1217
 8892SOL    HW138312   0.400   0.999   9.655  3.3368  1.6598 -0.8643
 8892SOL    HW238313   0.383   1.024   9.801  0.5115  0.0242 -0.4002
 8893SOL     OW38314   1.728   3.460   0.539  0.7836  0.1571 -0.4093
 8893SOL    HW138315   1.743   3.471   0.633 -0.8096 -0.0561 -0.1215
 8893SOL    HW238316   1.814   3.486   0.506  1.1581  1.1143  1.2602
 8894SOL     OW38317   2.761   2.892  17.126 -0.1051  0.3228  0.1813
 8894SOL    HW138318   2.823   2.960  17.155  0.1494  0.5379 -0.8469
 8894SOL    HW238319   2.683   2.921  17.173  0.2920  1.7572 -0.0314
 8895SOL     OW38320   1.877   2.613   8.030  0.5443  0.2297 -0.0240
 8895SOL    HW138321   1.958   2.582   7.989  0.4077 -2.5263  1.7428
 8895SOL    HW238322   1.909   2.644   8.115  1.5822  3.0975 -1.4624
 8896SOL     OW38323   4.599   0.221   8.128 -0.1862  0.5428 -0.5426
 8896SOL    HW138324   4.569   0.172   8.204  1.5167  1.6450  0.8572
 8896SOL    HW238325   4.519   0.273   8.119  0.2269  0.7956 -2.6554
 8897SOL     OW38326   1.447   3.039   4.913  0.1289 -0.3719  0.7518
 8897SOL    HW138327   1.416   3.008   4.828 -1.5072  0.7984  0.9211
 8897SOL    HW238328   1.386   3.111   4.927 -0.0014 -0.6378  1.5388
 8898SOL     OW38329   4.036   4.203   3.193 -0.1402 -0.1000 -0.3743
 8898SOL    HW138330   3.945   4.232   3.193  0.0183  0.4017 -0.6017
 8898SOL    HW238331   4.082   4.285   3.208  1.3151 -1.2387  1.3693
 8899SOL     OW38332   1.276   0.268   3.556  0.1174 -0.0597  0.3039
 8899SOL    HW138333   1.365   0.301   3.569 -0.1022  0.8078 -0.4539
 8899SOL    HW238334   1.277   0.272   3.460 -3.2370  2.4952  0.3758
 8900SOL     OW38335   1.574   0.992   6.471  0.1032 -0.3571  0.4173
 8900SOL    HW138336   1.489   1.020   6.437 -0.0856 -0.2619  0.9550
 8900SOL    HW238337   1.536   0.908   6.499  0.9788 -0.5386  1.0645
 8901SOL     OW38338   3.856   1.783  16.599  0.0760  0.2851 -0.1220
 8901SOL    HW138339   3.888   1.693  16.608 -0.5871 -0.2256 -2.8812
 8901SOL    HW238340   3.907   1.815  16.525  0.1533 -0.7397 -0.5073
 8902SOL     OW38341   3.762   0.868   4.965  0.7858  0.4945  0.3918
 8902SOL    HW138342   3.839   0.924   4.952  0.4010  1.1751  1.0186
 8902SOL    HW238343   3.697   0.930   4.999 -1.7616 -0.8442 -1.9864
 8903SOL     OW38344   0.002   2.080   7.422  0.6246  0.3551  0.0968
 8903SOL    HW138345   4.657   2.121   7.397 -0.0580 -1.3563 -0.4397
 8903SOL    HW238346   0.068   2.149   7.413  0.0921  0.4647 -3.0146
 8904SOL     OW38347   1.808   0.843   7.991 -0.6345 -0.7729  0.4112
 8904SOL    HW138348   1.753   0.778   8.034 -2.8338  1.1311  0.4388
 8904SOL    HW238349   1.822   0.909   8.059 -1.0892 -0.3753  0.1107
 8905SOL     OW38350   3.683   2.638   6.842  0.1642 -0.1590 -0.1985
 8905SOL    HW138351   3.665   2.589   6.922  1.8332  1.0820  0.9464
 8905SOL    HW238352   3.664   2.725   6.878 -1.6164 -0.4275 -0.4777
 8906SOL     OW38353   3.233   2.249   5.559 -0.0564 -0.0393 -0.3854
 8906SOL    HW138354   3.259   2.267   5.649 -1.1124 -0.3629 -0.0152
 8906SOL    HW238355   3.168   2.317   5.540 -0.0283  0.1088  0.0533
 8907SOL     OW38356   4.279   0.236  13.317 -0.3939 -0.6907  0.2690
 8907SOL    HW138357   4.257   0.143  13.313 -1.6627 -0.3054 -1.8503
 8907SOL    HW238358   4.312   0.239  13.407 -1.9877  2.1465  0.7477
 8908SOL     OW38359   0.214   1.842  13.472 -0.5059 -0.2714  0.4533
 8908SOL    HW138360   0.220   1.747  13.484  0.0873 -0.2316  0.4485
 8908SOL    HW238361   0.182   1.868  13.558  2.1758 -1.8142  1.9116
 8909SOL     OW38362   1.957   1.128   6.853 -0.2972 -0.5193  0.6880
 8909SOL    HW138363   1.956   1.090   6.941  0.3445  0.2882  1.0460
 8909SOL    HW238364   2.045   1.164   6.845 -1.0710  0.6603 -2.4572
 8910SOL     OW38365   2.444   0.579  15.136  0.2676  0.8304 -0.3723
 8910SOL    HW138366   2.494   0.562  15.216 -0.3654  2.7925  0.4444
 8910SOL    HW238367   2.481   0.513  15.078  2.0641  0.4543  1.1904
 8911SOL     OW38368   2.113   2.767   5.103 -0.3840 -0.1822 -0.0035
 8911SOL    HW138369   2.178   2.766   5.032  0.0414 -3.1732  0.4461
 8911SOL    HW238370   2.037   2.741   5.051 -0.3012  1.2735 -0.8618
 8912SOL     OW38371   2.221   0.306  11.551 -0.1444  0.5545 -0.0090
 8912SOL    HW138372   2.256   0.239  11.610 -3.4201 -1.1625 -0.0312
 8912SOL    HW238373   2.144   0.321  11.604 -0.9845  0.0295 -1.0768
 8913SOL     OW38374   4.457   1.146   4.955 -0.1878 -0.2213 -0.0139
 8913SOL    HW138375   4.387   1.203   4.926 -0.5547 -0.7229 -0.1127
 8913SOL    HW238376   4.433   1.074   4.897 -2.4892 -1.3966  2.4081
 8914SOL     OW38377   4.062   2.264   7.681  0.0199 -0.6990 -0.0744
 8914SOL    HW138378   4.091   2.304   7.763  0.9700 -0.5531 -0.4765
 8914SOL    HW238379   4.055   2.172   7.706  1.4902 -0.3059  1.7623
 8915SOL     OW38380   2.502   3.167   2.263  0.2619 -0.2286 -0.6352
 8915SOL    HW138381   2.570   3.204   2.320 -1.2993 -0.4814  1.4229
 8915SOL    HW238382   2.539   3.173   2.175  2.4486 -1.7182  0.1905
 8916SOL     OW38383   0.989   2.208   3.211 -0.8298 -0.1845 -0.0226
 8916SOL    HW138384   1.072   2.249   3.188 -0.5555 -1.0795 -0.6210
 8916SOL    HW238385   0.932   2.252   3.147 -0.1632  0.5503 -0.1143
 8917SOL     OW38386   1.036   0.275   4.554 -0.2702 -0.0810  0.7097
 8917SOL    HW138387   1.026   0.289   4.460 -0.0091  0.7014  0.8013
 8917SOL    HW238388   1.015   0.359   4.594  1.2403 -0.9300  3.2331
 8918SOL     OW38389   4.384   3.175  14.393  0.1320 -0.1505  0.0992
 8918SOL    HW138390   4.348   3.256  14.428  0.6362  0.7512 -1.4855
 8918SOL    HW238391   4.465   3.197  14.346 -0.3315 -0.7108 -0.9588
 8919SOL     OW38392   4.414   1.596  15.709 -0.1433  0.1473 -0.4622
 8919SOL    HW138393   4.410   1.501  15.706 -1.4565  0.2488 -1.7492
 8919SOL    HW238394   4.454   1.612  15.794 -3.0117  0.5517  0.8380
 8920SOL     OW38395   2.357   3.083   1.702  0.1503 -0.1248  0.1901
 8920SOL    HW138396   2.314   3.167   1.719  2.4395  1.0676  0.1287
 8920SOL    HW238397   2.375   3.058   1.793  0.6497 -1.0384 -0.1576
 8921SOL     OW38398   1.290   3.465   7.135  0.2714 -0.5893  0.7717
 8921SOL    HW138399   1.237   3.386   7.125 -0.9206  0.2846  0.2087
 8921SOL    HW238400   1.311   3.488   7.044  1.0326 -0.1905  1.0516
 8922SOL     OW38401   2.645   3.086   8.832 -0.5996  0.3577 -0.7506
 8922SOL    HW138402   2.705   3.141   8.883 -2.3092  0.4244  1.1751
 8922SOL    HW238403   2.561   3.126   8.853 -0.0219  0.4399  1.4380
 8923SOL     OW38404   1.263   2.381  15.959 -0.1963 -0.1556 -0.1576
 8923SOL    HW138405   1.195   2.317  15.985  1.0790 -1.1560  0.7539
 8923SOL    HW238406   1.335   2.366  16.020 -0.1553 -0.2573 -0.2305
 8924SOL     OW38407   0.890   2.346  15.260 -0.0976  0.1251  0.3345
 8924SOL    HW138408   0.860   2.270  15.211 -0.7524  1.2587 -1.0237
 8924SOL    HW238409   0.874   2.409  15.190 -0.6624  1.3219  1.5205
 8925SOL     OW38410   3.750   1.780   2.966  0.3549 -0.2265 -0.0735
 8925SOL    HW138411   3.712   1.854   3.013  0.3291 -0.0141 -0.4306
 8925SOL    HW238412   3.695   1.778   2.888  2.7712 -0.5976 -1.7695
 8926SOL     OW38413   0.143   4.097   5.850  0.1228  0.0156  0.3688
 8926SOL    HW138414   0.152   4.004   5.826  1.9021  0.0860  0.7178
 8926SOL    HW238415   0.230   4.136   5.837  0.3016 -0.6647 -0.4650
 8927SOL     OW38416   0.994   3.437   1.922  0.2308  0.7880 -0.3935
 8927SOL    HW138417   1.006   3.527   1.951 -2.1951  0.0765  2.7685
 8927SOL    HW238418   0.936   3.407   1.992 -1.8516  1.6001 -1.7666
 8928SOL     OW38419   2.120   1.965  12.342 -0.2113 -0.6549 -0.2422
 8928SOL    HW138420   2.038   2.013  12.357  0.4886  1.1283 -2.1177
 8928SOL    HW238421   2.099   1.872  12.339  1.3282 -1.0351  1.2632
 8929SOL     OW38422   3.347   2.094   3.180 -0.0781  0.0603  0.2133
 8929SOL    HW138423   3.338   2.154   3.254  1.1924  0.8536 -0.2746
 8929SOL    HW238424   3.262   2.083   3.139  0.4584  1.9857 -1.4137
 8930SOL     OW38425   0.350   3.811   4.127  0.5064  0.2336  0.0116
 8930SOL    HW138426   0.261   3.823   4.092  0.9157 -1.0415 -1.4226
 8930SOL    HW238427   0.401   3.832   4.049  1.1206 -1.1833  0.0466
 8931SOL     OW38428   1.063   0.314   6.831 -1.1285  0.0830  0.0427
 8931SOL    HW138429   1.099   0.354   6.910  1.8350 -1.3473 -0.5895
 8931SOL    HW238430   1.065   0.389   6.772  0.7519 -0.4256 -0.5453
 8932SOL     OW38431   2.204   3.939   4.916  0.1634  0.6745  0.5501
 8932SOL    HW138432   2.146   4.016   4.925 -0.8944 -0.1302  0.5918
 8932SOL    HW238433   2.279   3.965   4.862 -0.6227  0.8781 -0.4633
 8933SOL     OW38434   4.635   0.088   2.195  0.1458  0.1348 -0.4391
 8933SOL    HW138435   4.638   0.113   2.287 -0.8895 -0.4638 -0.2450
 8933SOL    HW238436   4.635   0.177   2.161  2.8673 -0.3537 -1.7068
 8934SOL     OW38437   1.221   1.517  14.766  0.3792  0.1826  0.0079
 8934SOL    HW138438   1.288   1.567  14.812  1.4515 -1.5381  0.3110
 8934SOL    HW238439   1.139   1.539  14.810  1.5083  2.0979  1.1643
 8935SOL     OW38440   2.936   1.487   5.865  0.2285 -0.4778  0.0218
 8935SOL    HW138441   2.933   1.415   5.928 -0.1623 -0.1364  0.3954
 8935SOL    HW238442   3.022   1.487   5.825  1.4136  4.2885  2.4833
 8936SOL     OW38443   1.622   4.054  13.330 -0.2343 -0.0852 -0.1695
 8936SOL    HW138444   1.552   4.092  13.384 -1.0620  0.8260 -1.8749
 8936SOL    HW238445   1.596   3.964  13.309  1.1334 -0.3127 -0.8320
 8937SOL     OW38446   0.977   0.270  17.045 -0.1723  0.4406  0.0358
 8937SOL    HW138447   0.941   0.266  16.956  1.9687 -0.4838 -0.7907
 8937SOL    HW238448   1.054   0.324  17.027  1.2860 -1.2562  1.1306
 8938SOL     OW38449   1.913   4.634   1.465 -0.0071  0.6765  0.3697
 8938SOL    HW138450   1.901   4.630   1.560 -0.8527 -0.7204  0.1957
 8938SOL    HW238451   2.008   4.627   1.457  0.1223  2.1228  0.6467
 8939SOL     OW38452   1.984   0.682  11.892  0.6932 -0.1693  0.4230
 8939SOL    HW138453   2.014   0.762  11.935  0.8274  0.3564 -0.6350
 8939SOL    HW238454   1.967   0.617  11.960 -0.8707  2.3016  2.3876
 8940SOL     OW38455   1.269   0.463   8.044 -0.0993  0.0873  0.1084
 8940SOL    HW138456   1.259   0.453   8.139  0.5157  1.3818  0.3055
 8940SOL    HW238457   1.186   0.508   8.026 -1.0973 -1.3845  1.0085
 8941SOL     OW38458   2.381   1.055   4.510 -0.3767  0.2763 -0.1607
 8941SOL    HW138459   2.414   0.969   4.487  0.1280  0.8515 -1.6079
 8941SOL    HW238460   2.387   1.101   4.426 -1.0621  0.5929 -0.0405
 8942SOL     OW38461   1.524   0.749  13.755 -0.3084 -0.4418 -0.2617
 8942SOL    HW138462   1.505   0.669  13.707 -0.4086 -0.9836  0.6830
 8942SOL    HW238463   1.454   0.760  13.820 -1.3228 -0.6549 -1.3135
 8943SOL     OW38464   4.276   0.730   7.482 -0.2532  0.2229  0.1310
 8943SOL    HW138465   4.356   0.749   7.433 -0.1534 -2.2725 -0.7005
 8943SOL    HW238466   4.313   0.740   7.569  1.5165 -1.9911 -0.3605
 8944SOL     OW38467   0.339   3.535   9.598 -0.1014  0.3011 -0.1455
 8944SOL    HW138468   0.379   3.450   9.617  0.5933  0.8552  0.8183
 8944SOL    HW238469   0.252   3.527   9.637 -0.5563  1.7336 -0.8746
 8945SOL     OW38470   2.377   2.516   2.071  0.1743 -0.1833  0.4752
 8945SOL    HW138471   2.331   2.517   2.155  0.0973 -2.0559  0.4665
 8945SOL    HW238472   2.451   2.569   2.098  0.4311  0.5840 -1.7158
 8946SOL     OW38473   3.068   2.388   3.232  0.4648 -0.4583  0.0930
 8946SOL    HW138474   3.163   2.400   3.228  0.3733  0.1775 -0.3106
 8946SOL    HW238475   3.049   2.412   3.141  0.1846  0.4867  0.3920
 8947SOL     OW38476   3.704   4.487  15.367  0.1548 -0.1943 -0.5544
 8947SOL    HW138477   3.750   4.409  15.337  2.1110  0.5783  0.4846
 8947SOL    HW238478   3.616   4.453  15.384  0.6897 -1.2829  0.0404
 8948SOL     OW38479   4.690   3.188   1.242 -0.2435  0.1821 -0.3247
 8948SOL    HW138480   4.724   3.135   1.314  0.2315  0.6289 -0.2200
 8948SOL    HW238481   4.674   3.268   1.291 -3.6774  0.3878 -1.8283
 8949SOL     OW38482   3.620   4.121   7.770  0.1828 -0.0053 -0.0609
 8949SOL    HW138483   3.614   4.051   7.705  0.7290  2.3268 -2.6150
 8949SOL    HW238484   3.668   4.076   7.839 -0.3039 -2.5268 -1.3830
 8950SOL     OW38485   3.047   0.704   9.537 -0.1901 -0.1244 -0.0932
 8950SOL    HW138486   2.956   0.730   9.552 -0.8415 -1.9438 -0.9454
 8950SOL    HW238487   3.042   0.699   9.441 -1.8468  0.8382 -0.0648
 8951SOL     OW38488   4.661   1.923   8.885 -0.1716  0.2045  0.1677
 8951SOL    HW138489   4.707   1.842   8.865 -0.8150 -0.9145  3.1530
 8951SOL    HW238490   4.724   1.988   8.918 -3.3067  3.0063  0.7159
 8952SOL     OW38491   0.531   3.594   3.302  0.1078 -0.4859  0.5757
 8952SOL    HW138492   0.590   3.522   3.281 -0.3771 -1.0077  0.9752
 8952SOL    HW238493   0.470   3.587   3.228  0.3785 -1.9933  0.4826
 8953SOL     OW38494   0.198   1.405   5.402  0.0962 -0.1580  0.1590
 8953SOL    HW138495   0.166   1.317   5.423  1.0127 -0.2457  1.2178
 8953SOL    HW238496   0.258   1.420   5.475  0.5268 -1.2041  0.0192
 8954SOL     OW38497   2.829   1.898   4.551  0.1397  0.4084 -0.0289
 8954SOL    HW138498   2.872   1.968   4.599  0.4568  1.0974 -1.3165
 8954SOL    HW238499   2.743   1.898   4.595  0.2889 -0.6728  0.2618
 8955SOL     OW38500   4.077   3.823  12.111 -0.8371 -0.0366 -0.3287
 8955SOL    HW138501   4.024   3.831  12.189 -1.0842  2.0711 -0.7235
 8955SOL    HW238502   4.027   3.871  12.045  0.6597  4.3153  1.7437
 8956SOL     OW38503   3.975   3.628   7.489 -0.5117  0.1458 -0.5620
 8956SOL    HW138504   3.910   3.588   7.431 -0.6409 -2.2647  1.2512
 8956SOL    HW238505   4.060   3.603   7.455  0.3365  1.9947  0.1648
 8957SOL     OW38506   3.924   1.356   2.814 -0.3141  0.0648  0.8392
 8957SOL    HW138507   3.877   1.422   2.863 -1.1201  0.1102  0.0038
 8957SOL    HW238508   3.995   1.331   2.873  0.0615  1.9620  1.1858
 8958SOL     OW38509   2.681   2.728   0.381 -0.9251  0.2364 -0.8584
 8958SOL    HW138510   2.650   2.639   0.399 -0.0378  0.0321 -0.3595
 8958SOL    HW238511   2.606   2.777   0.414 -1.5148 -0.8957 -0.5233
 8959SOL     OW38512   2.252   3.606   1.761 -0.7323  0.4172 -0.2931
 8959SOL    HW138513   2.277   3.589   1.670  2.4988  0.6791  0.5333
 8959SOL    HW238514   2.195   3.682   1.752  0.5032  1.3203 -0.3875
 8960SOL     OW38515   1.555   0.405   4.259 -0.2608  0.2795 -0.0279
 8960SOL    HW138516   1.466   0.423   4.291  0.3010  0.1490  1.5884
 8960SOL    HW238517   1.585   0.363   4.339  2.2657  0.7318 -0.7450
 8961SOL     OW38518   0.023   0.295   4.854  0.2551 -0.0164  0.4571
 8961SOL    HW138519   4.671   0.326   4.840 -0.0012 -1.1981 -0.4798
 8961SOL    HW238520   0.033   0.244   4.774 -2.2964  0.3298 -0.1069
 8962SOL     OW38521   4.088   4.246   6.406 -0.7399  0.0107  0.6030
 8962SOL    HW138522   4.146   4.210   6.340 -0.1215  2.1136 -0.0228
 8962SOL    HW238523   4.047   4.314   6.352  2.1187  1.7951  0.6729
 8963SOL     OW38524   4.394   0.429   6.634  0.5478 -0.2354 -0.3173
 8963SOL    HW138525   4.415   0.381   6.714 -1.6700  2.2864  1.7853
 8963SOL    HW238526   4.436   0.368   6.575  2.3962  0.7154  0.0016
 8964SOL     OW38527   1.541   0.034   2.889  0.2085 -0.3792  0.3027
 8964SOL    HW138528   1.579   4.694   2.930  1.9201  1.3315  1.9482
 8964SOL    HW238529   1.468   4.733   2.840 -1.0565  0.8632  1.2207
 8965SOL     OW38530   1.910   3.963   6.048 -0.0549  0.6695 -0.4992
 8965SOL    HW138531   1.957   3.925   5.974 -2.4408 -1.1470 -1.0931
 8965SOL    HW238532   1.860   4.025   5.994 -0.5619 -0.4369 -1.3095
 8966SOL     OW38533   2.246   1.139   5.774  0.6109 -0.0973  0.6718
 8966SOL    HW138534   2.180   1.159   5.708  0.4882  0.9725  1.1067
 8966SOL    HW238535   2.175   1.101   5.826 -0.9782  1.3580 -0.4579
 8967SOL     OW38536   0.804   2.695   8.792  0.0718 -0.2732 -0.0952
 8967SOL    HW138537   0.823   2.770   8.736 -0.3118 -2.0792 -2.6717
 8967SOL    HW238538   0.711   2.710   8.809 -0.4359 -2.4964 -0.8850
 8968SOL     OW38539   0.030   2.740   3.062  0.5164 -0.6605 -0.2431
 8968SOL    HW138540   0.060   2.727   2.972  0.5013  0.4522 -0.4145
 8968SOL    HW238541   4.734   2.829   3.057  1.8956 -0.0335  1.4670
 8969SOL     OW38542   1.153   0.131   8.762 -0.1090 -0.5120 -0.0485
 8969SOL    HW138543   1.162   0.200   8.827  1.5731  0.1935 -1.0535
 8969SOL    HW238544   1.058   0.114   8.766  0.2701 -2.8662 -0.9061
 8970SOL     OW38545   3.309   3.102  10.932 -0.1019 -0.1429  0.4775
 8970SOL    HW138546   3.376   3.037  10.911  1.2016  1.9634 -1.9141
 8970SOL    HW238547   3.293   3.141  10.846 -0.0640 -1.7975 -0.2878
 8971SOL     OW38548   3.779   3.542   0.139  0.2001  0.2956  0.5608
 8971SOL    HW138549   3.784   3.618   0.197  1.5774  0.1850  0.5912
 8971SOL    HW238550   3.867   3.506   0.148 -0.4220 -1.4533 -0.3477
 8972SOL     OW38551   0.573   3.500  16.827  0.0218 -0.0776  0.0743
 8972SOL    HW138552   0.508   3.454  16.879  0.2045  0.1188  0.4823
 8972SOL    HW238553   0.564   3.479  16.735  0.5947 -2.7520  0.6345
 8973SOL     OW38554   0.982   1.435  16.300  0.0539 -0.1007 -0.0766
 8973SOL    HW138555   0.962   1.475  16.385 -2.0918 -0.6286 -0.3393
 8973SOL    HW238556   0.914   1.368  16.302 -0.8302  0.8046  0.5926
 8974SOL     OW38557   0.164   3.834   6.114  0.2372 -0.4047  0.5400
 8974SOL    HW138558   0.108   3.898   6.157  0.5336  0.9569 -1.0973
 8974SOL    HW238559   0.252   3.852   6.147 -0.7581  0.3019  2.7927
 8975SOL     OW38560   3.582   1.284   5.136 -0.0536 -0.0392 -0.0227
 8975SOL    HW138561   3.597   1.372   5.102 -0.9900  1.0711  2.4835
 8975SOL    HW238562   3.638   1.283   5.214 -0.7694 -3.4637  0.4438
 8976SOL     OW38563   3.860   1.722   5.816 -0.1910  0.5081 -0.5111
 8976SOL    HW138564   3.837   1.815   5.821  0.3828  0.7755 -2.5338
 8976SOL    HW238565   3.818   1.685   5.738  0.8685 -1.4201 -0.1630
 8977SOL     OW38566   4.226   3.766   1.772 -0.1025  0.6566  0.3792
 8977SOL    HW138567   4.136   3.752   1.744 -0.3923  0.3770  1.4359
 8977SOL    HW238568   4.277   3.767   1.692 -2.7129  0.0445 -1.2893
 8978SOL     OW38569   4.129   4.294   7.154 -0.3080  0.7046  0.2129
 8978SOL    HW138570   4.166   4.257   7.234 -0.2757 -0.9187 -0.5615
 8978SOL    HW238571   4.171   4.231   7.095 -0.7380 -0.2423  0.9236
 8979SOL     OW38572   4.323   4.175   2.526 -0.4034 -0.2213  0.0361
 8979SOL    HW138573   4.409   4.140   2.503  0.5313  1.1237  1.4735
 8979SOL    HW238574   4.332   4.258   2.480 -2.9021 -0.1421 -0.3484
 8980SOL     OW38575   2.858   2.850   5.922  0.0379  0.0767 -0.4834
 8980SOL    HW138576   2.927   2.898   5.969  1.1030 -1.2589 -0.6817
 8980SOL    HW238577   2.858   2.901   5.841  2.9519 -0.7820 -1.0373
 8981SOL     OW38578   4.714   1.005   3.895 -0.0484  0.5348  0.3751
 8981SOL    HW138579   0.072   0.999   3.892 -0.1838 -0.4891 -1.3519
 8981SOL    HW238580   4.701   1.089   3.940 -1.1334  0.2884  0.5229
 8982SOL     OW38581   1.524   0.304   4.503 -0.8629 -0.2522 -0.4763
 8982SOL    HW138582   1.458   0.242   4.535  0.2536 -0.5955  1.1803
 8982SOL    HW238583   1.603   0.271   4.545 -0.9525 -0.2350 -0.2938
 8983SOL     OW38584   2.525   1.226  10.513 -0.3399 -0.8575  0.2444
 8983SOL    HW138585   2.504   1.300  10.570  0.1061 -0.8100  0.3440
 8983SOL    HW238586   2.444   1.214  10.463 -0.4212 -1.0451  0.4205
 8984SOL     OW38587   1.600   1.703   3.445  0.1457  0.1298 -0.5117
 8984SOL    HW138588   1.576   1.792   3.471 -1.3981 -0.1096 -1.1606
 8984SOL    HW238589   1.551   1.687   3.365 -0.2772 -0.3954 -0.1527
 8985SOL     OW38590   3.571   1.920   6.591 -0.2932  0.2131  0.0003
 8985SOL    HW138591   3.516   1.998   6.599 -0.1161  0.2593  0.7236
 8985SOL    HW238592   3.653   1.954   6.555 -0.6325  1.2091  0.1848
 8986SOL     OW38593   1.345   2.346   0.119 -0.1571 -0.2058  0.3085
 8986SOL    HW138594   1.347   2.271   0.061  0.8669 -0.5823  0.8396
 8986SOL    HW238595   1.354   2.298   0.201  0.4559  1.2642  1.1067
 8987SOL     OW38596   3.800   4.334   3.043  0.0115 -0.3452 -0.8959
 8987SOL    HW138597   3.800   4.304   2.952 -1.3435  1.6864 -1.5741
 8987SOL    HW238598   3.865   4.404   3.035 -3.0257  2.4224 -1.2136
 8988SOL     OW38599   4.641   2.799   5.249 -0.1424 -0.5753  0.1961
 8988SOL    HW138600   4.589   2.791   5.169 -2.4418 -0.6430  1.7029
 8988SOL    HW238601   4.597   2.744   5.313  0.7846  0.5939  1.8414
 8989SOL     OW38602   2.927   3.329   7.846 -0.5429 -0.5824  0.2926
 8989SOL    HW138603   2.911   3.244   7.888  2.9332 -0.2159  2.3263
 8989SOL    HW238604   2.969   3.298   7.765  0.8923  1.2964  0.3326
 8990SOL     OW38605   3.109   4.435   2.532  0.0552  0.1782  0.6962
 8990SOL    HW138606   3.022   4.444   2.493  1.6523 -0.1767 -2.9249
 8990SOL    HW238607   3.115   4.343   2.558  0.6633 -1.0052 -3.5995
 8991SOL     OW38608   1.829   0.661   5.140 -0.0446 -0.7080 -0.1665
 8991SOL    HW138609   1.836   0.716   5.062 -2.3104  1.6181  1.2568
 8991SOL    HW238610   1.734   0.659   5.156 -0.1385 -0.9864 -0.7732
 8992SOL     OW38611   0.560   1.517  17.171  0.1566 -0.4068  0.3537
 8992SOL    HW138612   0.561   1.612  17.172 -0.7786 -0.4003 -0.3152
 8992SOL    HW238613   0.632   1.488  17.115  1.1093  1.3790  0.6430
 8993SOL     OW38614   1.119   4.114  11.746 -0.0525 -0.5023 -0.0096
 8993SOL    HW138615   1.049   4.168  11.782  0.6991 -1.3467  2.6885
 8993SOL    HW238616   1.165   4.183  11.699  0.5844 -0.7477  0.2564
 8994SOL     OW38617   3.523   3.166   8.772  0.3928  0.3537 -0.8132
 8994SOL    HW138618   3.541   3.148   8.679  2.8443 -1.2150 -0.0211
 8994SOL    HW238619   3.544   3.087   8.820 -0.6993  0.6759  0.1739
 8995SOL     OW38620   2.917   0.849   0.263 -0.1363  0.3277  0.4725
 8995SOL    HW138621   2.905   0.763   0.303 -0.6623 -0.7816 -2.0646
 8995SOL    HW238622   2.835   0.857   0.214  0.3331 -1.5631 -0.6186
 8996SOL     OW38623   0.368   0.618   6.357 -0.3883  0.0551  0.3080
 8996SOL    HW138624   0.386   0.605   6.450  0.5418  1.4115  0.3136
 8996SOL    HW238625   0.314   0.539   6.348 -1.2150  0.4713  1.4819
 8997SOL     OW38626   4.220   2.170  17.455  0.1390  0.1715 -0.1545
 8997SOL    HW138627   4.187   2.251  17.417 -1.4026 -1.2597 -1.8366
 8997SOL    HW238628   4.262   2.126  17.381  0.6119  2.1524 -1.0696
 8998SOL     OW38629   0.987   4.276   7.568  0.2708  0.8787 -0.6482
 8998SOL    HW138630   0.987   4.203   7.506 -0.8270  1.0112 -0.8092
 8998SOL    HW238631   0.947   4.348   7.519  0.9269  2.5793  1.2722
 8999SOL     OW38632   0.437   3.952   3.075 -0.0103 -0.0502 -0.6371
 8999SOL    HW138633   0.349   3.974   3.042 -0.0460  1.3782  0.3914
 8999SOL    HW238634   0.408   3.969   3.165  0.9816  0.7799 -0.4860
 9000SOL     OW38635   1.723   2.945  17.422 -0.1112 -0.0171  0.9099
 9000SOL    HW138636   1.650   2.983  17.373  0.7682 -0.1272 -0.4734
 9000SOL    HW238637   1.681   2.870  17.463 -0.3300 -1.5873 -2.1653
 9001SOL     OW38638   1.779   1.580   3.179 -0.4859 -0.4430  0.3994
 9001SOL    HW138639   1.790   1.670   3.208 -2.4049  0.3107 -1.2329
 9001SOL    HW238640   1.688   1.559   3.199 -1.1730  0.5274 -1.7595
 9002SOL     OW38641   3.683   0.861   3.352 -0.6717 -0.0610 -0.5701
 9002SOL    HW138642   3.663   0.851   3.259 -0.9929 -1.5991 -0.3311
 9002SOL    HW238643   3.603   0.833   3.397 -0.6269 -0.7790 -0.9387
 9003SOL     OW38644   0.411   0.469   6.840 -0.1191 -0.3627 -0.3781
 9003SOL    HW138645   0.330   0.501   6.880  0.6241 -0.6539  1.3913
 9003SOL    HW238646   0.455   0.415   6.906 -0.1894 -1.2181 -1.0232
 9004SOL     OW38647   3.622   0.634   5.062 -0.2338 -0.5242  0.2781
 9004SOL    HW138648   3.591   0.592   4.982  1.2188 -0.4131 -0.3525
 9004SOL    HW238649   3.647   0.720   5.028  0.1618 -0.6745  0.1804
 9005SOL     OW38650   4.219   0.632  10.719  0.0547 -0.1892  0.8600
 9005SOL    HW138651   4.211   0.669  10.631  0.3778  0.8900  1.2788
 9005SOL    HW238652   4.171   0.702  10.763  2.1610  1.7574  0.0601
 9006SOL     OW38653   1.197   2.324   3.625  0.4352 -0.1638 -0.3137
 9006SOL    HW138654   1.241   2.301   3.543  0.3622 -1.3276 -0.0381
 9006SOL    HW238655   1.235   2.410   3.640  0.8119 -0.5844  1.2044
 9007SOL     OW38656   2.879   2.256  13.859 -0.0283  0.2833  0.4292
 9007SOL    HW138657   2.886   2.351  13.871  0.7388  0.5006 -1.7212
 9007SOL    HW238658   2.869   2.234  13.952  1.9029  0.1878  0.6167
 9008SOL     OW38659   3.571   3.103   3.592 -0.1051  0.0330  0.9116
 9008SOL    HW138660   3.547   3.011   3.585 -1.7853  0.6082 -0.8077
 9008SOL    HW238661   3.661   3.093   3.625 -0.1287 -1.4599  0.4999
 9009SOL     OW38662   3.839   0.795  11.623  0.1735  0.0864 -0.0758
 9009SOL    HW138663   3.790   0.875  11.641  0.3711 -0.3514  2.3896
 9009SOL    HW238664   3.819   0.739  11.697  0.2566 -1.0143 -0.8887
 9010SOL     OW38665   2.318   3.090   7.136  0.0785  0.4122  0.2127
 9010SOL    HW138666   2.254   3.051   7.196 -1.1031  3.2845  0.8386
 9010SOL    HW238667   2.401   3.076   7.182 -0.0518  1.5873  0.8161
 9011SOL     OW38668   3.982   2.377   3.260 -0.2647 -0.0490 -0.3030
 9011SOL    HW138669   4.069   2.415   3.277 -1.8689  3.9272 -0.8125
 9011SOL    HW238670   3.985   2.293   3.306 -2.7708  0.3931  0.6438
 9012SOL     OW38671   0.649   2.309   8.552  0.2154  0.0307  0.0787
 9012SOL    HW138672   0.697   2.226   8.561  3.0028  1.8653  2.2348
 9012SOL    HW238673   0.590   2.316   8.626  1.1286 -1.1150  0.9267
 9013SOL     OW38674   2.651   3.253   7.809  0.4584  0.1789 -0.4702
 9013SOL    HW138675   2.633   3.271   7.901  1.1004 -0.5317 -0.2115
 9013SOL    HW238676   2.727   3.310   7.807  0.6871 -0.1360 -0.6684
 9014SOL     OW38677   0.279   0.957   6.827 -0.0394 -0.0459  0.4758
 9014SOL    HW138678   0.350   1.004   6.870  0.3803  1.7374 -2.1778
 9014SOL    HW238679   0.315   0.952   6.738  0.1620  1.3716  0.4827
 9015SOL     OW38680   3.851   2.668  16.036 -0.5789  0.5227 -0.1820
 9015SOL    HW138681   3.882   2.750  16.074  2.2680 -0.9387  0.6517
 9015SOL    HW238682   3.932   2.628  16.004 -0.2827  0.3587  0.7817
 9016SOL     OW38683   1.833   1.611   9.677 -0.4502 -0.0216  0.0071
 9016SOL    HW138684   1.884   1.535   9.649  0.3294  0.3419  0.4414
 9016SOL    HW238685   1.753   1.595   9.628 -0.4904 -0.3283  0.1704
 9017SOL     OW38686   0.484   2.865   8.153 -0.0812  0.1770 -0.2240
 9017SOL    HW138687   0.441   2.810   8.088  0.1511  1.1880 -1.2290
 9017SOL    HW238688   0.523   2.927   8.092  0.7471  0.5615  0.6927
 9018SOL     OW38689   4.021   1.854   6.763  0.1172  0.2631  0.0732
 9018SOL    HW138690   4.080   1.783   6.788 -1.5493 -1.1638 -0.0286
 9018SOL    HW238691   4.048   1.923   6.823 -1.6104 -1.5380  2.9184
 9019SOL     OW38692   3.062   2.093   1.642  0.0744  0.3611  0.0565
 9019SOL    HW138693   3.158   2.093   1.638  0.0589 -0.4710 -0.1712
 9019SOL    HW238694   3.050   2.179   1.600  1.2323 -0.1222 -1.2784
 9020SOL     OW38695   0.386   2.484   6.167  0.0834  0.2397 -0.2832
 9020SOL    HW138696   0.409   2.558   6.223 -2.5191 -0.4777  1.7385
 9020SOL    HW238697   0.294   2.509   6.161  0.3637  0.9863 -1.5156
 9021SOL     OW38698   3.046   2.726   0.740  0.2198  0.6086 -0.2213
 9021SOL    HW138699   3.137   2.754   0.753  0.1993  0.8141 -0.5336
 9021SOL    HW238700   3.025   2.747   0.649 -2.8639 -1.4978  0.0120
 9022SOL     OW38701   0.802   3.563  11.715 -0.1209 -0.0241 -0.0940
 9022SOL    HW138702   0.763   3.495  11.661 -1.2996 -0.6370  1.5374
 9022SOL    HW238703   0.732   3.585  11.776  0.1025  0.6623 -0.0851
 9023SOL     OW38704   2.466   4.038   6.583  0.3847 -0.0571 -0.2463
 9023SOL    HW138705   2.506   4.113   6.626  0.8516  0.2163 -1.1655
 9023SOL    HW238706   2.387   4.073   6.541  1.6625 -0.1884 -2.7707
 9024SOL     OW38707   2.160   1.719  11.759  0.1287 -0.0046  0.1130
 9024SOL    HW138708   2.123   1.768  11.832 -0.2380  0.0941 -0.1400
 9024SOL    HW238709   2.155   1.632  11.799  1.6966 -0.3427 -0.4357
 9025SOL     OW38710   4.240   0.087   8.898 -0.4225 -0.3311  0.3533
 9025SOL    HW138711   4.151   0.059   8.921 -0.9973  1.9966  0.9845
 9025SOL    HW238712   4.226   0.163   8.842 -1.0804 -2.3915 -2.2664
 9026SOL     OW38713   2.543   1.260   9.424 -0.7429 -0.0019  0.5596
 9026SOL    HW138714   2.517   1.352   9.436 -1.6023 -0.6476  3.5935
 9026SOL    HW238715   2.610   1.284   9.361 -1.6950  1.2254  0.0112
 9027SOL     OW38716   2.798   2.632  15.019 -0.2131  0.1576  0.4025
 9027SOL    HW138717   2.774   2.667  15.104  1.0120  1.3179  0.2684
 9027SOL    HW238718   2.725   2.571  15.005 -0.3179  0.2969  0.3421
 9028SOL     OW38719   1.621   1.128   5.222 -0.2878 -0.3584  0.0093
 9028SOL    HW138720   1.712   1.109   5.200 -0.6332 -1.7675 -0.1873
 9028SOL    HW238721   1.583   1.112   5.135  0.8515 -1.4898 -0.2746
 9029SOL     OW38722   1.487   2.750   5.485  0.0111 -0.5028 -0.0093
 9029SOL    HW138723   1.437   2.716   5.410  1.6186 -0.7457 -0.9735
 9029SOL    HW238724   1.492   2.845   5.470  1.4372  0.0046  3.7151
 9030SOL     OW38725   0.598   3.214   0.066  0.5862  0.5977  0.2367
 9030SOL    HW138726   0.522   3.272   0.067 -0.0097 -0.1728 -0.4617
 9030SOL    HW238727   0.568   3.144   0.008 -0.5036  1.4649 -0.2452
 9031SOL     OW38728   1.460   3.473   0.499  0.5147 -0.1546 -0.1062
 9031SOL    HW138729   1.556   3.477   0.508  0.5777 -1.6753 -0.0898
 9031SOL    HW238730   1.461   3.424   0.417 -0.0785  2.3098 -1.5717
 9032SOL     OW38731   1.691   2.876  15.287 -0.1258  0.0380  0.3048
 9032SOL    HW138732   1.772   2.907  15.329  0.5447 -0.3480 -0.6895
 9032SOL    HW238733   1.691   2.911  15.198 -2.7290  0.8689  0.6440
 9033SOL     OW38734   4.427   0.975   4.658 -0.0300  0.0839 -0.1734
 9033SOL    HW138735   4.487   0.903   4.675  0.0119  0.5617  1.7649
 9033SOL    HW238736   4.493   1.042   4.637  1.4719 -1.2481  0.3483
 9034SOL     OW38737   3.203   2.693   6.079  0.2148 -0.2829  0.8568
 9034SOL    HW138738   3.149   2.771   6.083 -1.0681 -1.2245  1.9499
 9034SOL    HW238739   3.196   2.678   5.985  0.1363  0.8443  0.6905
 9035SOL     OW38740   4.286   2.544  11.648 -0.6834  0.3824 -0.1030
 9035SOL    HW138741   4.207   2.491  11.657  0.3073 -1.1195 -0.0250
 9035SOL    HW238742   4.312   2.540  11.740  0.4024 -1.0343 -0.4519
 9036SOL     OW38743   0.626   2.751   3.569  0.4230 -0.2671  0.3289
 9036SOL    HW138744   0.579   2.691   3.511  0.7410 -1.0383  0.8747
 9036SOL    HW238745   0.717   2.723   3.562  1.1191  1.9931  0.3275
 9037SOL     OW38746   2.500   0.741   8.552  0.4361  1.0803 -0.3674
 9037SOL    HW138747   2.529   0.769   8.466 -2.1715 -0.6841 -1.8231
 9037SOL    HW238748   2.585   0.713   8.587  1.3520  1.7535 -2.0787
 9038SOL     OW38749   2.038   0.554   8.825 -0.5282 -0.3628  0.2708
 9038SOL    HW138750   2.050   0.580   8.917 -1.0934  0.2763  0.1613
 9038SOL    HW238751   2.052   0.459   8.823 -0.5518 -0.3521 -0.2841
 9039SOL     OW38752   0.889   3.853   6.572 -0.3365 -0.1448 -0.2967
 9039SOL    HW138753   0.924   3.930   6.615 -1.1186 -0.3596  0.7191
 9039SOL    HW238754   0.958   3.820   6.514  0.6756  1.0160  0.2519
 9040SOL     OW38755   2.560   0.023   3.062 -0.7623  0.3324 -0.4415
 9040SOL    HW138756   2.507   4.705   3.119  0.2828  0.5293  0.7242
 9040SOL    HW238757   2.637   0.022   3.119  0.5450 -2.5114 -2.2311
 9041SOL     OW38758   4.125   3.743   3.506  0.2742 -0.3242 -0.6832
 9041SOL    HW138759   4.194   3.677   3.500  0.4160 -0.2257 -0.1866
 9041SOL    HW238760   4.085   3.734   3.420 -0.9646  0.3815 -0.1874
 9042SOL     OW38761   2.602   3.173   8.365 -0.0175 -0.7104 -0.0092
 9042SOL    HW138762   2.644   3.245   8.414  0.3096 -2.0290  1.6648
 9042SOL    HW238763   2.541   3.137   8.429 -0.6211  0.6040  0.1676
 9043SOL     OW38764   3.127   4.274   1.072 -0.1642  0.5037 -0.1752
 9043SOL    HW138765   3.088   4.322   1.145  0.4667 -0.8354  1.0589
 9043SOL    HW238766   3.176   4.206   1.118  0.4550  0.8769 -0.2716
 9044SOL     OW38767   4.647   1.542   2.294  0.6051 -0.0263 -0.3562
 9044SOL    HW138768   4.573   1.504   2.342  0.0389  0.3069 -0.9786
 9044SOL    HW238769   4.689   1.577   2.373  0.9450 -0.6792 -0.2484
 9045SOL     OW38770   0.667   2.028   2.800  0.4518 -0.2078  0.1274
 9045SOL    HW138771   0.579   2.029   2.762 -0.7714 -0.5391  2.9466
 9045SOL    HW238772   0.667   2.116   2.837  2.7791  0.7185 -2.1394
 9046SOL     OW38773   2.035   0.563   4.396 -0.7330 -0.0974  0.4849
 9046SOL    HW138774   1.976   0.527   4.463 -2.2624 -1.9940 -1.8831
 9046SOL    HW238775   2.023   0.656   4.413  0.7494  0.2723 -0.5227
 9047SOL     OW38776   3.585   3.793  13.390  0.0760  0.1157  0.0836
 9047SOL    HW138777   3.563   3.881  13.360 -2.4413 -0.1788  1.0510
 9047SOL    HW238778   3.627   3.740  13.322 -0.0414  1.1953 -0.8096
 9048SOL     OW38779   4.148   1.006   1.424  0.3536 -0.0466  0.9777
 9048SOL    HW138780   4.148   0.911   1.425 -0.2987 -0.0714 -2.1193
 9048SOL    HW238781   4.242   1.022   1.434  0.2163 -0.2812  2.5690
 9049SOL     OW38782   0.016   1.560   4.746 -0.2305  0.0730  0.2970
 9049SOL    HW138783   0.059   1.487   4.791 -1.2398 -0.0143  1.1084
 9049SOL    HW238784   4.690   1.580   4.814  0.4104 -0.0042  0.9275
 9050SOL     OW38785   4.069   0.078  11.913 -0.0061 -0.5674 -0.6773
 9050SOL    HW138786   3.986   0.078  11.867 -0.2688  0.1552 -0.2010
 9050SOL    HW238787   4.039   0.056  12.001 -0.2055  2.2258 -0.0270
 9051SOL     OW38788   0.052   3.500   3.107  0.0126  0.2564  0.0156
 9051SOL    HW138789   4.737   3.456   3.173  0.2992  0.3562  0.3111
 9051SOL    HW238790   4.729   3.572   3.086  0.0340 -0.3106 -1.9705
 9052SOL     OW38791   3.264   3.914   6.764 -0.2030  0.2789 -0.0677
 9052SOL    HW138792   3.288   3.875   6.848  0.5828  0.6213 -0.1396
 9052SOL    HW238793   3.171   3.929   6.782 -0.5312 -0.8822 -0.7941
 9053SOL     OW38794   3.631   3.842  14.356  0.1506  0.7235  0.1710
 9053SOL    HW138795   3.684   3.825  14.434  1.0505 -0.6243 -0.7586
 9053SOL    HW238796   3.626   3.938  14.361 -0.3941  0.6240  1.6243
 9054SOL     OW38797   3.111   1.416   4.448 -0.1060  0.1960  0.3909
 9054SOL    HW138798   3.184   1.393   4.505  0.2618 -0.3108 -0.2762
 9054SOL    HW238799   3.041   1.422   4.512 -0.4148 -3.2338  0.3448
 9055SOL     OW38800   2.114   2.658   2.232  0.4430  0.7941  0.2959
 9055SOL    HW138801   2.117   2.565   2.257  1.1902  0.6720 -0.2413
 9055SOL    HW238802   2.031   2.655   2.185  1.2440 -0.0742 -1.0797
 9056SOL     OW38803   0.040   2.539   2.451  0.3632 -0.4530 -0.0980
 9056SOL    HW138804   0.099   2.474   2.489 -0.7420 -1.5122 -0.1722
 9056SOL    HW238805   4.690   2.505   2.469  0.6708 -0.4573  1.4120
 9057SOL     OW38806   4.473   4.734  12.323  0.8850 -0.6352  0.4734
 9057SOL    HW138807   4.398   4.726  12.265 -1.0261  0.0604  2.8427
 9057SOL    HW238808   4.492   0.090  12.315 -0.1378 -0.5246 -0.6549
 9058SOL     OW38809   4.136   2.074  14.716  0.0738  0.5545  0.4400
 9058SOL    HW138810   4.226   2.047  14.698  0.1426  1.6448 -0.8931
 9058SOL    HW238811   4.146   2.169  14.718  0.2573  0.6038 -3.2671
 9059SOL     OW38812   4.241   2.718   1.850  0.6027 -0.0279 -0.2670
 9059SOL    HW138813   4.324   2.671   1.842  1.3889  1.6362 -1.6829
 9059SOL    HW238814   4.271   2.761   1.930  0.4421 -0.0365 -0.2029
 9060SOL     OW38815   2.160   3.734   3.379 -0.2419  0.1916  0.0637
 9060SOL    HW138816   2.146   3.794   3.453 -1.1152  0.6521 -0.4805
 9060SOL    HW238817   2.074   3.694   3.366 -0.7952  1.8175 -1.2105
 9061SOL     OW38818   3.257   3.685  10.698 -0.1820  0.1802  0.0494
 9061SOL    HW138819   3.175   3.720  10.734  0.0154  0.9904 -0.2754
 9061SOL    HW238820   3.308   3.667  10.777  0.4482  0.9154 -0.1837
 9062SOL     OW38821   4.382   1.292   8.363 -0.1370  0.6902 -0.5262
 9062SOL    HW138822   4.315   1.323   8.302 -2.0706 -0.8238  0.8432
 9062SOL    HW238823   4.337   1.218   8.403  2.2526 -0.2579  0.4018
 9063SOL     OW38824   0.217   4.615   7.410 -0.3820 -0.4116 -0.1668
 9063SOL    HW138825   0.144   4.552   7.404 -1.7314  1.2329 -0.9566
 9063SOL    HW238826   0.224   4.638   7.502 -0.1580 -0.4681 -0.1711
 9064SOL     OW38827   0.302   1.780   5.660  0.1401  0.0918  0.0846
 9064SOL    HW138828   0.329   1.840   5.730 -0.0970  2.7706 -2.1087
 9064SOL    HW238829   0.287   1.696   5.704  3.0910 -0.9660 -0.9301
 9065SOL     OW38830   1.955   0.502  17.303  0.4857  0.1244  0.1865
 9065SOL    HW138831   2.016   0.449  17.252  0.7647 -1.3634  2.0570
 9065SOL    HW238832   1.881   0.441  17.309  0.4249  0.2201  0.4267
 9066SOL     OW38833   4.299   4.060   6.739 -0.0941 -0.3345  0.2242
 9066SOL    HW138834   4.277   4.081   6.829 -3.2846  0.7906 -0.8518
 9066SOL    HW238835   4.255   3.975   6.733 -0.0542 -0.2688 -1.1517
 9067SOL     OW38836   3.653   1.517   8.373 -1.0115  0.1163 -0.0347
 9067SOL    HW138837   3.606   1.572   8.436 -1.1858 -0.1570  0.0717
 9067SOL    HW238838   3.599   1.535   8.296  0.9671  0.5120 -1.3304
 9068SOL     OW38839   4.315   2.458   5.199 -0.1422  0.2818 -0.0961
 9068SOL    HW138840   4.290   2.384   5.144  2.8471 -0.2870 -0.6712
 9068SOL    HW238841   4.394   2.478   5.150 -0.2703 -0.3127 -0.5426
 9069SOL     OW38842   4.233   1.505  14.854  0.1558 -0.2992 -0.0573
 9069SOL    HW138843   4.256   1.486  14.945  0.3827 -2.4748 -0.5712
 9069SOL    HW238844   4.157   1.450  14.837 -0.4213  0.9550 -1.5152
 9070SOL     OW38845   1.151   1.134   1.108  0.1984  0.2266  0.3170
 9070SOL    HW138846   1.169   1.170   1.194 -0.3888 -0.7756  0.8662
 9070SOL    HW238847   1.167   1.039   1.113  2.5358  0.6444  0.4312
 9071SOL     OW38848   1.492   1.506  17.521  0.2021 -0.3067 -0.5049
 9071SOL    HW138849   1.406   1.465  17.514 -0.7943  1.6753  0.0800
 9071SOL    HW238850   1.487   1.593  17.480  0.4908  0.1474  0.4198
 9072SOL     OW38851   3.313   4.644   2.202 -0.0135 -0.9332  0.5133
 9072SOL    HW138852   3.290   4.556   2.230  1.6934 -1.3226  0.6667
 9072SOL    HW238853   3.224   4.679   2.202  0.3129 -0.0868 -1.1731
 9073SOL     OW38854   1.492   3.609  10.921 -0.6701  0.3645 -0.1945
 9073SOL    HW138855   1.528   3.646  11.002 -1.1760  0.2735  0.0759
 9073SOL    HW238856   1.573   3.576  10.883  0.7973  2.0538  1.5011
 9074SOL     OW38857   1.389   3.528  12.211  0.3162 -0.1781 -0.0988
 9074SOL    HW138858   1.360   3.574  12.132 -2.5765  1.0622  1.6701
 9074SOL    HW238859   1.363   3.584  12.284 -0.4430  0.1889 -0.6520
 9075SOL     OW38860   2.503   0.587   4.580 -0.2805  0.5886  0.2564
 9075SOL    HW138861   2.422   0.555   4.539 -0.6263  0.7248  0.8360
 9075SOL    HW238862   2.494   0.679   4.553  3.5527  0.7679 -0.4125
 9076SOL     OW38863   1.765   3.771   3.543  0.4585 -0.0253 -0.2887
 9076SOL    HW138864   1.754   3.864   3.525 -0.6666 -0.5592 -2.3980
 9076SOL    HW238865   1.815   3.780   3.623 -2.0268 -2.8245  1.5979
 9077SOL     OW38866   2.228   4.044   5.206  0.9666 -0.3872  0.3651
 9077SOL    HW138867   2.211   4.098   5.128 -1.4677  0.7536  1.6743
 9077SOL    HW238868   2.286   3.974   5.176 -1.4034 -2.0941 -0.1554
 9078SOL     OW38869   0.326   1.479   6.403  0.4284 -0.0889 -0.1668
 9078SOL    HW138870   0.414   1.511   6.423 -0.4246  1.1298  1.5746
 9078SOL    HW238871   0.284   1.509   6.484  2.3383  0.0791  0.7559
 9079SOL     OW38872   3.190   3.461  10.928 -0.6333  0.0310 -0.3219
 9079SOL    HW138873   3.249   3.505  10.989 -0.4107  0.2294 -0.6765
 9079SOL    HW238874   3.117   3.443  10.987 -1.4306 -2.4045 -2.0477
 9080SOL     OW38875   0.602   1.560   8.227  0.0516  0.7249 -0.0312
 9080SOL    HW138876   0.535   1.617   8.189  0.3719  0.8871 -0.3454
 9080SOL    HW238877   0.538   1.493   8.250  0.2579  1.5788  3.0637
 9081SOL     OW38878   1.085   4.626  12.131 -0.3582 -0.2015 -0.0680
 9081SOL    HW138879   0.991   4.646  12.127 -0.0816  1.4156  2.0565
 9081SOL    HW238880   1.089   4.530  12.134  0.6875 -0.1010  1.3863
 9082SOL     OW38881   3.766   3.214  17.403  0.1210 -0.2349 -0.1417
 9082SOL    HW138882   3.781   3.183  17.493  2.1169  0.2139 -0.3193
 9082SOL    HW238883   3.842   3.169  17.367 -0.2896  0.2332 -1.5651
 9083SOL     OW38884   0.347   4.515   4.408  0.4241  0.0033 -0.3698
 9083SOL    HW138885   0.436   4.508   4.374 -0.2497 -1.3793 -1.8292
 9083SOL    HW238886   0.359   4.497   4.502 -0.9212 -0.6063 -0.3160
 9084SOL     OW38887   1.141   3.790   2.047 -0.3714  0.0268  0.4438
 9084SOL    HW138888   1.191   3.870   2.029  0.2109  0.1481  2.5360
 9084SOL    HW238889   1.192   3.728   1.995 -0.6981  0.0600  0.0874
 9085SOL     OW38890   2.260   3.731   9.359  0.1525  0.4370  0.6129
 9085SOL    HW138891   2.302   3.797   9.304 -1.3304  0.9559  0.0982
 9085SOL    HW238892   2.290   3.652   9.313  0.5620  0.1750  1.3265
 9086SOL     OW38893   0.128   0.561   4.180 -0.0205 -0.1457 -0.3850
 9086SOL    HW138894   0.105   0.579   4.089 -1.2711  0.5412  0.0595
 9086SOL    HW238895   0.223   0.567   4.179 -0.0177 -0.9933 -3.0441
 9087SOL     OW38896   3.389   1.807  15.954 -0.4238  0.3848  0.1950
 9087SOL    HW138897   3.390   1.870  16.026  0.3992  0.1341  0.3992
 9087SOL    HW238898   3.294   1.805  15.944 -0.2627  1.0521 -1.4859
 9088SOL     OW38899   1.943   0.266   1.913 -0.4846  0.2509  0.4431
 9088SOL    HW138900   2.005   0.282   1.984 -0.8754  0.0620  0.8195
 9088SOL    HW238901   1.886   0.340   1.934 -0.1631 -0.5754  4.1119
 9089SOL     OW38902   4.068   0.370   1.268  0.3706 -0.2014 -0.1958
 9089SOL    HW138903   4.002   0.307   1.298  0.8580  0.2357  1.8221
 9089SOL    HW238904   4.143   0.344   1.321  1.5140 -0.0654 -1.7552
 9090SOL     OW38905   1.403   4.028  12.266 -0.0745  0.5519  0.4721
 9090SOL    HW138906   1.495   4.019  12.293 -0.1230 -0.1911  0.3883
 9090SOL    HW238907   1.355   3.986  12.337  1.6555  0.2984  1.4904
 9091SOL     OW38908   1.793   1.322  14.574 -0.2881 -0.3634  0.8622
 9091SOL    HW138909   1.705   1.346  14.604 -1.1686 -0.9479 -1.2989
 9091SOL    HW238910   1.824   1.397  14.522  1.3254  0.1213  2.5061
 9092SOL     OW38911   0.761   0.123   5.594 -0.0276 -0.4406  0.1951
 9092SOL    HW138912   0.735   0.092   5.681  2.8063  0.4275  1.3769
 9092SOL    HW238913   0.709   0.203   5.586  0.3224 -0.1085  1.1562
 9093SOL     OW38914   4.346   4.006   6.339 -0.9143  0.1188  0.3496
 9093SOL    HW138915   4.277   3.950   6.373  2.2520 -3.2202  1.2322
 9093SOL    HW238916   4.387   3.951   6.272  1.0805 -0.1346  1.7657
 9094SOL     OW38917   2.291   0.400   3.124  0.0274 -0.1042 -0.6074
 9094SOL    HW138918   2.309   0.315   3.085 -0.1063  0.0884 -1.0880
 9094SOL    HW238919   2.300   0.459   3.050 -0.0456  0.8626  0.1452
 9095SOL     OW38920   1.886   0.720   6.972  0.0720 -0.1231 -0.0548
 9095SOL    HW138921   1.975   0.694   6.993  0.3024 -0.0960 -0.9720
 9095SOL    HW238922   1.848   0.740   7.057 -1.7920  2.0823 -1.3927
 9096SOL     OW38923   4.570   1.357   8.670  0.2321  0.1339  0.2788
 9096SOL    HW138924   4.568   1.336   8.577 -1.1198  3.2166 -0.4152
 9096SOL    HW238925   4.637   1.295   8.697  2.2372  1.8071 -0.8544
 9097SOL     OW38926   2.748   3.407   9.738  0.2149  0.0332 -0.0983
 9097SOL    HW138927   2.750   3.503   9.739 -2.6006  0.0596  0.6763
 9097SOL    HW238928   2.697   3.381   9.814  0.7113 -3.1062 -0.8302
 9098SOL     OW38929   1.475   0.517  11.235 -0.1688  0.4492 -0.3285
 9098SOL    HW138930   1.456   0.427  11.209 -2.4425  0.4809  1.2327
 9098SOL    HW238931   1.388   0.544  11.263  0.8659  2.2343  1.2249
 9099SOL     OW38932   0.597   2.037   5.604  0.0528  0.1720 -0.1648
 9099SOL    HW138933   0.582   2.096   5.678 -3.1605  0.0026 -0.6781
 9099SOL    HW238934   0.537   2.077   5.540 -0.8293 -1.0972 -0.1396
 9100SOL     OW38935   2.825   4.426  12.365 -0.7215 -0.7246  0.5668
 9100SOL    HW138936   2.898   4.368  12.387 -1.5856 -1.6747  0.9902
 9100SOL    HW238937   2.886   4.481  12.318 -0.6439 -0.0954  1.4122
 9101SOL     OW38938   2.313   4.604  10.618  0.1770 -0.3064 -0.1452
 9101SOL    HW138939   2.221   4.629  10.619  0.1794 -0.2688 -0.7874
 9101SOL    HW238940   2.347   4.693  10.631  0.3427 -0.4340  0.2986
 9102SOL     OW38941   2.289   0.235  13.468  0.3870 -0.3105 -0.2400
 9102SOL    HW138942   2.322   0.210  13.382 -1.9674 -1.3656 -0.8271
 9102SOL    HW238943   2.218   0.297  13.451  0.4335 -0.0284  0.5926
 9103SOL     OW38944   2.657   1.554  10.980 -0.7890  0.1509  0.3458
 9103SOL    HW138945   2.602   1.507  11.043  0.4855 -2.0906 -0.1927
 9103SOL    HW238946   2.690   1.619  11.042  0.1451 -0.1527  0.1655
 9104SOL     OW38947   2.832   2.293   6.480  0.2178 -0.0294 -0.1851
 9104SOL    HW138948   2.862   2.203   6.489 -0.0929  0.0632  1.7621
 9104SOL    HW238949   2.750   2.297   6.530  0.4866 -0.0998  0.2568
 9105SOL     OW38950   2.806   1.776  16.607 -0.3188  0.0362  0.6988
 9105SOL    HW138951   2.843   1.846  16.662 -0.0248 -0.1326  0.7125
 9105SOL    HW238952   2.780   1.835  16.536  1.1786 -0.5919 -0.3655
 9106SOL     OW38953   3.909   2.245   2.800 -0.6395  0.2573 -0.0370
 9106SOL    HW138954   3.987   2.194   2.823  0.0268  0.9258 -0.8484
 9106SOL    HW238955   3.856   2.166   2.809  1.1571 -1.2313 -2.6417
 9107SOL     OW38956   4.024   3.386   9.280  0.5936 -0.4150 -0.5254
 9107SOL    HW138957   3.966   3.340   9.219 -1.4852  0.3490  0.8725
 9107SOL    HW238958   4.002   3.359   9.369 -0.2508 -1.9667 -1.2057
 9108SOL     OW38959   3.369   0.822   8.089  0.1706  0.1821 -0.3989
 9108SOL    HW138960   3.443   0.870   8.127  0.7147 -0.8706 -0.1133
 9108SOL    HW238961   3.299   0.877   8.124 -0.7721 -0.3774 -1.3986
 9109SOL     OW38962   1.850   2.732  11.544  0.0623 -0.0257 -0.0111
 9109SOL    HW138963   1.920   2.797  11.554 -0.7318  0.5245  2.1216
 9109SOL    HW238964   1.830   2.697  11.632 -0.9593  2.0473  0.5830
 9110SOL     OW38965   3.613   1.574   0.121 -0.6065 -0.0469  0.1506
 9110SOL    HW138966   3.588   1.484   0.101 -1.3544  0.0609  0.6152
 9110SOL    HW238967   3.533   1.624   0.107 -1.2644 -0.9052  0.8977
 9111SOL     OW38968   1.945   0.755  11.132 -0.0069 -0.0323  0.2528
 9111SOL    HW138969   1.859   0.729  11.163 -1.2892  0.7369 -2.6040
 9111SOL    HW238970   1.958   0.681  11.073 -1.1067 -1.2546  1.5713
 9112SOL     OW38971   0.903   4.222   3.828  0.3514  0.7911  0.6008
 9112SOL    HW138972   0.827   4.222   3.886  1.1627  1.3911  1.6569
 9112SOL    HW238973   0.970   4.237   3.894  2.4587 -0.8038 -1.1334
 9113SOL     OW38974   3.784   1.945  10.841  0.1702  0.3745  0.1667
 9113SOL    HW138975   3.833   1.873  10.880 -0.4475 -0.2367 -0.1841
 9113SOL    HW238976   3.767   1.998  10.919  0.7632 -0.0076  0.5574
 9114SOL     OW38977   2.244   3.288   6.406  0.1308 -0.1645 -0.0264
 9114SOL    HW138978   2.330   3.281   6.363  0.1826 -0.6710  0.1562
 9114SOL    HW238979   2.201   3.363   6.365 -0.7130 -0.9188 -0.5266
 9115SOL     OW38980   0.808   3.860   1.545  0.1390 -0.2267  0.5551
 9115SOL    HW138981   0.867   3.785   1.544  3.0459  2.0441  1.3210
 9115SOL    HW238982   0.775   3.854   1.455  0.9737 -2.2301  0.3850
 9116SOL     OW38983   0.285   0.034   8.913 -0.2919 -0.4883 -0.6307
 9116SOL    HW138984   0.268   0.101   8.979 -0.2904 -0.5696 -0.5484
 9116SOL    HW238985   0.355   0.063   8.855  1.2377 -0.9234  1.0166
 9117SOL     OW38986   1.309   2.124  16.200  0.3166  0.7286 -0.3647
 9117SOL    HW138987   1.368   2.092  16.131  1.5829  4.7937 -1.1431
 9117SOL    HW238988   1.226   2.131  16.153 -0.1357 -0.2618  0.2805
 9118SOL     OW38989   4.083   0.804   7.217 -0.2594  0.5604  0.1455
 9118SOL    HW138990   4.133   0.734   7.174 -0.3788 -1.0981  2.7112
 9118SOL    HW238991   4.149   0.873   7.213  0.3445 -0.0460 -0.4044
 9119SOL     OW38992   3.039   3.777  10.447  0.3233  0.4335 -0.1236
 9119SOL    HW138993   3.012   3.846  10.507  1.1604  0.4578  0.2161
 9119SOL    HW238994   3.035   3.701  10.505 -1.4939  0.0363 -0.7496
 9120SOL     OW38995   2.268   1.274   8.777  0.2751 -0.4290 -0.0795
 9120SOL    HW138996   2.341   1.334   8.787  0.9508 -1.1993 -0.4144
 9120SOL    HW238997   2.280   1.233   8.692 -0.3945 -0.7071 -0.0479
 9121SOL     OW38998   1.244   2.906  11.050 -0.3865  0.1045 -0.9179
 9121SOL    HW138999   1.302   2.830  11.051 -0.0214  0.4266  3.0163
 9121SOL    HW239000   1.298   2.970  11.005 -0.6625 -0.2031 -1.7003
 9122SOL     OW39001   1.137   3.325   3.292 -0.5532 -0.3424 -0.5986
 9122SOL    HW139002   1.088   3.351   3.370 -0.7175  0.2608 -0.9056
 9122SOL    HW239003   1.220   3.294   3.329  0.4370 -0.4716 -2.8919
 9123SOL     OW39004   2.809   0.309   8.922  0.2443  0.4124 -0.0272
 9123SOL    HW139005   2.771   0.224   8.901  2.3150 -0.0052 -2.0728
 9123SOL    HW239006   2.736   0.370   8.918 -1.2836 -1.3999  0.0872
 9124SOL     OW39007   1.450   4.309   6.359 -0.5439 -0.0122 -0.3084
 9124SOL    HW139008   1.363   4.303   6.322 -1.5615 -1.6098  2.3229
 9124SOL    HW239009   1.506   4.276   6.290 -1.1728 -3.1401  0.6938
 9125SOL     OW39010   2.152   1.172   1.857 -0.1463 -0.0276  0.0891
 9125SOL    HW139011   2.216   1.231   1.817  0.8363 -1.2283 -0.0908
 9125SOL    HW239012   2.191   1.141   1.939  4.1925  0.6271 -1.7535
 9126SOL     OW39013   1.548   1.899  10.838  0.0411  0.2898 -0.3876
 9126SOL    HW139014   1.612   1.951  10.789  1.5737 -0.6825  0.5861
 9126SOL    HW239015   1.546   1.950  10.920  1.6092 -0.5140  0.1362
 9127SOL     OW39016   1.089   1.817   7.798  0.3838  0.1123  0.8723
 9127SOL    HW139017   1.169   1.764   7.808  0.3738  0.2335  1.6034
 9127SOL    HW239018   1.044   1.752   7.745  3.8819 -1.4369 -0.2397
 9128SOL     OW39019   1.246   0.926   7.427 -0.2333 -0.2839  0.1943
 9128SOL    HW139020   1.173   0.968   7.472 -1.9231 -1.8702 -1.0828
 9128SOL    HW239021   1.244   0.836   7.458 -2.8588 -1.0165 -2.0727
 9129SOL     OW39022   0.531   1.378   8.592 -0.5200 -0.3825 -0.4688
 9129SOL    HW139023   0.529   1.296   8.641 -0.1441  0.9580  1.8227
 9129SOL    HW239024   0.519   1.442   8.662 -1.3114 -0.1203 -0.8439
 9130SOL     OW39025   2.372   2.931   8.070 -0.3761  0.1394  0.2960
 9130SOL    HW139026   2.351   2.838   8.070  1.4169 -0.2673  1.0701
 9130SOL    HW239027   2.433   2.941   7.997 -0.4941 -1.8981 -0.0724
 9131SOL     OW39028   4.659   2.011   7.014  0.6142 -0.3824 -0.1694
 9131SOL    HW139029   4.580   1.982   6.970 -1.0108  0.3918  2.2244
 9131SOL    HW239030   4.655   2.104   6.992  1.0411 -0.0869  1.0041
 9132SOL     OW39031   2.309   1.482   7.129 -0.5268  0.4684 -0.0253
 9132SOL    HW139032   2.259   1.557   7.160  0.3723  0.4856  1.3401
 9132SOL    HW239033   2.277   1.423   7.196  1.7578  1.2401  1.7256
 9133SOL     OW39034   3.232   1.536   7.553 -0.0607 -0.5100 -0.0562
 9133SOL    HW139035   3.219   1.630   7.567 -1.2383 -0.7599  0.5571
 9133SOL    HW239036   3.142   1.507   7.545 -0.1140 -0.0897 -0.8797
 9134SOL     OW39037   0.506   2.262   7.326  0.3542 -0.0561  0.1514
 9134SOL    HW139038   0.452   2.183   7.324 -1.3283  1.0877  0.7351
 9134SOL    HW239039   0.441   2.331   7.322  0.1031 -0.2481  0.9179
 9135SOL     OW39040   0.867   0.304  15.401  0.4322 -0.7880 -0.2631
 9135SOL    HW139041   0.928   0.377  15.397  1.3309 -1.4982  0.4488
 9135SOL    HW239042   0.807   0.325  15.472 -1.0986 -1.0172 -1.4744
 9136SOL     OW39043   2.684   0.273  16.175 -0.4798 -0.1449  0.2909
 9136SOL    HW139044   2.644   0.190  16.199  0.7709 -1.1823 -1.1807
 9136SOL    HW239045   2.703   0.316  16.258  1.5882 -0.9251  0.2168
 9137SOL     OW39046   2.119   1.426   4.782  0.0234 -0.6845 -0.0885
 9137SOL    HW139047   2.054   1.474   4.835  0.4173 -0.8096  0.5127
 9137SOL    HW239048   2.118   1.360   4.852 -1.0266 -1.2112 -0.5928
 9138SOL     OW39049   1.582   1.504   7.047 -0.6392 -0.0546  0.5194
 9138SOL    HW139050   1.492   1.507   7.080 -1.2756 -1.1769 -1.1512
 9138SOL    HW239051   1.581   1.567   6.975  0.9824 -0.2873  0.3030
 9139SOL     OW39052   4.247   1.212   2.040 -0.1108 -0.1959  0.4322
 9139SOL    HW139053   4.286   1.245   2.121  0.5372 -2.9311  1.2150
 9139SOL    HW239054   4.180   1.153   2.074  0.3133 -2.0662 -1.9971
 9140SOL     OW39055   1.563   3.143   4.421 -0.0948 -0.2726 -0.4099
 9140SOL    HW139056   1.488   3.157   4.478  0.1556  0.1332 -0.1796
 9140SOL    HW239057   1.592   3.061   4.461 -0.5343  0.3966  1.2709
 9141SOL     OW39058   3.895   2.044   9.254 -0.1882 -0.0349  0.2912
 9141SOL    HW139059   3.982   2.011   9.279 -0.3078  1.7927  3.0803
 9141SOL    HW239060   3.908   2.139   9.260 -0.4561 -0.0069  0.3873
 9142SOL     OW39061   0.299   1.256   6.739  0.3216 -0.1153  0.2250
 9142SOL    HW139062   0.281   1.243   6.832  3.3200 -0.7268  0.7064
 9142SOL    HW239063   0.392   1.270   6.725  0.1868 -0.7982 -1.4048
 9143SOL     OW39064   4.669   1.265  11.235  0.2965  0.2211  0.4602
 9143SOL    HW139065   4.714   1.286  11.317  0.1782  0.2235  0.5241
 9143SOL    HW239066   4.651   1.171  11.243 -0.8214  0.4436  0.4829
 9144SOL     OW39067   0.462   0.029   4.248  0.0485 -0.3597  0.1982
 9144SOL    HW139068   0.518   0.085   4.195 -2.4510 -0.6101 -2.7241
 9144SOL    HW239069   0.527   4.726   4.305  1.1552  2.5887  1.0282
 9145SOL     OW39070   4.622   3.127  16.470  0.1667  0.0566 -0.3922
 9145SOL    HW139071   4.629   3.135  16.375  0.7192  1.9776 -0.1891
 9145SOL    HW239072   4.573   3.045  16.478  1.3219 -0.5457  0.5691
 9146SOL     OW39073   3.609   3.662  15.857  0.3017 -0.1428 -0.0958
 9146SOL    HW139074   3.657   3.715  15.920 -1.8373  3.1785 -1.2833
 9146SOL    HW239075   3.574   3.731  15.801  1.2594  0.4756  0.0723
 9147SOL     OW39076   0.035   1.428   1.571 -0.1289 -0.6200  0.2472
 9147SOL    HW139077   4.689   1.399   1.536 -0.5373 -0.6552  1.2313
 9147SOL    HW239078   0.071   1.341   1.590 -0.4707 -0.6193  0.9191
 9148SOL     OW39079   2.469   2.265   5.101 -0.3915  0.4764 -0.0305
 9148SOL    HW139080   2.539   2.312   5.055 -0.4271 -0.5433 -1.1228
 9148SOL    HW239081   2.389   2.317   5.092  0.9034  2.2510 -1.5480
 9149SOL     OW39082   4.324   0.438   2.814 -0.0595  0.1059 -0.2585
 9149SOL    HW139083   4.278   0.518   2.837 -0.4310 -0.7092  1.8183
 9149SOL    HW239084   4.253   0.383   2.780 -0.3980  0.8091 -0.6874
 9150SOL     OW39085   2.570   1.845   4.648 -0.2796  0.1955 -0.2572
 9150SOL    HW139086   2.571   1.818   4.740  0.2579 -0.4013 -0.4411
 9150SOL    HW239087   2.502   1.913   4.652  0.1663  0.6895 -1.1151
 9151SOL     OW39088   2.956   1.644  12.448  0.1971 -0.0903  0.3508
 9151SOL    HW139089   3.037   1.654  12.397  1.1863  0.1083  1.9392
 9151SOL    HW239090   2.908   1.602  12.378 -0.5231  1.4681 -0.0908
 9152SOL     OW39091   4.561   3.086   5.131 -0.7210  0.2073  0.2326
 9152SOL    HW139092   4.497   3.040   5.185  2.3552 -2.8926  1.3086
 9152SOL    HW239093   4.595   3.156   5.186 -0.5765 -1.1991  1.9412
 9153SOL     OW39094   4.369   4.118  10.368 -0.4856 -0.2325  0.3173
 9153SOL    HW139095   4.313   4.070  10.307 -1.4447  2.7938 -1.2097
 9153SOL    HW239096   4.443   4.058  10.374 -1.0143 -0.9856 -0.7557
 9154SOL     OW39097   1.467   1.018  10.444  0.1763  0.0407  0.3668
 9154SOL    HW139098   1.383   0.987  10.477 -0.8784  0.1730 -2.2489
 9154SOL    HW239099   1.494   1.068  10.521  1.6469  1.1190 -0.8617
 9155SOL     OW39100   4.179   1.128   3.657  0.0138 -0.0321 -0.5280
 9155SOL    HW139101   4.169   1.185   3.734 -0.3468 -1.4964  0.4991
 9155SOL    HW239102   4.133   1.048   3.681  0.7492 -0.4395 -0.4697
 9156SOL     OW39103   3.586   3.614   8.903 -0.1752 -0.0107 -0.2585
 9156SOL    HW139104   3.595   3.525   8.871  2.3401 -0.3436  1.4263
 9156SOL    HW239105   3.569   3.660   8.820 -0.7748  0.7235  0.2711
 9157SOL     OW39106   3.370   1.209   8.122  0.1156  0.1326 -0.7352
 9157SOL    HW139107   3.453   1.162   8.115  0.2923  0.4784 -0.9956
 9157SOL    HW239108   3.401   1.287   8.075 -1.8767  0.9704 -0.6835
 9158SOL     OW39109   0.306   2.861   4.872 -0.5185 -0.7727  0.2206
 9158SOL    HW139110   0.278   2.780   4.915 -2.5859  0.0770  0.4574
 9158SOL    HW239111   0.326   2.912   4.951 -2.2460  0.3338 -0.0715
 9159SOL     OW39112   2.948   3.190   2.709  0.0853 -0.1964  0.0596
 9159SOL    HW139113   2.926   3.139   2.631  0.9212 -0.7059  0.1607
 9159SOL    HW239114   2.913   3.134   2.778  0.8636 -0.0072  0.6030
 9160SOL     OW39115   2.247   0.769   4.855 -0.1900  0.1073 -0.0218
 9160SOL    HW139116   2.261   0.678   4.832 -0.1684 -0.2984  1.6037
 9160SOL    HW239117   2.205   0.756   4.939 -0.7125  0.2575 -0.2632
 9161SOL     OW39118   0.770   4.223   3.554 -0.1384 -0.0838  0.0407
 9161SOL    HW139119   0.813   4.201   3.637 -3.8700  1.3052  2.3690
 9161SOL    HW239120   0.684   4.253   3.584  0.5239  3.3654 -1.4965
 9162SOL     OW39121   3.491   2.271   2.596  0.6243 -0.4201  0.4456
 9162SOL    HW139122   3.497   2.314   2.682 -1.2367  0.6491  0.0473
 9162SOL    HW239123   3.473   2.184   2.632 -1.2315 -0.3394 -0.2779
 9163SOL     OW39124   1.770   2.250   5.117 -0.2596  0.0573 -0.6727
 9163SOL    HW139125   1.696   2.205   5.076 -0.3819 -0.4678  0.1291
 9163SOL    HW239126   1.785   2.333   5.070  0.7254 -0.0027 -0.4775
 9164SOL     OW39127   0.262   2.503   5.276 -0.2620  0.7929  0.0597
 9164SOL    HW139128   0.195   2.464   5.333  0.0904 -2.0545 -1.4504
 9164SOL    HW239129   0.230   2.592   5.291 -2.0193 -0.1054  1.7146
 9165SOL     OW39130   1.515   3.754  13.039 -0.4877  0.6250  0.0521
 9165SOL    HW139131   1.421   3.738  13.052 -0.3950 -0.0461 -0.1352
 9165SOL    HW239132   1.542   3.781  13.127 -0.2090  0.9653 -0.1385
 9166SOL     OW39133   2.963   1.342   1.550  0.0016  0.1543 -0.4554
 9166SOL    HW139134   2.964   1.378   1.639  1.5644 -0.2064 -0.3205
 9166SOL    HW239135   3.043   1.290   1.543  0.8411  1.4546 -0.5054
 9167SOL     OW39136   1.600   3.588   4.343  0.1976  0.1696 -0.1575
 9167SOL    HW139137   1.633   3.667   4.386 -1.7839  1.7030 -1.4807
 9167SOL    HW239138   1.539   3.555   4.409  2.1850  1.4368  2.3225
 9168SOL     OW39139   4.465   2.778  11.225 -0.0756 -0.1434 -0.0393
 9168SOL    HW139140   4.459   2.872  11.207  3.1515  0.5017  2.3388
 9168SOL    HW239141   4.549   2.765  11.269  0.1834 -1.1561 -0.8194
 9169SOL     OW39142   4.050   3.061   7.029  0.3295 -0.2407 -0.0900
 9169SOL    HW139143   4.105   3.018   7.094 -1.5250  0.6103  2.0312
 9169SOL    HW239144   4.114   3.103   6.971 -0.2487  0.1356 -0.4670
 9170SOL     OW39145   3.448   1.783  17.744  0.1837 -0.1162  0.3386
 9170SOL    HW139146   3.442   1.717  17.676  0.3475  0.6963 -0.4700
 9170SOL    HW239147   3.411   1.859  17.698  0.6634  0.6164  1.1517
 9171SOL     OW39148   3.996   1.534   7.153  0.0798  0.4736 -0.0915
 9171SOL    HW139149   3.998   1.497   7.242 -0.3616 -2.2700 -1.2234
 9171SOL    HW239150   3.981   1.628   7.159 -0.8582  0.3371 -0.2563
 9172SOL     OW39151   1.187   1.951   2.672  0.5806  0.2086 -0.1826
 9172SOL    HW139152   1.092   1.950   2.665  0.5700 -1.4167  0.2075
 9172SOL    HW239153   1.214   1.925   2.584  0.0514 -0.4718 -0.1389
 9173SOL     OW39154   3.925   1.085  12.463  0.1508 -0.0442 -0.3740
 9173SOL    HW139155   3.922   1.158  12.525  0.9762 -1.2796  1.1252
 9173SOL    HW239156   4.017   1.061  12.462 -0.3268 -1.8789 -1.3969
 9174SOL     OW39157   3.344   3.805   3.652 -0.0349 -0.4509 -0.3969
 9174SOL    HW139158   3.385   3.879   3.699  0.5740  0.0509 -1.7158
 9174SOL    HW239159   3.415   3.741   3.659 -0.5113 -1.2860 -3.4410
 9175SOL     OW39160   1.154   1.009   8.391 -0.5619  0.2544  0.0059
 9175SOL    HW139161   1.212   0.979   8.461 -0.3345 -0.1116 -0.3417
 9175SOL    HW239162   1.132   0.928   8.344 -1.5896 -0.8585  2.4009
 9176SOL     OW39163   0.534   4.575   3.400  0.1628 -0.6210 -0.0730
 9176SOL    HW139164   0.555   4.629   3.476  1.4336  1.3591 -1.8229
 9176SOL    HW239165   0.450   4.534   3.423 -2.0402  3.0206 -1.5973
 9177SOL     OW39166   1.228   4.605   8.199  0.6262 -0.2042  0.5139
 9177SOL    HW139167   1.243   4.699   8.203  2.4107 -0.4327 -0.9064
 9177SOL    HW239168   1.211   4.600   8.105 -0.1439  0.7016  0.6053
 9178SOL     OW39169   0.538   4.144   1.714  0.0937 -0.1832 -0.2170
 9178SOL    HW139170   0.529   4.051   1.695  0.7863 -0.2849 -0.0193
 9178SOL    HW239171   0.632   4.159   1.721  0.3225 -0.6014 -2.2908
 9179SOL     OW39172   4.651   1.661   1.382  0.0531  0.4690 -0.7239
 9179SOL    HW139173   4.625   1.602   1.311  0.3552  0.1054 -0.5308
 9179SOL    HW239174   0.002   1.633   1.405 -0.0456  0.0405 -0.8527
 9180SOL     OW39175   1.046   3.423   4.172 -0.0596 -0.2504  0.3568
 9180SOL    HW139176   1.013   3.383   4.092 -0.7110  2.4114 -0.6964
 9180SOL    HW239177   1.141   3.416   4.158 -0.0013  2.9903 -0.8978
 9181SOL     OW39178   1.234   4.526  14.038  0.4272  0.1465 -0.4522
 9181SOL    HW139179   1.163   4.533  13.974 -0.8065  0.7358  0.9729
 9181SOL    HW239180   1.251   4.620  14.049  0.7512 -0.0561  0.7535
 9182SOL     OW39181   1.274   4.209  10.306  0.0629  0.3069 -0.3705
 9182SOL    HW139182   1.316   4.138  10.355 -0.4480 -1.0039 -1.8368
 9182SOL    HW239183   1.268   4.280  10.369  3.5022 -0.3912  0.7641
 9183SOL     OW39184   4.504   0.319   0.315  0.4350  1.1356  0.0786
 9183SOL    HW139185   4.427   0.270   0.344  0.6239  1.9829  2.0172
 9183SOL    HW239186   4.470   0.360   0.235 -0.0758 -0.9524 -0.7749
 9184SOL     OW39187   4.422   0.207   3.810 -0.5025  0.1499  0.5503
 9184SOL    HW139188   4.507   0.203   3.854  0.1808 -0.0829 -0.7887
 9184SOL    HW239189   4.371   0.262   3.869 -0.8757 -2.1586  2.3658
 9185SOL     OW39190   4.500   3.501   1.682  0.1229  0.0485 -1.0951
 9185SOL    HW139191   4.574   3.546   1.722  0.1833  1.0557 -2.3511
 9185SOL    HW239192   4.450   3.574   1.645 -0.4480 -0.5037 -1.4308
 9186SOL     OW39193   3.931   4.142  16.426 -0.3363 -0.0662 -0.0584
 9186SOL    HW139194   3.893   4.194  16.497  0.9201 -1.3313  1.5252
 9186SOL    HW239195   4.013   4.111  16.463  1.2807  1.4973 -2.2853
 9187SOL     OW39196   3.159   3.615  15.473  0.3137  0.0059  0.4092
 9187SOL    HW139197   3.246   3.601  15.435 -0.0334  2.5342 -1.3055
 9187SOL    HW239198   3.099   3.659  15.413 -0.3959 -1.3570  0.1183
 9188SOL     OW39199   4.105   0.395   2.205 -0.4877  0.1673 -0.3654
 9188SOL    HW139200   4.140   0.325   2.151 -0.1340 -2.3346  3.1327
 9188SOL    HW239201   4.053   0.446   2.143  0.4290  1.6631  0.0945
 9189SOL     OW39202   3.628   4.428   2.659 -0.7111 -0.2305  0.0067
 9189SOL    HW139203   3.667   4.350   2.699 -2.9142 -1.5132 -0.2955
 9189SOL    HW239204   3.572   4.446   2.735  0.3204 -3.1502  1.4735
 9190SOL     OW39205   2.383   3.463  12.304 -0.1830 -0.5780 -0.2202
 9190SOL    HW139206   2.333   3.544  12.301  3.2994  1.5215 -0.5777
 9190SOL    HW239207   2.425   3.455  12.390 -1.2404 -0.0426  0.3501
 9191SOL     OW39208   1.110   1.824  13.666 -0.0116 -0.1995 -0.5328
 9191SOL    HW139209   1.189   1.865  13.701 -1.5540  1.1521  1.3418
 9191SOL    HW239210   1.081   1.775  13.743  1.4565 -2.2634 -1.3050
 9192SOL     OW39211   0.609   0.593   3.887 -0.4841 -0.3261  0.2333
 9192SOL    HW139212   0.698   0.601   3.920 -0.2452 -1.5723 -0.0833
 9192SOL    HW239213   0.622   0.523   3.823  1.5846 -0.4379  0.7838
 9193SOL     OW39214   0.715   1.406   2.516 -0.5541 -0.0605  0.2972
 9193SOL    HW139215   0.629   1.421   2.555 -0.5907 -2.1020  0.9792
 9193SOL    HW239216   0.687   1.425   2.427 -1.5401  0.5450  0.7406
 9194SOL     OW39217   2.427   0.302   6.863 -0.4321  0.2495 -0.1298
 9194SOL    HW139218   2.410   0.378   6.808  0.5017  0.9338  0.5378
 9194SOL    HW239219   2.468   0.351   6.935  0.5575  1.4338 -1.5030
 9195SOL     OW39220   3.217   3.255  11.137 -0.1020 -0.0857  0.0595
 9195SOL    HW139221   3.262   3.209  11.066 -3.0113 -0.4468 -1.5407
 9195SOL    HW239222   3.138   3.200  11.140  0.1459 -0.3904  1.0801
 9196SOL     OW39223   2.724   2.749  15.246 -1.0641 -0.1935  0.1317
 9196SOL    HW139224   2.669   2.771  15.322 -1.2195 -2.1882  0.6045
 9196SOL    HW239225   2.809   2.767  15.286 -0.4172 -2.5124 -0.1679
 9197SOL     OW39226   3.615   3.022  11.683 -0.0892  0.1228  0.0758
 9197SOL    HW139227   3.592   3.112  11.705  0.3156  0.5801 -1.3670
 9197SOL    HW239228   3.598   2.979  11.766 -0.2720  0.8101  0.3872
 9198SOL     OW39229   3.027   2.096   2.626  0.1628 -0.2365  0.0756
 9198SOL    HW139230   2.986   2.015   2.594 -1.1191  0.4168  0.0408
 9198SOL    HW239231   3.097   2.106   2.562 -2.0913  0.8517 -2.2306
 9199SOL     OW39232   2.552   0.040   2.557  0.0543  0.5923  0.5918
 9199SOL    HW139233   2.492   4.713   2.594  0.6906 -1.4282 -1.9574
 9199SOL    HW239234   2.597   0.073   2.634 -0.1814  0.9062  0.5978
 9200SOL     OW39235   4.700   1.345  16.188 -0.0438  0.5176 -0.0527
 9200SOL    HW139236   4.605   1.348  16.197  0.0712 -1.2280  1.7707
 9200SOL    HW239237   4.729   1.421  16.238  1.3539  1.0663 -1.6754
 9201SOL     OW39238   2.017   1.316   2.114 -0.2138 -0.1710  0.0471
 9201SOL    HW139239   2.038   1.370   2.038  1.7376 -1.6285 -0.4566
 9201SOL    HW239240   2.097   1.333   2.162 -0.4964 -1.1529  0.8553
 9202SOL     OW39241   2.196   2.575   6.145 -0.4875  0.3576 -0.4411
 9202SOL    HW139242   2.289   2.582   6.165 -0.8228 -1.7672  1.9284
 9202SOL    HW239243   2.197   2.615   6.059  0.8397  1.2000 -0.0295
 9203SOL     OW39244   2.994   0.203  11.684 -0.1873  0.1595  0.1864
 9203SOL    HW139245   2.995   0.297  11.703 -0.9477  0.7569 -2.7287
 9203SOL    HW239246   2.917   0.200  11.628 -0.2970  0.8760  0.2996
 9204SOL     OW39247   4.711   1.655   3.804  0.2987 -0.7281  0.0242
 9204SOL    HW139248   4.633   1.639   3.857  0.8609 -1.0380  0.7542
 9204SOL    HW239249   4.671   1.618   3.726 -2.0504  1.0732  0.3852
 9205SOL     OW39250   4.658   4.028   0.433 -0.3533  0.4352 -0.7999
 9205SOL    HW139251   4.662   4.096   0.366  1.7057  1.1647  0.0622
 9205SOL    HW239252   4.676   4.080   0.512 -0.1213  0.0989 -0.6356
 9206SOL     OW39253   3.897   3.888   7.901  0.2542  0.0774 -0.1116
 9206SOL    HW139254   3.991   3.895   7.921  0.2995 -0.9793  0.0815
 9206SOL    HW239255   3.860   3.971   7.931  0.7226 -0.3631  1.6829
 9207SOL     OW39256   1.610   2.354  17.067  0.5595 -0.1731  0.2247
 9207SOL    HW139257   1.566   2.316  17.143  2.1084 -0.2012  1.1105
 9207SOL    HW239258   1.541   2.419  17.049  1.5275  0.3010 -1.6831
 9208SOL     OW39259   0.693   2.419   2.254  0.0632  0.2431  0.4105
 9208SOL    HW139260   0.756   2.352   2.225  0.5542  0.6107  0.6190
 9208SOL    HW239261   0.619   2.400   2.197  2.4344 -0.7221 -2.4064
 9209SOL     OW39262   3.501   2.861  15.604  0.8662 -0.2836 -0.3081
 9209SOL    HW139263   3.542   2.890  15.523  2.0049 -0.5039  0.1801
 9209SOL    HW239264   3.417   2.906  15.602  1.8885  1.7443  1.9239
 9210SOL     OW39265   1.909   2.781   3.913  0.6346 -0.3414 -0.7140
 9210SOL    HW139266   1.849   2.755   3.844 -0.6932  1.2246 -0.1417
 9210SOL    HW239267   1.868   2.722   3.977  2.5799 -0.4284  0.4643
 9211SOL     OW39268   3.003   0.540  12.671  0.0782 -0.5016  0.2116
 9211SOL    HW139269   3.091   0.577  12.670 -1.7240  3.8919  3.4241
 9211SOL    HW239270   3.031   0.450  12.685  0.4188 -0.4554 -0.1697
 9212SOL     OW39271   1.222   0.309   0.742  0.0280 -0.2585 -0.3188
 9212SOL    HW139272   1.234   0.310   0.837  1.3514 -0.0463 -0.4762
 9212SOL    HW239273   1.316   0.301   0.722  0.1481 -2.2038  1.0948
 9213SOL     OW39274   3.996   3.558  11.608  0.4444  0.3623 -0.3323
 9213SOL    HW139275   4.044   3.599  11.537  1.5279  0.9166  0.7329
 9213SOL    HW239276   4.066   3.506  11.647 -1.1245  0.6001  2.8460
 9214SOL     OW39277   3.077   2.286   4.851  0.2731  0.0824 -0.2329
 9214SOL    HW139278   3.141   2.351   4.881  0.1884 -0.6292  1.4389
 9214SOL    HW239279   3.026   2.265   4.929  1.0381  1.5351  0.6578
 9215SOL     OW39280   1.886   0.716  10.239  0.2804  0.8199  0.2660
 9215SOL    HW139281   1.802   0.682  10.210  0.2259  0.8568  0.3789
 9215SOL    HW239282   1.928   0.646  10.289 -0.9298 -1.3208 -1.7401
 9216SOL     OW39283   4.111   4.120   7.898  0.0370 -0.3827  0.0206
 9216SOL    HW139284   4.043   4.161   7.952 -0.3275  0.3395 -0.9958
 9216SOL    HW239285   4.062   4.104   7.817  0.0046  1.4253 -0.3148
 9217SOL     OW39286   4.061   0.203   8.436 -0.2145  0.0116 -0.3368
 9217SOL    HW139287   4.044   0.291   8.403  1.3108  0.1664 -0.7202
 9217SOL    HW239288   3.985   0.163   8.392 -2.0660  1.1930  1.8331
 9218SOL     OW39289   3.597   4.682   2.307 -0.1492  0.2355  0.3734
 9218SOL    HW139290   3.516   4.678   2.257  0.5715  1.0117 -0.8626
 9218SOL    HW239291   3.598   0.038   2.324  0.3819  0.0730  1.2230
 9219SOL     OW39292   4.722   3.746   1.729  0.1835  0.5107  0.0849
 9219SOL    HW139293   4.722   3.772   1.636 -0.7814  0.8810  0.1960
 9219SOL    HW239294   0.037   3.817   1.766 -0.2693  0.6971  0.3787
 9220SOL     OW39295   4.461   3.772   6.556  0.1899 -0.3258 -0.3581
 9220SOL    HW139296   4.401   3.835   6.517  0.2393  0.1418  0.3174
 9220SOL    HW239297   4.489   3.824   6.631  0.6724 -0.3252 -0.5354
 9221SOL     OW39298   3.829   3.769   3.264  0.0441  0.0333  0.1550
 9221SOL    HW139299   3.783   3.848   3.291 -0.3302  0.0221 -0.4518
 9221SOL    HW239300   3.801   3.713   3.336  1.1186  0.2357  0.7259
 9222SOL     OW39301   2.436   0.485   5.605 -0.3005 -0.0752 -0.2624
 9222SOL    HW139302   2.377   0.421   5.643 -0.1983  0.0153  0.0479
 9222SOL    HW239303   2.388   0.562   5.636 -1.3478 -1.0652  0.5752
 9223SOL     OW39304   0.690   4.024   6.244  0.1306  0.5885 -0.3903
 9223SOL    HW139305   0.674   4.025   6.339  2.0719 -0.8878 -0.0279
 9223SOL    HW239306   0.673   3.934   6.216  0.1479 -0.3568  2.6050
 9224SOL     OW39307   0.622   1.895   3.513 -0.4115 -0.2960 -0.9053
 9224SOL    HW139308   0.710   1.895   3.475  0.2474  1.2169  0.5890
 9224SOL    HW239309   0.572   1.840   3.453 -1.2017  1.1097 -1.5392
 9225SOL     OW39310   1.577   2.442   7.101  0.1352  0.1502  0.3548
 9225SOL    HW139311   1.525   2.416   7.177  0.0316  1.8173  0.8621
 9225SOL    HW239312   1.612   2.357   7.072 -1.1333  0.5167 -2.2425
 9226SOL     OW39313   0.777   0.066  12.245 -0.4108  0.0051 -0.0023
 9226SOL    HW139314   0.807   4.737  12.306  1.3571  1.7013  1.0014
 9226SOL    HW239315   0.812   0.043  12.159 -0.6914  0.0062 -0.1164
 9227SOL     OW39316   2.966   2.142   8.386 -0.2320  0.3049  0.4641
 9227SOL    HW139317   2.961   2.056   8.343 -1.8601  0.2641  0.7462
 9227SOL    HW239318   2.873   2.138   8.410 -0.8056  0.5756 -1.7397
 9228SOL     OW39319   4.390   1.651   7.035 -0.3349 -0.0787  0.3921
 9228SOL    HW139320   4.484   1.639   7.033 -0.4136 -0.5972 -0.2684
 9228SOL    HW239321   4.367   1.561   7.059  1.1094 -0.5197  0.1101
 9229SOL     OW39322   4.663   2.712   4.883  0.0927  0.1553  0.2125
 9229SOL    HW139323   4.592   2.768   4.853  1.6976  2.6170  0.9723
 9229SOL    HW239324   4.713   2.774   4.936  0.1538  0.0395  0.2919
 9230SOL     OW39325   2.778   4.154   3.928 -0.4107 -0.3543 -0.4222
 9230SOL    HW139326   2.786   4.091   3.856  0.6356  0.5260 -1.0888
 9230SOL    HW239327   2.717   4.107   3.985 -0.3422  1.3840  1.0648
 9231SOL     OW39328   2.590   4.372   0.658 -0.2139  0.2776  0.1357
 9231SOL    HW139329   2.533   4.328   0.721  0.5084 -1.1415 -0.2163
 9231SOL    HW239330   2.525   4.440   0.639 -1.6378 -1.0589  0.2375
 9232SOL     OW39331   0.502   4.164   9.590 -0.1366  0.0680  0.1342
 9232SOL    HW139332   0.558   4.124   9.524  2.6133  2.2861  1.1560
 9232SOL    HW239333   0.545   4.249   9.597  1.0567 -0.3721 -1.8220
 9233SOL     OW39334   4.130   0.911   3.434  0.0038 -0.1797  0.3891
 9233SOL    HW139335   4.044   0.945   3.456 -0.6485  0.8969 -3.7908
 9233SOL    HW239336   4.111   0.817   3.434  1.4945 -0.4966 -0.6249
 9234SOL     OW39337   1.889   1.754   4.376  0.0474 -0.0624  0.2120
 9234SOL    HW139338   1.818   1.815   4.357  0.1506 -0.0219 -0.0422
 9234SOL    HW239339   1.834   1.675   4.382  0.7544 -0.4947  0.8766
 9235SOL     OW39340   2.808   2.524   2.739 -0.1190  0.5051  0.2170
 9235SOL    HW139341   2.734   2.470   2.767 -0.7018  1.1277 -0.0839
 9235SOL    HW239342   2.830   2.488   2.654  1.8445  0.9238  0.5472
 9236SOL     OW39343   3.607   4.697   9.295  0.5466  0.2226 -0.1739
 9236SOL    HW139344   3.575   4.656   9.215  0.7905  1.3676 -0.8513
 9236SOL    HW239345   3.533   0.019   9.310  0.5223  0.3373 -0.7591
 9237SOL     OW39346   4.487   2.873   4.754 -0.7626  0.5525  0.2012
 9237SOL    HW139347   4.404   2.873   4.803 -1.4159  0.1614 -0.9084
 9237SOL    HW239348   4.508   2.966   4.749 -0.9295  0.5192 -1.0340
 9238SOL     OW39349   1.023   4.591   5.348 -0.1049 -0.5166 -0.1682
 9238SOL    HW139350   1.075   4.668   5.323  0.2322 -0.0473  1.9103
 9238SOL    HW239351   0.938   4.615   5.312  1.5298 -0.4192 -3.9930
 9239SOL     OW39352   0.066   3.542  15.625 -0.1468  0.4876  0.1225
 9239SOL    HW139353   0.050   3.585  15.709 -0.1935  0.0656  0.3283
 9239SOL    HW239354   0.060   3.612  15.560  1.5794  0.3814 -0.1608
 9240SOL     OW39355   3.992   0.734   4.147  0.1169  0.1259 -0.3489
 9240SOL    HW139356   4.013   0.740   4.240  2.3504 -0.1475 -0.8174
 9240SOL    HW239357   4.073   0.703   4.105 -0.0080 -0.3825 -0.2016
 9241SOL     OW39358   2.858   3.336  11.339  0.2631  0.3597 -0.1466
 9241SOL    HW139359   2.902   3.257  11.307  1.7768 -0.1914  3.3185
 9241SOL    HW239360   2.771   3.309  11.369 -0.3273 -0.2589 -2.4585
 9242SOL     OW39361   3.084   0.578   7.336 -0.1856  0.1954 -0.2783
 9242SOL    HW139362   3.140   0.506   7.367 -0.6051  0.4511  1.0538
 9242SOL    HW239363   3.105   0.581   7.242  1.6833 -1.8883  0.0842
 9243SOL     OW39364   4.198   2.104   8.469  0.6667  0.2044 -0.4126
 9243SOL    HW139365   4.109   2.092   8.501  0.5577 -2.0701 -1.5900
 9243SOL    HW239366   4.224   2.183   8.517 -0.3873 -1.0431  2.2088
 9244SOL     OW39367   4.228   2.439   6.078 -0.1270  0.2407  0.4701
 9244SOL    HW139368   4.175   2.375   6.126 -0.2357 -0.2034 -0.2218
 9244SOL    HW239369   4.311   2.434   6.126  0.3770 -0.6245 -0.4674
 9245SOL     OW39370   3.429   0.624   5.280 -0.2082  0.8448  0.1539
 9245SOL    HW139371   3.487   0.627   5.203 -1.0027 -0.7552 -0.4872
 9245SOL    HW239372   3.441   0.707   5.328  1.7515 -0.0186  1.1579
 9246SOL     OW39373   1.774   4.115  12.084 -0.1268 -0.2267 -0.3617
 9246SOL    HW139374   1.811   4.030  12.106  1.3792  0.5626  0.1570
 9246SOL    HW239375   1.691   4.093  12.043  0.5953 -0.6409 -1.6194
 9247SOL     OW39376   2.850   3.818   2.297 -0.8481 -0.2189 -0.4443
 9247SOL    HW139377   2.929   3.861   2.264 -0.8867  0.7385  0.7079
 9247SOL    HW239378   2.888   3.779   2.375 -2.5592 -0.5270  0.2359
 9248SOL     OW39379   2.972   4.432  16.112  0.2369  0.0741  0.4243
 9248SOL    HW139380   2.947   4.451  16.203 -0.7229 -1.9805  0.5704
 9248SOL    HW239381   3.049   4.378  16.132  1.2723  1.4264  0.1148
 9249SOL     OW39382   0.145   2.247   6.495  0.4287  0.1989  0.2579
 9249SOL    HW139383   0.149   2.151   6.491  1.0059  0.1885  0.9754
 9249SOL    HW239384   0.225   2.262   6.446  0.3432  1.1158  0.4056
 9250SOL     OW39385   2.488   4.362   3.372 -0.4842 -0.6451 -0.4863
 9250SOL    HW139386   2.449   4.276   3.352 -3.1774  0.9289 -1.9997
 9250SOL    HW239387   2.496   4.363   3.467 -2.5906 -1.9143 -0.2830
 9251SOL     OW39388   3.871   3.910   0.402 -0.1538 -0.2195 -0.0318
 9251SOL    HW139389   3.849   3.929   0.493  2.8332  1.2764  0.3794
 9251SOL    HW239390   3.842   3.820   0.390 -1.4681 -0.0752  2.0440
 9252SOL     OW39391   3.311   0.101   7.701 -0.0538  0.2135 -0.2090
 9252SOL    HW139392   3.221   0.077   7.680  0.3047 -0.6085 -0.8041
 9252SOL    HW239393   3.359   0.022   7.676 -0.5959 -0.8091  2.0023
 9253SOL     OW39394   1.990   1.691  13.054 -0.0198 -0.0470  0.1024
 9253SOL    HW139395   1.969   1.601  13.079  1.0548 -0.3216  0.0226
 9253SOL    HW239396   2.085   1.686  13.044 -0.5643 -0.9686 -4.6579
 9254SOL     OW39397   1.938   0.628   3.729  0.2881  0.4873 -0.0450
 9254SOL    HW139398   1.999   0.572   3.778  0.1266 -0.0174 -0.4203
 9254SOL    HW239399   1.996   0.660   3.660  1.6789 -0.8083  0.5187
 9255SOL     OW39400   0.440   3.220  10.233  0.6194 -0.0857 -0.2290
 9255SOL    HW139401   0.365   3.255  10.185  0.7034  1.6241  0.9055
 9255SOL    HW239402   0.405   3.133  10.250  0.6920 -0.4264 -1.7961
 9256SOL     OW39403   2.362   4.222   5.028 -0.5768  0.5474 -0.1828
 9256SOL    HW139404   2.337   4.215   4.935  3.0649 -1.9002 -0.9667
 9256SOL    HW239405   2.457   4.209   5.030 -0.5124  0.9421 -0.6507
 9257SOL     OW39406   0.069   4.291  17.686  0.2901  0.0900  0.3688
 9257SOL    HW139407   0.073   4.357   0.005  0.4460  1.1376 -0.6493
 9257SOL    HW239408   0.068   4.210  17.737  1.3417  1.6909  2.9637
 9258SOL     OW39409   1.940   4.554   6.989 -0.4818  0.3799 -0.9465
 9258SOL    HW139410   1.940   4.646   7.013 -2.4927  0.3486 -0.8250
 9258SOL    HW239411   1.850   4.557   6.957 -0.5202  0.2494 -0.8509
 9259SOL     OW39412   0.034   3.987  16.658 -0.6442 -0.4811  0.0155
 9259SOL    HW139413   0.102   3.922  16.674 -1.4450 -1.2472  0.3323
 9259SOL    HW239414   0.039   4.050  16.729  0.3483  0.4354 -0.8783
 9260SOL     OW39415   2.675   1.966  13.308 -0.5705 -0.4626 -0.1711
 9260SOL    HW139416   2.652   2.058  13.296 -0.0774 -0.2953  0.1649
 9260SOL    HW239417   2.733   1.947  13.235  0.7673  0.3335  0.6796
 9261SOL     OW39418   4.612   2.815   1.890  0.3338  0.1988  0.2175
 9261SOL    HW139419   4.647   2.730   1.866  0.0576  0.3612 -0.7457
 9261SOL    HW239420   4.579   2.801   1.979  0.6647  0.4437  0.3782
 9262SOL     OW39421   3.166   3.854   4.555 -0.4430 -0.0013  0.6922
 9262SOL    HW139422   3.175   3.878   4.647 -2.2899  0.3805  0.7665
 9262SOL    HW239423   3.172   3.758   4.558 -2.3133 -0.1292  0.0025
 9263SOL     OW39424   3.374   3.591  11.494  0.2966  0.0893 -0.2573
 9263SOL    HW139425   3.426   3.651  11.441  2.3766 -0.8381  0.7624
 9263SOL    HW239426   3.325   3.550  11.422 -1.4805  0.3216  0.8181
 9264SOL     OW39427   0.372   3.815   5.031 -0.1814  0.7903 -0.7590
 9264SOL    HW139428   0.360   3.799   5.124 -0.2537 -0.7264 -1.0195
 9264SOL    HW239429   0.363   3.909   5.016 -0.6218  1.2470  2.3951
 9265SOL     OW39430   0.235   4.238   4.031  0.1398  0.0864  0.0910
 9265SOL    HW139431   0.277   4.232   4.117  1.2106 -1.3834 -0.5452
 9265SOL    HW239432   0.304   4.202   3.976 -0.6201  1.0861 -1.5032
 9266SOL     OW39433   1.367   4.737  15.620  0.2866 -0.1481  0.0507
 9266SOL    HW139434   1.317   4.657  15.632  0.9334 -0.8526 -1.9686
 9266SOL    HW239435   1.296   0.063  15.606  0.8946  0.8302  1.4023
 9267SOL     OW39436   0.936   2.036   4.999 -0.0406 -0.3824  0.5047
 9267SOL    HW139437   0.992   1.980   4.945  0.7892  0.3004  0.6447
 9267SOL    HW239438   1.000   2.103   5.023 -1.3125  1.9103 -2.3748
 9268SOL     OW39439   3.421   3.577   5.334 -0.1179 -0.1118  0.2324
 9268SOL    HW139440   3.514   3.580   5.311  0.5070  0.7106  2.7898
 9268SOL    HW239441   3.405   3.660   5.379 -0.3727 -0.1646  0.2408
 9269SOL     OW39442   4.305   0.030   1.085 -0.1293 -0.1724 -0.1626
 9269SOL    HW139443   4.291   0.046   0.992  1.5560  1.0419 -0.2050
 9269SOL    HW239444   4.212   0.040   1.110 -0.8718 -1.4927 -2.4351
 9270SOL     OW39445   0.832   4.671   3.476  0.3560 -0.1429  0.5055
 9270SOL    HW139446   0.860   4.737   3.539  0.9147  0.6680 -0.5944
 9270SOL    HW239447   0.810   4.598   3.534 -1.0897 -2.1220 -2.5387
 9271SOL     OW39448   0.187   0.605   2.967 -0.0897 -0.1124 -0.3021
 9271SOL    HW139449   0.216   0.695   2.982 -1.0632  0.1391  0.0820
 9271SOL    HW239450   0.115   0.602   3.030  0.9624  3.0813  1.0409
 9272SOL     OW39451   1.170   0.404   3.782  0.3314 -0.3840  0.1592
 9272SOL    HW139452   1.243   0.463   3.801  1.9760 -2.7067  1.0035
 9272SOL    HW239453   1.210   0.349   3.715  1.5622  1.6408 -0.7586
 9273SOL     OW39454   1.350   0.365   5.429 -0.2716  0.1703  0.4336
 9273SOL    HW139455   1.328   0.343   5.338 -0.2733 -2.2824  1.0255
 9273SOL    HW239456   1.265   0.402   5.452 -1.0059 -2.2264  1.6127
 9274SOL     OW39457   2.895   2.181  13.428 -0.1696  0.1650  0.2491
 9274SOL    HW139458   2.819   2.204  13.375  0.4812 -2.3950 -1.7865
 9274SOL    HW239459   2.849   2.149  13.506 -2.5148  1.2563 -0.6765
 9275SOL     OW39460   2.892   3.402   2.097 -0.6041 -0.2350 -0.0823
 9275SOL    HW139461   2.926   3.401   2.007 -0.5324 -0.7979 -0.0543
 9275SOL    HW239462   2.832   3.475   2.088 -0.3835  0.0072  0.4412
 9276SOL     OW39463   0.725   2.781   3.875 -0.4196 -0.1878 -0.5844
 9276SOL    HW139464   0.748   2.691   3.852  1.7434 -0.5735  3.1956
 9276SOL    HW239465   0.815   2.807   3.895 -1.4217  3.2119 -0.6414
 9277SOL     OW39466   0.860   2.899   1.165 -0.0045  0.2426  1.0611
 9277SOL    HW139467   0.905   2.860   1.090  1.2406  1.4550  1.1784
 9277SOL    HW239468   0.934   2.929   1.218  0.7942  0.1453  0.0084
 9278SOL     OW39469   3.230   2.214   4.250  0.4022  0.1544 -0.3081
 9278SOL    HW139470   3.320   2.249   4.252 -0.3788  2.0668  1.6014
 9278SOL    HW239471   3.241   2.120   4.266  0.8301 -0.1408 -2.3619
 9279SOL     OW39472   1.702   3.404   6.167  0.4494 -0.4238 -0.6290
 9279SOL    HW139473   1.683   3.434   6.256  1.6111 -2.8467  0.4430
 9279SOL    HW239474   1.753   3.327   6.192  1.5042 -0.1700 -1.9928
 9280SOL     OW39475   1.754   1.200   2.789 -0.0898 -0.1917  0.3137
 9280SOL    HW139476   1.843   1.231   2.769 -0.4411 -1.0903 -2.6101
 9280SOL    HW239477   1.702   1.247   2.724  2.6673  0.6324 -1.3196
 9281SOL     OW39478   3.326   3.335   0.534 -0.1005  0.4601  0.0525
 9281SOL    HW139479   3.397   3.339   0.470  0.7574 -0.0044  0.9878
 9281SOL    HW239480   3.248   3.345   0.480 -1.6546 -0.3276  2.1316
 9282SOL     OW39481   2.132   2.330   1.385  0.1162 -0.2505  0.1034
 9282SOL    HW139482   2.198   2.399   1.386  0.5091 -0.6175 -0.0491
 9282SOL    HW239483   2.161   2.271   1.456  0.4457 -0.9701 -0.6226
 9283SOL     OW39484   4.187   3.644   2.806  0.3879 -0.2149  0.0834
 9283SOL    HW139485   4.125   3.706   2.845  2.0277  2.7195 -2.0484
 9283SOL    HW239486   4.168   3.568   2.862 -0.9986 -0.1642 -0.3232
 9284SOL     OW39487   0.949   3.676   4.233 -0.2501  0.1737 -0.1660
 9284SOL    HW139488   0.863   3.670   4.275 -0.4759  0.8983 -0.5206
 9284SOL    HW239489   0.960   3.584   4.209  0.2861  0.1919 -0.0028
 9285SOL     OW39490   2.134   4.628   4.507 -0.2271 -0.3753 -0.3926
 9285SOL    HW139491   2.098   4.645   4.419  0.9247 -0.8161 -0.9454
 9285SOL    HW239492   2.215   4.679   4.513 -0.4603 -0.0424 -0.0827
 9286SOL     OW39493   1.923   2.630   7.126 -0.1148 -0.7727  0.0524
 9286SOL    HW139494   1.856   2.633   7.194 -0.2096  0.4939 -0.0927
 9286SOL    HW239495   1.996   2.678   7.162 -1.0215  0.7914 -0.2034
 9287SOL     OW39496   0.340   1.770  10.003  0.0875 -0.0862  0.1210
 9287SOL    HW139497   0.393   1.717  10.063 -0.5434 -2.3626 -1.3360
 9287SOL    HW239498   0.304   1.847  10.047  0.4391  0.0903  0.0941
 9288SOL     OW39499   1.578   0.183  13.244  0.3426  0.5501  0.5065
 9288SOL    HW139500   1.670   0.189  13.219  0.2717 -0.8635 -0.1062
 9288SOL    HW239501   1.552   0.112  13.185  0.6012  1.6080 -0.8887
 9289SOL     OW39502   2.020   1.632   4.179 -0.7146  0.3616  0.3667
 9289SOL    HW139503   1.972   1.672   4.252 -1.9225 -1.6813  0.7042
 9289SOL    HW239504   2.108   1.635   4.218  0.3724 -0.0712 -2.0827
 9290SOL     OW39505   1.602   4.184   3.348  0.3235 -0.4125  0.0686
 9290SOL    HW139506   1.606   4.277   3.371 -0.0752  0.1033 -1.9010
 9290SOL    HW239507   1.508   4.176   3.334  0.1563  1.2180  0.2622
 9291SOL     OW39508   0.173   3.396   2.025 -0.0557 -0.1324  0.0719
 9291SOL    HW139509   0.167   3.408   2.120  1.0704 -0.0635  0.1288
 9291SOL    HW239510   0.248   3.338   2.018  0.0135  0.1760 -1.8316
 9292SOL     OW39511   2.302   0.953   9.704  0.0674  0.7939  0.2262
 9292SOL    HW139512   2.372   0.961   9.769 -1.3199  0.9548  1.7255
 9292SOL    HW239513   2.350   0.984   9.627  2.3648 -0.8002  1.0182
 9293SOL     OW39514   3.761   3.155   6.255  0.2716  0.2886 -0.6080
 9293SOL    HW139515   3.703   3.124   6.325  0.6283 -0.1491 -0.5055
 9293SOL    HW239516   3.759   3.071   6.210  1.4927  0.2079 -0.5279
 9294SOL     OW39517   1.986   0.163   3.599  0.8842 -0.3827  0.6971
 9294SOL    HW139518   2.053   0.206   3.547 -0.2557  0.8106  0.2219
 9294SOL    HW239519   2.022   0.074   3.603  1.9314  0.1432  2.9301
 9295SOL     OW39520   4.011   1.721   2.582 -0.4320 -0.2494 -0.3502
 9295SOL    HW139521   3.973   1.806   2.562  0.7922  0.2981 -0.3435
 9295SOL    HW239522   4.028   1.739   2.675  1.4875  0.7034 -0.8829
 9296SOL     OW39523   3.841   2.960   8.610  0.6688 -0.4496  0.2996
 9296SOL    HW139524   3.776   2.890   8.600 -0.2328  0.4231  0.1169
 9296SOL    HW239525   3.790   3.036   8.583 -0.0147 -1.0854 -0.2101
 9297SOL     OW39526   4.318   3.928   3.597  0.2377 -0.4551 -0.2259
 9297SOL    HW139527   4.246   3.870   3.573 -1.6000  1.1287  1.4019
 9297SOL    HW239528   4.386   3.864   3.615  1.7713  0.8949 -1.2578
 9298SOL     OW39529   0.936   2.546   5.087 -0.3648 -0.2092 -0.0910
 9298SOL    HW139530   0.891   2.591   5.159  0.9648 -2.4180  2.1270
 9298SOL    HW239531   0.868   2.547   5.020 -1.8143  1.0419  1.4094
 9299SOL     OW39532   1.996   3.980   9.038  0.0909 -0.5374 -0.2015
 9299SOL    HW139533   1.943   3.932   8.975  2.6199  1.0703 -3.6134
 9299SOL    HW239534   2.046   3.918   9.091  0.8856 -0.3322 -0.7118
 9300SOL     OW39535   0.208   1.522   5.864 -0.0016 -0.4339 -0.0899
 9300SOL    HW139536   0.282   1.469   5.896 -0.8156 -1.4969  0.0451
 9300SOL    HW239537   0.139   1.510   5.930  0.9647  1.2234  1.2192
 9301SOL     OW39538   0.437   1.938   7.640  0.1763  0.3014  0.3511
 9301SOL    HW139539   0.460   1.903   7.726 -0.5781  0.2503  0.5384
 9301SOL    HW239540   0.519   1.942   7.593 -0.4281 -0.8929 -0.7876
 9302SOL     OW39541   0.684   4.006   6.512 -0.1269 -0.0999  0.0653
 9302SOL    HW139542   0.727   4.081   6.553 -0.8123 -0.1739  0.9030
 9302SOL    HW239543   0.740   3.937   6.545  0.0537 -1.0870 -2.3020
 9303SOL     OW39544   2.334   1.733   3.696 -0.1409 -0.0084 -0.2733
 9303SOL    HW139545   2.429   1.748   3.690 -0.2402  0.1916 -1.3260
 9303SOL    HW239546   2.316   1.750   3.788 -2.1767 -0.7825 -0.5412
 9304SOL     OW39547   0.450   0.297  11.738 -0.0036  0.0555 -0.1795
 9304SOL    HW139548   0.372   0.247  11.760  0.3252  0.5195  1.9995
 9304SOL    HW239549   0.483   0.253  11.659 -1.8237 -2.2828  0.3550
 9305SOL     OW39550   4.106   4.047   9.289  0.5317 -0.5971  0.1636
 9305SOL    HW139551   4.041   4.064   9.357  0.4065 -0.0145 -0.0967
 9305SOL    HW239552   4.077   3.965   9.250  1.3810 -1.1657  0.7347
 9306SOL     OW39553   3.909   2.210   5.362  0.3104 -0.4891  0.9840
 9306SOL    HW139554   3.879   2.228   5.451  1.7613 -1.0316  1.5738
 9306SOL    HW239555   3.914   2.301   5.332  0.2754 -1.4692 -1.9810
 9307SOL     OW39556   0.679   3.858   4.880  0.0037 -0.4535  0.5111
 9307SOL    HW139557   0.615   3.788   4.867 -0.7533  0.2809  0.2631
 9307SOL    HW239558   0.746   3.830   4.818  1.3560  3.0329  0.4296
 9308SOL     OW39559   4.512   2.285  10.514 -0.6039 -0.2389  0.1282
 9308SOL    HW139560   4.499   2.311  10.605  0.2623 -2.4413  0.8753
 9308SOL    HW239561   4.481   2.366  10.473 -0.3205 -1.0817 -1.7633
 9309SOL     OW39562   1.963   0.149   4.887  0.3477  0.3090  0.5531
 9309SOL    HW139563   1.993   0.180   4.801 -0.1550  0.3763  0.4017
 9309SOL    HW239564   1.930   0.227   4.931  1.2408  0.1093  1.5801
 9310SOL     OW39565   4.705   4.517   4.198 -0.6203  0.2633 -0.5831
 9310SOL    HW139566   4.693   4.522   4.293  1.5161  0.6312 -0.3265
 9310SOL    HW239567   0.053   4.560   4.190 -0.9316  0.4117 -3.0485
 9311SOL     OW39568   4.518   0.294   2.908  0.3979  0.0873  0.6653
 9311SOL    HW139569   4.444   0.343   2.873  1.0813  0.4308 -0.3140
 9311SOL    HW239570   4.585   0.345   2.863 -2.3399  3.5054  0.5323
 9312SOL     OW39571   1.915   0.571   9.398  0.0594  0.0948  0.0422
 9312SOL    HW139572   1.922   0.662   9.369  1.0190  1.0090  3.1080
 9312SOL    HW239573   2.007   0.549   9.412  0.0949  0.4567  0.3796
 9313SOL     OW39574   0.180   4.324   3.674  0.4354  0.0081  0.0021
 9313SOL    HW139575   0.196   4.358   3.586 -0.3662  1.5033  0.4335
 9313SOL    HW239576   0.089   4.294   3.668  0.4577  0.4280 -2.3669
 9314SOL     OW39577   3.891   0.289   3.518 -0.8416  0.0937 -0.0429
 9314SOL    HW139578   3.864   0.292   3.426 -0.4930 -1.7661 -0.2038
 9314SOL    HW239579   3.827   0.345   3.562 -2.6538  0.1478 -2.7486
 9315SOL     OW39580   1.534   3.254   4.089  0.2968 -0.3923 -0.0327
 9315SOL    HW139581   1.607   3.201   4.058  0.1802 -0.0501 -0.8924
 9315SOL    HW239582   1.547   3.258   4.184 -0.6934 -2.1459  0.1687
 9316SOL     OW39583   0.636   4.401   5.986 -0.0709 -0.5068 -0.0201
 9316SOL    HW139584   0.651   4.421   6.078  1.6683  2.0301 -0.8579
 9316SOL    HW239585   0.598   4.483   5.955 -1.4272 -0.9855  0.3770
 9317SOL     OW39586   2.748   3.738   7.751  0.1552  0.1856  0.0414
 9317SOL    HW139587   2.806   3.811   7.730 -0.1490  0.3392 -0.2683
 9317SOL    HW239588   2.750   3.725   7.846 -0.6591 -1.1102 -0.1282
 9318SOL     OW39589   2.774   1.079   6.969  0.0691  0.0062  0.1409
 9318SOL    HW139590   2.725   1.117   7.042  0.9493 -1.8795  1.6958
 9318SOL    HW239591   2.776   1.162   6.921 -0.3807  1.2115  2.2307
 9319SOL     OW39592   3.121   1.866   1.875 -0.0006  0.1881  1.0985
 9319SOL    HW139593   3.192   1.802   1.870  1.4396  1.9693 -1.9436
 9319SOL    HW239594   3.155   1.921   1.803  1.1096 -1.1101  0.6328
 9320SOL     OW39595   3.877   3.180   8.787  0.7714  0.2206  0.2125
 9320SOL    HW139596   3.817   3.121   8.742  0.7159  2.1978 -2.3132
 9320SOL    HW239597   3.943   3.112   8.801  0.2543 -0.2171  0.5183
 9321SOL     OW39598   4.446   1.420   6.854 -0.6547  0.4465 -0.1848
 9321SOL    HW139599   4.453   1.357   6.782  0.3388 -1.0232  1.2045
 9321SOL    HW239600   4.357   1.392   6.876 -0.9891  0.2438 -1.7847
 9322SOL     OW39601   4.590   0.551   5.383  0.2539 -0.1502 -0.1004
 9322SOL    HW139602   4.613   0.563   5.475 -2.7994  0.5535  0.5627
 9322SOL    HW239603   4.553   0.639   5.377  0.4180 -0.0853 -0.1526
 9323SOL     OW39604   2.523   0.590   2.681  0.0974  0.1624 -0.2268
 9323SOL    HW139605   2.531   0.683   2.702  0.0697  0.1567 -0.1911
 9323SOL    HW239606   2.600   0.584   2.624 -1.1372 -1.0710 -1.7369
 9324SOL     OW39607   2.628   4.639  14.750 -0.1084  0.6293  0.2541
 9324SOL    HW139608   2.645   4.726  14.713  0.9875  0.9389  1.4895
 9324SOL    HW239609   2.557   4.662  14.812 -0.5552 -0.9427  0.3121
 9325SOL     OW39610   1.037   2.682  14.796 -0.0128 -0.1729 -0.4062
 9325SOL    HW139611   0.967   2.731  14.752  0.3375  0.5635 -0.1509
 9325SOL    HW239612   1.025   2.715  14.885 -1.6397  1.9545 -1.4137
 9326SOL     OW39613   1.354   3.008   7.031  0.2245 -0.5186 -0.2935
 9326SOL    HW139614   1.441   2.989   7.066 -0.8537 -0.3743  2.4828
 9326SOL    HW239615   1.368   3.044   6.944  2.2036 -0.9464 -0.1364
 9327SOL     OW39616   2.099   4.139   4.506 -0.0053 -0.0329  0.9660
 9327SOL    HW139617   2.148   4.219   4.521  1.5065 -1.0317  1.3381
 9327SOL    HW239618   2.108   4.124   4.412 -0.4920  0.6567  0.8123
 9328SOL     OW39619   1.512   1.622  14.735 -0.1394  0.0218  0.1431
 9328SOL    HW139620   1.563   1.703  14.727 -1.3015  0.6653 -0.8717
 9328SOL    HW239621   1.442   1.659  14.788 -1.2093 -1.5561 -0.1903
 9329SOL     OW39622   2.877   2.163   2.250 -0.3894  0.1902  0.4345
 9329SOL    HW139623   2.804   2.191   2.305 -2.0385 -1.3422 -0.9729
 9329SOL    HW239624   2.910   2.092   2.305  1.5503  0.7799  0.0229
 9330SOL     OW39625   3.483   2.144  14.347 -0.3922 -0.5354 -0.3745
 9330SOL    HW139626   3.561   2.162  14.295  0.7830 -0.5085  1.4068
 9330SOL    HW239627   3.430   2.090  14.289  1.3970 -2.8909  0.1764
 9331SOL     OW39628   0.560   3.391   5.115 -0.2639 -0.0680  0.1741
 9331SOL    HW139629   0.590   3.425   5.200  0.1830 -3.4030  1.3669
 9331SOL    HW239630   0.594   3.302   5.110 -2.7470 -1.1284  2.0777
 9332SOL     OW39631   3.977   2.005   7.803  0.0011  0.1540 -0.6617
 9332SOL    HW139632   4.014   2.020   7.890 -2.3253  0.2391  0.3167
 9332SOL    HW239633   3.882   2.004   7.812  0.0416 -2.3059 -0.3455
 9333SOL     OW39634   2.004   0.461   7.571 -0.0537 -0.3470  0.2390
 9333SOL    HW139635   1.976   0.527   7.634  1.2498  2.5688 -2.2106
 9333SOL    HW239636   1.935   0.470   7.505  1.5011  0.9582 -1.2142
 9334SOL     OW39637   1.880   3.193  17.133  0.2861  0.6475 -0.6181
 9334SOL    HW139638   1.928   3.128  17.185 -0.4615 -0.2905 -1.1014
 9334SOL    HW239639   1.815   3.134  17.094 -0.6789  0.8871  0.6238
 9335SOL     OW39640   3.086   2.665   1.083  0.3153  0.2836  0.1358
 9335SOL    HW139641   3.024   2.596   1.058 -2.1015  1.3794  2.9937
 9335SOL    HW239642   3.022   2.729   1.113  1.4968  0.7472  1.6614
 9336SOL     OW39643   1.892   4.336   7.546 -0.1418  0.1879  0.2229
 9336SOL    HW139644   1.912   4.321   7.638  1.5639  0.9934 -0.0193
 9336SOL    HW239645   1.806   4.296   7.537 -0.3466  0.7646 -0.4197
 9337SOL     OW39646   4.115   0.382   3.652  0.9685  0.4589  0.1074
 9337SOL    HW139647   4.093   0.366   3.744  0.3277  2.1628  0.2508
 9337SOL    HW239648   4.044   0.356   3.595  0.5448  1.2657  0.2706
 9338SOL     OW39649   1.736   2.228   7.503 -0.1441 -0.0062  0.0297
 9338SOL    HW139650   1.803   2.178   7.456  1.1476  1.5727  0.2061
 9338SOL    HW239651   1.794   2.280   7.558 -1.1858  0.9308  0.2395
 9339SOL     OW39652   3.548   4.380   8.762  0.2775 -0.1163  0.0475
 9339SOL    HW139653   3.609   4.327   8.710 -0.0633  1.0722 -1.5569
 9339SOL    HW239654   3.573   4.471   8.751 -1.4139  0.2057 -1.0501
 9340SOL     OW39655   4.513   1.685  13.951 -0.3011  0.4179 -0.1242
 9340SOL    HW139656   4.598   1.706  13.989  0.3896 -2.8812  0.1280
 9340SOL    HW239657   4.543   1.606  13.906 -2.3929 -1.1612  1.2273
 9341SOL     OW39658   1.515   0.291  13.475 -0.5013  0.3089  0.0920
 9341SOL    HW139659   1.555   0.253  13.396 -2.9999 -1.8166 -0.1477
 9341SOL    HW239660   1.461   0.217  13.501  1.5364 -0.1887  2.8431
 9342SOL     OW39661   3.410   0.346   7.152 -0.0250 -0.6772  0.4117
 9342SOL    HW139662   3.469   0.417   7.178  0.1611 -0.9355  0.6832
 9342SOL    HW239663   3.455   0.280   7.099  2.0912  0.2566  1.0338
 9343SOL     OW39664   4.068   3.949  12.621  0.3461  0.2384 -0.2813
 9343SOL    HW139665   4.131   4.006  12.667  0.8532  0.8032 -1.6716
 9343SOL    HW239666   4.106   3.941  12.533  0.7989 -1.1203  0.0363
 9344SOL     OW39667   1.383   0.853   2.019  0.2064  0.1406  0.5309
 9344SOL    HW139668   1.452   0.917   2.036 -0.8455  2.1298 -2.6570
 9344SOL    HW239669   1.363   0.812   2.104  3.0761 -1.3219  0.4834
 9345SOL     OW39670   3.160   1.072   8.630  0.0077  0.3086 -0.1869
 9345SOL    HW139671   3.133   1.045   8.718 -3.3829  0.6308 -1.1503
 9345SOL    HW239672   3.254   1.090   8.636  0.0621  0.4613 -1.5542
 9346SOL     OW39673   3.476   0.779  16.708 -0.2769  0.1796 -0.0502
 9346SOL    HW139674   3.520   0.863  16.693 -1.3189  1.2458  2.9788
 9346SOL    HW239675   3.461   0.751  16.618 -1.7617  1.3437 -0.1744
 9347SOL     OW39676   4.489   1.544  16.400  0.2714  0.0524 -0.4658
 9347SOL    HW139677   4.469   1.480  16.332 -0.3771 -2.5104  2.1796
 9347SOL    HW239678   4.507   1.631  16.363 -2.6324  1.1998  0.7919
 9348SOL     OW39679   3.904   2.297   4.132  0.3945  0.3625  0.6883
 9348SOL    HW139680   3.996   2.272   4.133  0.2768 -0.1476 -1.0760
 9348SOL    HW239681   3.885   2.282   4.039  3.1804  0.7499  0.0718
 9349SOL     OW39682   4.534   0.843  17.567 -0.0619 -0.9071 -0.1548
 9349SOL    HW139683   4.507   0.894  17.644  0.0918 -0.1253 -0.6170
 9349SOL    HW239684   4.466   0.778  17.555  0.3620 -1.8415  2.3941
 9350SOL     OW39685   0.581   3.549   2.099 -0.0944  0.5469 -0.5523
 9350SOL    HW139686   0.489   3.576   2.099  0.7318  3.3622  0.6559
 9350SOL    HW239687   0.621   3.608   2.162 -0.4672 -2.3357  2.3957
 9351SOL     OW39688   3.978   4.468   5.359 -0.1841 -0.3118  0.6510
 9351SOL    HW139689   3.950   4.382   5.328  0.1394  0.6692 -2.3262
 9351SOL    HW239690   3.955   4.460   5.452 -1.8665  0.9677  0.3511
 9352SOL     OW39691   4.322   1.634   0.492 -0.1679  0.2150  0.2908
 9352SOL    HW139692   4.349   1.569   0.556 -0.8674  0.7113  1.0912
 9352SOL    HW239693   4.287   1.705   0.545 -0.4073  0.1632  0.2035
 9353SOL     OW39694   0.052   0.640   6.792 -0.1391 -0.5814 -0.1692
 9353SOL    HW139695   0.072   0.547   6.790  2.5643  0.0873 -3.6321
 9353SOL    HW239696   0.115   0.684   6.849 -1.6878  0.5001  0.7145
 9354SOL     OW39697   3.323   2.007  16.123  0.5153  0.2857 -0.0980
 9354SOL    HW139698   3.389   2.066  16.158  1.1474 -0.9450  0.7800
 9354SOL    HW239699   3.247   2.029  16.178  1.0211 -1.6556  1.3812
 9355SOL     OW39700   4.417   3.652   3.707  0.2487 -0.1486  0.2140
 9355SOL    HW139701   4.324   3.632   3.721  0.1466 -1.0400 -1.7847
 9355SOL    HW239702   4.461   3.622   3.786  0.8088  1.2253  0.4214
 9356SOL     OW39703   1.389   1.181  16.272 -0.1492  0.2803  0.3914
 9356SOL    HW139704   1.306   1.229  16.268  0.3039  1.0920  0.5761
 9356SOL    HW239705   1.447   1.249  16.306  0.2917 -0.3775  0.9531
 9357SOL     OW39706   0.634   4.419   9.604  0.2079  0.1324 -0.8281
 9357SOL    HW139707   0.597   4.464   9.681 -0.8339  0.3765 -1.4763
 9357SOL    HW239708   0.701   4.486   9.592  0.1596  0.1295 -1.1056
 9358SOL     OW39709   0.097   3.041   5.640  0.1220  0.2256  0.0649
 9358SOL    HW139710   0.040   2.999   5.575 -3.4603  2.4879  1.7313
 9358SOL    HW239711   0.119   2.970   5.700 -2.2207  1.5219  2.4518
 9359SOL     OW39712   1.953   2.150   7.354 -0.6825  0.3981 -0.3777
 9359SOL    HW139713   2.037   2.161   7.399 -0.3664 -2.4810 -0.2123
 9359SOL    HW239714   1.958   2.055   7.339 -1.2213  0.2604  0.3129
 9360SOL     OW39715   1.414   4.542   2.525  0.2027 -0.1040  0.2921
 9360SOL    HW139716   1.391   4.528   2.433 -0.2463 -1.5790  0.6331
 9360SOL    HW239717   1.358   4.480   2.570  0.1309  1.2131  2.0149
 9361SOL     OW39718   2.726   0.082   5.136 -0.3400  0.5973 -0.0330
 9361SOL    HW139719   2.727   0.010   5.199  2.5402  0.2217 -0.4995
 9361SOL    HW239720   2.819   0.100   5.121  0.3832 -0.7355  2.7562
 9362SOL     OW39721   2.067   1.642   4.580 -0.0129  0.6425 -0.1241
 9362SOL    HW139722   2.029   1.555   4.593 -2.2076  1.4147 -1.4431
 9362SOL    HW239723   2.013   1.671   4.506  0.3317  0.2826 -0.5246
 9363SOL     OW39724   3.675   2.926   4.246 -0.0523 -0.1753  0.4672
 9363SOL    HW139725   3.746   2.890   4.194  0.6396  0.6416  0.8561
 9363SOL    HW239726   3.599   2.898   4.194  1.0245 -2.5428  0.2166
 9364SOL     OW39727   2.798   3.837   5.778 -0.3722 -0.5668 -0.1089
 9364SOL    HW139728   2.757   3.780   5.714 -1.3184  0.0281 -0.0224
 9364SOL    HW239729   2.731   3.903   5.794  0.6640  0.5804 -0.4541
 9365SOL     OW39730   1.832   2.179   1.844  0.0307  0.2001 -0.2364
 9365SOL    HW139731   1.743   2.180   1.809 -0.9496  0.1876  2.2906
 9365SOL    HW239732   1.880   2.192   1.762 -0.1032  0.0860 -0.3327
 9366SOL     OW39733   4.239   4.582   5.635  0.7430 -0.4289  0.0470
 9366SOL    HW139734   4.282   4.663   5.609 -1.4657  0.1345 -1.8758
 9366SOL    HW239735   4.147   4.590   5.609  0.7145  0.8593  0.5484
 9367SOL     OW39736   3.141   1.692   8.317 -0.2458  0.0265  0.3955
 9367SOL    HW139737   3.134   1.604   8.280 -1.0231  0.2712 -0.0408
 9367SOL    HW239738   3.227   1.684   8.357 -0.5778 -2.2633  0.6667
 9368SOL     OW39739   0.444   2.300   4.065 -0.3747 -0.3519 -0.2613
 9368SOL    HW139740   0.508   2.359   4.106  2.2813 -1.8044 -2.2810
 9368SOL    HW239741   0.394   2.272   4.142 -1.1800 -0.2322 -0.7485
 9369SOL     OW39742   2.597   2.355   2.818 -0.1503  0.3635  0.0788
 9369SOL    HW139743   2.513   2.357   2.773  0.9161  3.4108 -1.7760
 9369SOL    HW239744   2.625   2.264   2.808  2.1042  1.0795 -0.1296
 9370SOL     OW39745   0.921   2.202  12.010  0.7949 -0.0776 -0.1567
 9370SOL    HW139746   0.830   2.226  11.990  0.9654  0.4539 -0.2936
 9370SOL    HW239747   0.934   2.265  12.081  0.3528 -0.2605  0.0890
 9371SOL     OW39748   4.265   3.833   7.143  0.1053  0.2022  0.0775
 9371SOL    HW139749   4.342   3.779   7.162 -0.1338 -0.3015 -0.3530
 9371SOL    HW239750   4.234   3.866   7.227 -4.1382  0.4614 -1.5512
 9372SOL     OW39751   0.022   4.690   6.556  0.1066  0.0061  0.4664
 9372SOL    HW139752   4.735   4.619   6.497  1.1755  0.5619 -0.6773
 9372SOL    HW239753   0.075   4.646   6.622 -0.9826 -1.1582  0.5556
 9373SOL     OW39754   1.735   1.389   2.172  0.0681 -0.4900 -0.0985
 9373SOL    HW139755   1.754   1.483   2.173  0.0932 -0.5012  0.5325
 9373SOL    HW239756   1.789   1.368   2.096 -1.3647  1.8980 -1.7731
 9374SOL     OW39757   2.051   3.638   1.223 -0.3152 -0.3404 -0.4203
 9374SOL    HW139758   2.067   3.717   1.171  0.9505  0.3685  1.0474
 9374SOL    HW239759   2.129   3.630   1.278 -0.7751 -0.8092  0.1745
 9375SOL     OW39760   2.263   0.870  16.601 -0.8073  1.0552 -0.2013
 9375SOL    HW139761   2.218   0.799  16.647 -1.0093  1.6072  0.4517
 9375SOL    HW239762   2.354   0.844  16.615 -1.3529  0.3406  2.0607
 9376SOL     OW39763   4.727   0.602   3.172  0.2533  0.5498 -0.2780
 9376SOL    HW139764   4.732   0.677   3.230  1.5067 -0.2558  0.6491
 9376SOL    HW239765   4.655   0.626   3.113 -0.8081 -2.9560 -0.4159
 9377SOL     OW39766   2.895   3.019   9.388 -0.2873 -0.0632 -0.0617
 9377SOL    HW139767   2.863   3.104   9.416 -2.1179 -1.0813  0.9679
 9377SOL    HW239768   2.950   3.052   9.318  0.2078  2.0484  1.3251
 9378SOL     OW39769   1.803   2.691   3.647 -0.2682  0.1953  0.1305
 9378SOL    HW139770   1.877   2.731   3.601  0.9498 -1.6272  0.5021
 9378SOL    HW239771   1.821   2.599   3.630 -1.8989 -0.2943  1.0574
 9379SOL     OW39772   3.482   3.396   4.217  0.0666 -0.2164  0.0155
 9379SOL    HW139773   3.397   3.432   4.242 -0.2419 -2.4269  2.1670
 9379SOL    HW239774   3.495   3.330   4.286 -1.2111 -1.8150 -1.2804
 9380SOL     OW39775   2.198   4.312   0.994  0.2769 -0.1991  0.3237
 9380SOL    HW139776   2.255   4.388   1.003 -0.9134  0.8162 -0.5578
 9380SOL    HW239777   2.115   4.350   0.965  2.0489  2.1934 -1.5500
 9381SOL     OW39778   3.065   4.251   7.090 -0.1913 -0.2333  0.0316
 9381SOL    HW139779   3.031   4.185   7.029  1.0961  1.0217 -2.0091
 9381SOL    HW239780   3.160   4.240   7.083 -0.3762 -1.6068 -0.3203
 9382SOL     OW39781   1.395   3.617  15.294  0.3186  0.4719  0.1785
 9382SOL    HW139782   1.360   3.606  15.205 -0.7987  1.7609  0.4636
 9382SOL    HW239783   1.321   3.665  15.330  1.0355  1.1799  0.6843
 9383SOL     OW39784   1.309   3.557   5.121  0.1382  0.2633 -0.0228
 9383SOL    HW139785   1.243   3.579   5.186  0.0971  0.4236 -0.1177
 9383SOL    HW239786   1.284   3.467   5.099  0.4902 -0.3825  2.2523
 9384SOL     OW39787   2.798   4.101   6.579 -0.3673 -0.3289 -0.7210
 9384SOL    HW139788   2.808   4.098   6.674 -0.9861  0.2532 -0.6371
 9384SOL    HW239789   2.752   4.181   6.556 -0.3591 -0.8207 -2.4203
 9385SOL     OW39790   3.979   4.408   6.876 -0.0431  0.4027 -0.4908
 9385SOL    HW139791   3.947   4.321   6.900 -0.7245  0.4492 -1.2266
 9385SOL    HW239792   3.985   4.447   6.963 -0.1438  0.5267 -0.5403
 9386SOL     OW39793   4.139   1.301   0.506  0.2048  0.4269  0.2968
 9386SOL    HW139794   4.144   1.377   0.563  1.9423  0.3954  0.1939
 9386SOL    HW239795   4.074   1.337   0.445 -0.0498  1.6868  1.3291
 9387SOL     OW39796   1.636   4.181   4.894 -0.4515  0.6713  0.5762
 9387SOL    HW139797   1.670   4.240   4.826 -1.9917  0.7939 -0.1005
 9387SOL    HW239798   1.550   4.217   4.913  0.2675  1.7535  1.7652
 9388SOL     OW39799   3.904   3.261  15.088  0.0170  0.0504  0.3259
 9388SOL    HW139800   3.844   3.217  15.148 -0.2168  0.8755  0.7065
 9388SOL    HW239801   3.979   3.285  15.143  0.7887 -0.0178 -0.6998
 9389SOL     OW39802   1.458   1.971   3.108  0.0760  0.4342 -0.6102
 9389SOL    HW139803   1.401   1.914   3.159 -0.1722  0.0997 -1.2706
 9389SOL    HW239804   1.469   1.921   3.028 -0.8692 -0.4577 -0.1791
 9390SOL     OW39805   4.178   1.709   6.007 -0.3487 -0.2450 -0.3108
 9390SOL    HW139806   4.154   1.629   5.959 -1.0766 -1.2583  1.7370
 9390SOL    HW239807   4.186   1.668   6.093  0.9158 -3.3392 -1.8855
 9391SOL     OW39808   0.076   1.233   9.664 -0.4156 -0.0135 -0.4814
 9391SOL    HW139809   0.092   1.160   9.723  2.3581 -0.4243 -1.8042
 9391SOL    HW239810   0.075   1.301   9.732  3.6497 -0.5985  0.1658
 9392SOL     OW39811   2.834   4.117   9.489  0.1112  0.0849  0.0452
 9392SOL    HW139812   2.882   4.184   9.537  1.2257  0.4471 -1.5489
 9392SOL    HW239813   2.865   4.125   9.398  1.0426 -0.2158  0.3411
 9393SOL     OW39814   0.210   4.687   7.683 -0.6905 -0.0439  0.2056
 9393SOL    HW139815   0.146   4.636   7.733 -1.1802 -0.8533 -1.2489
 9393SOL    HW239816   0.251   4.730   7.758 -0.0223 -0.3961  0.0532
 9394SOL     OW39817   1.054   3.097   6.806 -0.3487  0.1526  0.0785
 9394SOL    HW139818   1.086   3.034   6.742 -0.7946 -1.5804  1.5619
 9394SOL    HW239819   0.974   3.062   6.845 -0.8778 -2.0549 -3.0345
 9395SOL     OW39820   3.026   3.097   8.290 -0.1263 -0.6593 -0.5046
 9395SOL    HW139821   2.959   3.162   8.308 -0.1397 -1.3856  2.1073
 9395SOL    HW239822   2.973   3.023   8.320 -0.9295 -0.2213 -0.8449
 9396SOL     OW39823   2.834   2.449  12.705 -0.1279  0.2235 -0.0556
 9396SOL    HW139824   2.843   2.402  12.788 -0.2225 -1.4784 -1.0155
 9396SOL    HW239825   2.921   2.441  12.666  0.2982 -1.4117  1.2340
 9397SOL     OW39826   3.304   3.368  16.967 -0.3652 -0.1013  0.1154
 9397SOL    HW139827   3.222   3.417  16.972  0.2651  0.8375  1.0651
 9397SOL    HW239828   3.306   3.364  16.871  0.4055  2.2356  0.0407
 9398SOL     OW39829   3.524   0.227   7.835  0.0877 -0.0296  0.5666
 9398SOL    HW139830   3.580   0.154   7.862  3.9020  2.9820  0.8061
 9398SOL    HW239831   3.462   0.184   7.776  0.2392  2.1402 -1.2009
 9399SOL     OW39832   3.147   2.440   1.780  0.4564 -0.0213 -0.4250
 9399SOL    HW139833   3.190   2.423   1.864 -0.1253 -0.3605 -0.1968
 9399SOL    HW239834   3.181   2.527   1.757  1.0962 -0.4839 -1.2457
 9400SOL     OW39835   2.563   3.131  12.593  0.3745 -0.3915 -0.0130
 9400SOL    HW139836   2.501   3.200  12.570  1.3885  0.7013  0.5965
 9400SOL    HW239837   2.646   3.172  12.573  0.4900 -0.9530 -0.6613
 9401SOL     OW39838   2.934   2.000   7.059 -0.1500 -0.1977 -0.3276
 9401SOL    HW139839   3.003   1.951   7.104 -0.4028  0.2840  0.5925
 9401SOL    HW239840   2.863   1.938   7.080 -0.3910  0.0083 -0.5330
 9402SOL     OW39841   2.143   4.111   4.233  0.0194  0.5336  0.2460
 9402SOL    HW139842   2.222   4.092   4.183 -1.4979 -0.8421 -1.6019
 9402SOL    HW239843   2.098   4.167   4.170 -2.5053 -0.6510  1.0276
 9403SOL     OW39844   0.541   1.802  10.440  0.3144  0.8875  0.6090
 9403SOL    HW139845   0.518   1.738  10.373 -0.4522  2.6971 -0.8451
 9403SOL    HW239846   0.622   1.763  10.473 -1.2140 -2.8171 -0.0677
 9404SOL     OW39847   1.361   0.111   6.095 -0.4268  0.1913  0.4426
 9404SOL    HW139848   1.365   0.206   6.104 -1.7547  0.1836  1.0778
 9404SOL    HW239849   1.409   0.104   6.012 -0.7514 -1.1777  0.3599
 9405SOL     OW39850   3.617   1.269   9.581  0.1822 -0.4829 -0.1414
 9405SOL    HW139851   3.599   1.235   9.493  0.6080  2.2478 -1.2959
 9405SOL    HW239852   3.675   1.343   9.564  0.9315 -0.5282  2.1992
 9406SOL     OW39853   1.267   0.644   1.496 -0.0366 -0.9163  0.2513
 9406SOL    HW139854   1.229   0.720   1.452  1.1627  0.3606  1.4083
 9406SOL    HW239855   1.200   0.616   1.559  0.9845 -0.3008  1.6112
 9407SOL     OW39856   2.323   4.450  10.356 -0.1711  0.3179  0.0417
 9407SOL    HW139857   2.336   4.477  10.446 -2.2170  1.0101  0.1303
 9407SOL    HW239858   2.229   4.462  10.342 -0.1837  1.4388  1.1814
 9408SOL     OW39859   2.719   1.766  14.335 -0.1174  0.1279  0.2271
 9408SOL    HW139860   2.807   1.748  14.302  0.1361 -0.6507  1.2987
 9408SOL    HW239861   2.696   1.856  14.314  2.4665  0.5649 -0.6798
 9409SOL     OW39862   0.366   1.861   5.272 -0.1085 -0.1834  0.0958
 9409SOL    HW139863   0.326   1.900   5.194  2.2929  0.7012 -0.6936
 9409SOL    HW239864   0.293   1.825   5.323  0.2299 -0.7579  0.1764
 9410SOL     OW39865   4.668   2.838   8.279  0.0245 -0.0549 -0.3411
 9410SOL    HW139866   4.598   2.774   8.293  0.4346 -0.6345 -0.9143
 9410SOL    HW239867   4.641   2.876   8.195  1.2052  0.1020 -0.6512
 9411SOL     OW39868   1.284   3.607   1.927  0.4549 -0.5087 -0.5571
 9411SOL    HW139869   1.316   3.545   1.862  1.6377  0.3788 -0.8195
 9411SOL    HW239870   1.303   3.561   2.009 -0.0387 -1.6766 -1.0933
 9412SOL     OW39871   1.536   4.040  15.919  0.5001  0.1415 -0.6157
 9412SOL    HW139872   1.621   4.006  15.889  0.2429 -1.8389  0.9218
 9412SOL    HW239873   1.548   4.043  16.013 -0.5527 -3.2379 -0.3638
 9413SOL     OW39874   2.822   4.667   2.887 -0.1267  0.8771 -0.5062
 9413SOL    HW139875   2.759   4.737   2.871 -1.0552  0.4654  1.4087
 9413SOL    HW239876   2.895   4.706   2.935  0.9106 -1.3452 -0.2944
 9414SOL     OW39877   1.167   1.294  15.076  0.3416  0.2941 -0.5146
 9414SOL    HW139878   1.158   1.386  15.101 -0.0761 -0.1015  0.8122
 9414SOL    HW239879   1.201   1.264  15.161 -0.9179 -1.2182 -0.5422
 9415SOL     OW39880   3.120   1.261   1.964  0.2075  0.1551 -0.5886
 9415SOL    HW139881   3.114   1.309   2.047 -0.9486  0.5468 -0.8973
 9415SOL    HW239882   3.195   1.295   1.916  1.1437 -0.2801  0.5505
 9416SOL     OW39883   0.879   4.343  11.439  0.1288  0.1474  0.0821
 9416SOL    HW139884   0.789   4.347  11.407  1.0857  0.7307 -2.4947
 9416SOL    HW239885   0.859   4.299  11.521  0.7586 -0.4980 -0.1080
 9417SOL     OW39886   2.716   0.121  12.850  0.3683  0.3027 -0.7280
 9417SOL    HW139887   2.711   0.200  12.796 -0.6749  1.2753  0.8031
 9417SOL    HW239888   2.647   0.064  12.816 -0.8753  1.2428  0.2456
 9418SOL     OW39889   3.984   3.753  13.992 -0.1184 -0.1545  0.3214
 9418SOL    HW139890   4.022   3.675  14.033  0.0610 -0.5449 -0.5963
 9418SOL    HW239891   3.996   3.732  13.900  0.0135 -1.3821  0.6242
 9419SOL     OW39892   2.726   1.512   9.642 -0.5651  0.3246  0.1787
 9419SOL    HW139893   2.707   1.548   9.555 -2.8579 -3.2943 -0.8187
 9419SOL    HW239894   2.812   1.553   9.649 -0.7451  0.9676 -1.2944
 9420SOL     OW39895   1.970   1.037   7.648 -0.0838  0.1060  0.2888
 9420SOL    HW139896   2.030   0.999   7.713 -1.1795 -2.1639 -0.0118
 9420SOL    HW239897   1.903   0.969   7.653 -0.0601  0.2366  2.2473
 9421SOL     OW39898   2.174   1.867   5.409 -0.5066  0.3427  0.3273
 9421SOL    HW139899   2.249   1.915   5.376 -2.8507  2.2122 -2.2581
 9421SOL    HW239900   2.138   1.831   5.328  1.4209 -0.6731 -0.0811
 9422SOL     OW39901   4.644   1.425   7.065 -0.5417 -0.2880 -0.0771
 9422SOL    HW139902   4.610   1.393   6.981 -1.1427 -1.9408  0.8130
 9422SOL    HW239903   4.689   1.502   7.031  1.9930 -1.2381  1.1334
 9423SOL     OW39904   4.249   0.862  13.907  0.4640  0.0912  0.1881
 9423SOL    HW139905   4.225   0.845  13.999  2.3757  2.2647  1.0873
 9423SOL    HW239906   4.167   0.887  13.865 -0.6142 -1.4320  1.3751
 9424SOL     OW39907   4.021   4.164   3.545 -0.7518  0.1753 -0.3127
 9424SOL    HW139908   4.012   4.155   3.640 -0.6403 -0.3748 -0.3547
 9424SOL    HW239909   3.932   4.135   3.523 -0.2026 -0.6801 -1.3847
 9425SOL     OW39910   3.434   0.636   3.741 -0.0459  0.6707  0.3195
 9425SOL    HW139911   3.347   0.602   3.759 -1.2120  2.5253 -1.8257
 9425SOL    HW239912   3.413   0.729   3.751  0.0812  0.7712 -0.3493
 9426SOL     OW39913   4.264   0.359   9.239  0.7580 -0.2285 -0.0775
 9426SOL    HW139914   4.358   0.364   9.224  0.8338  0.0641  0.5274
 9426SOL    HW239915   4.262   0.419   9.313 -0.8702 -0.2853 -0.0600
 9427SOL     OW39916   0.798   4.309   5.589 -0.1810  0.5867 -0.2802
 9427SOL    HW139917   0.831   4.233   5.540  0.9767 -0.3845  2.0244
 9427SOL    HW239918   0.883   4.351   5.603  0.0991  0.5310 -1.7249
 9428SOL     OW39919   1.866   4.112   9.508  0.1637 -0.1254  0.3696
 9428SOL    HW139920   1.912   4.195   9.519  0.5008 -0.1492 -0.9392
 9428SOL    HW239921   1.899   4.064   9.584 -0.8694 -0.1852  0.7901
 9429SOL     OW39922   1.527   3.330   6.969  0.4036 -0.2194 -0.4059
 9429SOL    HW139923   1.450   3.294   6.923 -0.1873  0.8611 -0.2645
 9429SOL    HW239924   1.588   3.266   6.933  1.9167  0.8931  0.2075
 9430SOL     OW39925   3.861   3.222  16.568  0.3171  0.1877 -0.4818
 9430SOL    HW139926   3.863   3.127  16.562  1.5112  0.3064 -1.8453
 9430SOL    HW239927   3.829   3.244  16.481 -0.6272  2.9495  0.5532
 9431SOL     OW39928   3.978   1.239   7.222  0.7896 -0.3106 -0.0700
 9431SOL    HW139929   3.954   1.147   7.220 -2.4746  0.5444  0.1552
 9431SOL    HW239930   3.972   1.264   7.130  1.9129  1.5191  0.3456
 9432SOL     OW39931   2.279   1.713  13.078 -0.3617  0.1508 -0.8286
 9432SOL    HW139932   2.297   1.619  13.085  0.5635  0.4423  0.8772
 9432SOL    HW239933   2.352   1.743  13.025  1.8137 -5.0381 -0.7864
 9433SOL     OW39934   0.072   0.669   5.179  0.5627 -0.3043  0.0121
 9433SOL    HW139935   0.124   0.620   5.116  0.2314  0.2813 -0.7222
 9433SOL    HW239936   0.016   0.601   5.216  1.8406 -1.4720 -0.2242
 9434SOL     OW39937   1.168   0.109   7.912 -0.5967  0.2448 -0.1528
 9434SOL    HW139938   1.166   0.151   7.998 -3.0368 -1.4004  0.5833
 9434SOL    HW239939   1.110   0.035   7.930  0.3274 -0.6025 -0.6082
 9435SOL     OW39940   3.646   0.429   7.701  0.0082 -0.2271  0.0451
 9435SOL    HW139941   3.666   0.497   7.766 -0.3026 -0.6420  0.5759
 9435SOL    HW239942   3.611   0.353   7.747  2.5492 -0.0320  2.2678
 9436SOL     OW39943   4.289   2.210  11.820  0.5007  0.0530  0.2854
 9436SOL    HW139944   4.248   2.148  11.880 -2.5848  0.9219 -0.9276
 9436SOL    HW239945   4.213   2.238  11.769  2.2953  0.6474 -2.0890
 9437SOL     OW39946   0.361   1.294   5.867 -0.3962  0.6154  0.1854
 9437SOL    HW139947   0.447   1.330   5.888  0.1638 -1.0701  0.8021
 9437SOL    HW239948   0.349   1.204   5.900 -0.6482  0.6280  0.1248
 9438SOL     OW39949   3.904   1.741   8.428  0.3758  0.7807  0.5671
 9438SOL    HW139950   3.951   1.768   8.507 -0.5291  0.3211  1.2635
 9438SOL    HW239951   3.815   1.725   8.460  0.3066 -1.1958 -0.6190
 9439SOL     OW39952   0.231   0.861   1.710  0.0061  0.2410 -0.5250
 9439SOL    HW139953   0.208   0.849   1.617  2.0774 -0.1475 -0.9727
 9439SOL    HW239954   0.144   0.868   1.749 -0.9670 -1.2424 -2.4123
 9440SOL     OW39955   2.325   0.182  15.185 -0.2761 -0.2352  0.1228
 9440SOL    HW139956   2.248   0.231  15.155  0.6458 -0.0176 -1.9310
 9440SOL    HW239957   2.385   0.257  15.186 -1.2800  0.5442  2.0646
 9441SOL     OW39958   2.874   4.659   6.678 -0.0676 -0.3382 -0.1513
 9441SOL    HW139959   2.894   4.600   6.751  1.2727 -0.7272 -0.8288
 9441SOL    HW239960   2.927   4.625   6.606 -0.4854 -0.5232 -0.3705
 9442SOL     OW39961   1.120   4.325  17.155 -0.3339 -0.2506  0.0799
 9442SOL    HW139962   1.149   4.406  17.113 -1.3529  0.8834  1.6048
 9442SOL    HW239963   1.045   4.306  17.098 -0.4988  0.8959 -0.0812
 9443SOL     OW39964   3.959   4.358  14.952 -0.2180 -0.0978 -0.2489
 9443SOL    HW139965   3.885   4.312  14.911  0.2990 -1.9234  0.8803
 9443SOL    HW239966   3.983   4.300  15.024 -2.7896 -1.5210 -0.5168
 9444SOL     OW39967   4.461   4.660  13.740 -0.0653  0.2780  0.5942
 9444SOL    HW139968   4.443   4.569  13.763  1.6150  0.0677  1.1226
 9444SOL    HW239969   4.375   4.693  13.763  0.1195 -1.2305  3.4346
 9445SOL     OW39970   0.308   3.061   0.050 -0.1409 -0.3343  0.2902
 9445SOL    HW139971   0.390   3.029   0.011 -1.0702 -2.8994  0.4219
 9445SOL    HW239972   0.327   3.047   0.143  1.9565  2.7796  0.3178
 9446SOL     OW39973   4.009   4.367  17.251  0.0803 -0.1469  0.9249
 9446SOL    HW139974   3.913   4.357  17.254  0.1956 -0.7504  2.8746
 9446SOL    HW239975   4.028   4.409  17.335  0.0228 -4.4638  3.1508
 9447SOL     OW39976   4.146   2.924   7.933  0.0877 -0.0841 -0.4758
 9447SOL    HW139977   4.198   2.915   8.012  2.2262 -0.8570 -1.9961
 9447SOL    HW239978   4.196   2.981   7.875  0.1765  1.0394  0.6975
 9448SOL     OW39979   4.444   0.073   7.036 -0.3046  0.4932  0.0905
 9448SOL    HW139980   4.398   0.135   7.092 -1.6173  0.7934 -1.3267
 9448SOL    HW239981   4.410   4.729   7.073  1.0889 -0.4800 -0.7679
 9449SOL     OW39982   3.137   3.558  16.703  0.8931  0.7987  0.3620
 9449SOL    HW139983   3.121   3.553  16.797  1.3560  0.6951  0.4359
 9449SOL    HW239984   3.169   3.468  16.699  2.6910  1.4870 -0.6144
 9450SOL     OW39985   0.193   0.687   3.889  0.3315 -0.1868 -0.1112
 9450SOL    HW139986   0.267   0.747   3.892  0.1682 -0.0319  0.9654
 9450SOL    HW239987   0.232   0.602   3.872  0.4457 -0.1319 -0.1204
 9451SOL     OW39988   2.765   1.562  12.228  0.3235 -0.2419  0.3401
 9451SOL    HW139989   2.675   1.554  12.196  1.1922  0.1501 -2.2031
 9451SOL    HW239990   2.776   1.657  12.233 -1.9566 -0.0840  2.6698
 9452SOL     OW39991   1.746   4.663   6.797 -0.3525  0.2134  0.4445
 9452SOL    HW139992   1.814   4.718   6.757  0.3529 -0.4256  0.7657
 9452SOL    HW239993   1.687   4.726   6.839 -0.9976 -1.3608  1.9164
 9453SOL     OW39994   0.242   3.385   5.374 -0.7678 -0.3136  0.0062
 9453SOL    HW139995   0.219   3.469   5.414  0.6720  0.2950 -0.4523
 9453SOL    HW239996   0.244   3.410   5.282 -0.4679  2.3237  0.7276
 9454SOL     OW39997   1.196   1.481  12.742 -0.5932 -0.6624  0.0710
 9454SOL    HW139998   1.186   1.406  12.801  1.2631  0.1412  1.4043
 9454SOL    HW239999   1.133   1.539  12.786  0.2217  1.3340 -1.3984
 9455SOL     OW40000   2.451   0.776   6.013 -0.1472  0.5579 -0.0395
 9455SOL    HW140001   2.490   0.817   5.936 -1.6418  0.2044 -0.9857
 9455SOL    HW240002   2.365   0.815   6.027 -0.9631 -1.9105  1.8142
 9456SOL     OW40003   0.193   0.598   9.640  0.0243  0.6438 -0.1424
 9456SOL    HW140004   0.266   0.552   9.599 -0.2330  1.8355 -1.9365
 9456SOL    HW240005   0.161   0.652   9.568  3.5974  0.0687 -2.1936
 9457SOL     OW40006   1.387   4.177   3.777 -0.1060  0.2410  0.2715
 9457SOL    HW140007   1.380   4.170   3.873  2.8763  0.7897  0.5083
 9457SOL    HW240008   1.296   4.200   3.758  0.2004  0.5923 -0.7486
 9458SOL     OW40009   1.284   0.149   6.829 -0.1273 -0.1250 -0.5743
 9458SOL    HW140010   1.305   0.141   6.922 -2.1042 -0.7254 -0.1721
 9458SOL    HW240011   1.196   0.185   6.839 -0.2216 -0.9835  1.7537
 9459SOL     OW40012   1.448   1.045   0.174 -0.4581  0.4624  0.0488
 9459SOL    HW140013   1.522   1.104   0.158  1.2768 -1.3358  1.2472
 9459SOL    HW240014   1.379   1.102   0.144 -0.6328 -0.4583 -1.3005
 9460SOL     OW40015   3.065   4.301   9.563  0.4538 -0.7029 -0.0383
 9460SOL    HW140016   3.107   4.329   9.644 -0.7436  0.7873  0.0677
 9460SOL    HW240017   3.099   4.213   9.549  1.0314 -0.7112  1.4292
 9461SOL     OW40018   4.176   0.419  14.258 -0.4606 -0.2951  0.0149
 9461SOL    HW140019   4.151   0.480  14.189 -0.7134 -1.5720 -1.0396
 9461SOL    HW240020   4.163   0.469  14.338  0.0356  1.1134 -0.7827
 9462SOL     OW40021   4.408   1.172   2.575 -0.0132  0.8408  0.1297
 9462SOL    HW140022   4.393   1.078   2.583 -1.1014  0.8470 -1.7920
 9462SOL    HW240023   4.353   1.222   2.635 -1.1405  0.2540 -0.4177
 9463SOL     OW40024   4.470   2.150  15.935  0.3916  0.6780  0.2284
 9463SOL    HW140025   4.405   2.219  15.926  0.9238  1.0877 -0.4025
 9463SOL    HW240026   4.437   2.102  16.011 -0.8058 -0.9313 -1.2935
 9464SOL     OW40027   4.239   3.150   4.373  0.7632  0.1736  0.1621
 9464SOL    HW140028   4.298   3.081   4.342 -0.4362 -0.1295 -1.4910
 9464SOL    HW240029   4.287   3.227   4.344  0.3168  1.0230  1.7135
 9465SOL     OW40030   0.727   0.719   2.463 -0.0318 -0.2961 -0.4868
 9465SOL    HW140031   0.759   0.808   2.476  0.4072 -0.7047  1.1350
 9465SOL    HW240032   0.726   0.728   2.367  0.0617 -1.9132 -0.6380
 9466SOL     OW40033   2.637   0.745   2.953 -0.4883 -0.2443 -0.0999
 9466SOL    HW140034   2.679   0.784   2.876 -0.3110  0.9417  0.5971
 9466SOL    HW240035   2.593   0.828   2.971  2.0113  1.3090 -1.1621
 9467SOL     OW40036   0.385   4.318  14.431 -0.0500  0.3678  0.2896
 9467SOL    HW140037   0.375   4.227  14.403  0.4792  0.5290 -0.4179
 9467SOL    HW240038   0.339   4.370  14.365 -0.3200 -2.4973 -1.7650
 9468SOL     OW40039   3.636   2.113   4.130  0.3420 -0.0038 -0.3050
 9468SOL    HW140040   3.638   2.158   4.046  1.7374 -0.6060 -0.5946
 9468SOL    HW240041   3.633   2.190   4.187  3.1003 -0.4917  0.4789
 9469SOL     OW40042   4.020   3.350   7.575  0.2490  0.1769  0.2627
 9469SOL    HW140043   3.939   3.360   7.525  0.9545  0.1927 -0.8957
 9469SOL    HW240044   4.003   3.364   7.668 -0.7900  0.2002  0.0715
 9470SOL     OW40045   2.452   3.482   2.493  0.3801  0.5483  0.1862
 9470SOL    HW140046   2.381   3.501   2.555 -0.0923 -0.2104 -0.1385
 9470SOL    HW240047   2.463   3.569   2.454 -0.6344  0.0097 -1.2814
 9471SOL     OW40048   0.985   1.676   2.548  0.0734 -0.3721  0.2972
 9471SOL    HW140049   0.997   1.700   2.640 -2.8902  0.1150  0.5626
 9471SOL    HW240050   0.908   1.726   2.520 -1.4339 -1.0592  3.2116
 9472SOL     OW40051   0.825   2.914   7.630  0.3166 -0.4375  0.2631
 9472SOL    HW140052   0.830   2.836   7.685 -0.8869 -0.8684 -0.2472
 9472SOL    HW240053   0.888   2.896   7.561  1.2023 -0.0252  0.9690
 9473SOL     OW40054   3.789   0.466   2.561  0.0114  0.6761 -0.3028
 9473SOL    HW140055   3.809   0.493   2.650 -0.1921 -1.1122  0.2799
 9473SOL    HW240056   3.712   0.414   2.586  1.8069 -1.1062  1.5165
 9474SOL     OW40057   1.954   3.882   6.844 -0.0672 -0.1639 -0.0027
 9474SOL    HW140058   1.984   3.867   6.933  2.0638 -3.1206 -1.1900
 9474SOL    HW240059   1.899   3.959   6.832  0.5057  0.3852  0.9230
 9475SOL     OW40060   2.112   0.289   2.105  0.2388 -0.4210 -0.1280
 9475SOL    HW140061   2.108   0.200   2.140 -0.7740  0.4938  2.0277
 9475SOL    HW240062   2.189   0.320   2.152  0.4278 -0.5156 -0.3784
 9476SOL     OW40063   0.617   1.404   2.933  0.0397 -0.5337  0.1914
 9476SOL    HW140064   0.638   1.356   3.013 -0.2223 -1.8232 -0.5257
 9476SOL    HW240065   0.703   1.432   2.902  1.2911 -3.3206  1.1891
 9477SOL     OW40066   1.954   0.633  14.605  0.5037  0.3325 -0.4813
 9477SOL    HW140067   1.941   0.632  14.510 -0.4419  0.8176 -0.3530
 9477SOL    HW240068   1.973   0.727  14.616  1.0035  0.4488 -2.2464
 9478SOL     OW40069   2.048   4.479   7.981 -0.3128  0.0552  0.8436
 9478SOL    HW140070   2.077   4.388   7.974  0.7938  0.4948 -0.2593
 9478SOL    HW240071   2.131   4.516   8.010 -0.6651 -0.5079  2.5580
 9479SOL     OW40072   0.106   2.553   8.711 -0.0612  0.0248 -0.5319
 9479SOL    HW140073   0.191   2.515   8.688 -0.6904 -0.5343 -1.9222
 9479SOL    HW240074   0.087   2.628   8.656 -3.1000 -1.0718 -0.9431
 9480SOL     OW40075   1.232   2.430  10.956 -0.3195 -0.4320 -0.5031
 9480SOL    HW140076   1.274   2.363  10.901  1.6162 -0.6738  1.2370
 9480SOL    HW240077   1.278   2.414  11.039 -0.7023 -0.8381 -0.3672
 9481SOL     OW40078   3.868   3.924   0.106 -0.3386 -0.0293 -0.1351
 9481SOL    HW140079   3.893   3.942   0.196 -1.4268  0.4703  0.0711
 9481SOL    HW240080   3.781   3.891   0.128  0.8271 -3.7279 -1.1059
 9482SOL     OW40081   3.839   4.567   7.731  0.2705 -0.7144 -0.0935
 9482SOL    HW140082   3.917   4.528   7.767 -0.9624 -0.1744  3.1215
 9482SOL    HW240083   3.807   4.624   7.801  1.7707 -2.0356  1.6335
 9483SOL     OW40084   2.168   1.325   6.187  0.3278 -0.5178 -0.0525
 9483SOL    HW140085   2.078   1.357   6.179  0.9075  1.5326  1.5332
 9483SOL    HW240086   2.165   1.231   6.168  0.4277 -0.6304  0.4901
 9484SOL     OW40087   2.831   3.812   8.645 -0.0150 -0.1585 -0.0115
 9484SOL    HW140088   2.835   3.797   8.740 -3.6264 -0.6988  0.0572
 9484SOL    HW240089   2.767   3.747   8.617 -0.0813 -0.1794  0.1883
 9485SOL     OW40090   0.627   0.569   7.999 -0.1750 -0.0179  0.0466
 9485SOL    HW140091   0.659   0.653   8.032 -0.1338  0.7019 -1.8285
 9485SOL    HW240092   0.536   0.584   7.972 -0.2645 -1.2415 -0.3286
 9486SOL     OW40093   1.632   0.072  11.865 -0.1269  0.2439  0.4948
 9486SOL    HW140094   1.651   4.717  11.849  0.9301  0.2048  2.0296
 9486SOL    HW240095   1.561   0.063  11.928  0.1403 -0.6840  0.6706
 9487SOL     OW40096   2.910   4.160   3.390  0.1113  0.0636 -0.6897
 9487SOL    HW140097   2.911   4.065   3.399 -2.1866 -0.0142 -1.1469
 9487SOL    HW240098   2.836   4.168   3.330  0.6276  2.3789 -0.9983
 9488SOL     OW40099   4.057   3.970   8.249  0.0360 -0.4293  0.0289
 9488SOL    HW140100   4.151   3.957   8.238  0.4722  2.4771  0.3840
 9488SOL    HW240101   4.058   3.946   8.341  2.1331 -0.4059 -0.0053
 9489SOL     OW40102   3.416   2.932   3.141 -0.0209  0.4179 -0.5559
 9489SOL    HW140103   3.458   2.848   3.128 -1.1366 -0.0441 -1.2411
 9489SOL    HW240104   3.486   2.989   3.173 -0.9709  1.2313  0.0754
 9490SOL     OW40105   1.948   3.665   5.557 -0.4768  0.2317  0.0164
 9490SOL    HW140106   1.925   3.749   5.516  1.7527 -0.5228 -2.7319
 9490SOL    HW240107   1.917   3.607   5.487  0.0096  0.9417 -0.7850
 9491SOL     OW40108   3.600   2.786   7.507 -0.6929  0.0596 -0.2441
 9491SOL    HW140109   3.668   2.852   7.496  0.9532 -1.5975 -0.1415
 9491SOL    HW240110   3.543   2.842   7.559 -1.7710 -0.5954 -0.7173
 9492SOL     OW40111   1.697   0.159   7.508 -0.3486  0.5067  0.5762
 9492SOL    HW140112   1.690   0.148   7.603  1.5732  0.5119  0.7190
 9492SOL    HW240113   1.792   0.150   7.506 -0.3180  0.7717  0.7700
 9493SOL     OW40114   0.200   1.213   4.360 -0.3608  1.1634 -0.3210
 9493SOL    HW140115   0.269   1.197   4.425  3.2562  0.6710 -4.2827
 9493SOL    HW240116   0.193   1.133   4.309  1.8664  0.5481  0.3543
 9494SOL     OW40117   0.562   0.746   8.605 -0.3306 -0.1780 -0.3376
 9494SOL    HW140118   0.609   0.721   8.685  0.2403  0.7944 -0.3696
 9494SOL    HW240119   0.481   0.696   8.612 -1.2657  1.0261 -2.4701
 9495SOL     OW40120   4.384   1.335   9.450  0.4952  0.4340 -0.4064
 9495SOL    HW140121   4.356   1.421   9.482  1.3497  0.6746 -0.3233
 9495SOL    HW240122   4.302   1.290   9.471  0.6611 -0.0705 -0.8109
 9496SOL     OW40123   3.524   2.919   5.026 -0.2002 -0.5819  0.2315
 9496SOL    HW140124   3.492   2.937   5.114 -1.1675  0.0776 -0.2689
 9496SOL    HW240125   3.564   3.001   4.996  1.4619 -0.8675  1.5890
 9497SOL     OW40126   4.263   4.106   9.046 -0.3355  0.0067 -0.7328
 9497SOL    HW140127   4.181   4.105   9.096 -0.4137 -0.6638 -0.8816
 9497SOL    HW240128   4.290   4.018   9.072  0.4508  0.3525 -0.3958
 9498SOL     OW40129   0.521   1.849  13.851 -0.2211  0.2101  0.1659
 9498SOL    HW140130   0.569   1.767  13.862 -1.3704 -0.7234 -1.7804
 9498SOL    HW240131   0.577   1.911  13.899  0.8248 -0.9307  0.4356
 9499SOL     OW40132   0.191   4.012   0.606  0.2510 -0.3516  0.1340
 9499SOL    HW140133   0.212   4.048   0.692 -0.7253 -1.3859  0.8172
 9499SOL    HW240134   0.253   3.942   0.585 -0.4116 -0.9406  0.1424
 9500SOL     OW40135   0.503   2.219   2.923 -0.2891  0.1866  1.1390
 9500SOL    HW140136   0.425   2.264   2.957 -1.5056 -0.1833 -1.1599
 9500SOL    HW240137   0.548   2.290   2.876 -0.0432 -1.0302 -0.4642
 9501SOL     OW40138   0.963   1.628  12.294 -0.7358 -0.0555 -0.1796
 9501SOL    HW140139   1.037   1.675  12.257 -0.5188 -1.6803 -1.8058
 9501SOL    HW240140   0.960   1.681  12.373 -0.8270 -1.0115  0.4688
 9502SOL     OW40141   4.701   3.741   3.792 -0.1731 -0.1705 -0.2827
 9502SOL    HW140142   0.058   3.750   3.783  0.0062 -3.7134 -1.8930
 9502SOL    HW240143   4.666   3.829   3.774 -0.9415 -0.6451 -1.1312
 9503SOL     OW40144   3.006   0.956  10.509 -0.1854  0.3417 -0.1142
 9503SOL    HW140145   2.913   0.966  10.528 -0.3651  2.0452 -1.7981
 9503SOL    HW240146   3.022   0.993  10.422 -1.2587 -0.1594 -0.5116
 9504SOL     OW40147   0.126   2.009   7.677  0.2315 -0.4611  0.4800
 9504SOL    HW140148   0.106   2.057   7.597  1.1476 -0.0166  0.5317
 9504SOL    HW240149   0.045   2.031   7.723  0.2914  1.2392 -0.2523
 9505SOL     OW40150   2.574   4.407   9.956 -0.1762  0.3322 -0.0491
 9505SOL    HW140151   2.488   4.366   9.951 -1.1495  2.1056  2.5659
 9505SOL    HW240152   2.577   4.442  10.045  2.7833 -0.3623  0.1429
 9506SOL     OW40153   2.239   2.754  12.334  0.0613 -0.0584 -0.0613
 9506SOL    HW140154   2.158   2.727  12.291  0.2739 -1.6761  0.5443
 9506SOL    HW240155   2.243   2.848  12.319  0.6218  0.2085  1.6950
 9507SOL     OW40156   3.523   1.037   5.045 -0.3966  0.6143 -0.9660
 9507SOL    HW140157   3.542   1.121   5.088  1.2704 -1.5986  2.5822
 9507SOL    HW240158   3.429   1.049   5.029 -0.2371  0.7763 -1.7688
 9508SOL     OW40159   1.134   2.390   7.726  0.4891  0.2979 -0.2862
 9508SOL    HW140160   1.194   2.463   7.741  1.1562 -0.5078  1.0096
 9508SOL    HW240161   1.084   2.427   7.654 -1.4306 -0.5291  0.6099
 9509SOL     OW40162   2.508   2.699   7.690  0.5604 -0.3395 -0.6381
 9509SOL    HW140163   2.460   2.762   7.636 -0.6271  0.0797  0.9064
 9509SOL    HW240164   2.597   2.697   7.655  1.6156  0.2204  1.9911
 9510SOL     OW40165   1.702   3.863   7.110 -0.5706 -0.2224 -0.1914
 9510SOL    HW140166   1.791   3.832   7.092 -0.6126  0.9747 -2.4739
 9510SOL    HW240167   1.654   3.782   7.093 -0.2495 -0.9068  2.1745
 9511SOL     OW40168   2.294   1.318   2.238  0.1863  0.3253  0.2660
 9511SOL    HW140169   2.370   1.295   2.291  0.2906  0.3461  0.1264
 9511SOL    HW240170   2.302   1.240   2.183 -1.8777  0.0312  0.3700
 9512SOL     OW40171   1.376   2.615   5.266  0.3126 -0.3795  0.5484
 9512SOL    HW140172   1.442   2.622   5.196  0.1074  0.8081  0.4811
 9512SOL    HW240173   1.297   2.649   5.225  1.2859 -0.1679 -1.2028
 9513SOL     OW40174   1.851   0.575  11.688 -1.0387  0.9325 -0.1512
 9513SOL    HW140175   1.919   0.599  11.751  0.3126 -2.7743 -0.2266
 9513SOL    HW240176   1.802   0.658  11.689  1.8821  2.6262  1.3267
 9514SOL     OW40177   2.911   1.244  10.545  0.8921  0.8067  0.3979
 9514SOL    HW140178   2.837   1.192  10.513  1.1988  0.3033  0.5102
 9514SOL    HW240179   2.963   1.172  10.581  0.0676 -0.2155 -0.4678
 9515SOL     OW40180   1.276   0.112  11.727  0.7027 -0.0912  0.0075
 9515SOL    HW140181   1.259   0.112  11.821 -0.4662  0.8844 -0.2142
 9515SOL    HW240182   1.311   0.023  11.716  1.1374 -0.0439  0.9987
 9516SOL     OW40183   1.100   4.321  16.758  0.3966  0.5935  0.2017
 9516SOL    HW140184   1.013   4.320  16.797 -0.4118 -0.1392 -1.5924
 9516SOL    HW240185   1.155   4.380  16.809  2.2907  0.9141 -2.1770
 9517SOL     OW40186   2.379   4.310  17.601 -0.1311 -0.1760  0.1552
 9517SOL    HW140187   2.436   4.249  17.648 -1.6507  0.2304  2.5730
 9517SOL    HW240188   2.301   4.254  17.606  0.6221 -1.3106 -0.7711
 9518SOL     OW40189   0.545   4.359   3.668  1.0515  0.3209 -0.5583
 9518SOL    HW140190   0.484   4.288   3.687 -0.9399  2.7146  1.9911
 9518SOL    HW240191   0.504   4.431   3.716 -0.2857 -0.8513  0.0263
 9519SOL     OW40192   0.381   0.617   4.568 -0.7704  0.6159  0.3434
 9519SOL    HW140193   0.389   0.530   4.528 -1.7645  1.0418 -0.7622
 9519SOL    HW240194   0.287   0.627   4.578 -0.9814 -2.1149  1.2115
 9520SOL     OW40195   3.812   0.844  11.976 -1.1205  0.3757  0.4470
 9520SOL    HW140196   3.773   0.763  11.941 -1.1369 -0.8368  3.2999
 9520SOL    HW240197   3.728   0.882  12.003 -1.4133  0.8073 -1.0561
 9521SOL     OW40198   1.723   4.647   5.935 -0.1016 -0.1233  0.2194
 9521SOL    HW140199   1.671   4.671   5.858 -1.0372 -0.2206  0.8130
 9521SOL    HW240200   1.793   4.711   5.937  1.5219 -1.9098  0.4091
 9522SOL     OW40201   1.668   1.254   2.494 -0.0905 -0.2997 -0.2057
 9522SOL    HW140202   1.620   1.304   2.428 -0.4644 -2.2522 -1.4087
 9522SOL    HW240203   1.744   1.224   2.444  0.8058 -0.0057  0.9778
 9523SOL     OW40204   1.172   2.064   9.132 -0.3175  0.0508  0.0005
 9523SOL    HW140205   1.212   2.083   9.217 -0.8007 -3.3793  1.0115
 9523SOL    HW240206   1.111   2.138   9.128  0.9541  1.1763  1.7011
 9524SOL     OW40207   1.787   3.266  14.417  0.4055 -0.6176 -0.0830
 9524SOL    HW140208   1.807   3.356  14.441  0.1893 -0.1641 -1.5658
 9524SOL    HW240209   1.777   3.272  14.322 -1.8044 -1.2873  0.0944
 9525SOL     OW40210   1.205   3.281   1.392 -0.4255  0.3325 -0.3940
 9525SOL    HW140211   1.138   3.337   1.354 -1.5302 -1.8775 -1.7106
 9525SOL    HW240212   1.191   3.202   1.339 -1.2486  0.1991  0.0279
 9526SOL     OW40213   0.439   0.244  14.953 -0.3941  0.4560  0.3895
 9526SOL    HW140214   0.445   0.155  14.918  0.0882  0.1245  1.3212
 9526SOL    HW240215   0.489   0.230  15.033  0.4157 -0.0210 -0.1997
 9527SOL     OW40216   2.982   1.711  15.082 -0.2695  0.5279 -0.0679
 9527SOL    HW140217   2.930   1.674  15.011 -2.0596  1.3880  0.7996
 9527SOL    HW240218   2.943   1.798  15.085 -1.9870 -0.2814  1.0506
 9528SOL     OW40219   3.305   1.985   9.944  0.3247 -0.2474  0.3343
 9528SOL    HW140220   3.210   1.977   9.958  0.2616 -1.0404 -0.5200
 9528SOL    HW240221   3.348   1.957  10.025  1.0318  0.2529  0.1218
 9529SOL     OW40222   0.684   1.452  10.144 -0.1238  0.1749 -0.2338
 9529SOL    HW140223   0.629   1.410  10.078  1.7867 -0.4935 -1.4110
 9529SOL    HW240224   0.775   1.465  10.116  0.1443  0.2239  0.6701
 9530SOL     OW40225   4.430   2.767   5.845 -0.2401  0.3550 -0.2327
 9530SOL    HW140226   4.339   2.751   5.871  1.1113 -3.0510  2.2979
 9530SOL    HW240227   4.478   2.685   5.847 -2.0458 -0.6733  1.3579
 9531SOL     OW40228   1.640   4.662   2.353 -0.6494  0.3502  0.3701
 9531SOL    HW140229   1.632   4.600   2.280 -0.8988  2.0135 -1.0114
 9531SOL    HW240230   1.642   0.006   2.303  1.5548 -1.8159 -3.1165
 9532SOL     OW40231   2.015   3.532   8.220 -0.0195 -0.0727  0.0244
 9532SOL    HW140232   2.071   3.610   8.214  0.2379 -0.2268  0.4772
 9532SOL    HW240233   1.933   3.567   8.254  0.0820  1.5313 -1.3599
 9533SOL     OW40234   4.623   0.706   2.006 -0.1796 -0.2378 -0.3870
 9533SOL    HW140235   4.710   0.669   2.018  0.2658  0.3998 -1.6787
 9533SOL    HW240236   4.579   0.681   2.087 -0.0953  1.1710  0.1080
 9534SOL     OW40237   2.750   1.660  14.010  0.0434 -0.3070 -0.3517
 9534SOL    HW140238   2.660   1.655  14.043 -0.6395 -0.3645 -2.2512
 9534SOL    HW240239   2.803   1.666  14.090 -0.2327  0.7580 -0.2499
 9535SOL     OW40240   4.664   1.847   7.328  0.1779  0.1143 -0.1001
 9535SOL    HW140241   4.686   1.923   7.382 -0.8726  0.9573 -0.8552
 9535SOL    HW240242   0.013   1.833   7.290 -0.2970 -1.4301 -0.6073
 9536SOL     OW40243   2.629   4.664   9.137  0.7398 -0.4538 -0.3969
 9536SOL    HW140244   2.724   4.656   9.140  0.9222  1.2386 -1.4253
 9536SOL    HW240245   2.602   4.606   9.208  0.8259 -0.6254 -0.5057
 9537SOL     OW40246   0.537   2.471  16.950 -0.2084 -0.1781  0.3055
 9537SOL    HW140247   0.577   2.546  16.905 -0.9686 -0.9101 -1.5930
 9537SOL    HW240248   0.526   2.506  17.039  1.4988  1.8393 -0.2859
 9538SOL     OW40249   0.715   0.804   8.085 -0.2772  0.3664  0.4350
 9538SOL    HW140250   0.651   0.867   8.118 -1.9856 -0.8971 -0.4700
 9538SOL    HW240251   0.768   0.855   8.023 -1.0846 -0.3131 -0.8139
 9539SOL     OW40252   3.299   3.257   7.575 -0.5526 -0.1953 -0.1955
 9539SOL    HW140253   3.246   3.298   7.508 -0.1930 -2.4479 -1.8617
 9539SOL    HW240254   3.365   3.326   7.577 -1.2466  0.4493  0.4886
 9540SOL     OW40255   3.252   1.499   6.784 -0.3562 -0.1736  0.3754
 9540SOL    HW140256   3.258   1.439   6.710 -2.1963 -0.7259  0.6626
 9540SOL    HW240257   3.189   1.556   6.739  0.4315  0.5490  0.1919
 9541SOL     OW40258   3.634   0.089   8.173  0.1678  0.4840 -0.5718
 9541SOL    HW140259   3.565   0.155   8.171 -1.0047 -0.7589 -1.2067
 9541SOL    HW240260   3.579   0.011   8.163  0.5218  0.2942 -1.0696
 9542SOL     OW40261   0.874   1.056   9.218 -0.8299 -0.3229  0.8761
 9542SOL    HW140262   0.838   1.085   9.302  1.1094  2.0299  0.8905
 9542SOL    HW240263   0.825   1.115   9.161 -0.2736 -1.9407 -1.2901
 9543SOL     OW40264   3.816   2.409  11.909  0.0765 -0.1919 -0.1522
 9543SOL    HW140265   3.868   2.487  11.892  0.2985 -0.2828  0.1207
 9543SOL    HW240266   3.743   2.434  11.966  0.3440 -0.3788  0.2729
 9544SOL     OW40267   2.740   1.563   3.537  0.2122 -0.3047 -0.1118
 9544SOL    HW140268   2.803   1.492   3.524 -0.2375 -1.0288  1.7935
 9544SOL    HW240269   2.735   1.570   3.632 -0.0862  2.5372 -0.3190
 9545SOL     OW40270   0.065   4.617   1.631 -0.0082  0.1585  0.4244
 9545SOL    HW140271   0.021   4.560   1.693  0.8932  0.8266  1.6893
 9545SOL    HW240272   0.033   4.585   1.547 -1.8503 -0.6123  1.4378
 9546SOL     OW40273   3.801   3.103   3.755 -0.0727  0.3437  0.0828
 9546SOL    HW140274   3.850   3.033   3.712 -1.0104 -0.0779 -0.2910
 9546SOL    HW240275   3.853   3.174   3.791 -0.2346 -0.1757  1.3833
 9547SOL     OW40276   3.360   2.937   6.889 -0.3622  0.3170  0.3834
 9547SOL    HW140277   3.349   2.867   6.825 -0.3648 -0.6568  1.4542
 9547SOL    HW240278   3.455   2.934   6.898 -0.4816 -1.1833  1.0898
 9548SOL     OW40279   0.499   2.209   0.611  0.1367 -0.5740  0.0234
 9548SOL    HW140280   0.435   2.250   0.670  1.0230 -0.8965  1.2156
 9548SOL    HW240281   0.494   2.115   0.625 -1.1190 -0.5721 -0.3885
 9549SOL     OW40282   4.581   4.450   9.161  0.1746 -0.2054  0.1085
 9549SOL    HW140283   4.503   4.417   9.115 -1.3745  0.7610  2.0657
 9549SOL    HW240284   4.574   4.400   9.242 -0.0179  1.7519  1.3008
 9550SOL     OW40285   2.651   2.238  13.329  0.0373  0.0420  0.2221
 9550SOL    HW140286   2.611   2.229  13.415  0.5974 -0.6068  0.4063
 9550SOL    HW240287   2.617   2.325  13.308 -0.9968 -0.2360  0.7083
 9551SOL     OW40288   4.270   0.958   8.731  0.5381 -0.1621  0.4026
 9551SOL    HW140289   4.287   0.961   8.825 -1.4806  0.6409  0.7405
 9551SOL    HW240290   4.196   0.897   8.730  0.9529 -0.7017  2.6450
 9552SOL     OW40291   1.908   1.420   6.180 -0.8506  0.2260 -0.0568
 9552SOL    HW140292   1.891   1.512   6.203  1.4639  0.2345  1.7033
 9552SOL    HW240293   1.836   1.375   6.223  1.3945 -2.8821  0.4975
 9553SOL     OW40294   1.082   0.278   8.131  0.2242  0.0191 -0.1850
 9553SOL    HW140295   1.032   0.308   8.207 -2.4835 -1.3900 -1.4422
 9553SOL    HW240296   1.025   0.316   8.065  1.8974 -0.0483 -1.6668
 9554SOL     OW40297   4.610   1.994  17.693  0.1320  0.1819  0.2374
 9554SOL    HW140298   4.545   1.996  17.624  1.0291  3.1511 -0.5232
 9554SOL    HW240299   4.600   2.086  17.720  2.2135  0.9842 -1.7176
 9555SOL     OW40300   4.306   3.281   3.615 -0.2076  0.7732 -0.4416
 9555SOL    HW140301   4.235   3.235   3.570 -1.2258  2.0786 -0.1744
 9555SOL    HW240302   4.277   3.265   3.705 -1.7359  1.9278 -0.7265
 9556SOL     OW40303   3.047   3.807  16.668  0.5400  0.8164  0.1847
 9556SOL    HW140304   3.090   3.727  16.701  1.1988  1.6196  1.2982
 9556SOL    HW240305   3.037   3.858  16.748  0.7123  1.2940 -0.0981
 9557SOL     OW40306   4.125   3.894   0.486 -0.4593 -0.2403  0.2286
 9557SOL    HW140307   4.119   3.818   0.543  1.4674 -0.8647 -0.4182
 9557SOL    HW240308   4.033   3.906   0.461 -0.5459 -0.8758  0.2367
 9558SOL     OW40309   1.798   3.248   2.054  0.4314 -0.6185 -0.2165
 9558SOL    HW140310   1.785   3.278   1.964  1.3229  0.8162  0.1301
 9558SOL    HW240311   1.705   3.243   2.077 -0.4563  1.4886 -3.4095
 9559SOL     OW40312   0.216   3.707  14.893 -0.2806  0.6115 -0.2269
 9559SOL    HW140313   0.276   3.773  14.929 -1.3434 -0.7529  4.0249
 9559SOL    HW240314   0.165   3.686  14.971 -0.2085 -2.5579 -1.0350
 9560SOL     OW40315   2.291   1.769   4.648 -0.1437  0.5914 -0.7265
 9560SOL    HW140316   2.214   1.718   4.625  0.0040  0.1810 -0.3108
 9560SOL    HW240317   2.303   1.835   4.580 -1.5184  0.4528 -1.0984
 9561SOL     OW40318   3.529   1.638   5.260  0.3279 -0.4442  0.1889
 9561SOL    HW140319   3.541   1.731   5.240 -3.2977  0.1919  0.9714
 9561SOL    HW240320   3.504   1.641   5.352  0.1404  0.0628  0.1211
 9562SOL     OW40321   2.262   2.051   1.258  0.4826  0.1092 -0.3836
 9562SOL    HW140322   2.327   2.056   1.328  2.0367  0.0435 -1.8306
 9562SOL    HW240323   2.312   2.029   1.179  0.3852 -1.4965  0.0056
 9563SOL     OW40324   1.218   0.151   7.119 -0.3660  0.0089 -0.6167
 9563SOL    HW140325   1.211   0.246   7.104  0.3997  0.1116 -0.3323
 9563SOL    HW240326   1.296   0.161   7.174  0.9400  1.4192 -2.6935
 9564SOL     OW40327   1.101   0.853   2.562 -0.1812  0.1213  0.1067
 9564SOL    HW140328   1.092   0.883   2.471  0.9300 -0.9888 -0.3745
 9564SOL    HW240329   1.081   0.938   2.602 -0.3497  0.5252 -0.8220
 9565SOL     OW40330   2.155   3.847  12.085 -0.5411  0.0617  0.1662
 9565SOL    HW140331   2.181   3.823  12.174  1.4490  0.5217 -0.2696
 9565SOL    HW240332   2.187   3.765  12.047 -0.7241  0.3511 -0.6118
 9566SOL     OW40333   4.509   3.419   7.201  0.1031 -0.2275  0.1268
 9566SOL    HW140334   4.429   3.367   7.195  0.4093 -0.4450 -2.1587
 9566SOL    HW240335   4.553   3.378   7.275  2.9238 -0.7249 -1.8356
 9567SOL     OW40336   4.638   3.442   1.373  0.2783 -0.1384 -0.4912
 9567SOL    HW140337   4.648   3.536   1.388 -0.4190 -0.4985  2.3393
 9567SOL    HW240338   4.542   3.445   1.382  0.3500 -1.0740  0.5636
 9568SOL     OW40339   0.874   3.290  14.541  0.0401  0.4408  0.2239
 9568SOL    HW140340   0.833   3.232  14.605  0.8080 -0.7216 -0.3359
 9568SOL    HW240341   0.890   3.223  14.474  3.5517  1.0084  0.4819
 9569SOL     OW40342   2.707   1.682  13.730  0.3327  0.0396 -0.0124
 9569SOL    HW140343   2.701   1.589  13.708 -2.2465  0.4416 -1.0095
 9569SOL    HW240344   2.731   1.675  13.823 -0.2750  0.1805  0.1552
   4.73799   4.73799  17.75008
